  64  64   0   0
  0.2197554E+02  0.1120400E-08  0.1120400E-08  0.1120400E-08  0.5000000E-15
  1.000000000000000E-004
  CAR 
 unknown system                          
     10.42396671    -22.81438084  301     -0.51698936      1.00000000
    -22.814  0.0000E+00  0.0000E+00
    -22.704  0.0000E+00  0.0000E+00
    -22.593  0.0000E+00  0.0000E+00
    -22.482  0.0000E+00  0.0000E+00
    -22.371  0.0000E+00  0.0000E+00
    -22.260  0.0000E+00  0.0000E+00
    -22.150  0.0000E+00  0.0000E+00
    -22.039  0.0000E+00  0.0000E+00
    -21.928  0.0000E+00  0.0000E+00
    -21.817  0.0000E+00  0.0000E+00
    -21.706  0.0000E+00  0.0000E+00
    -21.596  0.0000E+00  0.0000E+00
    -21.485  0.0000E+00  0.0000E+00
    -21.374  0.8593E-05  0.9520E-06
    -21.263  0.1488E+04  0.1648E+03
    -21.152  0.2451E+03  0.1920E+03
    -21.042  0.0000E+00  0.1920E+03
    -20.931  0.0000E+00  0.1920E+03
    -20.820  0.0000E+00  0.1920E+03
    -20.709  0.0000E+00  0.1920E+03
    -20.598  0.0000E+00  0.1920E+03
    -20.488  0.0000E+00  0.1920E+03
    -20.377  0.0000E+00  0.1920E+03
    -20.266  0.0000E+00  0.1920E+03
    -20.155  0.0000E+00  0.1920E+03
    -20.045  0.0000E+00  0.1920E+03
    -19.934  0.0000E+00  0.1920E+03
    -19.823  0.0000E+00  0.1920E+03
    -19.712  0.0000E+00  0.1920E+03
    -19.601  0.0000E+00  0.1920E+03
    -19.491  0.0000E+00  0.1920E+03
    -19.380  0.0000E+00  0.1920E+03
    -19.269  0.0000E+00  0.1920E+03
    -19.158  0.0000E+00  0.1920E+03
    -19.047  0.0000E+00  0.1920E+03
    -18.937  0.0000E+00  0.1920E+03
    -18.826  0.0000E+00  0.1920E+03
    -18.715  0.0000E+00  0.1920E+03
    -18.604  0.0000E+00  0.1920E+03
    -18.493  0.0000E+00  0.1920E+03
    -18.383  0.0000E+00  0.1920E+03
    -18.272  0.0000E+00  0.1920E+03
    -18.161  0.0000E+00  0.1920E+03
    -18.050  0.0000E+00  0.1920E+03
    -17.939  0.0000E+00  0.1920E+03
    -17.829  0.0000E+00  0.1920E+03
    -17.718  0.0000E+00  0.1920E+03
    -17.607  0.0000E+00  0.1920E+03
    -17.496  0.0000E+00  0.1920E+03
    -17.385  0.0000E+00  0.1920E+03
    -17.275  0.0000E+00  0.1920E+03
    -17.164  0.0000E+00  0.1920E+03
    -17.053  0.0000E+00  0.1920E+03
    -16.942  0.0000E+00  0.1920E+03
    -16.831  0.0000E+00  0.1920E+03
    -16.721  0.0000E+00  0.1920E+03
    -16.610  0.0000E+00  0.1920E+03
    -16.499  0.0000E+00  0.1920E+03
    -16.388  0.0000E+00  0.1920E+03
    -16.278  0.0000E+00  0.1920E+03
    -16.167  0.0000E+00  0.1920E+03
    -16.056  0.0000E+00  0.1920E+03
    -15.945  0.0000E+00  0.1920E+03
    -15.834  0.0000E+00  0.1920E+03
    -15.724  0.0000E+00  0.1920E+03
    -15.613  0.0000E+00  0.1920E+03
    -15.502  0.0000E+00  0.1920E+03
    -15.391  0.0000E+00  0.1920E+03
    -15.280  0.0000E+00  0.1920E+03
    -15.170  0.0000E+00  0.1920E+03
    -15.059  0.0000E+00  0.1920E+03
    -14.948  0.0000E+00  0.1920E+03
    -14.837  0.0000E+00  0.1920E+03
    -14.726  0.0000E+00  0.1920E+03
    -14.616  0.0000E+00  0.1920E+03
    -14.505  0.0000E+00  0.1920E+03
    -14.394  0.0000E+00  0.1920E+03
    -14.283  0.0000E+00  0.1920E+03
    -14.172  0.0000E+00  0.1920E+03
    -14.062  0.0000E+00  0.1920E+03
    -13.951  0.0000E+00  0.1920E+03
    -13.840  0.0000E+00  0.1920E+03
    -13.729  0.0000E+00  0.1920E+03
    -13.618  0.0000E+00  0.1920E+03
    -13.508  0.0000E+00  0.1920E+03
    -13.397  0.6647E-02  0.1920E+03
    -13.286  0.1092E+02  0.1932E+03
    -13.175  0.4322E+02  0.1980E+03
    -13.064  0.1015E+03  0.2092E+03
    -12.954  0.2742E+03  0.2396E+03
    -12.843  0.1478E+03  0.2560E+03
    -12.732  0.0000E+00  0.2560E+03
    -12.621  0.0000E+00  0.2560E+03
    -12.510  0.0000E+00  0.2560E+03
    -12.400  0.0000E+00  0.2560E+03
    -12.289  0.0000E+00  0.2560E+03
    -12.178  0.0000E+00  0.2560E+03
    -12.067  0.0000E+00  0.2560E+03
    -11.957  0.0000E+00  0.2560E+03
    -11.846  0.0000E+00  0.2560E+03
    -11.735  0.0000E+00  0.2560E+03
    -11.624  0.0000E+00  0.2560E+03
    -11.513  0.0000E+00  0.2560E+03
    -11.403  0.0000E+00  0.2560E+03
    -11.292  0.0000E+00  0.2560E+03
    -11.181  0.0000E+00  0.2560E+03
    -11.070  0.0000E+00  0.2560E+03
    -10.959  0.0000E+00  0.2560E+03
    -10.849  0.0000E+00  0.2560E+03
    -10.738  0.0000E+00  0.2560E+03
    -10.627  0.0000E+00  0.2560E+03
    -10.516  0.0000E+00  0.2560E+03
    -10.405  0.0000E+00  0.2560E+03
    -10.295  0.0000E+00  0.2560E+03
    -10.184  0.0000E+00  0.2560E+03
    -10.073  0.0000E+00  0.2560E+03
     -9.962  0.0000E+00  0.2560E+03
     -9.851  0.0000E+00  0.2560E+03
     -9.741  0.0000E+00  0.2560E+03
     -9.630  0.0000E+00  0.2560E+03
     -9.519  0.0000E+00  0.2560E+03
     -9.408  0.0000E+00  0.2560E+03
     -9.297  0.0000E+00  0.2560E+03
     -9.187  0.0000E+00  0.2560E+03
     -9.076  0.0000E+00  0.2560E+03
     -8.965  0.0000E+00  0.2560E+03
     -8.854  0.0000E+00  0.2560E+03
     -8.743  0.0000E+00  0.2560E+03
     -8.633  0.0000E+00  0.2560E+03
     -8.522  0.0000E+00  0.2560E+03
     -8.411  0.0000E+00  0.2560E+03
     -8.300  0.0000E+00  0.2560E+03
     -8.190  0.0000E+00  0.2560E+03
     -8.079  0.0000E+00  0.2560E+03
     -7.968  0.0000E+00  0.2560E+03
     -7.857  0.0000E+00  0.2560E+03
     -7.746  0.0000E+00  0.2560E+03
     -7.636  0.0000E+00  0.2560E+03
     -7.525  0.0000E+00  0.2560E+03
     -7.414  0.0000E+00  0.2560E+03
     -7.303  0.0000E+00  0.2560E+03
     -7.192  0.0000E+00  0.2560E+03
     -7.082  0.0000E+00  0.2560E+03
     -6.971  0.0000E+00  0.2560E+03
     -6.860  0.0000E+00  0.2560E+03
     -6.749  0.0000E+00  0.2560E+03
     -6.638  0.0000E+00  0.2560E+03
     -6.528  0.0000E+00  0.2560E+03
     -6.417  0.0000E+00  0.2560E+03
     -6.306  0.0000E+00  0.2560E+03
     -6.195  0.0000E+00  0.2560E+03
     -6.084  0.0000E+00  0.2560E+03
     -5.974  0.0000E+00  0.2560E+03
     -5.863  0.0000E+00  0.2560E+03
     -5.752  0.0000E+00  0.2560E+03
     -5.641  0.0000E+00  0.2560E+03
     -5.530  0.0000E+00  0.2560E+03
     -5.420  0.0000E+00  0.2560E+03
     -5.309  0.0000E+00  0.2560E+03
     -5.198  0.0000E+00  0.2560E+03
     -5.087  0.0000E+00  0.2560E+03
     -4.976  0.0000E+00  0.2560E+03
     -4.866  0.0000E+00  0.2560E+03
     -4.755  0.0000E+00  0.2560E+03
     -4.644  0.0000E+00  0.2560E+03
     -4.533  0.0000E+00  0.2560E+03
     -4.422  0.0000E+00  0.2560E+03
     -4.312  0.0000E+00  0.2560E+03
     -4.201  0.0000E+00  0.2560E+03
     -4.090  0.0000E+00  0.2560E+03
     -3.979  0.0000E+00  0.2560E+03
     -3.869  0.0000E+00  0.2560E+03
     -3.758  0.0000E+00  0.2560E+03
     -3.647  0.0000E+00  0.2560E+03
     -3.536  0.0000E+00  0.2560E+03
     -3.425  0.0000E+00  0.2560E+03
     -3.315  0.0000E+00  0.2560E+03
     -3.204  0.0000E+00  0.2560E+03
     -3.093  0.0000E+00  0.2560E+03
     -2.982  0.0000E+00  0.2560E+03
     -2.871  0.0000E+00  0.2560E+03
     -2.761  0.8147E-04  0.2560E+03
     -2.650  0.9024E+01  0.2570E+03
     -2.539  0.3858E+00  0.2570E+03
     -2.428  0.6392E+02  0.2641E+03
     -2.317  0.9252E+02  0.2744E+03
     -2.207  0.1729E+03  0.2935E+03
     -2.096  0.9667E+02  0.3042E+03
     -1.985  0.2782E+02  0.3073E+03
     -1.874  0.5426E+02  0.3133E+03
     -1.763  0.1119E+03  0.3257E+03
     -1.653  0.1647E+00  0.3258E+03
     -1.542  0.1565E+00  0.3258E+03
     -1.431  0.2040E+03  0.3484E+03
     -1.320  0.8068E+02  0.3573E+03
     -1.209  0.8422E+02  0.3666E+03
     -1.099  0.2866E+03  0.3984E+03
     -0.988  0.1188E+03  0.4116E+03
     -0.877  0.2268E+03  0.4367E+03
     -0.766  0.5700E+02  0.4430E+03
     -0.655  0.4339E+02  0.4478E+03
     -0.545  0.1699E+01  0.4480E+03
     -0.434  0.0000E+00  0.4480E+03
     -0.323  0.0000E+00  0.4480E+03
     -0.212  0.0000E+00  0.4480E+03
     -0.102  0.0000E+00  0.4480E+03
      0.009  0.0000E+00  0.4480E+03
      0.120  0.0000E+00  0.4480E+03
      0.231  0.0000E+00  0.4480E+03
      0.342  0.0000E+00  0.4480E+03
      0.452  0.0000E+00  0.4480E+03
      0.563  0.0000E+00  0.4480E+03
      0.674  0.0000E+00  0.4480E+03
      0.785  0.0000E+00  0.4480E+03
      0.896  0.0000E+00  0.4480E+03
      1.006  0.0000E+00  0.4480E+03
      1.117  0.0000E+00  0.4480E+03
      1.228  0.0000E+00  0.4480E+03
      1.339  0.0000E+00  0.4480E+03
      1.450  0.0000E+00  0.4480E+03
      1.560  0.0000E+00  0.4480E+03
      1.671  0.0000E+00  0.4480E+03
      1.782  0.0000E+00  0.4480E+03
      1.893  0.0000E+00  0.4480E+03
      2.004  0.0000E+00  0.4480E+03
      2.114  0.0000E+00  0.4480E+03
      2.225  0.0000E+00  0.4480E+03
      2.336  0.0000E+00  0.4480E+03
      2.447  0.0000E+00  0.4480E+03
      2.558  0.0000E+00  0.4480E+03
      2.668  0.0000E+00  0.4480E+03
      2.779  0.0000E+00  0.4480E+03
      2.890  0.0000E+00  0.4480E+03
      3.001  0.0000E+00  0.4480E+03
      3.112  0.0000E+00  0.4480E+03
      3.222  0.0000E+00  0.4480E+03
      3.333  0.0000E+00  0.4480E+03
      3.444  0.0000E+00  0.4480E+03
      3.555  0.0000E+00  0.4480E+03
      3.666  0.0000E+00  0.4480E+03
      3.776  0.0000E+00  0.4480E+03
      3.887  0.0000E+00  0.4480E+03
      3.998  0.0000E+00  0.4480E+03
      4.109  0.0000E+00  0.4480E+03
      4.219  0.0000E+00  0.4480E+03
      4.330  0.5378E+00  0.4481E+03
      4.441  0.1719E+01  0.4482E+03
      4.552  0.0000E+00  0.4482E+03
      4.663  0.0000E+00  0.4482E+03
      4.773  0.0000E+00  0.4482E+03
      4.884  0.0000E+00  0.4482E+03
      4.995  0.3597E+00  0.4483E+03
      5.106  0.1318E+02  0.4497E+03
      5.217  0.0000E+00  0.4498E+03
      5.327  0.0000E+00  0.4498E+03
      5.438  0.1119E-10  0.4498E+03
      5.549  0.2028E+02  0.4520E+03
      5.660  0.6793E+01  0.4528E+03
      5.771  0.1538E-03  0.4528E+03
      5.881  0.1805E+02  0.4547E+03
      5.992  0.6983E-03  0.4548E+03
      6.103  0.0000E+00  0.4548E+03
      6.214  0.0000E+00  0.4548E+03
      6.325  0.1374E-01  0.4548E+03
      6.435  0.1584E+02  0.4565E+03
      6.546  0.6714E+01  0.4573E+03
      6.657  0.4852E+02  0.4626E+03
      6.768  0.5978E+02  0.4692E+03
      6.879  0.6059E+02  0.4760E+03
      6.989  0.1255E+02  0.4774E+03
      7.100  0.1332E+01  0.4775E+03
      7.211  0.4144E+01  0.4780E+03
      7.322  0.2678E+01  0.4783E+03
      7.433  0.8105E+02  0.4872E+03
      7.543  0.1653E+03  0.5055E+03
      7.654  0.1086E+02  0.5068E+03
      7.765  0.2707E+02  0.5097E+03
      7.876  0.9882E-03  0.5098E+03
      7.986  0.5415E+02  0.5157E+03
      8.097  0.3325E-05  0.5158E+03
      8.208  0.1351E+02  0.5172E+03
      8.319  0.9289E+02  0.5275E+03
      8.430  0.1904E+01  0.5278E+03
      8.540  0.4151E+02  0.5323E+03
      8.651  0.6229E+02  0.5392E+03
      8.762  0.1253E-14  0.5392E+03
      8.873  0.7781E+01  0.5401E+03
      8.984  0.3509E+02  0.5440E+03
      9.094  0.0000E+00  0.5440E+03
      9.205  0.0000E+00  0.5440E+03
      9.316  0.0000E+00  0.5440E+03
      9.427  0.0000E+00  0.5440E+03
      9.538  0.0000E+00  0.5440E+03
      9.648  0.0000E+00  0.5440E+03
      9.759  0.0000E+00  0.5440E+03
      9.870  0.0000E+00  0.5440E+03
      9.981  0.0000E+00  0.5440E+03
     10.092  0.0000E+00  0.5440E+03
     10.202  0.0000E+00  0.5440E+03
     10.313  0.0000E+00  0.5440E+03
     10.424  0.0000E+00  0.5440E+03
