       N       E                     dE             d eps       ncg     rms          rms(c)
DAV:   1     0.458557808598E+04    0.45856E+04   -0.16959E+05  3424   0.132E+03
DAV:   2     0.486200718158E+03   -0.40994E+04   -0.39264E+04  3560   0.393E+02
DAV:   3    -0.189977990744E+03   -0.67618E+03   -0.67001E+03  3856   0.175E+02
DAV:   4    -0.227423215380E+03   -0.37445E+02   -0.37205E+02  3800   0.409E+01
DAV:   5    -0.228970018952E+03   -0.15468E+01   -0.15442E+01  4048   0.837E+00    0.106E+01
DAV:   6    -0.224153142702E+03    0.48169E+01   -0.10108E+01  4024   0.557E+00    0.779E+00
DAV:   7    -0.223777028589E+03    0.37611E+00   -0.23751E+00  4232   0.256E+00    0.525E+00
DAV:   8    -0.223903293211E+03   -0.12626E+00   -0.24569E-01  3584   0.124E+00    0.123E+00
DAV:   9    -0.223897034834E+03    0.62584E-02   -0.15401E-02  4352   0.293E-01    0.463E-01
DAV:  10    -0.223901342611E+03   -0.43078E-02   -0.13828E-02  3560   0.197E-01    0.130E-01
DAV:  11    -0.223901028077E+03    0.31453E-03   -0.73651E-04  3928   0.540E-02    0.592E-02
DAV:  12    -0.223900993535E+03    0.34542E-04   -0.13954E-04  4144   0.180E-02    0.141E-02
DAV:  13    -0.223901001195E+03   -0.76599E-05   -0.10294E-05  3584   0.618E-03    0.577E-03
DAV:  14    -0.223901000139E+03    0.10557E-05   -0.17651E-06  3920   0.275E-03    0.141E-02
DAV:  15    -0.223901001573E+03   -0.14336E-05   -0.25423E-06  3536   0.288E-03    0.500E-03
DAV:  16    -0.223901002363E+03   -0.78996E-06   -0.25296E-07  3568   0.123E-03    0.104E-03
DAV:  17    -0.223901002389E+03   -0.26528E-07   -0.33114E-08  3072   0.395E-04    0.465E-04
DAV:  18    -0.223901002451E+03   -0.61373E-07   -0.59452E-09  1944   0.212E-04    0.147E-04
DAV:  19    -0.223901002475E+03   -0.23938E-07   -0.30486E-09  1944   0.209E-04    0.929E-05
DAV:  20    -0.223901002468E+03    0.70577E-08   -0.12462E-09  1944   0.119E-04
   1 F= -.22390100E+03 E0= -.22390100E+03  d E =-.706257E-26
