 vasp.6.3.2 27Jun22 (build Oct 14 2022 12:38:20) complex                        
  
 executed on             LinuxIFC date 2022.11.28  01:31:37
 running on   32 total cores
 distrk:  each k-point on   32 cores,    1 groups
 distr:  one band on NCORE=   4 cores,    8 groups


--------------------------------------------------------------------------------------------------------


 INCAR:
   ADDGRID = True
   EDIFF = 1e-08
   ENCUT = 341
   GGA = Ps
   IALGO = 38
   IBRION = -1
   ISMEAR = 0
   LCHARG = False
   LREAL = False
   LWAVE = False
   NELMIN = 5
   NPAR = 8
   PREC = Accurate
   SIGMA = 0.02

 POTCAR:    PAW_PBE Na_pv 19Sep2006               
 POTCAR:    PAW_PBE Cl 06Sep2000                  
 POTCAR:    PAW_PBE Na_pv 19Sep2006               
   SHA256 =  6a2f546d9e11350984debacf3dc457d8cffc0868e817d445faca461816a32b94 Na_pv/POTCAR          
   COPYR  = (c) Copyright 19Sep2006 Georg Kresse                                                    
   COPYR  = This file is part of the software VASP. Any use, copying, and all other rights are regul
   COPYR  = If you do not have a valid VASP license, you may not use, copy or distribute this file. 
   VRHFIN =Na: p6s1                                                                                 
   LEXCH  = PE                                                                                      
   EATOM  =   766.0439 eV,   56.3026 Ry                                                             
                                                                                                    
   TITEL  = PAW_PBE Na_pv 19Sep2006                                                                 
   LULTRA =        F    use ultrasoft PP ?                                                          
   IUNSCR =        1    unscreen: 0-lin 1-nonlin 2-no                                               
   RPACOR =    1.800    partial core radius                                                         
   POMASS =   22.990; ZVAL   =    7.000    mass and valenz                                          
   RCORE  =    2.200    outmost cutoff radius                                                       
   RWIGS  =    2.200; RWIGS  =    1.164    wigner-seitz radius (au A)                               
   ENMAX  =  259.561; ENMIN  =  194.671 eV                                                          
   ICORE  =        2    local potential                                                             
   LCOR   =        T    correct aug charges                                                         
   LPAW   =        T    paw PP                                                                      
   EAUG   =  368.056                                                                                
   DEXC   =    0.000                                                                                
   RMAX   =    2.245    core radius for proj-oper                                                   
   RAUG   =    1.300    factor for augmentation sphere                                              
   RDEP   =    2.259    radius for radial grids                                                     
   RDEPT  =    1.738    core radius for aug-charge                                                  
                                                                                                    
   Atomic configuration                                                                             
    5 entries                                                                                       
     n  l   j            E        occ.                                                              
     1  0  0.50     -1033.6933   2.0000                                                             
     2  0  0.50       -56.7526   2.0000                                                             
     2  1  1.50       -28.6721   6.0000                                                             
     3  0  0.50        -2.7440   1.0000                                                             
     3  2  1.50        -1.3606   0.0000                                                             
   Description                                                                                      
     l       E           TYP  RCUT    TYP  RCUT                                                     
     1    -28.6720912     23  2.000                                                                 
     1      6.8029130     23  2.000                                                                 
     0     -2.7439560     23  2.200                                                                 
     0     34.0145650     23  2.200                                                                 
     2     -1.3605826     23  2.200                                                                 
  local pseudopotential read in
  partial core-charges read in
  partial kinetic energy density read in
  atomic valenz-charges read in
  non local Contribution for L=           1  read in
    real space projection operators read in
  non local Contribution for L=           1  read in
    real space projection operators read in
  non local Contribution for L=           0  read in
    real space projection operators read in
  non local Contribution for L=           0  read in
    real space projection operators read in
    PAW grid and wavefunctions read in
 
   number of l-projection  operators is LMAX  =           4
   number of lm-projection operators is LMMAX =           8
 
 POTCAR:    PAW_PBE Cl 06Sep2000                  
   SHA256 =  9f1b6e6ed4247ac726a768b330d26d7667cc3c95a39ff49c1d064c2d9dcce931 Cl/POTCAR             
   COPYR  = (c) Copyright 06Sep2000 Georg Kresse                                                    
   COPYR  = This file is part of the software VASP. Any use, copying, and all other rights are regul
   COPYR  = If you do not have a valid VASP license, you may not use, copy or distribute this file. 
   VRHFIN =Cl: s2p5                                                                                 
   LEXCH  = PE                                                                                      
   EATOM  =   409.7259 eV,   30.1140 Ry                                                             
                                                                                                    
   TITEL  = PAW_PBE Cl 06Sep2000                                                                    
   LULTRA =        F    use ultrasoft PP ?                                                          
   IUNSCR =        1    unscreen: 0-lin 1-nonlin 2-no                                               
   RPACOR =    1.500    partial core radius                                                         
   POMASS =   35.453; ZVAL   =    7.000    mass and valenz                                          
   RCORE  =    1.900    outmost cutoff radius                                                       
   RWIGS  =    2.100; RWIGS  =    1.111    wigner-seitz radius (au A)                               
   ENMAX  =  262.472; ENMIN  =  196.854 eV                                                          
   ICORE  =        2    local potential                                                             
   LCOR   =        T    correct aug charges                                                         
   LPAW   =        T    paw PP                                                                      
   EAUG   =  356.192                                                                                
   DEXC   =    0.000                                                                                
   RMAX   =    1.945    core radius for proj-oper                                                   
   RAUG   =    1.300    factor for augmentation sphere                                              
   RDEP   =    2.020    radius for radial grids                                                     
   RDEPT  =    1.678    core radius for aug-charge                                                  
                                                                                                    
   Atomic configuration                                                                             
    6 entries                                                                                       
     n  l   j            E        occ.                                                              
     1  0  0.50     -2751.1850   2.0000                                                             
     2  0  0.50      -252.6861   2.0000                                                             
     2  1  1.50      -191.6157   6.0000                                                             
     3  0  0.50       -20.6916   2.0000                                                             
     3  1  0.50        -8.5949   5.0000                                                             
     3  2  1.50        -8.1635   0.0000                                                             
   Description                                                                                      
     l       E           TYP  RCUT    TYP  RCUT                                                     
     0    -20.6915656     23  1.900                                                                 
     0    -22.0521482     23  1.900                                                                 
     1     -8.5948577     23  1.900                                                                 
     1     -5.3847331     23  1.900                                                                 
     2     -8.1634956     23  1.900                                                                 
  local pseudopotential read in
  partial core-charges read in
  partial kinetic energy density read in
  atomic valenz-charges read in
  non local Contribution for L=           0  read in
    real space projection operators read in
  non local Contribution for L=           0  read in
    real space projection operators read in
  non local Contribution for L=           1  read in
    real space projection operators read in
  non local Contribution for L=           1  read in
    real space projection operators read in
    PAW grid and wavefunctions read in
 
   number of l-projection  operators is LMAX  =           4
   number of lm-projection operators is LMMAX =           8
 
 -----------------------------------------------------------------------------
|                                                                             |
|               ----> ADVICE to this user running VASP <----                  |
|                                                                             |
|     You have a (more or less) 'large supercell' and for larger cells it     |
|     might be more efficient to use real-space projection operators.         |
|     Therefore, try LREAL= Auto in the INCAR file.                           |
|     Mind: For very accurate calculation, you might also keep the            |
|     reciprocal projection scheme (i.e. LREAL=.FALSE.).                      |
|                                                                             |
 -----------------------------------------------------------------------------

 -----------------------------------------------------------------------------
|                                                                             |
|               ----> ADVICE to this user running VASP <----                  |
|                                                                             |
|     You enforced a specific xc type in the INCAR file but a different       |
|     type was found in the POTCAR file.                                      |
|     I HOPE YOU KNOW WHAT YOU ARE DOING!                                     |
|                                                                             |
 -----------------------------------------------------------------------------

  PAW_PBE Na_pv 19Sep2006               :
 energy of atom  1       EATOM= -766.0439
 kinetic energy error for atom=    0.0189 (will be added to EATOM!!)
  PAW_PBE Cl 06Sep2000                  :
 energy of atom  2       EATOM= -409.7259
 kinetic energy error for atom=    0.0106 (will be added to EATOM!!)
 
 
 POSCAR: Na Cl
  positions in cartesian coordinates
  No initial velocities read in
 exchange correlation table for  LEXCH =       14
   RHO(1)=    0.500       N(1)  =     2000
   RHO(2)=  100.500       N(2)  =     4000
 


--------------------------------------------------------------------------------------------------------


 ion  position               nearest neighbor table
   1  0.001  0.000  0.000-
   2  0.250  0.250  0.000-
   3  0.250  0.000  0.250-
   4  0.000  0.250  0.250-
   5  0.000  0.000  0.500-
   6  0.250  0.250  0.500-
   7  0.250  0.000  0.750-
   8  0.000  0.250  0.750-
   9  0.000  0.500  0.000-
  10  0.250  0.750  0.000-
  11  0.250  0.500  0.250-
  12  0.000  0.750  0.250-
  13  0.000  0.500  0.500-
  14  0.250  0.750  0.500-
  15  0.250  0.500  0.750-
  16  0.000  0.750  0.750-
  17  0.500  0.000  0.000-
  18  0.750  0.250  0.000-
  19  0.750  0.000  0.250-
  20  0.500  0.250  0.250-
  21  0.500  0.000  0.500-
  22  0.750  0.250  0.500-
  23  0.750  0.000  0.750-
  24  0.500  0.250  0.750-
  25  0.500  0.500  0.000-
  26  0.750  0.750  0.000-
  27  0.750  0.500  0.250-
  28  0.500  0.750  0.250-
  29  0.500  0.500  0.500-
  30  0.750  0.750  0.500-
  31  0.750  0.500  0.750-
  32  0.500  0.750  0.750-
  33  0.250  0.250  0.250-
  34  0.000  0.000  0.250-
  35  0.000  0.250  0.000-
  36  0.250  0.000  0.000-
  37  0.250  0.250  0.750-
  38  0.000  0.000  0.750-
  39  0.000  0.250  0.500-
  40  0.250  0.000  0.500-
  41  0.250  0.750  0.250-
  42  0.000  0.500  0.250-
  43  0.000  0.750  0.000-
  44  0.250  0.500  0.000-
  45  0.250  0.750  0.750-
  46  0.000  0.500  0.750-
  47  0.000  0.750  0.500-
  48  0.250  0.500  0.500-
  49  0.750  0.250  0.250-
  50  0.500  0.000  0.250-
  51  0.500  0.250  0.000-
  52  0.750  0.000  0.000-
  53  0.750  0.250  0.750-
  54  0.500  0.000  0.750-
  55  0.500  0.250  0.500-
  56  0.750  0.000  0.500-
  57  0.750  0.750  0.250-
  58  0.500  0.500  0.250-
  59  0.500  0.750  0.000-
  60  0.750  0.500  0.000-
  61  0.750  0.750  0.750-
  62  0.500  0.500  0.750-
  63  0.500  0.750  0.500-
  64  0.750  0.500  0.500-
 
  LATTYP: Found a simple cubic cell.
 ALAT       =    11.2040023600
  
  Lattice vectors:
  
 A1 = (  11.2040023600,   0.0000000000,   0.0000000000)
 A2 = (   0.0000000000,  11.2040023600,   0.0000000000)
 A3 = (   0.0000000000,   0.0000000000,  11.2040023600)


Analysis of symmetry for initial positions (statically):
=====================================================================
 Subroutine PRICEL returns:
 Original cell was already a primitive cell.
 

 Routine SETGRP: Setting up the symmetry group for a 
 simple cubic supercell.


 Subroutine GETGRP returns: Found  8 space group operations
 (whereof  8 operations were pure point group operations)
 out of a pool of 48 trial point group operations.


The static configuration has the point symmetry C_4v.


Analysis of symmetry for dynamics (positions and initial velocities):
=====================================================================
 Subroutine PRICEL returns:
 Original cell was already a primitive cell.
 

 Routine SETGRP: Setting up the symmetry group for a 
 simple cubic supercell.


 Subroutine GETGRP returns: Found  8 space group operations
 (whereof  8 operations were pure point group operations)
 out of a pool of 48 trial point group operations.


The dynamic configuration has the point symmetry C_4v.


 Subroutine INISYM returns: Found  8 space group operations
 (whereof  8 operations are pure point group operations),
 and found     1 'primitive' translations


----------------------------------------------------------------------------------------

                                     Primitive cell                                     

  volume of cell :    1406.4347

  direct lattice vectors                    reciprocal lattice vectors
    11.204002360  0.000000000  0.000000000     0.089253819  0.000000000  0.000000000
     0.000000000 11.204002360  0.000000000     0.000000000  0.089253819  0.000000000
     0.000000000  0.000000000 11.204002360     0.000000000  0.000000000  0.089253819

  length of vectors
    11.204002360 11.204002360 11.204002360     0.089253819  0.089253819  0.089253819

  position of ions in fractional coordinates (direct lattice)
     0.000892538  0.000000000  0.000000000
     0.250000000  0.250000000  0.000000000
     0.250000000  0.000000000  0.250000000
     0.000000000  0.250000000  0.250000000
     0.000000000  0.000000000  0.500000000
     0.250000000  0.250000000  0.500000000
     0.250000000  0.000000000  0.750000000
     0.000000000  0.250000000  0.750000000
     0.000000000  0.500000000  0.000000000
     0.250000000  0.750000000  0.000000000
     0.250000000  0.500000000  0.250000000
     0.000000000  0.750000000  0.250000000
     0.000000000  0.500000000  0.500000000
     0.250000000  0.750000000  0.500000000
     0.250000000  0.500000000  0.750000000
     0.000000000  0.750000000  0.750000000
     0.500000000  0.000000000  0.000000000
     0.750000000  0.250000000  0.000000000
     0.750000000  0.000000000  0.250000000
     0.500000000  0.250000000  0.250000000
     0.500000000  0.000000000  0.500000000
     0.750000000  0.250000000  0.500000000
     0.750000000  0.000000000  0.750000000
     0.500000000  0.250000000  0.750000000
     0.500000000  0.500000000  0.000000000
     0.750000000  0.750000000  0.000000000
     0.750000000  0.500000000  0.250000000
     0.500000000  0.750000000  0.250000000
     0.500000000  0.500000000  0.500000000
     0.750000000  0.750000000  0.500000000
     0.750000000  0.500000000  0.750000000
     0.500000000  0.750000000  0.750000000
     0.250000000  0.250000000  0.250000000
     0.000000000  0.000000000  0.250000000
     0.000000000  0.250000000  0.000000000
     0.250000000  0.000000000  0.000000000
     0.250000000  0.250000000  0.750000000
     0.000000000  0.000000000  0.750000000
     0.000000000  0.250000000  0.500000000
     0.250000000  0.000000000  0.500000000
     0.250000000  0.750000000  0.250000000
     0.000000000  0.500000000  0.250000000
     0.000000000  0.750000000  0.000000000
     0.250000000  0.500000000  0.000000000
     0.250000000  0.750000000  0.750000000
     0.000000000  0.500000000  0.750000000
     0.000000000  0.750000000  0.500000000
     0.250000000  0.500000000  0.500000000
     0.750000000  0.250000000  0.250000000
     0.500000000  0.000000000  0.250000000
     0.500000000  0.250000000  0.000000000
     0.750000000  0.000000000  0.000000000
     0.750000000  0.250000000  0.750000000
     0.500000000  0.000000000  0.750000000
     0.500000000  0.250000000  0.500000000
     0.750000000  0.000000000  0.500000000
     0.750000000  0.750000000  0.250000000
     0.500000000  0.500000000  0.250000000
     0.500000000  0.750000000  0.000000000
     0.750000000  0.500000000  0.000000000
     0.750000000  0.750000000  0.750000000
     0.500000000  0.500000000  0.750000000
     0.500000000  0.750000000  0.500000000
     0.750000000  0.500000000  0.500000000

  ion indices of the primitive-cell ions
   primitive index   ion index
                 1           1
                 2           2
                 3           3
                 4           4
                 5           5
                 6           6
                 7           7
                 8           8
                 9           9
                10          10
                11          11
                12          12
                13          13
                14          14
                15          15
                16          16
                17          17
                18          18
                19          19
                20          20
                21          21
                22          22
                23          23
                24          24
                25          25
                26          26
                27          27
                28          28
                29          29
                30          30
                31          31
                32          32
                33          33
                34          34
                35          35
                36          36
                37          37
                38          38
                39          39
                40          40
                41          41
                42          42
                43          43
                44          44
                45          45
                46          46
                47          47
                48          48
                49          49
                50          50
                51          51
                52          52
                53          53
                54          54
                55          55
                56          56
                57          57
                58          58
                59          59
                60          60
                61          61
                62          62
                63          63
                64          64

----------------------------------------------------------------------------------------

 
 
 KPOINTS: KPOINTS created by Atomic Simulation Env

Automatic generation of k-mesh.
 Grid dimensions read from file:
 generate k-points for:    2    2    2

 Generating k-lattice:

  Cartesian coordinates                     Fractional coordinates (reciprocal lattice)
     0.044626910  0.000000000  0.000000000     0.500000000  0.000000000  0.000000000
     0.000000000  0.044626910  0.000000000     0.000000000  0.500000000  0.000000000
     0.000000000  0.000000000  0.044626910     0.000000000  0.000000000  0.500000000

  Length of vectors
     0.044626910  0.044626910  0.044626910

  Shift w.r.t. Gamma in fractional coordinates (k-lattice)
     0.000000000  0.000000000  0.000000000

 
 Subroutine IBZKPT returns following result:
 ===========================================
 
 Found      6 irreducible k-points:
 
 Following reciprocal coordinates:
            Coordinates               Weight
  0.000000  0.000000  0.000000      1.000000
  0.500000  0.000000  0.000000      1.000000
  0.000000  0.500000  0.000000      2.000000
  0.500000  0.500000  0.000000      2.000000
  0.000000  0.500000  0.500000      1.000000
  0.500000  0.500000  0.500000      1.000000
 
 Following cartesian coordinates:
            Coordinates               Weight
  0.000000  0.000000  0.000000      1.000000
  0.044627  0.000000  0.000000      1.000000
  0.000000  0.044627  0.000000      2.000000
  0.044627  0.044627  0.000000      2.000000
  0.000000  0.044627  0.044627      1.000000
  0.044627  0.044627  0.044627      1.000000
 


--------------------------------------------------------------------------------------------------------




 Dimension of arrays:
   k-points           NKPTS =      6   k-points in BZ     NKDIM =      6   number of bands    NBANDS=    272
   number of dos      NEDOS =    301   number of ions     NIONS =     64
   non local maximal  LDIM  =      4   non local SUM 2l+1 LMDIM =      8
   total plane-waves  NPLWV = 343000
   max r-space proj   IRMAX =      1   max aug-charges    IRDMAX=  56280
   dimension x,y,z NGX =    70 NGY =   70 NGZ =   70
   dimension x,y,z NGXF=   140 NGYF=  140 NGZF=  140
   support grid    NGXF=   280 NGYF=  280 NGZF=  280
   ions per type =              32  32
   NGX,Y,Z   is equivalent  to a cutoff of  10.39, 10.39, 10.39 a.u.
   NGXF,Y,Z  is equivalent  to a cutoff of  20.77, 20.77, 20.77 a.u.

 SYSTEM =  unknown system                          
 POSCAR =  Na Cl                                   

 Startparameter for this run:
   NWRITE =      2    write-flag & timer
   PREC   = accura    normal or accurate (medium, high low for compatibility)
   ISTART =      0    job   : 0-new  1-cont  2-samecut
   ICHARG =      2    charge: 1-file 2-atom 10-const
   ISPIN  =      1    spin polarized calculation?
   LNONCOLLINEAR =      F non collinear calculations
   LSORBIT =      F    spin-orbit coupling
   INIWAV =      1    electr: 0-lowe 1-rand  2-diag
   LASPH  =      F    aspherical Exc in radial PAW
 Electronic Relaxation 1
   ENCUT  =  341.0 eV  25.06 Ry    5.01 a.u.  16.87 16.87 16.87*2*pi/ulx,y,z
   ENINI  =  341.0     initial cutoff
   ENAUG  =  368.1 eV  augmentation charge cutoff
   NELM   =     60;   NELMIN=  5; NELMDL= -5     # of ELM steps 
   EDIFF  = 0.1E-07   stopping-criterion for ELM
   LREAL  =      F    real-space projection
   NLSPLINE    = F    spline interpolate recip. space projectors
   LCOMPAT=      F    compatible to vasp.4.4
   GGA_COMPAT  = T    GGA compatible to vasp.4.4-vasp.4.6
   LMAXPAW     = -100 max onsite density
   LMAXMIX     =    2 max onsite mixed and CHGCAR
   VOSKOWN=      0    Vosko Wilk Nusair interpolation
   ROPT   =    0.00000   0.00000
 Ionic relaxation
   EDIFFG = 0.1E-06   stopping-criterion for IOM
   NSW    =      0    number of steps for IOM
   NBLOCK =      1;   KBLOCK =      1    inner block; outer block 
   IBRION =     -1    ionic relax: 0-MD 1-quasi-New 2-CG
   NFREE  =      0    steps in history (QN), initial steepest desc. (CG)
   ISIF   =      2    stress and relaxation
   IWAVPR =     10    prediction:  0-non 1-charg 2-wave 3-comb
   ISYM   =      2    0-nonsym 1-usesym 2-fastsym
   LCORR  =      T    Harris-Foulkes like correction to forces

   POTIM  = 0.5000    time-step for ionic-motion
   TEIN   =    0.0    initial temperature
   TEBEG  =    0.0;   TEEND  =   0.0 temperature during run
   SMASS  =  -3.00    Nose mass-parameter (am)
   estimated Nose-frequenzy (Omega)   =  0.10E-29 period in steps = 0.13E+47 mass=  -0.287E-26a.u.
   SCALEE = 1.0000    scale energy and forces
   NPACO  =    256;   APACO  = 10.0  distance and # of slots for P.C.
   PSTRESS=    0.0 pullay stress

  Mass of Ions in am
   POMASS =  22.99 35.45
  Ionic Valenz
   ZVAL   =   7.00  7.00
  Atomic Wigner-Seitz radii
   RWIGS  =  -1.00 -1.00
  virtual crystal weights 
   VCA    =   1.00  1.00
   NELECT =     448.0000    total number of electrons
   NUPDOWN=      -1.0000    fix difference up-down

 DOS related values:
   EMIN   =  10.00;   EMAX   =-10.00  energy-range for DOS
   EFERMI =   0.00
   ISMEAR =     0;   SIGMA  =   0.02  broadening in eV -4-tet -1-fermi 0-gaus

 Electronic relaxation 2 (details)
   IALGO  =     38    algorithm
   LDIAG  =      T    sub-space diagonalisation (order eigenvalues)
   LSUBROT=      F    optimize rotation matrix (better conditioning)
   TURBO    =      0    0=normal 1=particle mesh
   IRESTART =      0    0=no restart 2=restart with 2 vectors
   NREBOOT  =      0    no. of reboots
   NMIN     =      0    reboot dimension
   EREF     =   0.00    reference energy to select bands
   IMIX   =      4    mixing-type and parameters
     AMIX     =   0.40;   BMIX     =  1.00
     AMIX_MAG =   1.60;   BMIX_MAG =  1.00
     AMIN     =   0.10
     WC   =   100.;   INIMIX=   1;  MIXPRE=   1;  MAXMIX= -45

 Intra band minimization:
   WEIMIN = 0.0000     energy-eigenvalue tresh-hold
   EBREAK =  0.92E-11  absolut break condition
   DEPER  =   0.30     relativ break condition  

   TIME   =   0.40     timestep for ELM

  volume/ion in A,a.u.               =      21.98       148.30
  Fermi-wavevector in a.u.,A,eV,Ry     =   1.118049  2.112807 17.007750  1.250034
  Thomas-Fermi vector in A             =   2.254677
 
 Write flags
   LWAVE        =      F    write WAVECAR
   LDOWNSAMPLE  =      F    k-point downsampling of WAVECAR
   LCHARG       =      F    write CHGCAR
   LVTOT        =      F    write LOCPOT, total local potential
   LVHAR        =      F    write LOCPOT, Hartree potential only
   LELF         =      F    write electronic localiz. function (ELF)
   LORBIT       =      0    0 simple, 1 ext, 2 COOP (PROOUT), +10 PAW based schemes


 Dipole corrections
   LMONO  =      F    monopole corrections only (constant potential shift)
   LDIPOL =      F    correct potential (dipole corrections)
   IDIPOL =      0    1-x, 2-y, 3-z, 4-all directions 
   EPSILON=  1.0000000 bulk dielectric constant

 Exchange correlation treatment:
   GGA     =    PS    GGA type
   LEXCH   =    14    internal setting for exchange type
   LIBXC   =     F    Libxc                    
   VOSKOWN =     0    Vosko Wilk Nusair interpolation
   LHFCALC =     F    Hartree Fock is set to
   LHFONE  =     F    Hartree Fock one center treatment
   AEXX    =    0.0000 exact exchange contribution

 Linear response parameters
   LEPSILON=     F    determine dielectric tensor
   LRPA    =     F    only Hartree local field effects (RPA)
   LNABLA  =     F    use nabla operator in PAW spheres
   LVEL    =     F    velocity operator in full k-point grid
   CSHIFT  =0.1000    complex shift for real part using Kramers Kronig
   OMEGAMAX=  -1.0    maximum frequency
   DEG_THRESHOLD= 0.2000000E-02 threshold for treating states as degnerate
   RTIME   =   -0.100 relaxation time in fs
  (WPLASMAI=    0.000 imaginary part of plasma frequency in eV, 0.658/RTIME)
   DFIELD  = 0.0000000 0.0000000 0.0000000 field for delta impulse in time
 
  Optional k-point grid parameters
   LKPOINTS_OPT  =     F    use optional k-point grid
   KPOINTS_OPT_MODE=     1    mode for optional k-point grid
 
 Orbital magnetization related:
   ORBITALMAG=     F  switch on orbital magnetization
   LCHIMAG   =     F  perturbation theory with respect to B field
   DQ        =  0.001000  dq finite difference perturbation B field
   LLRAUG    =     F  two centre corrections for induced B field



--------------------------------------------------------------------------------------------------------


 Static calculation
 charge density and potential will be updated during run
 non-spin polarized calculation
 Variant of blocked Davidson
 Davidson routine will perform the subspace rotation
 perform sub-space diagonalisation
    after iterative eigenvector-optimisation
 modified Broyden-mixing scheme, WC =      100.0
 initial mixing is a Kerker type mixing with AMIX =  0.4000 and BMIX =      1.0000
 Hartree-type preconditioning will be used
 using additional bands           48
 reciprocal scheme for non local part
 use partial core corrections
 calculate Harris-corrections to forces 
   (improved forces if not selfconsistent)
 use gradient corrections 
 use of overlap-Matrix (Vanderbilt PP)
 Gauss-broadening in eV      SIGMA  =   0.02


--------------------------------------------------------------------------------------------------------


  energy-cutoff  :      341.00
  volume of cell :     1406.43
      direct lattice vectors                 reciprocal lattice vectors
    11.204002360  0.000000000  0.000000000     0.089253819  0.000000000  0.000000000
     0.000000000 11.204002360  0.000000000     0.000000000  0.089253819  0.000000000
     0.000000000  0.000000000 11.204002360     0.000000000  0.000000000  0.089253819

  length of vectors
    11.204002360 11.204002360 11.204002360     0.089253819  0.089253819  0.089253819


 
 k-points in units of 2pi/SCALE and weight: KPOINTS created by Atomic Simulation Env
   0.00000000  0.00000000  0.00000000       0.125
   0.04462691  0.00000000  0.00000000       0.125
   0.00000000  0.04462691  0.00000000       0.250
   0.04462691  0.04462691  0.00000000       0.250
   0.00000000  0.04462691  0.04462691       0.125
   0.04462691  0.04462691  0.04462691       0.125
 
 k-points in reciprocal lattice and weights: KPOINTS created by Atomic Simulation Env
   0.00000000  0.00000000  0.00000000       0.125
   0.50000000  0.00000000  0.00000000       0.125
   0.00000000  0.50000000  0.00000000       0.250
   0.50000000  0.50000000  0.00000000       0.250
   0.00000000  0.50000000  0.50000000       0.125
   0.50000000  0.50000000  0.50000000       0.125
 
 position of ions in fractional coordinates (direct lattice) 
   0.00089254  0.00000000  0.00000000
   0.25000000  0.25000000  0.00000000
   0.25000000  0.00000000  0.25000000
   0.00000000  0.25000000  0.25000000
   0.00000000  0.00000000  0.50000000
   0.25000000  0.25000000  0.50000000
   0.25000000  0.00000000  0.75000000
   0.00000000  0.25000000  0.75000000
   0.00000000  0.50000000  0.00000000
   0.25000000  0.75000000  0.00000000
   0.25000000  0.50000000  0.25000000
   0.00000000  0.75000000  0.25000000
   0.00000000  0.50000000  0.50000000
   0.25000000  0.75000000  0.50000000
   0.25000000  0.50000000  0.75000000
   0.00000000  0.75000000  0.75000000
   0.50000000  0.00000000  0.00000000
   0.75000000  0.25000000  0.00000000
   0.75000000  0.00000000  0.25000000
   0.50000000  0.25000000  0.25000000
   0.50000000  0.00000000  0.50000000
   0.75000000  0.25000000  0.50000000
   0.75000000  0.00000000  0.75000000
   0.50000000  0.25000000  0.75000000
   0.50000000  0.50000000  0.00000000
   0.75000000  0.75000000  0.00000000
   0.75000000  0.50000000  0.25000000
   0.50000000  0.75000000  0.25000000
   0.50000000  0.50000000  0.50000000
   0.75000000  0.75000000  0.50000000
   0.75000000  0.50000000  0.75000000
   0.50000000  0.75000000  0.75000000
   0.25000000  0.25000000  0.25000000
   0.00000000  0.00000000  0.25000000
   0.00000000  0.25000000  0.00000000
   0.25000000  0.00000000  0.00000000
   0.25000000  0.25000000  0.75000000
   0.00000000  0.00000000  0.75000000
   0.00000000  0.25000000  0.50000000
   0.25000000  0.00000000  0.50000000
   0.25000000  0.75000000  0.25000000
   0.00000000  0.50000000  0.25000000
   0.00000000  0.75000000  0.00000000
   0.25000000  0.50000000  0.00000000
   0.25000000  0.75000000  0.75000000
   0.00000000  0.50000000  0.75000000
   0.00000000  0.75000000  0.50000000
   0.25000000  0.50000000  0.50000000
   0.75000000  0.25000000  0.25000000
   0.50000000  0.00000000  0.25000000
   0.50000000  0.25000000  0.00000000
   0.75000000  0.00000000  0.00000000
   0.75000000  0.25000000  0.75000000
   0.50000000  0.00000000  0.75000000
   0.50000000  0.25000000  0.50000000
   0.75000000  0.00000000  0.50000000
   0.75000000  0.75000000  0.25000000
   0.50000000  0.50000000  0.25000000
   0.50000000  0.75000000  0.00000000
   0.75000000  0.50000000  0.00000000
   0.75000000  0.75000000  0.75000000
   0.50000000  0.50000000  0.75000000
   0.50000000  0.75000000  0.50000000
   0.75000000  0.50000000  0.50000000
 
 position of ions in cartesian coordinates  (Angst):
   0.01000000  0.00000000  0.00000000
   2.80100059  2.80100059  0.00000000
   2.80100059  0.00000000  2.80100059
   0.00000000  2.80100059  2.80100059
   0.00000000  0.00000000  5.60200118
   2.80100059  2.80100059  5.60200118
   2.80100059  0.00000000  8.40300177
   0.00000000  2.80100059  8.40300177
   0.00000000  5.60200118  0.00000000
   2.80100059  8.40300177  0.00000000
   2.80100059  5.60200118  2.80100059
   0.00000000  8.40300177  2.80100059
   0.00000000  5.60200118  5.60200118
   2.80100059  8.40300177  5.60200118
   2.80100059  5.60200118  8.40300177
   0.00000000  8.40300177  8.40300177
   5.60200118  0.00000000  0.00000000
   8.40300177  2.80100059  0.00000000
   8.40300177  0.00000000  2.80100059
   5.60200118  2.80100059  2.80100059
   5.60200118  0.00000000  5.60200118
   8.40300177  2.80100059  5.60200118
   8.40300177  0.00000000  8.40300177
   5.60200118  2.80100059  8.40300177
   5.60200118  5.60200118  0.00000000
   8.40300177  8.40300177  0.00000000
   8.40300177  5.60200118  2.80100059
   5.60200118  8.40300177  2.80100059
   5.60200118  5.60200118  5.60200118
   8.40300177  8.40300177  5.60200118
   8.40300177  5.60200118  8.40300177
   5.60200118  8.40300177  8.40300177
   2.80100059  2.80100059  2.80100059
   0.00000000  0.00000000  2.80100059
   0.00000000  2.80100059  0.00000000
   2.80100059  0.00000000  0.00000000
   2.80100059  2.80100059  8.40300177
   0.00000000  0.00000000  8.40300177
   0.00000000  2.80100059  5.60200118
   2.80100059  0.00000000  5.60200118
   2.80100059  8.40300177  2.80100059
   0.00000000  5.60200118  2.80100059
   0.00000000  8.40300177  0.00000000
   2.80100059  5.60200118  0.00000000
   2.80100059  8.40300177  8.40300177
   0.00000000  5.60200118  8.40300177
   0.00000000  8.40300177  5.60200118
   2.80100059  5.60200118  5.60200118
   8.40300177  2.80100059  2.80100059
   5.60200118  0.00000000  2.80100059
   5.60200118  2.80100059  0.00000000
   8.40300177  0.00000000  0.00000000
   8.40300177  2.80100059  8.40300177
   5.60200118  0.00000000  8.40300177
   5.60200118  2.80100059  5.60200118
   8.40300177  0.00000000  5.60200118
   8.40300177  8.40300177  2.80100059
   5.60200118  5.60200118  2.80100059
   5.60200118  8.40300177  0.00000000
   8.40300177  5.60200118  0.00000000
   8.40300177  8.40300177  8.40300177
   5.60200118  5.60200118  8.40300177
   5.60200118  8.40300177  5.60200118
   8.40300177  5.60200118  5.60200118
 


--------------------------------------------------------------------------------------------------------


 k-point   1 :   0.0000 0.0000 0.0000  plane waves:   20005
 k-point   2 :   0.5000 0.0000 0.0000  plane waves:   20138
 k-point   3 :   0.0000 0.5000 0.0000  plane waves:   20138
 k-point   4 :   0.5000 0.5000 0.0000  plane waves:   20160
 k-point   5 :   0.0000 0.5000 0.5000  plane waves:   20160
 k-point   6 :   0.5000 0.5000 0.5000  plane waves:   19952

 maximum and minimum number of plane-waves per node :      5089     4975

 maximum number of plane-waves:     20160
 maximum index in each direction: 
   IXMAX=   16   IYMAX=   16   IZMAX=   16
   IXMIN=  -17   IYMIN=  -17   IZMIN=  -17


 parallel 3D FFT for wavefunctions:
    minimum data exchange during FFTs selected (reduces bandwidth)
 parallel 3D FFT for charge:
    minimum data exchange during FFTs selected (reduces bandwidth)


 total amount of memory used by VASP MPI-rank0    80722. kBytes
=======================================================================

   base      :      30000. kBytes
   nonl-proj :       9060. kBytes
   fftplans  :      15601. kBytes
   grid      :       9092. kBytes
   one-center:         49. kBytes
   wavefun   :      16920. kBytes
 
     INWAV:  cpu time      0.0000: real time      0.0000
 Broyden mixing: mesh for mixing (old mesh)
   NGX = 33   NGY = 33   NGZ = 33
  (NGX  =140   NGY  =140   NGZ  =140)
  gives a total of  35937 points

 initial charge density was supplied:
 charge density of overlapping atoms calculated
 number of electron     448.0000000 magnetization 
 keeping initial charge density in first step


--------------------------------------------------------------------------------------------------------


 Maximum index for augmentation-charges         1834 (set IRDMAX)


--------------------------------------------------------------------------------------------------------


 First call to EWALD:  gamma=   0.158
 Maximum number of real-space cells 3x 3x 3
 Maximum number of reciprocal cells 3x 3x 3

    FEWALD:  cpu time      0.0023: real time      0.0023


--------------------------------------- Iteration      1(   1)  ---------------------------------------


    POTLOK:  cpu time      0.0519: real time      0.0528
    SETDIJ:  cpu time      0.0541: real time      0.0542
     EDDAV:  cpu time      5.7047: real time      5.7160
       DOS:  cpu time      0.0014: real time      0.0014
    --------------------------------------------
      LOOP:  cpu time      5.8121: real time      5.8245

 eigenvalue-minimisations  :  3424
 total energy-change (2. order) : 0.4585578E+04  (-0.1695891E+05)
 number of electron     448.0000000 magnetization 
 augmentation part      448.0000000 magnetization 

 Free energy of the ion-electron system (eV)
  ---------------------------------------------------
  alpha Z        PSCENC =       751.52672365
  Ewald energy   TEWEN  =    -22871.45279263
  -Hartree energ DENC   =     -8992.14431036
  -exchange      EXHF   =         0.00000000
  -V(xc)+E(xc)   XCENC  =      1456.53380375
  PAW double counting   =     26466.43774078   -29286.08056155
  entropy T*S    EENTRO =        -0.00346266
  eigenvalues    EBANDS =      -471.41780596
  atomic energy  EATOM  =     37532.17875095
  Solvation  Ediel_sol  =         0.00000000
  ---------------------------------------------------
  free energy    TOTEN  =      4585.57808598 eV

  energy without entropy =     4585.58154864  energy(sigma->0) =     4585.57981731


--------------------------------------------------------------------------------------------------------




--------------------------------------- Iteration      1(   2)  ---------------------------------------


     EDDAV:  cpu time      5.8185: real time      5.8350
       DOS:  cpu time      0.0004: real time      0.0004
    --------------------------------------------
      LOOP:  cpu time      5.8189: real time      5.8354

 eigenvalue-minimisations  :  3560
 total energy-change (2. order) :-0.4099377E+04  (-0.3926413E+04)
 number of electron     448.0000000 magnetization 
 augmentation part      448.0000000 magnetization 

 Free energy of the ion-electron system (eV)
  ---------------------------------------------------
  alpha Z        PSCENC =       751.52672365
  Ewald energy   TEWEN  =    -22871.45279263
  -Hartree energ DENC   =     -8992.14431036
  -exchange      EXHF   =         0.00000000
  -V(xc)+E(xc)   XCENC  =      1456.53380375
  PAW double counting   =     26466.43774078   -29286.08056155
  entropy T*S    EENTRO =        -0.00000000
  eigenvalues    EBANDS =     -4570.79863644
  atomic energy  EATOM  =     37532.17875095
  Solvation  Ediel_sol  =         0.00000000
  ---------------------------------------------------
  free energy    TOTEN  =       486.20071816 eV

  energy without entropy =      486.20071816  energy(sigma->0) =      486.20071816


--------------------------------------------------------------------------------------------------------




--------------------------------------- Iteration      1(   3)  ---------------------------------------


     EDDAV:  cpu time      6.1862: real time      6.2044
       DOS:  cpu time      0.0004: real time      0.0004
    --------------------------------------------
      LOOP:  cpu time      6.1866: real time      6.2048

 eigenvalue-minimisations  :  3856
 total energy-change (2. order) :-0.6761787E+03  (-0.6700088E+03)
 number of electron     448.0000000 magnetization 
 augmentation part      448.0000000 magnetization 

 Free energy of the ion-electron system (eV)
  ---------------------------------------------------
  alpha Z        PSCENC =       751.52672365
  Ewald energy   TEWEN  =    -22871.45279263
  -Hartree energ DENC   =     -8992.14431036
  -exchange      EXHF   =         0.00000000
  -V(xc)+E(xc)   XCENC  =      1456.53380375
  PAW double counting   =     26466.43774078   -29286.08056155
  entropy T*S    EENTRO =        -0.00000000
  eigenvalues    EBANDS =     -5246.97734534
  atomic energy  EATOM  =     37532.17875095
  Solvation  Ediel_sol  =         0.00000000
  ---------------------------------------------------
  free energy    TOTEN  =      -189.97799074 eV

  energy without entropy =     -189.97799074  energy(sigma->0) =     -189.97799074


--------------------------------------------------------------------------------------------------------




--------------------------------------- Iteration      1(   4)  ---------------------------------------


     EDDAV:  cpu time      6.1216: real time      6.1400
       DOS:  cpu time      0.0004: real time      0.0004
    --------------------------------------------
      LOOP:  cpu time      6.1220: real time      6.1404

 eigenvalue-minimisations  :  3800
 total energy-change (2. order) :-0.3744522E+02  (-0.3720545E+02)
 number of electron     448.0000000 magnetization 
 augmentation part      448.0000000 magnetization 

 Free energy of the ion-electron system (eV)
  ---------------------------------------------------
  alpha Z        PSCENC =       751.52672365
  Ewald energy   TEWEN  =    -22871.45279263
  -Hartree energ DENC   =     -8992.14431036
  -exchange      EXHF   =         0.00000000
  -V(xc)+E(xc)   XCENC  =      1456.53380375
  PAW double counting   =     26466.43774078   -29286.08056155
  entropy T*S    EENTRO =        -0.00000000
  eigenvalues    EBANDS =     -5284.42256997
  atomic energy  EATOM  =     37532.17875095
  Solvation  Ediel_sol  =         0.00000000
  ---------------------------------------------------
  free energy    TOTEN  =      -227.42321538 eV

  energy without entropy =     -227.42321538  energy(sigma->0) =     -227.42321538


--------------------------------------------------------------------------------------------------------




--------------------------------------- Iteration      1(   5)  ---------------------------------------


     EDDAV:  cpu time      6.4031: real time      6.4227
       DOS:  cpu time      0.0004: real time      0.0004
    CHARGE:  cpu time      0.2965: real time      0.2971
    MIXING:  cpu time      0.0030: real time      0.0031
    --------------------------------------------
      LOOP:  cpu time      6.7031: real time      6.7233

 eigenvalue-minimisations  :  4048
 total energy-change (2. order) :-0.1546804E+01  (-0.1544237E+01)
 number of electron     448.0000022 magnetization 
 augmentation part      111.6647773 magnetization 

 Broyden mixing:
  rms(total) = 0.10603E+01    rms(broyden)= 0.10599E+01
  rms(prec ) = 0.14891E+01
  weight for this iteration     100.00

 Free energy of the ion-electron system (eV)
  ---------------------------------------------------
  alpha Z        PSCENC =       751.52672365
  Ewald energy   TEWEN  =    -22871.45279263
  -Hartree energ DENC   =     -8992.14431036
  -exchange      EXHF   =         0.00000000
  -V(xc)+E(xc)   XCENC  =      1456.53380375
  PAW double counting   =     26466.43774078   -29286.08056155
  entropy T*S    EENTRO =        -0.00000000
  eigenvalues    EBANDS =     -5285.96937355
  atomic energy  EATOM  =     37532.17875095
  Solvation  Ediel_sol  =         0.00000000
  ---------------------------------------------------
  free energy    TOTEN  =      -228.97001895 eV

  energy without entropy =     -228.97001895  energy(sigma->0) =     -228.97001895


--------------------------------------------------------------------------------------------------------




--------------------------------------- Iteration      1(   6)  ---------------------------------------


    POTLOK:  cpu time      0.0519: real time      0.0573
    SETDIJ:  cpu time      0.0537: real time      0.0540
     EDDAV:  cpu time      6.3578: real time      6.3701
       DOS:  cpu time      0.0004: real time      0.0004
    CHARGE:  cpu time      0.2832: real time      0.2837
    MIXING:  cpu time      0.0023: real time      0.0023
    --------------------------------------------
      LOOP:  cpu time      6.7492: real time      6.7679

 eigenvalue-minimisations  :  4024
 total energy-change (2. order) : 0.4816876E+01  (-0.1010779E+01)
 number of electron     448.0000022 magnetization 
 augmentation part      112.4517963 magnetization 

 Broyden mixing:
  rms(total) = 0.77935E+00    rms(broyden)= 0.77929E+00
  rms(prec ) = 0.89707E+00
  weight for this iteration     100.00

 eigenvalues of (default mixing * dielectric matrix)
  average eigenvalue GAMMA=   1.0931
  1.0931

 Free energy of the ion-electron system (eV)
  ---------------------------------------------------
  alpha Z        PSCENC =       751.52672365
  Ewald energy   TEWEN  =    -22871.45279263
  -Hartree energ DENC   =     -9061.11222912
  -exchange      EXHF   =         0.00000000
  -V(xc)+E(xc)   XCENC  =      1465.38646300
  PAW double counting   =     27292.50024460   -30104.63996150
  entropy T*S    EENTRO =        -0.00000000
  eigenvalues    EBANDS =     -5228.54034165
  atomic energy  EATOM  =     37532.17875095
  Solvation  Ediel_sol  =         0.00000000
  ---------------------------------------------------
  free energy    TOTEN  =      -224.15314270 eV

  energy without entropy =     -224.15314270  energy(sigma->0) =     -224.15314270


--------------------------------------------------------------------------------------------------------




--------------------------------------- Iteration      1(   7)  ---------------------------------------


    POTLOK:  cpu time      0.0504: real time      0.0562
    SETDIJ:  cpu time      0.0537: real time      0.0537
     EDDAV:  cpu time      6.6285: real time      6.6412
       DOS:  cpu time      0.0004: real time      0.0004
    CHARGE:  cpu time      0.2914: real time      0.2920
    MIXING:  cpu time      0.0021: real time      0.0021
    --------------------------------------------
      LOOP:  cpu time      7.0265: real time      7.0457

 eigenvalue-minimisations  :  4232
 total energy-change (2. order) : 0.3761141E+00  (-0.2375142E+00)
 number of electron     448.0000022 magnetization 
 augmentation part      112.8315177 magnetization 

 Broyden mixing:
  rms(total) = 0.52517E+00    rms(broyden)= 0.52514E+00
  rms(prec ) = 0.55468E+00
  weight for this iteration     100.00

 eigenvalues of (default mixing * dielectric matrix)
  average eigenvalue GAMMA=   2.1035
  1.4758  2.7312

 Free energy of the ion-electron system (eV)
  ---------------------------------------------------
  alpha Z        PSCENC =       751.52672365
  Ewald energy   TEWEN  =    -22871.45279263
  -Hartree energ DENC   =     -9086.21989623
  -exchange      EXHF   =         0.00000000
  -V(xc)+E(xc)   XCENC  =      1470.21641206
  PAW double counting   =     28356.67339664   -31169.41494511
  entropy T*S    EENTRO =        -0.00000000
  eigenvalues    EBANDS =     -5207.28467791
  atomic energy  EATOM  =     37532.17875095
  Solvation  Ediel_sol  =         0.00000000
  ---------------------------------------------------
  free energy    TOTEN  =      -223.77702859 eV

  energy without entropy =     -223.77702859  energy(sigma->0) =     -223.77702859


--------------------------------------------------------------------------------------------------------




--------------------------------------- Iteration      1(   8)  ---------------------------------------


    POTLOK:  cpu time      0.0566: real time      0.0569
    SETDIJ:  cpu time      0.0537: real time      0.0539
     EDDAV:  cpu time      5.8342: real time      5.8459
       DOS:  cpu time      0.0004: real time      0.0004
    CHARGE:  cpu time      0.2851: real time      0.2857
    MIXING:  cpu time      0.0021: real time      0.0021
    --------------------------------------------
      LOOP:  cpu time      6.2321: real time      6.2448

 eigenvalue-minimisations  :  3584
 total energy-change (2. order) :-0.1262646E+00  (-0.2456893E-01)
 number of electron     448.0000022 magnetization 
 augmentation part      112.8028754 magnetization 

 Broyden mixing:
  rms(total) = 0.12299E+00    rms(broyden)= 0.12299E+00
  rms(prec ) = 0.12732E+00
  weight for this iteration     100.00

 eigenvalues of (default mixing * dielectric matrix)
  average eigenvalue GAMMA=   1.5620
  2.4488  1.3852  0.8522

 Free energy of the ion-electron system (eV)
  ---------------------------------------------------
  alpha Z        PSCENC =       751.52672365
  Ewald energy   TEWEN  =    -22871.45279263
  -Hartree energ DENC   =     -9074.84034103
  -exchange      EXHF   =         0.00000000
  -V(xc)+E(xc)   XCENC  =      1472.18531877
  PAW double counting   =     29747.14616378   -32566.83181079
  entropy T*S    EENTRO =        -0.00000000
  eigenvalues    EBANDS =     -5213.81530591
  atomic energy  EATOM  =     37532.17875095
  Solvation  Ediel_sol  =         0.00000000
  ---------------------------------------------------
  free energy    TOTEN  =      -223.90329321 eV

  energy without entropy =     -223.90329321  energy(sigma->0) =     -223.90329321


--------------------------------------------------------------------------------------------------------




--------------------------------------- Iteration      1(   9)  ---------------------------------------


    POTLOK:  cpu time      0.0506: real time      0.0570
    SETDIJ:  cpu time      0.0533: real time      0.0537
     EDDAV:  cpu time      6.7589: real time      6.7722
       DOS:  cpu time      0.0004: real time      0.0004
    CHARGE:  cpu time      0.2777: real time      0.2782
    MIXING:  cpu time      0.0020: real time      0.0020
    --------------------------------------------
      LOOP:  cpu time      7.1428: real time      7.1634

 eigenvalue-minimisations  :  4352
 total energy-change (2. order) : 0.6258377E-02  (-0.1540133E-02)
 number of electron     448.0000022 magnetization 
 augmentation part      112.8339107 magnetization 

 Broyden mixing:
  rms(total) = 0.46262E-01    rms(broyden)= 0.46261E-01
  rms(prec ) = 0.49229E-01
  weight for this iteration     100.00

 eigenvalues of (default mixing * dielectric matrix)
  average eigenvalue GAMMA=   1.9426
  2.9511  2.3999  1.0374  1.3818

 Free energy of the ion-electron system (eV)
  ---------------------------------------------------
  alpha Z        PSCENC =       751.52672365
  Ewald energy   TEWEN  =    -22871.45279263
  -Hartree energ DENC   =     -9078.05776062
  -exchange      EXHF   =         0.00000000
  -V(xc)+E(xc)   XCENC  =      1472.32227865
  PAW double counting   =     29596.34155515   -32415.20437275
  entropy T*S    EENTRO =        -0.00000000
  eigenvalues    EBANDS =     -5211.55141723
  atomic energy  EATOM  =     37532.17875095
  Solvation  Ediel_sol  =         0.00000000
  ---------------------------------------------------
  free energy    TOTEN  =      -223.89703483 eV

  energy without entropy =     -223.89703483  energy(sigma->0) =     -223.89703483


--------------------------------------------------------------------------------------------------------




--------------------------------------- Iteration      1(  10)  ---------------------------------------


    POTLOK:  cpu time      0.0563: real time      0.0566
    SETDIJ:  cpu time      0.0540: real time      0.0541
     EDDAV:  cpu time      5.8089: real time      5.8204
       DOS:  cpu time      0.0004: real time      0.0004
    CHARGE:  cpu time      0.2876: real time      0.2882
    MIXING:  cpu time      0.0021: real time      0.0021
    --------------------------------------------
      LOOP:  cpu time      6.2094: real time      6.2218

 eigenvalue-minimisations  :  3560
 total energy-change (2. order) :-0.4307777E-02  (-0.1382776E-02)
 number of electron     448.0000022 magnetization 
 augmentation part      112.8560013 magnetization 

 Broyden mixing:
  rms(total) = 0.13009E-01    rms(broyden)= 0.13006E-01
  rms(prec ) = 0.15020E-01
  weight for this iteration     100.00

 eigenvalues of (default mixing * dielectric matrix)
  average eigenvalue GAMMA=   1.7113
  2.9371  2.4753  1.3016  1.0246  0.8179

 Free energy of the ion-electron system (eV)
  ---------------------------------------------------
  alpha Z        PSCENC =       751.52672365
  Ewald energy   TEWEN  =    -22871.45279263
  -Hartree energ DENC   =     -9079.04756587
  -exchange      EXHF   =         0.00000000
  -V(xc)+E(xc)   XCENC  =      1472.59799498
  PAW double counting   =     29491.38026652   -32310.74609992
  entropy T*S    EENTRO =        -0.00000000
  eigenvalues    EBANDS =     -5210.33862029
  atomic energy  EATOM  =     37532.17875095
  Solvation  Ediel_sol  =         0.00000000
  ---------------------------------------------------
  free energy    TOTEN  =      -223.90134261 eV

  energy without entropy =     -223.90134261  energy(sigma->0) =     -223.90134261


--------------------------------------------------------------------------------------------------------




--------------------------------------- Iteration      1(  11)  ---------------------------------------


    POTLOK:  cpu time      0.0506: real time      0.0562
    SETDIJ:  cpu time      0.0545: real time      0.0546
     EDDAV:  cpu time      6.2502: real time      6.2625
       DOS:  cpu time      0.0004: real time      0.0004
    CHARGE:  cpu time      0.2893: real time      0.2899
    MIXING:  cpu time      0.0023: real time      0.0023
    --------------------------------------------
      LOOP:  cpu time      6.6473: real time      6.6659

 eigenvalue-minimisations  :  3928
 total energy-change (2. order) : 0.3145336E-03  (-0.7365064E-04)
 number of electron     448.0000022 magnetization 
 augmentation part      112.8504681 magnetization 

 Broyden mixing:
  rms(total) = 0.59231E-02    rms(broyden)= 0.59231E-02
  rms(prec ) = 0.63493E-02
  weight for this iteration     100.00

 eigenvalues of (default mixing * dielectric matrix)
  average eigenvalue GAMMA=   1.6135
  2.8978  2.3735  1.3362  1.0282  1.0228  1.0228

 Free energy of the ion-electron system (eV)
  ---------------------------------------------------
  alpha Z        PSCENC =       751.52672365
  Ewald energy   TEWEN  =    -22871.45279263
  -Hartree energ DENC   =     -9078.25590679
  -exchange      EXHF   =         0.00000000
  -V(xc)+E(xc)   XCENC  =      1472.53204308
  PAW double counting   =     29494.45630265   -32313.87705231
  entropy T*S    EENTRO =        -0.00000000
  eigenvalues    EBANDS =     -5211.00909668
  atomic energy  EATOM  =     37532.17875095
  Solvation  Ediel_sol  =         0.00000000
  ---------------------------------------------------
  free energy    TOTEN  =      -223.90102808 eV

  energy without entropy =     -223.90102808  energy(sigma->0) =     -223.90102808


--------------------------------------------------------------------------------------------------------




--------------------------------------- Iteration      1(  12)  ---------------------------------------


    POTLOK:  cpu time      0.0575: real time      0.0577
    SETDIJ:  cpu time      0.0531: real time      0.0531
     EDDAV:  cpu time      6.5101: real time      6.5227
       DOS:  cpu time      0.0004: real time      0.0004
    CHARGE:  cpu time      0.2939: real time      0.2945
    MIXING:  cpu time      0.0021: real time      0.0021
    --------------------------------------------
      LOOP:  cpu time      6.9171: real time      6.9306

 eigenvalue-minimisations  :  4144
 total energy-change (2. order) : 0.3454201E-04  (-0.1395382E-04)
 number of electron     448.0000022 magnetization 
 augmentation part      112.8480885 magnetization 

 Broyden mixing:
  rms(total) = 0.14115E-02    rms(broyden)= 0.14109E-02
  rms(prec ) = 0.14697E-02
  weight for this iteration     100.00

 eigenvalues of (default mixing * dielectric matrix)
  average eigenvalue GAMMA=   1.7008
  2.8330  2.6105  2.2700  1.1771  1.1771  1.0026  0.8355

 Free energy of the ion-electron system (eV)
  ---------------------------------------------------
  alpha Z        PSCENC =       751.52672365
  Ewald energy   TEWEN  =    -22871.45279263
  -Hartree energ DENC   =     -9078.04102900
  -exchange      EXHF   =         0.00000000
  -V(xc)+E(xc)   XCENC  =      1472.51414792
  PAW double counting   =     29504.15592984   -32323.54377906
  entropy T*S    EENTRO =        -0.00000000
  eigenvalues    EBANDS =     -5211.23894521
  atomic energy  EATOM  =     37532.17875095
  Solvation  Ediel_sol  =         0.00000000
  ---------------------------------------------------
  free energy    TOTEN  =      -223.90099354 eV

  energy without entropy =     -223.90099354  energy(sigma->0) =     -223.90099354


--------------------------------------------------------------------------------------------------------




--------------------------------------- Iteration      1(  13)  ---------------------------------------


    POTLOK:  cpu time      0.0509: real time      0.0568
    SETDIJ:  cpu time      0.0541: real time      0.0542
     EDDAV:  cpu time      5.8426: real time      5.8543
       DOS:  cpu time      0.0004: real time      0.0004
    CHARGE:  cpu time      0.2862: real time      0.2868
    MIXING:  cpu time      0.0022: real time      0.0022
    --------------------------------------------
      LOOP:  cpu time      6.2363: real time      6.2546

 eigenvalue-minimisations  :  3584
 total energy-change (2. order) :-0.7659903E-05  (-0.1029429E-05)
 number of electron     448.0000022 magnetization 
 augmentation part      112.8478587 magnetization 

 Broyden mixing:
  rms(total) = 0.57727E-03    rms(broyden)= 0.57717E-03
  rms(prec ) = 0.61821E-03
  weight for this iteration     100.00

 eigenvalues of (default mixing * dielectric matrix)
  average eigenvalue GAMMA=   1.6389
  2.8872  2.5133  2.5133  1.2837  1.0040  1.0040  0.9529  0.9529

 Free energy of the ion-electron system (eV)
  ---------------------------------------------------
  alpha Z        PSCENC =       751.52672365
  Ewald energy   TEWEN  =    -22871.45279263
  -Hartree energ DENC   =     -9077.99964132
  -exchange      EXHF   =         0.00000000
  -V(xc)+E(xc)   XCENC  =      1472.50881093
  PAW double counting   =     29500.56410471   -32319.93255235
  entropy T*S    EENTRO =        -0.00000000
  eigenvalues    EBANDS =     -5211.29440513
  atomic energy  EATOM  =     37532.17875095
  Solvation  Ediel_sol  =         0.00000000
  ---------------------------------------------------
  free energy    TOTEN  =      -223.90100120 eV

  energy without entropy =     -223.90100120  energy(sigma->0) =     -223.90100120


--------------------------------------------------------------------------------------------------------




--------------------------------------- Iteration      1(  14)  ---------------------------------------


    POTLOK:  cpu time      0.0524: real time      0.0562
    SETDIJ:  cpu time      0.0538: real time      0.0542
     EDDAV:  cpu time      6.2446: real time      6.2567
       DOS:  cpu time      0.0005: real time      0.0004
    CHARGE:  cpu time      0.2851: real time      0.2857
    MIXING:  cpu time      0.0022: real time      0.0022
    --------------------------------------------
      LOOP:  cpu time      6.6385: real time      6.6554

 eigenvalue-minimisations  :  3920
 total energy-change (2. order) : 0.1055654E-05  (-0.1765082E-06)
 number of electron     448.0000022 magnetization 
 augmentation part      112.8475812 magnetization 

 Broyden mixing:
  rms(total) = 0.14114E-02    rms(broyden)= 0.14114E-02
  rms(prec ) = 0.14666E-02
  weight for this iteration     100.00

 eigenvalues of (default mixing * dielectric matrix)
  average eigenvalue GAMMA=   1.6961
  2.8231  2.7275  2.7275  1.3727  1.3727  1.4250  1.0168  1.0168  0.7828

 Free energy of the ion-electron system (eV)
  ---------------------------------------------------
  alpha Z        PSCENC =       751.52672365
  Ewald energy   TEWEN  =    -22871.45279263
  -Hartree energ DENC   =     -9077.98798686
  -exchange      EXHF   =         0.00000000
  -V(xc)+E(xc)   XCENC  =      1472.50839602
  PAW double counting   =     29502.19097249   -32321.56490138
  entropy T*S    EENTRO =        -0.00000000
  eigenvalues    EBANDS =     -5211.30016238
  atomic energy  EATOM  =     37532.17875095
  Solvation  Ediel_sol  =         0.00000000
  ---------------------------------------------------
  free energy    TOTEN  =      -223.90100014 eV

  energy without entropy =     -223.90100014  energy(sigma->0) =     -223.90100014


--------------------------------------------------------------------------------------------------------




--------------------------------------- Iteration      1(  15)  ---------------------------------------


    POTLOK:  cpu time      0.0504: real time      0.0568
    SETDIJ:  cpu time      0.0538: real time      0.0539
     EDDAV:  cpu time      5.7764: real time      5.7878
       DOS:  cpu time      0.0004: real time      0.0004
    CHARGE:  cpu time      0.2816: real time      0.2822
    MIXING:  cpu time      0.0022: real time      0.0022
    --------------------------------------------
      LOOP:  cpu time      6.1648: real time      6.1832

 eigenvalue-minimisations  :  3536
 total energy-change (2. order) :-0.1433618E-05  (-0.2542286E-06)
 number of electron     448.0000022 magnetization 
 augmentation part      112.8478172 magnetization 

 Broyden mixing:
  rms(total) = 0.49976E-03    rms(broyden)= 0.49975E-03
  rms(prec ) = 0.51214E-03
  weight for this iteration     100.00

 eigenvalues of (default mixing * dielectric matrix)
  average eigenvalue GAMMA=   1.6104
  3.1137  2.7862  2.3678  1.3968  1.3968  1.2719  0.9935  0.9935  0.9420  0.8411

 Free energy of the ion-electron system (eV)
  ---------------------------------------------------
  alpha Z        PSCENC =       751.52672365
  Ewald energy   TEWEN  =    -22871.45279263
  -Hartree energ DENC   =     -9078.04245015
  -exchange      EXHF   =         0.00000000
  -V(xc)+E(xc)   XCENC  =      1472.51179715
  PAW double counting   =     29500.74178866   -32320.11908812
  entropy T*S    EENTRO =        -0.00000000
  eigenvalues    EBANDS =     -5211.24573108
  atomic energy  EATOM  =     37532.17875095
  Solvation  Ediel_sol  =         0.00000000
  ---------------------------------------------------
  free energy    TOTEN  =      -223.90100157 eV

  energy without entropy =     -223.90100157  energy(sigma->0) =     -223.90100157


--------------------------------------------------------------------------------------------------------




--------------------------------------- Iteration      1(  16)  ---------------------------------------


    POTLOK:  cpu time      0.0505: real time      0.0560
    SETDIJ:  cpu time      0.0534: real time      0.0535
     EDDAV:  cpu time      5.8172: real time      5.8285
       DOS:  cpu time      0.0004: real time      0.0004
    CHARGE:  cpu time      0.2835: real time      0.2841
    MIXING:  cpu time      0.0023: real time      0.0023
    --------------------------------------------
      LOOP:  cpu time      6.2073: real time      6.2249

 eigenvalue-minimisations  :  3568
 total energy-change (2. order) :-0.7899580E-06  (-0.2529577E-07)
 number of electron     448.0000022 magnetization 
 augmentation part      112.8479307 magnetization 

 Broyden mixing:
  rms(total) = 0.10356E-03    rms(broyden)= 0.10352E-03
  rms(prec ) = 0.11166E-03
  weight for this iteration     100.00

 eigenvalues of (default mixing * dielectric matrix)
  average eigenvalue GAMMA=   1.5031
  3.1131  2.7606  2.3809  1.2856  1.2856  1.3004  0.9558  0.9558  0.9493  0.8341
  0.7130

 Free energy of the ion-electron system (eV)
  ---------------------------------------------------
  alpha Z        PSCENC =       751.52672365
  Ewald energy   TEWEN  =    -22871.45279263
  -Hartree energ DENC   =     -9078.04900298
  -exchange      EXHF   =         0.00000000
  -V(xc)+E(xc)   XCENC  =      1472.51216766
  PAW double counting   =     29499.77755253   -32319.15264481
  entropy T*S    EENTRO =        -0.00000000
  eigenvalues    EBANDS =     -5211.24175673
  atomic energy  EATOM  =     37532.17875095
  Solvation  Ediel_sol  =         0.00000000
  ---------------------------------------------------
  free energy    TOTEN  =      -223.90100236 eV

  energy without entropy =     -223.90100236  energy(sigma->0) =     -223.90100236


--------------------------------------------------------------------------------------------------------




--------------------------------------- Iteration      1(  17)  ---------------------------------------


    POTLOK:  cpu time      0.0506: real time      0.0561
    SETDIJ:  cpu time      0.0540: real time      0.0541
     EDDAV:  cpu time      5.2352: real time      5.2451
       DOS:  cpu time      0.0004: real time      0.0004
    CHARGE:  cpu time      0.2798: real time      0.2804
    MIXING:  cpu time      0.0025: real time      0.0025
    --------------------------------------------
      LOOP:  cpu time      5.6224: real time      5.6386

 eigenvalue-minimisations  :  3072
 total energy-change (2. order) :-0.2652814E-07  (-0.3311378E-08)
 number of electron     448.0000022 magnetization 
 augmentation part      112.8479486 magnetization 

 Broyden mixing:
  rms(total) = 0.46513E-04    rms(broyden)= 0.46474E-04
  rms(prec ) = 0.50398E-04
  weight for this iteration     100.00

 eigenvalues of (default mixing * dielectric matrix)
  average eigenvalue GAMMA=   1.5198
  3.1315  2.7960  2.3877  1.2025  1.2025  1.4291  1.2453  1.2453  0.8961  0.8961
  0.9027  0.9027

 Free energy of the ion-electron system (eV)
  ---------------------------------------------------
  alpha Z        PSCENC =       751.52672365
  Ewald energy   TEWEN  =    -22871.45279263
  -Hartree energ DENC   =     -9078.05014316
  -exchange      EXHF   =         0.00000000
  -V(xc)+E(xc)   XCENC  =      1472.51225620
  PAW double counting   =     29499.75368168   -32319.12866149
  entropy T*S    EENTRO =        -0.00000000
  eigenvalues    EBANDS =     -5211.24081759
  atomic energy  EATOM  =     37532.17875095
  Solvation  Ediel_sol  =         0.00000000
  ---------------------------------------------------
  free energy    TOTEN  =      -223.90100239 eV

  energy without entropy =     -223.90100239  energy(sigma->0) =     -223.90100239


--------------------------------------------------------------------------------------------------------




--------------------------------------- Iteration      1(  18)  ---------------------------------------


    POTLOK:  cpu time      0.0505: real time      0.0563
    SETDIJ:  cpu time      0.0537: real time      0.0538
     EDDAV:  cpu time      3.8993: real time      3.9068
       DOS:  cpu time      0.0003: real time      0.0003
    CHARGE:  cpu time      0.2924: real time      0.2930
    MIXING:  cpu time      0.0024: real time      0.0024
    --------------------------------------------
      LOOP:  cpu time      4.2985: real time      4.3126

 eigenvalue-minimisations  :  1944
 total energy-change (2. order) :-0.6137270E-07  (-0.5945167E-09)
 number of electron     448.0000022 magnetization 
 augmentation part      112.8479528 magnetization 

 Broyden mixing:
  rms(total) = 0.14713E-04    rms(broyden)= 0.14601E-04
  rms(prec ) = 0.15985E-04
  weight for this iteration     100.00

 eigenvalues of (default mixing * dielectric matrix)
  average eigenvalue GAMMA=   1.5146
  3.1350  2.8267  2.3679  1.6879  1.2137  1.2137  1.1713  1.1713  1.2858  1.1151
  0.8719  0.8719  0.7575

 Free energy of the ion-electron system (eV)
  ---------------------------------------------------
  alpha Z        PSCENC =       751.52672365
  Ewald energy   TEWEN  =    -22871.45279263
  -Hartree energ DENC   =     -9078.05409329
  -exchange      EXHF   =         0.00000000
  -V(xc)+E(xc)   XCENC  =      1472.51243701
  PAW double counting   =     29499.71268009   -32319.08762664
  entropy T*S    EENTRO =        -0.00000000
  eigenvalues    EBANDS =     -5211.23708158
  atomic energy  EATOM  =     37532.17875095
  Solvation  Ediel_sol  =         0.00000000
  ---------------------------------------------------
  free energy    TOTEN  =      -223.90100245 eV

  energy without entropy =     -223.90100245  energy(sigma->0) =     -223.90100245


--------------------------------------------------------------------------------------------------------




--------------------------------------- Iteration      1(  19)  ---------------------------------------


    POTLOK:  cpu time      0.0503: real time      0.0563
    SETDIJ:  cpu time      0.0537: real time      0.0538
     EDDAV:  cpu time      3.8979: real time      3.9056
       DOS:  cpu time      0.0004: real time      0.0004
    CHARGE:  cpu time      0.2902: real time      0.2908
    MIXING:  cpu time      0.0030: real time      0.0030
    --------------------------------------------
      LOOP:  cpu time      4.2955: real time      4.3098

 eigenvalue-minimisations  :  1944
 total energy-change (2. order) :-0.2393790E-07  (-0.3048605E-09)
 number of electron     448.0000022 magnetization 
 augmentation part      112.8479599 magnetization 

 Broyden mixing:
  rms(total) = 0.92920E-05    rms(broyden)= 0.91179E-05
  rms(prec ) = 0.98593E-05
  weight for this iteration     100.00

 eigenvalues of (default mixing * dielectric matrix)
  average eigenvalue GAMMA=   1.5412
  3.1431  2.8144  2.5632  2.2233  1.1953  1.1953  1.2758  1.2758  1.2072  1.2072
  0.9301  0.9301  0.8600  0.7556

 Free energy of the ion-electron system (eV)
  ---------------------------------------------------
  alpha Z        PSCENC =       751.52672365
  Ewald energy   TEWEN  =    -22871.45279263
  -Hartree energ DENC   =     -9078.05535768
  -exchange      EXHF   =         0.00000000
  -V(xc)+E(xc)   XCENC  =      1472.51248939
  PAW double counting   =     29499.68869963   -32319.06341077
  entropy T*S    EENTRO =        -0.00000000
  eigenvalues    EBANDS =     -5211.23610501
  atomic energy  EATOM  =     37532.17875095
  Solvation  Ediel_sol  =         0.00000000
  ---------------------------------------------------
  free energy    TOTEN  =      -223.90100247 eV

  energy without entropy =     -223.90100247  energy(sigma->0) =     -223.90100247


--------------------------------------------------------------------------------------------------------




--------------------------------------- Iteration      1(  20)  ---------------------------------------


    POTLOK:  cpu time      0.0515: real time      0.0572
    SETDIJ:  cpu time      0.0537: real time      0.0538
     EDDAV:  cpu time      3.9006: real time      3.9082
       DOS:  cpu time      0.0003: real time      0.0003
    --------------------------------------------
      LOOP:  cpu time      4.0061: real time      4.0195

 eigenvalue-minimisations  :  1944
 total energy-change (2. order) : 0.7057679E-08  (-0.1246235E-09)
 number of electron     448.0000022 magnetization 
 augmentation part      112.8479599 magnetization 

 Free energy of the ion-electron system (eV)
  ---------------------------------------------------
  alpha Z        PSCENC =       751.52672365
  Ewald energy   TEWEN  =    -22871.45279263
  -Hartree energ DENC   =     -9078.05603467
  -exchange      EXHF   =         0.00000000
  -V(xc)+E(xc)   XCENC  =      1472.51252321
  PAW double counting   =     29499.69031294   -32319.06510268
  entropy T*S    EENTRO =        -0.00000000
  eigenvalues    EBANDS =     -5211.23538323
  atomic energy  EATOM  =     37532.17875095
  Solvation  Ediel_sol  =         0.00000000
  ---------------------------------------------------
  free energy    TOTEN  =      -223.90100247 eV

  energy without entropy =     -223.90100247  energy(sigma->0) =     -223.90100247


--------------------------------------------------------------------------------------------------------




 average (electrostatic) potential at core
  the test charge radii are     0.9254  0.9406
  (the norm of the test charge is              1.0000)
       1 -46.9495       2 -46.9514       3 -46.9514       4 -46.9495       5 -46.9495
       6 -46.9499       7 -46.9514       8 -46.9495       9 -46.9495      10 -46.9514
      11 -46.9499      12 -46.9495      13 -46.9495      14 -46.9499      15 -46.9499
      16 -46.9495      17 -46.9495      18 -46.9476      19 -46.9476      20 -46.9495
      21 -46.9495      22 -46.9491      23 -46.9476      24 -46.9495      25 -46.9495
      26 -46.9476      27 -46.9491      28 -46.9495      29 -46.9495      30 -46.9491
      31 -46.9491      32 -46.9495      33 -93.5891      34 -93.5882      35 -93.5882
      36 -93.5960      37 -93.5891      38 -93.5882      39 -93.5882      40 -93.5885
      41 -93.5891      42 -93.5882      43 -93.5882      44 -93.5885      45 -93.5891
      46 -93.5882      47 -93.5882      48 -93.5886      49 -93.5873      50 -93.5882
      51 -93.5882      52 -93.5805      53 -93.5873      54 -93.5882      55 -93.5882
      56 -93.5879      57 -93.5873      58 -93.5882      59 -93.5882      60 -93.5879
      61 -93.5873      62 -93.5882      63 -93.5882      64 -93.5879
 
 
 
 E-fermi :  -0.5170     XC(G=0):  -8.4227     alpha+bet : -8.2520

 Fermi energy:        -0.5169893595

 k-point     1 :       0.0000    0.0000    0.0000
  band No.  band energies     occupation 
      1     -21.3035      2.00000
      2     -21.3035      2.00000
      3     -21.3035      2.00000
      4     -21.3035      2.00000
      5     -21.2935      2.00000
      6     -21.2932      2.00000
      7     -21.2931      2.00000
      8     -21.2931      2.00000
      9     -21.2929      2.00000
     10     -21.2929      2.00000
     11     -21.2929      2.00000
     12     -21.2929      2.00000
     13     -21.2928      2.00000
     14     -21.2928      2.00000
     15     -21.2928      2.00000
     16     -21.2925      2.00000
     17     -21.2925      2.00000
     18     -21.2924      2.00000
     19     -21.2922      2.00000
     20     -21.2860      2.00000
     21     -21.2860      2.00000
     22     -21.2856      2.00000
     23     -21.2856      2.00000
     24     -21.2856      2.00000
     25     -21.2855      2.00000
     26     -21.2855      2.00000
     27     -21.2855      2.00000
     28     -21.2855      2.00000
     29     -21.2855      2.00000
     30     -21.2852      2.00000
     31     -21.2852      2.00000
     32     -21.2836      2.00000
     33     -21.2836      2.00000
     34     -21.2836      2.00000
     35     -21.2835      2.00000
     36     -21.2835      2.00000
     37     -21.2835      2.00000
     38     -21.2815      2.00000
     39     -21.2811      2.00000
     40     -21.2811      2.00000
     41     -21.2811      2.00000
     42     -21.2811      2.00000
     43     -21.2811      2.00000
     44     -21.2800      2.00000
     45     -21.2800      2.00000
     46     -21.2799      2.00000
     47     -21.2799      2.00000
     48     -21.2798      2.00000
     49     -21.2798      2.00000
     50     -21.2798      2.00000
     51     -21.2798      2.00000
     52     -21.2798      2.00000
     53     -21.2798      2.00000
     54     -21.2798      2.00000
     55     -21.2798      2.00000
     56     -21.2787      2.00000
     57     -21.2787      2.00000
     58     -21.2786      2.00000
     59     -21.2784      2.00000
     60     -21.2784      2.00000
     61     -21.2782      2.00000
     62     -21.2743      2.00000
     63     -21.2743      2.00000
     64     -21.2742      2.00000
     65     -21.2742      2.00000
     66     -21.2741      2.00000
     67     -21.2741      2.00000
     68     -21.2741      2.00000
     69     -21.2741      2.00000
     70     -21.2741      2.00000
     71     -21.2740      2.00000
     72     -21.2736      2.00000
     73     -21.2736      2.00000
     74     -21.2730      2.00000
     75     -21.2727      2.00000
     76     -21.2717      2.00000
     77     -21.2717      2.00000
     78     -21.2717      2.00000
     79     -21.2717      2.00000
     80     -21.2717      2.00000
     81     -21.2717      2.00000
     82     -21.2717      2.00000
     83     -21.2717      2.00000
     84     -21.2717      2.00000
     85     -21.2717      2.00000
     86     -21.2716      2.00000
     87     -21.2716      2.00000
     88     -21.2716      2.00000
     89     -21.2715      2.00000
     90     -21.2714      2.00000
     91     -21.2714      2.00000
     92     -21.2705      2.00000
     93     -21.2703      2.00000
     94     -21.2692      2.00000
     95     -21.2691      2.00000
     96     -21.2691      2.00000
     97     -13.3579      2.00000
     98     -13.1389      2.00000
     99     -13.1373      2.00000
    100     -13.1373      2.00000
    101     -13.1373      2.00000
    102     -13.1373      2.00000
    103     -13.1359      2.00000
[...]
         0         1         2         3         4         5         6         7         8         9
 total charge-density along one line
 
 pseudopotential strength for first ion, spin component:           1
-25.387  -0.000  -0.000   2.510   0.000   0.000   0.000   0.000
 -0.000 -25.387  -0.000   0.000   2.510   0.000   0.000   0.000
 -0.000  -0.000 -25.387   0.000   0.000   2.510  -0.000  -0.000
  2.510   0.000   0.000   6.528   0.000   0.000  -0.000   0.000
  0.000   2.510   0.000   0.000   6.528   0.000  -0.000   0.000
  0.000   0.000   2.510   0.000   0.000   6.528   0.000   0.000
  0.000   0.000  -0.000  -0.000  -0.000   0.000   1.428   6.993
  0.000   0.000  -0.000   0.000   0.000   0.000   6.993  33.989
 total augmentation occupancy for first ion, spin component:           1
  2.002   0.000   0.000   0.002   0.000   0.000   0.000   0.000
  0.000   2.002   0.000   0.000   0.002   0.000   0.000  -0.000
  0.000   0.000   2.002   0.000   0.000   0.002   0.000  -0.000
  0.002   0.000   0.000   0.017   0.000   0.000   0.000   0.000
  0.000   0.002   0.000   0.000   0.017   0.000   0.000   0.000
  0.000   0.000   0.002   0.000   0.000   0.017   0.001  -0.000
  0.000   0.000   0.000   0.000   0.000   0.001   0.403  -0.001
  0.000  -0.000  -0.000   0.000   0.000  -0.000  -0.001   0.000


------------------------ aborting loop because EDIFF is reached ----------------------------------------


    CHARGE:  cpu time      0.2812: real time      0.2818
    FORLOC:  cpu time      0.0174: real time      0.0174
    FORNL :  cpu time      2.5609: real time      2.5664
    STRESS:  cpu time      4.1365: real time      4.1451
    FORCOR:  cpu time      0.0652: real time      0.0653
    FORHAR:  cpu time      0.0274: real time      0.0275
    MIXING:  cpu time      0.0022: real time      0.0022
    OFIELD:  cpu time      0.0000: real time      0.0000

  FORCE on cell =-STRESS in cart. coord.  units (eV):
  Direction    XX          YY          ZZ          XY          YZ          ZX
  --------------------------------------------------------------------------------------
  Alpha Z   751.52672   751.52672   751.52672
  Ewald   -7623.85215 -7623.86899 -7623.86899    -0.00000     0.00000     0.00000
  Hartree  3026.02271  3026.01622  3026.01622    -0.00000    -0.00000    -0.00000
  E(xc)   -2014.34731 -2014.34732 -2014.34732     0.00000     0.00000     0.00000
  Local   -2024.83449 -2024.81145 -2024.81145     0.00000     0.00000    -0.00000
  n-local  1887.65282  1887.55103  1887.75335    -0.00000     0.00000     0.00000
  augment   687.00565   687.00567   687.00537    -0.00000    -0.00010    -0.00010
  Kinetic  5310.50532  5310.24976  5310.76046    -0.00000     0.00000     0.00000
  Fock        0.00000     0.00000     0.00000     0.00000     0.00000     0.00000
  -------------------------------------------------------------------------------------
  Total      -0.32073    -0.32199    -0.32199     0.00000     0.00000    -0.00000
  in kB      -0.36536    -0.36681    -0.36681     0.00000     0.00000    -0.00000
  external pressure =       -0.37 kB  Pullay stress =        0.00 kB


 VOLUME and BASIS-vectors are now :
 -----------------------------------------------------------------------------
  energy-cutoff  :      341.00
  volume of cell :     1406.43
      direct lattice vectors                 reciprocal lattice vectors
    11.204002360  0.000000000  0.000000000     0.089253819  0.000000000  0.000000000
     0.000000000 11.204002360  0.000000000     0.000000000  0.089253819  0.000000000
     0.000000000  0.000000000 11.204002360     0.000000000  0.000000000  0.089253819

  length of vectors
    11.204002360 11.204002360 11.204002360     0.089253819  0.089253819  0.089253819


 FORCES acting on ions
    electron-ion (+dipol)            ewald-force                    non-local-force                 convergence-correction
 -----------------------------------------------------------------------------------------------
   0.134E+01 -.496E-13 -.283E-05   -.132E+01 0.257E-14 -.136E-14   -.384E-01 0.165E-22 -.101E-22   0.190E-04 -.139E-12 -.153E-12
   -.812E-01 -.148E+00 -.515E-09   0.827E-01 0.159E+00 -.235E-13   -.987E-03 -.905E-02 -.196E-25   -.810E-06 -.109E-05 -.176E-12
   -.812E-01 -.513E-13 -.148E+00   0.827E-01 -.141E-13 0.159E+00   -.987E-03 0.217E-24 -.905E-02   -.810E-06 -.107E-12 -.109E-05
   0.100E+00 0.277E-03 0.277E-03   -.103E+00 -.288E-03 -.288E-03   0.216E-02 0.994E-05 0.994E-05   0.178E-04 -.549E-06 -.549E-06
   0.545E-01 -.518E-13 -.112E-07   -.544E-01 -.152E-14 -.244E-13   -.104E-03 -.382E-25 0.387E-25   0.189E-04 -.120E-12 -.128E-12
   -.258E-02 -.132E-01 0.657E-11   0.255E-02 0.130E-01 0.889E-14   0.248E-04 0.141E-03 -.146E-24   -.117E-05 -.114E-05 -.694E-13
   -.812E-01 -.566E-13 0.148E+00   0.827E-01 0.671E-14 -.159E+00   -.987E-03 -.213E-24 0.905E-02   -.810E-06 -.785E-13 0.109E-05
   0.100E+00 0.277E-03 -.277E-03   -.103E+00 -.288E-03 0.288E-03   0.216E-02 0.994E-05 -.994E-05   0.178E-04 -.549E-06 0.549E-06
   0.545E-01 0.692E-12 -.211E-09   -.544E-01 -.800E-14 -.154E-13   -.104E-03 -.384E-25 0.203E-25   0.189E-04 0.368E-13 -.208E-12
   -.812E-01 0.148E+00 -.515E-09   0.827E-01 -.159E+00 -.190E-13   -.987E-03 0.905E-02 0.701E-25   -.810E-06 0.109E-05 -.154E-12
   -.258E-02 0.763E-12 -.132E-01   0.255E-02 0.284E-13 0.130E-01   0.248E-04 -.172E-24 0.141E-03   -.117E-05 0.164E-13 -.114E-05
   0.100E+00 -.277E-03 0.277E-03   -.103E+00 0.288E-03 -.288E-03   0.216E-02 -.994E-05 0.994E-05   0.178E-04 0.549E-06 -.549E-06
   0.216E-01 0.693E-12 -.441E-11   -.225E-01 0.124E-13 -.267E-13   0.675E-03 -.120E-25 -.881E-25   0.188E-04 0.227E-13 -.826E-13
   -.258E-02 0.132E-01 0.672E-11   0.255E-02 -.130E-01 -.125E-13   0.248E-04 -.141E-03 0.107E-24   -.117E-05 0.114E-05 -.100E-12
   -.258E-02 0.499E-12 0.132E-01   0.255E-02 0.284E-13 -.130E-01   0.248E-04 0.141E-24 -.141E-03   -.117E-05 -.152E-13 0.114E-05
   0.100E+00 -.277E-03 -.277E-03   -.103E+00 0.288E-03 0.288E-03   0.216E-02 -.994E-05 -.994E-05   0.178E-04 0.549E-06 0.549E-06
   -.150E+00 -.580E-13 0.207E-05   0.172E+00 0.193E-13 -.172E-13   -.186E-01 -.495E-23 0.577E-23   -.200E-04 -.882E-13 -.104E-12
   -.816E-01 0.147E+00 -.519E-09   0.831E-01 -.158E+00 -.207E-13   -.999E-03 0.899E-02 -.257E-25   0.905E-06 -.161E-06 -.159E-12
   -.816E-01 -.495E-13 0.147E+00   0.831E-01 0.159E-14 -.158E+00   -.999E-03 -.282E-25 0.899E-02   0.905E-06 -.168E-12 -.161E-06
   -.555E-01 -.831E-04 -.831E-04   0.578E-01 0.863E-04 0.863E-04   -.184E-02 -.205E-05 -.205E-05   -.177E-04 -.710E-06 -.710E-06
   -.422E-01 -.579E-13 -.112E-07   0.428E-01 0.287E-13 -.249E-13   -.401E-03 -.499E-26 0.533E-25   -.189E-04 -.865E-13 -.155E-12
   -.276E-02 0.132E-01 0.932E-11   0.274E-02 -.130E-01 0.710E-14   0.175E-04 -.138E-03 0.104E-24   0.103E-05 -.972E-06 -.884E-13
   -.816E-01 -.437E-13 -.147E+00   0.831E-01 -.948E-15 0.158E+00   -.999E-03 -.135E-24 -.899E-02   0.905E-06 -.108E-12 0.161E-06
   -.555E-01 -.831E-04 0.831E-04   0.578E-01 0.863E-04 -.863E-04   -.184E-02 -.205E-05 0.205E-05   -.177E-04 -.710E-06 0.710E-06
   -.422E-01 0.655E-12 -.211E-09   0.428E-01 -.355E-14 -.162E-13   -.401E-03 0.141E-26 0.229E-25   -.189E-04 0.434E-14 -.176E-12
   -.816E-01 -.147E+00 -.518E-09   0.831E-01 0.158E+00 -.545E-14   -.999E-03 -.899E-02 0.124E-24   0.905E-06 0.161E-06 -.102E-12
   -.276E-02 0.230E-11 0.132E-01   0.274E-02 0.196E-13 -.130E-01   0.175E-04 0.768E-25 -.138E-03   0.103E-05 0.719E-13 -.972E-06
   -.555E-01 0.831E-04 -.831E-04   0.578E-01 -.863E-04 0.863E-04   -.184E-02 0.205E-05 -.205E-05   -.177E-04 0.710E-06 -.710E-06
   -.202E-01 0.769E-12 -.779E-11   0.210E-01 0.100E-16 -.142E-13   -.673E-03 -.279E-25 0.341E-25   -.186E-04 0.339E-14 -.892E-13
   -.276E-02 -.132E-01 0.170E-10   0.274E-02 0.130E-01 -.107E-13   0.175E-04 0.138E-03 0.417E-26   0.103E-05 0.972E-06 -.149E-12
   -.276E-02 0.655E-11 -.132E-01   0.274E-02 0.480E-13 0.130E-01   0.175E-04 -.128E-25 0.138E-03   0.103E-05 0.156E-13 0.972E-06
   -.555E-01 0.831E-04 0.831E-04   0.578E-01 -.863E-04 -.863E-04   -.184E-02 0.205E-05 0.205E-05   -.177E-04 0.710E-06 0.710E-06
   -.207E-01 -.527E-01 -.527E-01   0.208E-01 0.534E-01 0.534E-01   -.187E-03 -.109E-02 -.109E-02   -.116E-05 -.141E-05 -.141E-05
   0.302E+00 0.491E-14 0.169E-02   -.306E+00 -.202E-13 -.170E-02   0.551E-02 0.225E-24 -.566E-05   0.190E-04 -.132E-12 -.212E-05
   0.302E+00 0.169E-02 -.483E-10   -.306E+00 -.170E-02 0.283E-13   0.551E-02 -.566E-05 0.387E-25   0.190E-04 -.212E-05 -.175E-12
   -.675E+00 0.465E-14 0.608E-06   0.679E+00 -.233E-13 0.258E-14   0.198E-02 0.542E-25 0.402E-24   -.155E-05 -.864E-13 -.121E-12
   -.207E-01 -.527E-01 0.527E-01   0.208E-01 0.534E-01 -.534E-01   -.187E-03 -.109E-02 0.109E-02   -.116E-05 -.141E-05 0.141E-05
   0.302E+00 -.505E-14 -.169E-02   -.306E+00 -.118E-13 0.170E-02   0.551E-02 0.123E-24 0.566E-05   0.190E-04 -.876E-13 0.212E-05
   0.361E-01 0.446E-04 -.392E-11   -.365E-01 -.442E-04 0.133E-13   0.507E-03 0.241E-05 -.207E-24   0.182E-04 -.126E-05 -.446E-13
   -.573E-02 0.660E-14 0.338E-08   0.565E-02 0.357E-14 0.258E-13   0.142E-03 0.555E-23 -.560E-24   -.898E-06 -.896E-13 -.838E-13
   -.207E-01 0.527E-01 -.527E-01   0.208E-01 -.534E-01 0.534E-01   -.187E-03 0.109E-02 -.109E-02   -.116E-05 0.141E-05 -.141E-05
   0.361E-01 0.809E-13 0.446E-04   -.365E-01 0.625E-14 -.442E-04   0.507E-03 -.240E-24 0.241E-05   0.182E-04 0.682E-13 -.126E-05
   0.302E+00 -.169E-02 -.483E-10   -.306E+00 0.170E-02 0.211E-13   0.551E-02 0.566E-05 -.963E-25   0.190E-04 0.212E-05 -.129E-12
   -.573E-02 0.101E-12 -.290E-10   0.565E-02 0.107E-13 -.375E-14   0.142E-03 -.364E-23 0.243E-23   -.898E-06 0.875E-14 -.178E-12
   -.207E-01 0.527E-01 0.527E-01   0.208E-01 -.534E-01 -.534E-01   -.187E-03 0.109E-02 0.109E-02   -.116E-05 0.141E-05 0.141E-05
   0.361E-01 -.442E-14 -.446E-04   -.365E-01 -.143E-13 0.442E-04   0.507E-03 -.226E-24 -.241E-05   0.182E-04 0.246E-13 0.126E-05
   0.361E-01 -.446E-04 -.400E-11   -.365E-01 0.442E-04 0.709E-14   0.507E-03 -.241E-05 -.774E-24   0.182E-04 0.126E-05 -.855E-13
   -.669E-03 0.116E-12 -.530E-11   0.666E-03 0.710E-14 0.106E-13   0.501E-05 0.281E-24 -.469E-25   -.891E-06 0.122E-13 -.373E-13
   -.211E-01 0.525E-01 0.525E-01   0.212E-01 -.532E-01 -.532E-01   -.193E-03 0.109E-02 0.109E-02   0.101E-05 -.851E-06 -.851E-06
   -.923E-01 0.780E-14 -.173E-03   0.937E-01 -.675E-14 0.175E-03   -.237E-02 0.131E-23 -.329E-05   -.186E-04 -.106E-12 -.909E-06
   -.923E-01 -.173E-03 -.476E-10   0.937E-01 0.175E-03 0.282E-13   -.237E-02 -.329E-05 -.345E-24   -.186E-04 -.909E-06 -.144E-12
   -.668E+00 0.128E-14 0.608E-06   0.672E+00 -.404E-13 0.337E-14   0.141E-02 0.133E-23 -.480E-24   0.238E-05 -.129E-12 -.811E-13
   -.211E-01 0.525E-01 -.525E-01   0.212E-01 -.532E-01 0.532E-01   -.193E-03 0.109E-02 -.109E-02   0.101E-05 -.851E-06 0.851E-06
   -.923E-01 -.171E-14 0.173E-03   0.937E-01 0.139E-13 -.175E-03   -.237E-02 0.189E-24 0.329E-05   -.186E-04 -.593E-13 0.909E-06
   -.308E-01 -.294E-04 -.648E-11   0.312E-01 0.304E-04 0.178E-13   -.555E-03 -.417E-07 0.248E-24   -.180E-04 -.902E-06 -.609E-13
   -.599E-02 0.223E-14 0.339E-08   0.591E-02 -.289E-13 0.106E-13   0.133E-03 0.141E-25 -.208E-24   -.424E-07 -.102E-12 -.127E-12
   -.211E-01 -.525E-01 0.525E-01   0.212E-01 0.532E-01 -.532E-01   -.193E-03 -.109E-02 0.109E-02   0.101E-05 0.851E-06 -.851E-06
   -.308E-01 0.711E-12 -.294E-04   0.312E-01 -.707E-14 0.304E-04   -.555E-03 0.106E-25 -.417E-07   -.180E-04 0.383E-13 -.902E-06
   -.923E-01 0.173E-03 -.466E-10   0.937E-01 -.175E-03 0.221E-13   -.237E-02 0.329E-05 0.485E-24   -.186E-04 0.909E-06 -.100E-12
   -.599E-02 0.108E-10 -.390E-10   0.591E-02 -.151E-13 0.766E-15   0.133E-03 0.338E-24 0.490E-25   -.424E-07 0.749E-13 -.145E-12
   -.211E-01 -.525E-01 -.525E-01   0.212E-01 0.532E-01 0.532E-01   -.193E-03 -.109E-02 -.109E-02   0.101E-05 0.851E-06 0.851E-06
   -.308E-01 0.155E-11 0.294E-04   0.312E-01 -.107E-13 -.304E-04   -.555E-03 -.450E-25 0.417E-07   -.180E-04 -.719E-14 0.902E-06
   -.308E-01 0.294E-04 -.503E-11   0.312E-01 -.304E-04 0.142E-13   -.555E-03 0.417E-07 0.309E-24   -.180E-04 0.902E-06 -.105E-12
   -.789E-03 0.352E-11 -.264E-11   0.788E-03 0.213E-13 0.706E-14   0.128E-05 0.639E-24 -.217E-24   0.325E-06 0.492E-13 -.725E-13
 -----------------------------------------------------------------------------------------------
   0.501E-01 -.372E-11 0.407E-06   -.468E-13 -.273E-13 -.297E-14   -.497E-01 0.329E-17 -.170E-17   -.199E-06 -.683E-12 -.112E-11
 
 
 POSITION                                       TOTAL-FORCE (eV/Angst)
 -----------------------------------------------------------------------------------
      0.01000      0.00000      0.00000        -0.020752     -0.000000     -0.000000
      2.80100      2.80100      0.00000         0.000501      0.001961     -0.000000
      2.80100      0.00000      2.80100         0.000501     -0.000000      0.001961
      0.00000      2.80100      2.80100        -0.000557     -0.000002     -0.000002
      0.00000      0.00000      5.60200        -0.000019     -0.000000     -0.000000
      2.80100      2.80100      5.60200        -0.000012     -0.000025     -0.000000
      2.80100      0.00000      8.40300         0.000501     -0.000000     -0.001961
      0.00000      2.80100      8.40300        -0.000557     -0.000002      0.000002
      0.00000      5.60200      0.00000        -0.000019     -0.000000     -0.000000
      2.80100      8.40300      0.00000         0.000501     -0.001961     -0.000000
      2.80100      5.60200      2.80100        -0.000012     -0.000000     -0.000025
      0.00000      8.40300      2.80100        -0.000557      0.000002     -0.000002
      0.00000      5.60200      5.60200        -0.000153     -0.000000     -0.000000
      2.80100      8.40300      5.60200        -0.000012      0.000025     -0.000000
      2.80100      5.60200      8.40300        -0.000012     -0.000000      0.000025
      0.00000      8.40300      8.40300        -0.000557      0.000002      0.000002
      5.60200      0.00000      0.00000         0.002975     -0.000000     -0.000000
      8.40300      2.80100      0.00000         0.000501     -0.001948     -0.000000
      8.40300      0.00000      2.80100         0.000501     -0.000000     -0.001948
      5.60200      2.80100      2.80100         0.000385      0.000000      0.000000
      5.60200      0.00000      5.60200         0.000100     -0.000000     -0.000000
      8.40300      2.80100      5.60200        -0.000011      0.000025     -0.000000
      8.40300      0.00000      8.40300         0.000501     -0.000000      0.001948
      5.60200      2.80100      8.40300         0.000385      0.000000     -0.000000
      5.60200      5.60200      0.00000         0.000100     -0.000000     -0.000000
      8.40300      8.40300      0.00000         0.000501      0.001948     -0.000000
      8.40300      5.60200      2.80100        -0.000011     -0.000000      0.000025
      5.60200      8.40300      2.80100         0.000385     -0.000000      0.000000
      5.60200      5.60200      5.60200         0.000144     -0.000000     -0.000000
      8.40300      8.40300      5.60200        -0.000011     -0.000025     -0.000000
      8.40300      5.60200      8.40300        -0.000011     -0.000000     -0.000025
      5.60200      8.40300      8.40300         0.000385     -0.000000     -0.000000
      2.80100      2.80100      2.80100        -0.000078     -0.000433     -0.000433
      0.00000      0.00000      2.80100         0.001661     -0.000000     -0.000014
      0.00000      2.80100      0.00000         0.001661     -0.000014     -0.000000
      2.80100      0.00000      0.00000         0.006277     -0.000000     -0.000000
      2.80100      2.80100      8.40300        -0.000078     -0.000433      0.000433
      0.00000      0.00000      8.40300         0.001661     -0.000000      0.000014
      0.00000      2.80100      5.60200         0.000193      0.000002     -0.000000
      2.80100      0.00000      5.60200         0.000051     -0.000000     -0.000000
      2.80100      8.40300      2.80100        -0.000078      0.000433     -0.000433
      0.00000      5.60200      2.80100         0.000193     -0.000000      0.000002
      0.00000      8.40300      0.00000         0.001661      0.000014     -0.000000
      2.80100      5.60200      0.00000         0.000051     -0.000000     -0.000000
      2.80100      8.40300      8.40300        -0.000078      0.000433      0.000433
      0.00000      5.60200      8.40300         0.000193     -0.000000     -0.000002
      0.00000      8.40300      5.60200         0.000193     -0.000002     -0.000000
      2.80100      5.60200      5.60200        -0.000004     -0.000000     -0.000000
      8.40300      2.80100      2.80100        -0.000081      0.000430      0.000430
      5.60200      0.00000      2.80100        -0.000945     -0.000000     -0.000002
      5.60200      2.80100      0.00000        -0.000945     -0.000002     -0.000000
      8.40300      0.00000      0.00000         0.005826     -0.000000     -0.000000
      8.40300      2.80100      8.40300        -0.000081      0.000430     -0.000430
      5.60200      0.00000      8.40300        -0.000945     -0.000000      0.000002
      5.60200      2.80100      5.60200        -0.000223      0.000000     -0.000000
      8.40300      0.00000      5.60200         0.000047     -0.000000     -0.000000
      8.40300      8.40300      2.80100        -0.000081     -0.000430      0.000430
      5.60200      5.60200      2.80100        -0.000223     -0.000000      0.000000
      5.60200      8.40300      0.00000        -0.000945      0.000002     -0.000000
      8.40300      5.60200      0.00000         0.000047     -0.000000     -0.000000
      8.40300      8.40300      8.40300        -0.000081     -0.000430     -0.000430
      5.60200      5.60200      8.40300        -0.000223     -0.000000     -0.000000
      5.60200      8.40300      5.60200        -0.000223     -0.000000     -0.000000
      8.40300      5.60200      5.60200        -0.000005     -0.000000     -0.000000
 -----------------------------------------------------------------------------------
    total drift:                                0.000360     -0.000000      0.000000


--------------------------------------------------------------------------------------------------------



  FREE ENERGIE OF THE ION-ELECTRON SYSTEM (eV)
  ---------------------------------------------------
  free  energy   TOTEN  =      -223.90100247 eV

  energy  without entropy=     -223.90100247  energy(sigma->0) =     -223.90100247
 


--------------------------------------------------------------------------------------------------------


    POTLOK:  cpu time      0.1027: real time      0.1030


--------------------------------------------------------------------------------------------------------


     LOOP+:  cpu time    128.2978: real time    128.6484
    4ORBIT:  cpu time      0.0000: real time      0.0000

 total amount of memory used by VASP MPI-rank0    80722. kBytes
=======================================================================

   base      :      30000. kBytes
   nonl-proj :       9060. kBytes
   fftplans  :      15601. kBytes
   grid      :       9092. kBytes
   one-center:         49. kBytes
   wavefun   :      16920. kBytes
 
  
  
 General timing and accounting informations for this job:
 ========================================================
  
                  Total CPU time used (sec):      132.465
                            User time (sec):      131.055
                          System time (sec):        1.410
                         Elapsed time (sec):      137.984
  
                   Maximum memory used (kb):      309548.
                   Average memory used (kb):          N/A
  
                          Minor page faults:       191638
                          Major page faults:            0
                 Voluntary context switches:         2866
