<?xml version="1.0" encoding="ISO-8859-1"?>
<modeling>
 <generator>
  <i name="program" type="string">vasp </i>
  <i name="version" type="string">6.3.2  </i>
  <i name="subversion" type="string">27Jun22 (build Oct 14 2022 12:38:20) complex                          parallel </i>
  <i name="platform" type="string">LinuxIFC </i>
  <i name="date" type="string">2022 11 28 </i>
  <i name="time" type="string">01:31:37 </i>
 </generator>
 <incar>
  <i type="string" name="PREC">Accurate</i>
  <i type="int" name="IALGO">    38</i>
  <i type="logical" name="ADDGRID"> T  </i>
  <i type="int" name="NELMIN">     5</i>
  <i type="int" name="IBRION">    -1</i>
  <i name="EDIFF">      0.00000001</i>
  <i name="ENCUT">    341.00000000</i>
  <i type="logical" name="LREAL"> F  </i>
  <i type="int" name="ISMEAR">     0</i>
  <i name="SIGMA">      0.02000000</i>
  <i type="logical" name="LWAVE"> F  </i>
  <i type="logical" name="LCHARG"> F  </i>
  <i type="string" name="GGA">Ps</i>
 </incar>
 <primitive_cell>
  <structure name="primitive_cell" >
   <crystal>
    <varray name="basis" >
     <v>      11.20400236       0.00000000       0.00000000 </v>
     <v>       0.00000000      11.20400236       0.00000000 </v>
     <v>       0.00000000       0.00000000      11.20400236 </v>
    </varray>
    <i name="volume">   1406.43470641 </i>
    <varray name="rec_basis" >
     <v>       0.08925382       0.00000000       0.00000000 </v>
     <v>       0.00000000       0.08925382       0.00000000 </v>
     <v>       0.00000000       0.00000000       0.08925382 </v>
    </varray>
   </crystal>
   <varray name="positions" >
    <v>       0.00089254       0.00000000       0.00000000 </v>
    <v>       0.25000000       0.25000000       0.00000000 </v>
    <v>       0.25000000       0.00000000       0.25000000 </v>
    <v>       0.00000000       0.25000000       0.25000000 </v>
    <v>       0.00000000       0.00000000       0.50000000 </v>
    <v>       0.25000000       0.25000000       0.50000000 </v>
    <v>       0.25000000       0.00000000       0.75000000 </v>
    <v>       0.00000000       0.25000000       0.75000000 </v>
    <v>       0.00000000       0.50000000       0.00000000 </v>
    <v>       0.25000000       0.75000000       0.00000000 </v>
    <v>       0.25000000       0.50000000       0.25000000 </v>
    <v>       0.00000000       0.75000000       0.25000000 </v>
    <v>       0.00000000       0.50000000       0.50000000 </v>
    <v>       0.25000000       0.75000000       0.50000000 </v>
    <v>       0.25000000       0.50000000       0.75000000 </v>
    <v>       0.00000000       0.75000000       0.75000000 </v>
    <v>       0.50000000       0.00000000       0.00000000 </v>
    <v>       0.75000000       0.25000000       0.00000000 </v>
    <v>       0.75000000       0.00000000       0.25000000 </v>
    <v>       0.50000000       0.25000000       0.25000000 </v>
    <v>       0.50000000       0.00000000       0.50000000 </v>
    <v>       0.75000000       0.25000000       0.50000000 </v>
    <v>       0.75000000       0.00000000       0.75000000 </v>
    <v>       0.50000000       0.25000000       0.75000000 </v>
    <v>       0.50000000       0.50000000       0.00000000 </v>
    <v>       0.75000000       0.75000000       0.00000000 </v>
    <v>       0.75000000       0.50000000       0.25000000 </v>
    <v>       0.50000000       0.75000000       0.25000000 </v>
    <v>       0.50000000       0.50000000       0.50000000 </v>
    <v>       0.75000000       0.75000000       0.50000000 </v>
    <v>       0.75000000       0.50000000       0.75000000 </v>
    <v>       0.50000000       0.75000000       0.75000000 </v>
    <v>       0.25000000       0.25000000       0.25000000 </v>
    <v>       0.00000000       0.00000000       0.25000000 </v>
    <v>       0.00000000       0.25000000       0.00000000 </v>
    <v>       0.25000000       0.00000000       0.00000000 </v>
    <v>       0.25000000       0.25000000       0.75000000 </v>
    <v>       0.00000000       0.00000000       0.75000000 </v>
    <v>       0.00000000       0.25000000       0.50000000 </v>
    <v>       0.25000000       0.00000000       0.50000000 </v>
    <v>       0.25000000       0.75000000       0.25000000 </v>
    <v>       0.00000000       0.50000000       0.25000000 </v>
    <v>       0.00000000       0.75000000       0.00000000 </v>
    <v>       0.25000000       0.50000000       0.00000000 </v>
    <v>       0.25000000       0.75000000       0.75000000 </v>
    <v>       0.00000000       0.50000000       0.75000000 </v>
    <v>       0.00000000       0.75000000       0.50000000 </v>
    <v>       0.25000000       0.50000000       0.50000000 </v>
    <v>       0.75000000       0.25000000       0.25000000 </v>
    <v>       0.50000000       0.00000000       0.25000000 </v>
    <v>       0.50000000       0.25000000       0.00000000 </v>
    <v>       0.75000000       0.00000000       0.00000000 </v>
    <v>       0.75000000       0.25000000       0.75000000 </v>
    <v>       0.50000000       0.00000000       0.75000000 </v>
    <v>       0.50000000       0.25000000       0.50000000 </v>
    <v>       0.75000000       0.00000000       0.50000000 </v>
    <v>       0.75000000       0.75000000       0.25000000 </v>
    <v>       0.50000000       0.50000000       0.25000000 </v>
    <v>       0.50000000       0.75000000       0.00000000 </v>
    <v>       0.75000000       0.50000000       0.00000000 </v>
    <v>       0.75000000       0.75000000       0.75000000 </v>
    <v>       0.50000000       0.50000000       0.75000000 </v>
    <v>       0.50000000       0.75000000       0.50000000 </v>
    <v>       0.75000000       0.50000000       0.50000000 </v>
   </varray>
  </structure>
  <varray name="primitive_index" >
   <v type="int" >        1 </v>
   <v type="int" >        2 </v>
   <v type="int" >        3 </v>
   <v type="int" >        4 </v>
   <v type="int" >        5 </v>
   <v type="int" >        6 </v>
   <v type="int" >        7 </v>
   <v type="int" >        8 </v>
   <v type="int" >        9 </v>
   <v type="int" >       10 </v>
   <v type="int" >       11 </v>
   <v type="int" >       12 </v>
   <v type="int" >       13 </v>
   <v type="int" >       14 </v>
   <v type="int" >       15 </v>
   <v type="int" >       16 </v>
   <v type="int" >       17 </v>
   <v type="int" >       18 </v>
   <v type="int" >       19 </v>
   <v type="int" >       20 </v>
   <v type="int" >       21 </v>
   <v type="int" >       22 </v>
   <v type="int" >       23 </v>
   <v type="int" >       24 </v>
   <v type="int" >       25 </v>
   <v type="int" >       26 </v>
   <v type="int" >       27 </v>
   <v type="int" >       28 </v>
   <v type="int" >       29 </v>
   <v type="int" >       30 </v>
   <v type="int" >       31 </v>
   <v type="int" >       32 </v>
   <v type="int" >       33 </v>
   <v type="int" >       34 </v>
   <v type="int" >       35 </v>
   <v type="int" >       36 </v>
   <v type="int" >       37 </v>
   <v type="int" >       38 </v>
   <v type="int" >       39 </v>
   <v type="int" >       40 </v>
   <v type="int" >       41 </v>
   <v type="int" >       42 </v>
   <v type="int" >       43 </v>
   <v type="int" >       44 </v>
   <v type="int" >       45 </v>
   <v type="int" >       46 </v>
   <v type="int" >       47 </v>
   <v type="int" >       48 </v>
   <v type="int" >       49 </v>
   <v type="int" >       50 </v>
   <v type="int" >       51 </v>
   <v type="int" >       52 </v>
   <v type="int" >       53 </v>
   <v type="int" >       54 </v>
   <v type="int" >       55 </v>
   <v type="int" >       56 </v>
   <v type="int" >       57 </v>
   <v type="int" >       58 </v>
   <v type="int" >       59 </v>
   <v type="int" >       60 </v>
   <v type="int" >       61 </v>
   <v type="int" >       62 </v>
   <v type="int" >       63 </v>
   <v type="int" >       64 </v>
  </varray>
 </primitive_cell>
 <kpoints>
  <generation param="Gamma">
   <v type="int" name="divisions">       2        2        2 </v>
   <v name="usershift">      0.00000000       0.00000000       0.00000000 </v>
   <v name="genvec1">      0.50000000       0.00000000       0.00000000 </v>
   <v name="genvec2">      0.00000000       0.50000000       0.00000000 </v>
   <v name="genvec3">      0.00000000       0.00000000       0.50000000 </v>
   <v name="shift">      0.00000000       0.00000000       0.00000000 </v>
  </generation>
  <varray name="kpointlist" >
   <v>       0.00000000       0.00000000       0.00000000 </v>
   <v>       0.50000000       0.00000000       0.00000000 </v>
   <v>       0.00000000       0.50000000       0.00000000 </v>
   <v>       0.50000000       0.50000000       0.00000000 </v>
   <v>       0.00000000       0.50000000       0.50000000 </v>
   <v>       0.50000000       0.50000000       0.50000000 </v>
  </varray>
  <varray name="weights" >
   <v>       0.12500000 </v>
   <v>       0.12500000 </v>
   <v>       0.25000000 </v>
   <v>       0.25000000 </v>
   <v>       0.12500000 </v>
   <v>       0.12500000 </v>
  </varray>
 </kpoints>
 <parameters>
  <separator name="general" >
   <i type="string" name="SYSTEM">unknown system</i>
   <i type="logical" name="LCOMPAT"> F  </i>
  </separator>
  <separator name="electronic" >
   <i type="string" name="PREC">accura</i>
   <i name="ENMAX">    341.00000000</i>
   <i name="ENAUG">    368.05600000</i>
   <i name="EDIFF">      0.00000001</i>
   <i type="int" name="IALGO">    38</i>
   <i type="int" name="IWAVPR">    10</i>
   <i type="int" name="NBANDS">   272</i>
   <i type="int" name="NBANDSLOW">    -1</i>
   <i type="int" name="NBANDSHIGH">    -1</i>
   <i name="NELECT">    448.00000000</i>
   <i type="int" name="TURBO">     0</i>
   <i type="int" name="IRESTART">     0</i>
   <i type="int" name="NREBOOT">     0</i>
   <i type="int" name="NMIN">     0</i>
   <i name="EREF">      0.00000000</i>
   <separator name="electronic smearing" >
    <i type="int" name="ISMEAR">     0</i>
    <i name="SIGMA">      0.02000000</i>
    <i name="KSPACING">      0.50000000</i>
    <i type="logical" name="KGAMMA"> T  </i>
    <i type="logical" name="KBLOWUP"> T  </i>
   </separator>
   <separator name="electronic projectors" >
    <i type="logical" name="LREAL"> F  </i>
    <v name="ROPT">      0.00000000      0.00000000</v>
    <i type="int" name="LMAXPAW">  -100</i>
    <i type="int" name="LMAXMIX">     2</i>
    <i type="logical" name="NLSPLINE"> F  </i>
   </separator>
   <separator name="electronic startup" >
    <i type="int" name="ISTART">     0</i>
    <i type="int" name="ICHARG">     2</i>
    <i type="int" name="INIWAV">     1</i>
   </separator>
   <separator name="electronic spin" >
    <i type="int" name="ISPIN">     1</i>
    <i type="logical" name="LNONCOLLINEAR"> F  </i>
    <v name="MAGMOM">      1.00000000      1.00000000      1.00000000      1.00000000      1.00000000      1.00000000      1.00000000      1.00000000      1.00000000      1.00000000      1.00000000      1.00000000      1.00000000      1.00000000      1.00000000      1.00000000      1.00000000      1.00000000      1.00000000      1.00000000
      1.00000000      1.00000000      1.00000000      1.00000000      1.00000000      1.00000000      1.00000000      1.00000000      1.00000000      1.00000000      1.00000000      1.00000000      1.00000000      1.00000000      1.00000000      1.00000000      1.00000000      1.00000000      1.00000000      1.00000000
      1.00000000      1.00000000      1.00000000      1.00000000      1.00000000      1.00000000      1.00000000      1.00000000      1.00000000      1.00000000      1.00000000      1.00000000      1.00000000      1.00000000      1.00000000      1.00000000      1.00000000      1.00000000      1.00000000      1.00000000
      1.00000000      1.00000000      1.00000000      1.00000000</v>
    <i name="NUPDOWN">     -1.00000000</i>
    <i type="logical" name="LSORBIT"> F  </i>
    <v name="SAXIS">      0.00000000      0.00000000      1.00000000</v>
    <i type="logical" name="LSPIRAL"> F  </i>
    <v name="QSPIRAL">      0.00000000      0.00000000      0.00000000</v>
    <i type="logical" name="LZEROZ"> F  </i>
   </separator>
   <separator name="electronic exchange-correlation" >
    <i type="logical" name="LASPH"> F  </i>
    <i type="logical" name="LMETAGGA"> F  </i>
   </separator>
   <separator name="electronic convergence" >
    <i type="int" name="NELM">    60</i>
    <i type="int" name="NELMDL">    -5</i>
    <i type="int" name="NELMIN">     5</i>
    <i name="ENINI">    341.00000000</i>
    <separator name="electronic convergence detail" >
     <i type="logical" name="LDIAG"> T  </i>
     <i type="logical" name="LSUBROT"> F  </i>
     <i name="WEIMIN">      0.00000000</i>
     <i name="EBREAK">      0.00000000</i>
     <i name="DEPER">      0.30000000</i>
     <i type="int" name="NRMM">     4</i>
     <i name="TIME">      0.40000000</i>
    </separator>
   </separator>
   <separator name="electronic mixer" >
    <i name="AMIX">      0.40000000</i>
    <i name="BMIX">      1.00000000</i>
    <i name="AMIN">      0.10000000</i>
    <i name="AMIX_MAG">      1.60000000</i>
    <i name="BMIX_MAG">      1.00000000</i>
    <separator name="electronic mixer details" >
     <i type="int" name="IMIX">     4</i>
     <i type="logical" name="MIXFIRST"> F  </i>
     <i type="int" name="MAXMIX">   -45</i>
     <i name="WC">    100.00000000</i>
     <i type="int" name="INIMIX">     1</i>
     <i type="int" name="MIXPRE">     1</i>
     <i type="int" name="MREMOVE">     5</i>
    </separator>
   </separator>
   <separator name="electronic dipolcorrection" >
    <i type="logical" name="LDIPOL"> F  </i>
    <i type="logical" name="LMONO"> F  </i>
    <i type="int" name="IDIPOL">     0</i>
    <i name="EPSILON">      1.00000000</i>
    <v name="DIPOL">   -100.00000000   -100.00000000   -100.00000000</v>
    <i name="EFIELD">      0.00000000</i>
   </separator>
  </separator>
  <separator name="grids" >
   <i type="int" name="NGX">    70</i>
   <i type="int" name="NGY">    70</i>
   <i type="int" name="NGZ">    70</i>
   <i type="int" name="NGXF">   140</i>
   <i type="int" name="NGYF">   140</i>
   <i type="int" name="NGZF">   140</i>
   <i type="logical" name="ADDGRID"> T  </i>
  </separator>
  <separator name="ionic" >
   <i type="int" name="NSW">     0</i>
   <i type="int" name="IBRION">    -1</i>
   <i type="int" name="MDALGO">     0</i>
   <i type="int" name="ISIF">     2</i>
   <i name="PSTRESS">      0.00000000</i>
   <i name="EDIFFG">      0.00000010</i>
   <i type="int" name="NFREE">     0</i>
   <i name="POTIM">      0.50000000</i>
   <i name="SMASS">     -3.00000000</i>
   <i name="SCALEE">      1.00000000</i>
  </separator>
  <separator name="ionic md" >
   <i name="TEBEG">      0.00010000</i>
   <i name="TEEND">      0.00010000</i>
   <i type="int" name="NBLOCK">     1</i>
   <i type="int" name="KBLOCK">     1</i>
   <i type="int" name="NPACO">   256</i>
   <i name="APACO">     10.00000000</i>
  </separator>
  <separator name="symmetry" >
   <i type="int" name="ISYM">     2</i>
   <i name="SYMPREC">      0.00001000</i>
  </separator>
  <separator name="dos" >
   <i type="int" name="LORBIT">     0</i>
   <v name="RWIGS">     -1.00000000     -1.00000000</v>
   <i type="int" name="NEDOS">   301</i>
   <i name="EMIN">     10.00000000</i>
   <i name="EMAX">    -10.00000000</i>
   <i name="EFERMI">      0.00000000</i>
  </separator>
  <separator name="writing" >
   <i type="int" name="NWRITE">     2</i>
   <i type="logical" name="LWAVE"> F  </i>
   <i type="logical" name="LDOWNSAMPLE"> F  </i>
   <i type="logical" name="LCHARG"> F  </i>
   <i type="logical" name="LPARD"> F  </i>
   <i type="logical" name="LVTOT"> F  </i>
   <i type="logical" name="LVHAR"> F  </i>
   <i type="logical" name="LELF"> F  </i>
   <i type="logical" name="LOPTICS"> F  </i>
   <v name="STM">      0.00000000      0.00000000      0.00000000      0.00000000      0.00000000      0.00000000      0.00000000</v>
  </separator>
  <separator name="performance" >
   <i type="int" name="NPAR">     8</i>
   <i type="int" name="NSIM">     4</i>
   <i type="int" name="NBLK">    -1</i>
   <i type="logical" name="LPLANE"> T  </i>
   <i type="logical" name="LSCALAPACK"> T  </i>
   <i type="logical" name="LSCAAWARE"> F  </i>
   <i type="logical" name="LSCALU"> F  </i>
   <i type="logical" name="LASYNC"> F  </i>
   <i type="logical" name="LORBITALREAL"> F  </i>
  </separator>
  <separator name="miscellaneous" >
   <i type="int" name="IDIOT">     3</i>
   <i type="int" name="PHON_NSTRUCT">    -1</i>
   <i type="logical" name="LMUSIC"> F  </i>
   <v name="POMASS">     22.99000000     35.45300000</v>
   <v name="DARWINR">      0.00000000      0.00000000</v>
   <v name="DARWINV">      1.00000000      1.00000000</v>
   <i type="logical" name="LCORR"> T  </i>
  </separator>
  <i type="logical" name="GGA_COMPAT"> T  </i>
  <i type="logical" name="LBERRY"> F  </i>
  <i type="int" name="ICORELEVEL">     0</i>
  <i type="logical" name="LDAU"> F  </i>
  <i type="int" name="I_CONSTRAINED_M">     0</i>
  <separator name="electronic exchange-correlation" >
   <i type="string" name="GGA">PS</i>
   <i type="int" name="VOSKOWN">     0</i>
   <i type="logical" name="LHFCALC"> F  </i>
   <i type="string" name="PRECFOCK"></i>
   <i type="logical" name="LSYMGRAD"> F  </i>
   <i type="logical" name="LHFONE"> F  </i>
   <i type="logical" name="LRHFCALC"> F  </i>
   <i type="logical" name="LTHOMAS"> F  </i>
   <i type="logical" name="LMODELHF"> F  </i>
   <i type="logical" name="LFOCKACE"> F  </i>
   <i name="ENCUT4O">     -1.00000000</i>
   <i type="int" name="EXXOEP">     0</i>
   <i type="int" name="FOURORBIT">     0</i>
   <i name="AEXX">      0.00000000</i>
   <i name="HFALPHA">      0.00000000</i>
   <i name="MCALPHA">      0.00000000</i>
   <i name="ALDAX">      1.00000000</i>
   <i name="AGGAX">      1.00000000</i>
   <i name="ALDAC">      1.00000000</i>
   <i name="AGGAC">      1.00000000</i>
   <i type="int" name="NKREDX">     1</i>
   <i type="int" name="NKREDY">     1</i>
   <i type="int" name="NKREDZ">     1</i>
   <i type="logical" name="SHIFTRED"> F  </i>
   <i type="logical" name="ODDONLY"> F  </i>
   <i type="logical" name="EVENONLY"> F  </i>
   <i type="int" name="LMAXFOCK">     0</i>
   <i type="int" name="NMAXFOCKAE">     0</i>
   <i type="logical" name="LFOCKAEDFT"> F  </i>
   <i name="HFSCREEN">      0.00000000</i>
   <i name="HFSCREENC">      0.00000000</i>
   <i type="int" name="NBANDSGWLOW">     0</i>
  </separator>
  <separator name="vdW DFT" >
   <i type="logical" name="LUSE_VDW"> F  </i>
   <i name="Zab_VDW">     -0.84910000</i>
   <i name="PARAM1">      0.12340000</i>
   <i name="PARAM2">      1.00000000</i>
   <i name="PARAM3">      0.00000000</i>
  </separator>
  <separator name="model GW" >
   <i type="int" name="MODEL_GW">     0</i>
   <i name="MODEL_EPS0">     13.18532537</i>
   <i name="MODEL_ALPHA">      1.00000000</i>
  </separator>
  <separator name="linear response parameters" >
   <i type="logical" name="LEPSILON"> F  </i>
   <i type="logical" name="LRPA"> F  </i>
   <i type="logical" name="LNABLA"> F  </i>
   <i type="logical" name="LVEL"> F  </i>
   <i name="CSHIFT">      0.10000000</i>
   <i name="OMEGAMAX">     -1.00000000</i>
   <i name="DEG_THRESHOLD">      0.00200000</i>
   <i name="RTIME">     -0.10000000</i>
   <i name="WPLASMAI">      0.00000000</i>
   <v name="DFIELD">      0.00000000      0.00000000      0.00000000</v>
   <v name="WPLASMA">      0.00000000      0.00000000      0.00000000      0.00000000      0.00000000      0.00000000      0.00000000      0.00000000      0.00000000</v>
  </separator>
  <separator name="orbital magnetization" >
   <i type="logical" name="NUCIND"> F  </i>
   <v name="MAGPOS">      0.00000000      0.00000000      0.00000000</v>
   <i type="logical" name="LNICSALL"> T  </i>
   <i type="logical" name="ORBITALMAG"> F  </i>
   <i type="logical" name="LMAGBLOCH"> F  </i>
   <i type="logical" name="LCHIMAG"> F  </i>
   <i type="logical" name="LGAUGE"> T  </i>
   <i type="int" name="MAGATOM">     0</i>
   <v name="MAGDIPOL">      0.00000000      0.00000000      0.00000000</v>
   <v name="AVECCONST">      0.00000000      0.00000000      0.00000000</v>
  </separator>
  <separator name="response functions" >
   <i type="logical" name="LFINITE_TEMPERATURE"> F  </i>
   <i type="logical" name="LADDER"> F  </i>
   <i type="logical" name="LRPAFORCE"> F  </i>
   <i type="logical" name="LFXC"> F  </i>
   <i type="logical" name="LHARTREE"> T  </i>
   <i type="int" name="IBSE">     0</i>
   <v type="int" name="KPOINT">    -1     0     0     0</v>
   <i type="logical" name="LTCTC"> F  </i>
   <i type="logical" name="LTCTE"> F  </i>
   <i type="logical" name="LTETE"> F  </i>
   <i type="logical" name="LTRIPLET"> F  </i>
   <i type="logical" name="LFXCEPS"> F  </i>
   <i type="logical" name="LFXHEG"> F  </i>
   <i type="int" name="NATURALO">     2</i>
   <i type="logical" name="LHOLEGF"> F  </i>
   <i type="logical" name="L2ORDER"> F  </i>
   <i type="logical" name="LDMP1"> F  </i>
   <i type="logical" name="LMP2LT"> F  </i>
   <i type="logical" name="LSMP2LT"> F  </i>
   <i type="logical" name="LGWLF"> F  </i>
   <i name="ENCUTGW">     -2.00000000</i>
   <i name="ENCUTGWSOFT">     -2.00000000</i>
   <i name="ENCUTLF">     -1.00000000</i>
   <i type="logical" name="LESF_SPLINES"> F  </i>
   <i type="int" name="LMAXMP2">    -1</i>
   <i name="SCISSOR">      0.00000000</i>
   <i type="int" name="NOMEGA">     0</i>
   <i type="int" name="NOMEGAR">     0</i>
   <i type="int" name="NBANDSGW">    -1</i>
   <i type="int" name="NBANDSO">    -1</i>
   <i type="int" name="NBANDSV">    -1</i>
   <i type="int" name="NELMGW">     1</i>
   <i type="int" name="NELMHF">     1</i>
   <i type="int" name="DIM">     3</i>
   <i type="int" name="IESPILON">     4</i>
   <i type="int" name="ANTIRES">     0</i>
   <i name="OMEGAMAX">    -30.00000000</i>
   <i name="OMEGAMIN">    -30.00000000</i>
   <i name="OMEGATL">   -200.00000000</i>
   <i type="int" name="OMEGAGRID">     0</i>
   <i name="CSHIFT">     -0.10000000</i>
   <i type="logical" name="LSELFENERGY"> F  </i>
   <i type="logical" name="LSPECTRAL"> F  </i>
   <i type="logical" name="LSPECTRALGW"> F  </i>
   <i type="logical" name="LSINGLES"> F  </i>
   <i type="logical" name="LFERMIGW"> F  </i>
   <i type="logical" name="ODDONLYGW"> F  </i>
   <i type="logical" name="EVENONLYGW"> F  </i>
   <i type="int" name="NKREDLFX">     1</i>
   <i type="int" name="NKREDLFY">     1</i>
   <i type="int" name="NKREDLFZ">     1</i>
   <i type="int" name="MAXMEM">  2800</i>
   <i type="int" name="TELESCOPE">     0</i>
   <i type="int" name="NTAUPAR">    -1</i>
   <i type="int" name="NOMEGAPAR">    -1</i>
   <i name="DAMP_NEWTON">      0.80000001</i>
   <i name="LAMBDA">      1.00000000</i>
  </separator>
  <separator name="External order field" >
   <i name="OFIELD_KAPPA">      0.00000000</i>
   <v name="OFIELD_K">      0.00000000      0.00000000      0.00000000</v>
   <i name="OFIELD_Q6_NEAR">      0.00000000</i>
   <i name="OFIELD_Q6_FAR">      0.00000000</i>
   <i name="OFIELD_A">      0.00000000</i>
  </separator>
  <separator name="optional k-points parameters" >
   <i type="int" name="KPOINTS_OPT_MODE">     1</i>
   <i type="logical" name="LKPOINTS_OPT"> F  </i>
  </separator>
 </parameters>
 <atominfo>
  <atoms>      64 </atoms>
  <types>       2 </types>
  <array name="atoms" >
   <dimension dim="1">ion</dimension>
   <field type="string">element</field>
   <field type="int">atomtype</field>
   <set>
    <rc><c>Na</c><c>   1</c></rc>
    <rc><c>Na</c><c>   1</c></rc>
    <rc><c>Na</c><c>   1</c></rc>
    <rc><c>Na</c><c>   1</c></rc>
    <rc><c>Na</c><c>   1</c></rc>
    <rc><c>Na</c><c>   1</c></rc>
    <rc><c>Na</c><c>   1</c></rc>
    <rc><c>Na</c><c>   1</c></rc>
    <rc><c>Na</c><c>   1</c></rc>
    <rc><c>Na</c><c>   1</c></rc>
    <rc><c>Na</c><c>   1</c></rc>
    <rc><c>Na</c><c>   1</c></rc>
    <rc><c>Na</c><c>   1</c></rc>
    <rc><c>Na</c><c>   1</c></rc>
    <rc><c>Na</c><c>   1</c></rc>
    <rc><c>Na</c><c>   1</c></rc>
    <rc><c>Na</c><c>   1</c></rc>
    <rc><c>Na</c><c>   1</c></rc>
    <rc><c>Na</c><c>   1</c></rc>
    <rc><c>Na</c><c>   1</c></rc>
    <rc><c>Na</c><c>   1</c></rc>
    <rc><c>Na</c><c>   1</c></rc>
    <rc><c>Na</c><c>   1</c></rc>
    <rc><c>Na</c><c>   1</c></rc>
    <rc><c>Na</c><c>   1</c></rc>
    <rc><c>Na</c><c>   1</c></rc>
    <rc><c>Na</c><c>   1</c></rc>
    <rc><c>Na</c><c>   1</c></rc>
    <rc><c>Na</c><c>   1</c></rc>
    <rc><c>Na</c><c>   1</c></rc>
    <rc><c>Na</c><c>   1</c></rc>
    <rc><c>Na</c><c>   1</c></rc>
    <rc><c>Cl</c><c>   2</c></rc>
    <rc><c>Cl</c><c>   2</c></rc>
    <rc><c>Cl</c><c>   2</c></rc>
    <rc><c>Cl</c><c>   2</c></rc>
    <rc><c>Cl</c><c>   2</c></rc>
    <rc><c>Cl</c><c>   2</c></rc>
    <rc><c>Cl</c><c>   2</c></rc>
    <rc><c>Cl</c><c>   2</c></rc>
    <rc><c>Cl</c><c>   2</c></rc>
    <rc><c>Cl</c><c>   2</c></rc>
    <rc><c>Cl</c><c>   2</c></rc>
    <rc><c>Cl</c><c>   2</c></rc>
    <rc><c>Cl</c><c>   2</c></rc>
    <rc><c>Cl</c><c>   2</c></rc>
    <rc><c>Cl</c><c>   2</c></rc>
    <rc><c>Cl</c><c>   2</c></rc>
    <rc><c>Cl</c><c>   2</c></rc>
    <rc><c>Cl</c><c>   2</c></rc>
    <rc><c>Cl</c><c>   2</c></rc>
    <rc><c>Cl</c><c>   2</c></rc>
    <rc><c>Cl</c><c>   2</c></rc>
    <rc><c>Cl</c><c>   2</c></rc>
    <rc><c>Cl</c><c>   2</c></rc>
    <rc><c>Cl</c><c>   2</c></rc>
    <rc><c>Cl</c><c>   2</c></rc>
    <rc><c>Cl</c><c>   2</c></rc>
    <rc><c>Cl</c><c>   2</c></rc>
    <rc><c>Cl</c><c>   2</c></rc>
    <rc><c>Cl</c><c>   2</c></rc>
    <rc><c>Cl</c><c>   2</c></rc>
    <rc><c>Cl</c><c>   2</c></rc>
    <rc><c>Cl</c><c>   2</c></rc>
   </set>
  </array>
  <array name="atomtypes" >
   <dimension dim="1">type</dimension>
   <field type="int">atomspertype</field>
   <field type="string">element</field>
   <field>mass</field>
   <field>valence</field>
   <field type="string">pseudopotential</field>
   <set>
    <rc><c>  32</c><c>Na</c><c>     22.99000000</c><c>      7.00000000</c><c>  PAW_PBE Na_pv 19Sep2006               </c></rc>
    <rc><c>  32</c><c>Cl</c><c>     35.45300000</c><c>      7.00000000</c><c>  PAW_PBE Cl 06Sep2000                  </c></rc>
   </set>
  </array>
 </atominfo>
 <structure name="initialpos" >
  <crystal>
   <varray name="basis" >
    <v>      11.20400236       0.00000000       0.00000000 </v>
    <v>       0.00000000      11.20400236       0.00000000 </v>
    <v>       0.00000000       0.00000000      11.20400236 </v>
   </varray>
   <i name="volume">   1406.43470641 </i>
   <varray name="rec_basis" >
    <v>       0.08925382       0.00000000       0.00000000 </v>
    <v>       0.00000000       0.08925382       0.00000000 </v>
    <v>       0.00000000       0.00000000       0.08925382 </v>
   </varray>
  </crystal>
  <varray name="positions" >
   <v>       0.00089254       0.00000000       0.00000000 </v>
   <v>       0.25000000       0.25000000       0.00000000 </v>
   <v>       0.25000000       0.00000000       0.25000000 </v>
   <v>       0.00000000       0.25000000       0.25000000 </v>
   <v>       0.00000000       0.00000000       0.50000000 </v>
   <v>       0.25000000       0.25000000       0.50000000 </v>
   <v>       0.25000000       0.00000000       0.75000000 </v>
   <v>       0.00000000       0.25000000       0.75000000 </v>
   <v>       0.00000000       0.50000000       0.00000000 </v>
   <v>       0.25000000       0.75000000       0.00000000 </v>
   <v>       0.25000000       0.50000000       0.25000000 </v>
   <v>       0.00000000       0.75000000       0.25000000 </v>
   <v>       0.00000000       0.50000000       0.50000000 </v>
   <v>       0.25000000       0.75000000       0.50000000 </v>
   <v>       0.25000000       0.50000000       0.75000000 </v>
   <v>       0.00000000       0.75000000       0.75000000 </v>
   <v>       0.50000000       0.00000000       0.00000000 </v>
   <v>       0.75000000       0.25000000       0.00000000 </v>
   <v>       0.75000000       0.00000000       0.25000000 </v>
   <v>       0.50000000       0.25000000       0.25000000 </v>
   <v>       0.50000000       0.00000000       0.50000000 </v>
   <v>       0.75000000       0.25000000       0.50000000 </v>
   <v>       0.75000000       0.00000000       0.75000000 </v>
   <v>       0.50000000       0.25000000       0.75000000 </v>
   <v>       0.50000000       0.50000000       0.00000000 </v>
   <v>       0.75000000       0.75000000       0.00000000 </v>
   <v>       0.75000000       0.50000000       0.25000000 </v>
   <v>       0.50000000       0.75000000       0.25000000 </v>
   <v>       0.50000000       0.50000000       0.50000000 </v>
   <v>       0.75000000       0.75000000       0.50000000 </v>
   <v>       0.75000000       0.50000000       0.75000000 </v>
   <v>       0.50000000       0.75000000       0.75000000 </v>
   <v>       0.25000000       0.25000000       0.25000000 </v>
   <v>       0.00000000       0.00000000       0.25000000 </v>
   <v>       0.00000000       0.25000000       0.00000000 </v>
   <v>       0.25000000       0.00000000       0.00000000 </v>
   <v>       0.25000000       0.25000000       0.75000000 </v>
   <v>       0.00000000       0.00000000       0.75000000 </v>
   <v>       0.00000000       0.25000000       0.50000000 </v>
   <v>       0.25000000       0.00000000       0.50000000 </v>
   <v>       0.25000000       0.75000000       0.25000000 </v>
   <v>       0.00000000       0.50000000       0.25000000 </v>
   <v>       0.00000000       0.75000000       0.00000000 </v>
   <v>       0.25000000       0.50000000       0.00000000 </v>
   <v>       0.25000000       0.75000000       0.75000000 </v>
   <v>       0.00000000       0.50000000       0.75000000 </v>
   <v>       0.00000000       0.75000000       0.50000000 </v>
   <v>       0.25000000       0.50000000       0.50000000 </v>
   <v>       0.75000000       0.25000000       0.25000000 </v>
   <v>       0.50000000       0.00000000       0.25000000 </v>
   <v>       0.50000000       0.25000000       0.00000000 </v>
   <v>       0.75000000       0.00000000       0.00000000 </v>
   <v>       0.75000000       0.25000000       0.75000000 </v>
   <v>       0.50000000       0.00000000       0.75000000 </v>
   <v>       0.50000000       0.25000000       0.50000000 </v>
   <v>       0.75000000       0.00000000       0.50000000 </v>
   <v>       0.75000000       0.75000000       0.25000000 </v>
   <v>       0.50000000       0.50000000       0.25000000 </v>
   <v>       0.50000000       0.75000000       0.00000000 </v>
   <v>       0.75000000       0.50000000       0.00000000 </v>
   <v>       0.75000000       0.75000000       0.75000000 </v>
   <v>       0.50000000       0.50000000       0.75000000 </v>
   <v>       0.50000000       0.75000000       0.50000000 </v>
   <v>       0.75000000       0.50000000       0.50000000 </v>
  </varray>
 </structure>
 <calculation>
  <scstep>
   <time name="dav">    5.70    5.72</time>
   <time name="total">    5.81    5.82</time>
   <energy>
    <i name="alphaZ">    751.52672365 </i>
    <i name="ewald"> -22871.45279263 </i>
    <i name="hartreedc">  -8992.14431036 </i>
    <i name="XCdc">   1456.53380375 </i>
    <i name="pawpsdc">  26466.43774078 </i>
    <i name="pawaedc"> -29286.08056155 </i>
    <i name="eentropy">     -0.00346266 </i>
    <i name="bandstr">   -471.41780596 </i>
    <i name="atom">  37532.17875095 </i>
    <i name="e_fr_energy">   4585.57808598 </i>
    <i name="e_wo_entrp">   4585.58154864 </i>
    <i name="e_0_energy">   4585.57981731 </i>
   </energy>
  </scstep>
  <scstep>
   <time name="dav">    5.82    5.84</time>
   <time name="total">    5.82    5.84</time>
   <energy>
    <i name="e_fr_energy">    486.20071816 </i>
    <i name="e_wo_entrp">    486.20071816 </i>
    <i name="e_0_energy">    486.20071816 </i>
   </energy>
  </scstep>
  <scstep>
   <time name="dav">    6.19    6.20</time>
   <time name="total">    6.19    6.20</time>
   <energy>
    <i name="e_fr_energy">   -189.97799074 </i>
    <i name="e_wo_entrp">   -189.97799074 </i>
    <i name="e_0_energy">   -189.97799074 </i>
   </energy>
  </scstep>
  <scstep>
   <time name="dav">    6.12    6.14</time>
   <time name="total">    6.12    6.14</time>
   <energy>
    <i name="e_fr_energy">   -227.42321538 </i>
    <i name="e_wo_entrp">   -227.42321538 </i>
    <i name="e_0_energy">   -227.42321538 </i>
   </energy>
  </scstep>
  <scstep>
   <time name="dav">    6.40    6.42</time>
   <time name="total">    6.70    6.72</time>
   <energy>
    <i name="e_fr_energy">   -228.97001895 </i>
    <i name="e_wo_entrp">   -228.97001895 </i>
    <i name="e_0_energy">   -228.97001895 </i>
   </energy>
  </scstep>
  <scstep>
   <time name="dav">    6.36    6.37</time>
   <time name="total">    6.75    6.77</time>
   <energy>
    <i name="e_fr_energy">   -224.15314270 </i>
    <i name="e_wo_entrp">   -224.15314270 </i>
    <i name="e_0_energy">   -224.15314270 </i>
   </energy>
  </scstep>
  <scstep>
   <time name="dav">    6.63    6.64</time>
   <time name="total">    7.03    7.05</time>
   <energy>
    <i name="e_fr_energy">   -223.77702859 </i>
    <i name="e_wo_entrp">   -223.77702859 </i>
    <i name="e_0_energy">   -223.77702859 </i>
   </energy>
  </scstep>
  <scstep>
   <time name="dav">    5.83    5.85</time>
   <time name="total">    6.23    6.24</time>
   <energy>
    <i name="e_fr_energy">   -223.90329321 </i>
    <i name="e_wo_entrp">   -223.90329321 </i>
    <i name="e_0_energy">   -223.90329321 </i>
   </energy>
  </scstep>
  <scstep>
   <time name="dav">    6.76    6.77</time>
   <time name="total">    7.14    7.16</time>
   <energy>
    <i name="e_fr_energy">   -223.89703483 </i>
    <i name="e_wo_entrp">   -223.89703483 </i>
    <i name="e_0_energy">   -223.89703483 </i>
   </energy>
  </scstep>
  <scstep>
   <time name="dav">    5.81    5.82</time>
   <time name="total">    6.21    6.22</time>
   <energy>
    <i name="e_fr_energy">   -223.90134261 </i>
    <i name="e_wo_entrp">   -223.90134261 </i>
    <i name="e_0_energy">   -223.90134261 </i>
   </energy>
  </scstep>
  <scstep>
   <time name="dav">    6.25    6.26</time>
   <time name="total">    6.65    6.67</time>
   <energy>
    <i name="e_fr_energy">   -223.90102808 </i>
    <i name="e_wo_entrp">   -223.90102808 </i>
    <i name="e_0_energy">   -223.90102808 </i>
   </energy>
  </scstep>
  <scstep>
   <time name="dav">    6.51    6.52</time>
   <time name="total">    6.92    6.93</time>
   <energy>
    <i name="e_fr_energy">   -223.90099354 </i>
    <i name="e_wo_entrp">   -223.90099354 </i>
    <i name="e_0_energy">   -223.90099354 </i>
   </energy>
  </scstep>
  <scstep>
   <time name="dav">    5.84    5.85</time>
   <time name="total">    6.24    6.25</time>
   <energy>
    <i name="e_fr_energy">   -223.90100120 </i>
    <i name="e_wo_entrp">   -223.90100120 </i>
    <i name="e_0_energy">   -223.90100120 </i>
   </energy>
  </scstep>
  <scstep>
   <time name="dav">    6.24    6.26</time>
   <time name="total">    6.64    6.66</time>
   <energy>
    <i name="e_fr_energy">   -223.90100014 </i>
    <i name="e_wo_entrp">   -223.90100014 </i>
    <i name="e_0_energy">   -223.90100014 </i>
   </energy>
  </scstep>
  <scstep>
   <time name="dav">    5.78    5.79</time>
   <time name="total">    6.16    6.18</time>
   <energy>
    <i name="e_fr_energy">   -223.90100157 </i>
    <i name="e_wo_entrp">   -223.90100157 </i>
    <i name="e_0_energy">   -223.90100157 </i>
   </energy>
  </scstep>
  <scstep>
   <time name="dav">    5.82    5.83</time>
   <time name="total">    6.21    6.22</time>
   <energy>
    <i name="e_fr_energy">   -223.90100236 </i>
    <i name="e_wo_entrp">   -223.90100236 </i>
    <i name="e_0_energy">   -223.90100236 </i>
   </energy>
  </scstep>
  <scstep>
   <time name="dav">    5.24    5.25</time>
   <time name="total">    5.62    5.64</time>
   <energy>
    <i name="e_fr_energy">   -223.90100239 </i>
    <i name="e_wo_entrp">   -223.90100239 </i>
    <i name="e_0_energy">   -223.90100239 </i>
   </energy>
  </scstep>
  <scstep>
   <time name="dav">    3.90    3.91</time>
   <time name="total">    4.30    4.31</time>
   <energy>
    <i name="e_fr_energy">   -223.90100245 </i>
    <i name="e_wo_entrp">   -223.90100245 </i>
    <i name="e_0_energy">   -223.90100245 </i>
   </energy>
  </scstep>
  <scstep>
   <time name="dav">    3.90    3.91</time>
   <time name="total">    4.30    4.31</time>
   <energy>
    <i name="e_fr_energy">   -223.90100247 </i>
    <i name="e_wo_entrp">   -223.90100247 </i>
    <i name="e_0_energy">   -223.90100247 </i>
   </energy>
  </scstep>
  <scstep>
   <time name="dav">    3.90    3.91</time>
   <time name="total">    4.01    4.02</time>
   <energy>
    <i name="alphaZ">    751.52672365 </i>
    <i name="ewald"> -22871.45279263 </i>
    <i name="hartreedc">  -9078.05603467 </i>
    <i name="XCdc">   1472.51252321 </i>
    <i name="pawpsdc">  29499.69031294 </i>
    <i name="pawaedc"> -32319.06510268 </i>
    <i name="eentropy">     -0.00000000 </i>
    <i name="bandstr">  -5211.23538323 </i>
    <i name="atom">  37532.17875095 </i>
    <i name="e_fr_energy">   -223.90100247 </i>
    <i name="e_wo_entrp">   -223.90100247 </i>
    <i name="e_0_energy">   -223.90100247 </i>
   </energy>
  </scstep>
  <structure>
   <crystal>
    <varray name="basis" >
     <v>      11.20400236       0.00000000       0.00000000 </v>
     <v>       0.00000000      11.20400236       0.00000000 </v>
     <v>       0.00000000       0.00000000      11.20400236 </v>
    </varray>
    <i name="volume">   1406.43470641 </i>
    <varray name="rec_basis" >
     <v>       0.08925382       0.00000000       0.00000000 </v>
     <v>       0.00000000       0.08925382       0.00000000 </v>
     <v>       0.00000000       0.00000000       0.08925382 </v>
    </varray>
   </crystal>
   <varray name="positions" >
    <v>       0.00089254       0.00000000       0.00000000 </v>
    <v>       0.25000000       0.25000000       0.00000000 </v>
    <v>       0.25000000       0.00000000       0.25000000 </v>
    <v>       0.00000000       0.25000000       0.25000000 </v>
    <v>       0.00000000       0.00000000       0.50000000 </v>
    <v>       0.25000000       0.25000000       0.50000000 </v>
    <v>       0.25000000       0.00000000       0.75000000 </v>
    <v>       0.00000000       0.25000000       0.75000000 </v>
    <v>       0.00000000       0.50000000       0.00000000 </v>
    <v>       0.25000000       0.75000000       0.00000000 </v>
    <v>       0.25000000       0.50000000       0.25000000 </v>
    <v>       0.00000000       0.75000000       0.25000000 </v>
    <v>       0.00000000       0.50000000       0.50000000 </v>
    <v>       0.25000000       0.75000000       0.50000000 </v>
    <v>       0.25000000       0.50000000       0.75000000 </v>
    <v>       0.00000000       0.75000000       0.75000000 </v>
    <v>       0.50000000       0.00000000       0.00000000 </v>
    <v>       0.75000000       0.25000000       0.00000000 </v>
    <v>       0.75000000       0.00000000       0.25000000 </v>
    <v>       0.50000000       0.25000000       0.25000000 </v>
    <v>       0.50000000       0.00000000       0.50000000 </v>
    <v>       0.75000000       0.25000000       0.50000000 </v>
    <v>       0.75000000       0.00000000       0.75000000 </v>
    <v>       0.50000000       0.25000000       0.75000000 </v>
    <v>       0.50000000       0.50000000       0.00000000 </v>
    <v>       0.75000000       0.75000000       0.00000000 </v>
    <v>       0.75000000       0.50000000       0.25000000 </v>
    <v>       0.50000000       0.75000000       0.25000000 </v>
    <v>       0.50000000       0.50000000       0.50000000 </v>
    <v>       0.75000000       0.75000000       0.50000000 </v>
    <v>       0.75000000       0.50000000       0.75000000 </v>
    <v>       0.50000000       0.75000000       0.75000000 </v>
    <v>       0.25000000       0.25000000       0.25000000 </v>
    <v>       0.00000000       0.00000000       0.25000000 </v>
    <v>       0.00000000       0.25000000       0.00000000 </v>
    <v>       0.25000000       0.00000000       0.00000000 </v>
    <v>       0.25000000       0.25000000       0.75000000 </v>
    <v>       0.00000000       0.00000000       0.75000000 </v>
    <v>       0.00000000       0.25000000       0.50000000 </v>
    <v>       0.25000000       0.00000000       0.50000000 </v>
    <v>       0.25000000       0.75000000       0.25000000 </v>
    <v>       0.00000000       0.50000000       0.25000000 </v>
    <v>       0.00000000       0.75000000       0.00000000 </v>
    <v>       0.25000000       0.50000000       0.00000000 </v>
    <v>       0.25000000       0.75000000       0.75000000 </v>
    <v>       0.00000000       0.50000000       0.75000000 </v>
    <v>       0.00000000       0.75000000       0.50000000 </v>
    <v>       0.25000000       0.50000000       0.50000000 </v>
    <v>       0.75000000       0.25000000       0.25000000 </v>
    <v>       0.50000000       0.00000000       0.25000000 </v>
    <v>       0.50000000       0.25000000       0.00000000 </v>
    <v>       0.75000000       0.00000000       0.00000000 </v>
    <v>       0.75000000       0.25000000       0.75000000 </v>
    <v>       0.50000000       0.00000000       0.75000000 </v>
    <v>       0.50000000       0.25000000       0.50000000 </v>
    <v>       0.75000000       0.00000000       0.50000000 </v>
    <v>       0.75000000       0.75000000       0.25000000 </v>
    <v>       0.50000000       0.50000000       0.25000000 </v>
    <v>       0.50000000       0.75000000       0.00000000 </v>
    <v>       0.75000000       0.50000000       0.00000000 </v>
    <v>       0.75000000       0.75000000       0.75000000 </v>
    <v>       0.50000000       0.50000000       0.75000000 </v>
    <v>       0.50000000       0.75000000       0.50000000 </v>
    <v>       0.75000000       0.50000000       0.50000000 </v>
   </varray>
  </structure>
  <varray name="forces" >
   <v>      -0.02075203      -0.00000000      -0.00000000 </v>
   <v>       0.00050135       0.00196148      -0.00000000 </v>
   <v>       0.00050135      -0.00000000       0.00196148 </v>
   <v>      -0.00055703      -0.00000199      -0.00000199 </v>
   <v>      -0.00001904      -0.00000000      -0.00000000 </v>
   <v>      -0.00001250      -0.00002547      -0.00000000 </v>
   <v>       0.00050135      -0.00000000      -0.00196148 </v>
   <v>      -0.00055703      -0.00000199       0.00000199 </v>
   <v>      -0.00001904      -0.00000000      -0.00000000 </v>
   <v>       0.00050135      -0.00196148      -0.00000000 </v>
   <v>      -0.00001250      -0.00000000      -0.00002547 </v>
   <v>      -0.00055703       0.00000199      -0.00000199 </v>
   <v>      -0.00015329      -0.00000000      -0.00000000 </v>
   <v>      -0.00001250       0.00002547      -0.00000000 </v>
   <v>      -0.00001250      -0.00000000       0.00002547 </v>
   <v>      -0.00055703       0.00000199       0.00000199 </v>
   <v>       0.00297486      -0.00000000      -0.00000000 </v>
   <v>       0.00050070      -0.00194758      -0.00000000 </v>
   <v>       0.00050070      -0.00000000      -0.00194758 </v>
   <v>       0.00038480       0.00000050       0.00000050 </v>
   <v>       0.00009972      -0.00000000      -0.00000000 </v>
   <v>      -0.00001080       0.00002501      -0.00000000 </v>
   <v>       0.00050070      -0.00000000       0.00194758 </v>
   <v>       0.00038480       0.00000050      -0.00000050 </v>
   <v>       0.00009972      -0.00000000      -0.00000000 </v>
   <v>       0.00050070       0.00194758      -0.00000000 </v>
   <v>      -0.00001080      -0.00000000       0.00002501 </v>
   <v>       0.00038480      -0.00000050       0.00000050 </v>
   <v>       0.00014398      -0.00000000      -0.00000000 </v>
   <v>      -0.00001080      -0.00002501      -0.00000000 </v>
   <v>      -0.00001080      -0.00000000      -0.00002501 </v>
   <v>       0.00038480      -0.00000050      -0.00000050 </v>
   <v>      -0.00007803      -0.00043259      -0.00043259 </v>
   <v>       0.00166055      -0.00000000      -0.00001441 </v>
   <v>       0.00166055      -0.00001441      -0.00000000 </v>
   <v>       0.00627652      -0.00000000      -0.00000000 </v>
   <v>      -0.00007803      -0.00043259       0.00043259 </v>
   <v>       0.00166055      -0.00000000       0.00001441 </v>
   <v>       0.00019348       0.00000151      -0.00000000 </v>
   <v>       0.00005079      -0.00000000      -0.00000000 </v>
   <v>      -0.00007803       0.00043259      -0.00043259 </v>
   <v>       0.00019348      -0.00000000       0.00000151 </v>
   <v>       0.00166055       0.00001441      -0.00000000 </v>
   <v>       0.00005079      -0.00000000      -0.00000000 </v>
   <v>      -0.00007803       0.00043259       0.00043259 </v>
   <v>       0.00019348      -0.00000000      -0.00000151 </v>
   <v>       0.00019348      -0.00000151      -0.00000000 </v>
   <v>      -0.00000444      -0.00000000      -0.00000000 </v>
   <v>      -0.00008054       0.00043023       0.00043023 </v>
   <v>      -0.00094457      -0.00000000      -0.00000171 </v>
   <v>      -0.00094457      -0.00000171      -0.00000000 </v>
   <v>       0.00582636      -0.00000000      -0.00000000 </v>
   <v>      -0.00008054       0.00043023      -0.00043023 </v>
   <v>      -0.00094457      -0.00000000       0.00000171 </v>
   <v>      -0.00022326       0.00000003      -0.00000000 </v>
   <v>       0.00004679      -0.00000000      -0.00000000 </v>
   <v>      -0.00008054      -0.00043023       0.00043023 </v>
   <v>      -0.00022326      -0.00000000       0.00000003 </v>
   <v>      -0.00094457       0.00000171      -0.00000000 </v>
   <v>       0.00004679      -0.00000000      -0.00000000 </v>
   <v>      -0.00008054      -0.00043023      -0.00043023 </v>
   <v>      -0.00022326      -0.00000000      -0.00000003 </v>
   <v>      -0.00022326      -0.00000003      -0.00000000 </v>
   <v>      -0.00000511      -0.00000000      -0.00000000 </v>
  </varray>
  <varray name="stress" >
   <v>      -0.36536272       0.00000000      -0.00000000 </v>
   <v>       0.00000000      -0.36680596       0.00000000 </v>
   <v>       0.00000000       0.00000000      -0.36680596 </v>
  </varray>
  <energy>
   <i name="e_fr_energy">   -223.90100247 </i>
   <i name="e_wo_entrp">   -223.90100247 </i>
   <i name="e_0_energy">   -223.90100247 </i>
  </energy>
  <time name="totalsc">  128.30  128.65</time>
  <eigenvalues>
   <array>
    <dimension dim="1">band</dimension>
    <dimension dim="2">kpoint</dimension>
    <dimension dim="3">spin</dimension>
    <field>eigene</field>
    <field>occ</field>
    <set>
     <set comment="spin 1">
      <set comment="kpoint 1">
       <r>  -21.3035    1.0000 </r>
       <r>  -21.3035    1.0000 </r>
       <r>  -21.3035    1.0000 </r>
       <r>  -21.3035    1.0000 </r>
       <r>  -21.2935    1.0000 </r>
       <r>  -21.2932    1.0000 </r>
       <r>  -21.2931    1.0000 </r>
       <r>  -21.2931    1.0000 </r>
       <r>  -21.2929    1.0000 </r>
       <r>  -21.2929    1.0000 </r>
       <r>  -21.2929    1.0000 </r>
       <r>  -21.2929    1.0000 </r>
       <r>  -21.2928    1.0000 </r>
       <r>  -21.2928    1.0000 </r>
       <r>  -21.2928    1.0000 </r>
       <r>  -21.2925    1.0000 </r>
       <r>  -21.2925    1.0000 </r>
       <r>  -21.2924    1.0000 </r>
       <r>  -21.2922    1.0000 </r>
       <r>  -21.2860    1.0000 </r>
       <r>  -21.2860    1.0000 </r>
       <r>  -21.2856    1.0000 </r>
       <r>  -21.2856    1.0000 </r>
       <r>  -21.2856    1.0000 </r>
       <r>  -21.2855    1.0000 </r>
       <r>  -21.2855    1.0000 </r>
       <r>  -21.2855    1.0000 </r>
       <r>  -21.2855    1.0000 </r>
       <r>  -21.2855    1.0000 </r>
       <r>  -21.2852    1.0000 </r>
       <r>  -21.2852    1.0000 </r>
       <r>  -21.2836    1.0000 </r>
       <r>  -21.2836    1.0000 </r>
       <r>  -21.2836    1.0000 </r>
       <r>  -21.2835    1.0000 </r>
       <r>  -21.2835    1.0000 </r>
       <r>  -21.2835    1.0000 </r>
       <r>  -21.2815    1.0000 </r>
       <r>  -21.2811    1.0000 </r>
       <r>  -21.2811    1.0000 </r>
       <r>  -21.2811    1.0000 </r>
       <r>  -21.2811    1.0000 </r>
       <r>  -21.2811    1.0000 </r>
       <r>  -21.2800    1.0000 </r>
       <r>  -21.2800    1.0000 </r>
       <r>  -21.2799    1.0000 </r>
       <r>  -21.2799    1.0000 </r>
       <r>  -21.2798    1.0000 </r>
       <r>  -21.2798    1.0000 </r>
       <r>  -21.2798    1.0000 </r>
       <r>  -21.2798    1.0000 </r>
       <r>  -21.2798    1.0000 </r>
       <r>  -21.2798    1.0000 </r>
       <r>  -21.2798    1.0000 </r>
       <r>  -21.2798    1.0000 </r>
       <r>  -21.2787    1.0000 </r>
       <r>  -21.2787    1.0000 </r>
       <r>  -21.2786    1.0000 </r>
       <r>  -21.2784    1.0000 </r>
       <r>  -21.2784    1.0000 </r>
       <r>  -21.2782    1.0000 </r>
       <r>  -21.2743    1.0000 </r>
       <r>  -21.2743    1.0000 </r>
       <r>  -21.2742    1.0000 </r>
       <r>  -21.2742    1.0000 </r>
       <r>  -21.2741    1.0000 </r>
       <r>  -21.2741    1.0000 </r>
       <r>  -21.2741    1.0000 </r>
       <r>  -21.2741    1.0000 </r>
       <r>  -21.2741    1.0000 </r>
       <r>  -21.2740    1.0000 </r>
       <r>  -21.2736    1.0000 </r>
       <r>  -21.2736    1.0000 </r>
       <r>  -21.2730    1.0000 </r>
       <r>  -21.2727    1.0000 </r>
       <r>  -21.2717    1.0000 </r>
       <r>  -21.2717    1.0000 </r>
       <r>  -21.2717    1.0000 </r>
       <r>  -21.2717    1.0000 </r>
       <r>  -21.2717    1.0000 </r>
       <r>  -21.2717    1.0000 </r>
       <r>  -21.2717    1.0000 </r>
       <r>  -21.2717    1.0000 </r>
       <r>  -21.2717    1.0000 </r>
       <r>  -21.2717    1.0000 </r>
       <r>  -21.2716    1.0000 </r>
       <r>  -21.2716    1.0000 </r>
       <r>  -21.2716    1.0000 </r>
       <r>  -21.2715    1.0000 </r>
       <r>  -21.2714    1.0000 </r>
       <r>  -21.2714    1.0000 </r>
       <r>  -21.2705    1.0000 </r>
       <r>  -21.2703    1.0000 </r>
       <r>  -21.2692    1.0000 </r>
       <r>  -21.2691    1.0000 </r>
       <r>  -21.2691    1.0000 </r>
       <r>  -13.3579    1.0000 </r>
       <r>  -13.1389    1.0000 </r>
       <r>  -13.1373    1.0000 </r>
       <r>  -13.1373    1.0000 </r>
       <r>  -13.1373    1.0000 </r>
       <r>  -13.1373    1.0000 </r>
       <r>  -13.1359    1.0000 </r>
       <r>  -13.0143    1.0000 </r>
       <r>  -13.0112    1.0000 </r>
       <r>  -13.0112    1.0000 </r>
       <r>  -13.0112    1.0000 </r>
       <r>  -13.0112    1.0000 </r>
       <r>  -13.0112    1.0000 </r>
       <r>  -13.0112    1.0000 </r>
       <r>  -13.0112    1.0000 </r>
       <r>  -13.0112    1.0000 </r>
       <r>  -13.0111    1.0000 </r>
       <r>  -13.0111    1.0000 </r>
       <r>  -13.0084    1.0000 </r>
       <r>  -12.9900    1.0000 </r>
       <r>  -12.9900    1.0000 </r>
       <r>  -12.9900    1.0000 </r>
       <r>  -12.9899    1.0000 </r>
       <r>  -12.9408    1.0000 </r>
       <r>  -12.9408    1.0000 </r>
       <r>  -12.9407    1.0000 </r>
       <r>  -12.9228    1.0000 </r>
       <r>  -12.9215    1.0000 </r>
       <r>  -12.9215    1.0000 </r>
       <r>  -12.9215    1.0000 </r>
       <r>  -12.9215    1.0000 </r>
       <r>  -12.9198    1.0000 </r>
       <r>   -2.6999    1.0000 </r>
       <r>   -2.6999    1.0000 </r>
       <r>   -2.6999    1.0000 </r>
       <r>   -2.6999    1.0000 </r>
       <r>   -2.4239    1.0000 </r>
       <r>   -2.4239    1.0000 </r>
       <r>   -2.4239    1.0000 </r>
       <r>   -2.2052    1.0000 </r>
       <r>   -2.2052    1.0000 </r>
       <r>   -2.2045    1.0000 </r>
       <r>   -2.2043    1.0000 </r>
       <r>   -2.2042    1.0000 </r>
       <r>   -2.2042    1.0000 </r>
       <r>   -2.2042    1.0000 </r>
       <r>   -2.2042    1.0000 </r>
       <r>   -2.2041    1.0000 </r>
       <r>   -2.2039    1.0000 </r>
       <r>   -2.2032    1.0000 </r>
       <r>   -2.2032    1.0000 </r>
       <r>   -1.9256    1.0000 </r>
       <r>   -1.9256    1.0000 </r>
       <r>   -1.9248    1.0000 </r>
       <r>   -1.9248    1.0000 </r>
       <r>   -1.9246    1.0000 </r>
       <r>   -1.9246    1.0000 </r>
       <r>   -1.9246    1.0000 </r>
       <r>   -1.9246    1.0000 </r>
       <r>   -1.9245    1.0000 </r>
       <r>   -1.9245    1.0000 </r>
       <r>   -1.9236    1.0000 </r>
       <r>   -1.9236    1.0000 </r>
       <r>   -1.7970    1.0000 </r>
       <r>   -1.7966    1.0000 </r>
       <r>   -1.7966    1.0000 </r>
       <r>   -1.7966    1.0000 </r>
       <r>   -1.7966    1.0000 </r>
       <r>   -1.7963    1.0000 </r>
       <r>   -1.5055    1.0000 </r>
       <r>   -1.5055    1.0000 </r>
       <r>   -1.5053    1.0000 </r>
       <r>   -1.5053    1.0000 </r>
       <r>   -1.5053    1.0000 </r>
       <r>   -1.5053    1.0000 </r>
       <r>   -1.5053    1.0000 </r>
       <r>   -1.5053    1.0000 </r>
       <r>   -1.5052    1.0000 </r>
       <r>   -1.5052    1.0000 </r>
       <r>   -1.5050    1.0000 </r>
       <r>   -1.5050    1.0000 </r>
       <r>   -1.4631    1.0000 </r>
       <r>   -1.4629    1.0000 </r>
       <r>   -1.4628    1.0000 </r>
       <r>   -1.4628    1.0000 </r>
       <r>   -1.4628    1.0000 </r>
       <r>   -1.4626    1.0000 </r>
       <r>   -1.2947    1.0000 </r>
       <r>   -1.2947    1.0000 </r>
       <r>   -1.2947    1.0000 </r>
       <r>   -1.2947    1.0000 </r>
       <r>   -1.2947    1.0000 </r>
       <r>   -1.2947    1.0000 </r>
       <r>   -1.0017    1.0000 </r>
       <r>   -1.0017    1.0000 </r>
       <r>   -1.0009    1.0000 </r>
       <r>   -1.0008    1.0000 </r>
       <r>   -1.0008    1.0000 </r>
       <r>   -1.0007    1.0000 </r>
       <r>   -1.0007    1.0000 </r>
       <r>   -1.0007    1.0000 </r>
       <r>   -1.0005    1.0000 </r>
       <r>   -1.0005    1.0000 </r>
       <r>   -0.9998    1.0000 </r>
       <r>   -0.9998    1.0000 </r>
       <r>   -0.9493    1.0000 </r>
       <r>   -0.9493    1.0000 </r>
       <r>   -0.9481    1.0000 </r>
       <r>   -0.9479    1.0000 </r>
       <r>   -0.9479    1.0000 </r>
       <r>   -0.9479    1.0000 </r>
       <r>   -0.9479    1.0000 </r>
       <r>   -0.9479    1.0000 </r>
       <r>   -0.9477    1.0000 </r>
       <r>   -0.9476    1.0000 </r>
       <r>   -0.9474    1.0000 </r>
       <r>   -0.9474    1.0000 </r>
       <r>   -0.9458    1.0000 </r>
       <r>   -0.9458    1.0000 </r>
       <r>   -0.9458    1.0000 </r>
       <r>   -0.9458    1.0000 </r>
       <r>   -0.9458    1.0000 </r>
       <r>   -0.9457    1.0000 </r>
       <r>   -0.9448    1.0000 </r>
       <r>   -0.9448    1.0000 </r>
       <r>   -0.6650    1.0000 </r>
       <r>   -0.6650    1.0000 </r>
       <r>   -0.6650    1.0000 </r>
       <r>    4.3403    0.0000 </r>
       <r>    6.3674    0.0000 </r>
       <r>    6.3682    0.0000 </r>
       <r>    6.3682    0.0000 </r>
       <r>    6.3682    0.0000 </r>
       <r>    6.3682    0.0000 </r>
       <r>    6.3691    0.0000 </r>
       <r>    6.4446    0.0000 </r>
       <r>    6.4446    0.0000 </r>
       <r>    6.4446    0.0000 </r>
       <r>    6.4446    0.0000 </r>
       <r>    6.8280    0.0000 </r>
       <r>    6.8280    0.0000 </r>
       <r>    6.8280    0.0000 </r>
       <r>    7.2069    0.0000 </r>
       <r>    7.2069    0.0000 </r>
       <r>    7.2069    0.0000 </r>
       <r>    7.4632    0.0000 </r>
       <r>    7.4636    0.0000 </r>
       <r>    7.4636    0.0000 </r>
       <r>    7.4641    0.0000 </r>
       <r>    7.4642    0.0000 </r>
       <r>    7.4642    0.0000 </r>
       <r>    7.4642    0.0000 </r>
       <r>    7.4642    0.0000 </r>
       <r>    7.4643    0.0000 </r>
       <r>    7.4648    0.0000 </r>
       <r>    7.4648    0.0000 </r>
       <r>    7.4652    0.0000 </r>
       <r>    8.1678    0.0000 </r>
       <r>    8.1684    0.0000 </r>
       <r>    8.1684    0.0000 </r>
       <r>    8.1684    0.0000 </r>
       <r>    8.1684    0.0000 </r>
       <r>    8.1690    0.0000 </r>
       <r>    8.2787    0.0000 </r>
       <r>    8.2796    0.0000 </r>
       <r>    8.2796    0.0000 </r>
       <r>    8.2796    0.0000 </r>
       <r>    8.2796    0.0000 </r>
       <r>    8.2804    0.0000 </r>
       <r>    8.9022    0.0000 </r>
       <r>    8.9039    0.0000 </r>
       <r>    8.9049    0.0000 </r>
       <r>    8.9073    0.0000 </r>
       <r>    8.9085    0.0000 </r>
       <r>    8.9117    0.0000 </r>
       <r>    8.9131    0.0000 </r>
      </set>
      <set comment="kpoint 2">
       <r>  -21.3000    1.0000 </r>
       <r>  -21.2999    1.0000 </r>
       <r>  -21.2994    1.0000 </r>
       <r>  -21.2994    1.0000 </r>
       <r>  -21.2988    1.0000 </r>
       <r>  -21.2988    1.0000 </r>
       <r>  -21.2982    1.0000 </r>
       <r>  -21.2982    1.0000 </r>
       <r>  -21.2915    1.0000 </r>
       <r>  -21.2914    1.0000 </r>
       <r>  -21.2914    1.0000 </r>
       <r>  -21.2913    1.0000 </r>
       <r>  -21.2913    1.0000 </r>
       <r>  -21.2913    1.0000 </r>
       <r>  -21.2911    1.0000 </r>
       <r>  -21.2911    1.0000 </r>
       <r>  -21.2909    1.0000 </r>
       <r>  -21.2909    1.0000 </r>
       <r>  -21.2909    1.0000 </r>
       <r>  -21.2900    1.0000 </r>
       <r>  -21.2900    1.0000 </r>
       <r>  -21.2900    1.0000 </r>
       <r>  -21.2883    1.0000 </r>
       <r>  -21.2883    1.0000 </r>
       <r>  -21.2883    1.0000 </r>
       <r>  -21.2883    1.0000 </r>
       <r>  -21.2879    1.0000 </r>
       <r>  -21.2879    1.0000 </r>
       <r>  -21.2879    1.0000 </r>
       <r>  -21.2878    1.0000 </r>
       <r>  -21.2846    1.0000 </r>
       <r>  -21.2846    1.0000 </r>
       <r>  -21.2846    1.0000 </r>
       <r>  -21.2845    1.0000 </r>
       <r>  -21.2834    1.0000 </r>
       <r>  -21.2834    1.0000 </r>
       <r>  -21.2834    1.0000 </r>
       <r>  -21.2834    1.0000 </r>
       <r>  -21.2812    1.0000 </r>
       <r>  -21.2812    1.0000 </r>
       <r>  -21.2811    1.0000 </r>
       <r>  -21.2801    1.0000 </r>
       <r>  -21.2801    1.0000 </r>
       <r>  -21.2800    1.0000 </r>
       <r>  -21.2800    1.0000 </r>
       <r>  -21.2789    1.0000 </r>
       <r>  -21.2779    1.0000 </r>
       <r>  -21.2779    1.0000 </r>
       <r>  -21.2768    1.0000 </r>
       <r>  -21.2768    1.0000 </r>
       <r>  -21.2763    1.0000 </r>
       <r>  -21.2763    1.0000 </r>
       <r>  -21.2762    1.0000 </r>
       <r>  -21.2762    1.0000 </r>
       <r>  -21.2760    1.0000 </r>
       <r>  -21.2759    1.0000 </r>
       <r>  -21.2759    1.0000 </r>
       <r>  -21.2759    1.0000 </r>
       <r>  -21.2759    1.0000 </r>
       <r>  -21.2759    1.0000 </r>
       <r>  -21.2757    1.0000 </r>
       <r>  -21.2756    1.0000 </r>
       <r>  -21.2753    1.0000 </r>
       <r>  -21.2753    1.0000 </r>
       <r>  -21.2752    1.0000 </r>
       <r>  -21.2751    1.0000 </r>
       <r>  -21.2751    1.0000 </r>
       <r>  -21.2751    1.0000 </r>
       <r>  -21.2750    1.0000 </r>
       <r>  -21.2750    1.0000 </r>
       <r>  -21.2746    1.0000 </r>
       <r>  -21.2745    1.0000 </r>
       <r>  -21.2744    1.0000 </r>
       <r>  -21.2740    1.0000 </r>
       <r>  -21.2740    1.0000 </r>
       <r>  -21.2735    1.0000 </r>
       <r>  -21.2729    1.0000 </r>
       <r>  -21.2728    1.0000 </r>
       <r>  -21.2721    1.0000 </r>
       <r>  -21.2721    1.0000 </r>
       <r>  -21.2721    1.0000 </r>
       <r>  -21.2720    1.0000 </r>
       <r>  -21.2717    1.0000 </r>
       <r>  -21.2717    1.0000 </r>
       <r>  -21.2717    1.0000 </r>
       <r>  -21.2717    1.0000 </r>
       <r>  -21.2716    1.0000 </r>
       <r>  -21.2716    1.0000 </r>
       <r>  -21.2716    1.0000 </r>
       <r>  -21.2716    1.0000 </r>
       <r>  -21.2712    1.0000 </r>
       <r>  -21.2712    1.0000 </r>
       <r>  -21.2705    1.0000 </r>
       <r>  -21.2704    1.0000 </r>
       <r>  -21.2700    1.0000 </r>
       <r>  -21.2700    1.0000 </r>
       <r>  -13.2920    1.0000 </r>
       <r>  -13.2903    1.0000 </r>
       <r>  -13.0992    1.0000 </r>
       <r>  -13.0973    1.0000 </r>
       <r>  -13.0973    1.0000 </r>
       <r>  -13.0970    1.0000 </r>
       <r>  -13.0967    1.0000 </r>
       <r>  -13.0964    1.0000 </r>
       <r>  -13.0964    1.0000 </r>
       <r>  -13.0947    1.0000 </r>
       <r>  -13.0032    1.0000 </r>
       <r>  -13.0015    1.0000 </r>
       <r>  -13.0006    1.0000 </r>
       <r>  -13.0006    1.0000 </r>
       <r>  -13.0006    1.0000 </r>
       <r>  -13.0006    1.0000 </r>
       <r>  -12.9997    1.0000 </r>
       <r>  -12.9985    1.0000 </r>
       <r>  -12.9961    1.0000 </r>
       <r>  -12.9944    1.0000 </r>
       <r>  -12.9460    1.0000 </r>
       <r>  -12.9442    1.0000 </r>
       <r>  -12.9442    1.0000 </r>
       <r>  -12.9439    1.0000 </r>
       <r>  -12.9436    1.0000 </r>
       <r>  -12.9433    1.0000 </r>
       <r>  -12.9433    1.0000 </r>
       <r>  -12.9416    1.0000 </r>
       <r>  -12.9326    1.0000 </r>
       <r>  -12.9312    1.0000 </r>
       <r>  -12.9312    1.0000 </r>
       <r>  -12.9293    1.0000 </r>
       <r>   -2.5055    1.0000 </r>
       <r>   -2.5055    1.0000 </r>
       <r>   -2.5050    1.0000 </r>
       <r>   -2.5045    1.0000 </r>
       <r>   -2.5041    1.0000 </r>
       <r>   -2.5036    1.0000 </r>
       <r>   -2.5031    1.0000 </r>
       <r>   -2.5031    1.0000 </r>
       <r>   -2.2884    1.0000 </r>
       <r>   -2.2884    1.0000 </r>
       <r>   -2.2868    1.0000 </r>
       <r>   -2.2868    1.0000 </r>
       <r>   -2.2750    1.0000 </r>
       <r>   -2.2732    1.0000 </r>
       <r>   -2.1381    1.0000 </r>
       <r>   -2.1365    1.0000 </r>
       <r>   -2.1364    1.0000 </r>
       <r>   -2.1364    1.0000 </r>
       <r>   -2.1363    1.0000 </r>
       <r>   -2.1363    1.0000 </r>
       <r>   -2.1362    1.0000 </r>
       <r>   -2.1347    1.0000 </r>
       <r>   -1.9862    1.0000 </r>
       <r>   -1.9862    1.0000 </r>
       <r>   -1.9856    1.0000 </r>
       <r>   -1.9854    1.0000 </r>
       <r>   -1.9854    1.0000 </r>
       <r>   -1.9853    1.0000 </r>
       <r>   -1.9847    1.0000 </r>
       <r>   -1.9847    1.0000 </r>
       <r>   -1.8099    1.0000 </r>
       <r>   -1.8099    1.0000 </r>
       <r>   -1.8093    1.0000 </r>
       <r>   -1.8092    1.0000 </r>
       <r>   -1.8083    1.0000 </r>
       <r>   -1.8082    1.0000 </r>
       <r>   -1.8076    1.0000 </r>
       <r>   -1.8076    1.0000 </r>
       <r>   -1.4985    1.0000 </r>
       <r>   -1.4985    1.0000 </r>
       <r>   -1.4970    1.0000 </r>
       <r>   -1.4970    1.0000 </r>
       <r>   -1.3822    1.0000 </r>
       <r>   -1.3804    1.0000 </r>
       <r>   -1.3803    1.0000 </r>
       <r>   -1.3786    1.0000 </r>
       <r>   -1.2131    1.0000 </r>
       <r>   -1.2131    1.0000 </r>
       <r>   -1.2114    1.0000 </r>
       <r>   -1.2114    1.0000 </r>
       <r>   -1.1915    1.0000 </r>
       <r>   -1.1915    1.0000 </r>
       <r>   -1.1913    1.0000 </r>
       <r>   -1.1910    1.0000 </r>
       <r>   -1.1908    1.0000 </r>
       <r>   -1.1906    1.0000 </r>
       <r>   -1.1903    1.0000 </r>
       <r>   -1.1903    1.0000 </r>
       <r>   -1.1762    1.0000 </r>
       <r>   -1.1748    1.0000 </r>
       <r>   -1.1746    1.0000 </r>
       <r>   -1.1746    1.0000 </r>
       <r>   -1.1739    1.0000 </r>
       <r>   -1.1739    1.0000 </r>
       <r>   -1.1737    1.0000 </r>
       <r>   -1.1721    1.0000 </r>
       <r>   -1.1608    1.0000 </r>
       <r>   -1.1608    1.0000 </r>
       <r>   -1.1602    1.0000 </r>
       <r>   -1.1601    1.0000 </r>
       <r>   -1.1593    1.0000 </r>
       <r>   -1.1592    1.0000 </r>
       <r>   -1.1586    1.0000 </r>
       <r>   -1.1586    1.0000 </r>
       <r>   -1.0841    1.0000 </r>
       <r>   -1.0825    1.0000 </r>
       <r>   -0.9485    1.0000 </r>
       <r>   -0.9485    1.0000 </r>
       <r>   -0.9469    1.0000 </r>
       <r>   -0.9469    1.0000 </r>
       <r>   -0.9468    1.0000 </r>
       <r>   -0.9468    1.0000 </r>
       <r>   -0.9452    1.0000 </r>
       <r>   -0.9452    1.0000 </r>
       <r>   -0.9345    1.0000 </r>
       <r>   -0.9327    1.0000 </r>
       <r>   -0.9325    1.0000 </r>
       <r>   -0.9325    1.0000 </r>
       <r>   -0.9325    1.0000 </r>
       <r>   -0.9325    1.0000 </r>
       <r>   -0.9323    1.0000 </r>
       <r>   -0.9304    1.0000 </r>
       <r>   -0.7692    1.0000 </r>
       <r>   -0.7692    1.0000 </r>
       <r>   -0.7676    1.0000 </r>
       <r>   -0.7676    1.0000 </r>
       <r>    5.0218    0.0000 </r>
       <r>    5.0230    0.0000 </r>
       <r>    6.7175    0.0000 </r>
       <r>    6.7178    0.0000 </r>
       <r>    6.7178    0.0000 </r>
       <r>    6.7182    0.0000 </r>
       <r>    6.7186    0.0000 </r>
       <r>    6.7190    0.0000 </r>
       <r>    6.7190    0.0000 </r>
       <r>    6.7193    0.0000 </r>
       <r>    6.8422    0.0000 </r>
       <r>    6.8423    0.0000 </r>
       <r>    6.8427    0.0000 </r>
       <r>    6.8427    0.0000 </r>
       <r>    6.8437    0.0000 </r>
       <r>    6.8437    0.0000 </r>
       <r>    6.8442    0.0000 </r>
       <r>    6.8442    0.0000 </r>
       <r>    6.9706    0.0000 </r>
       <r>    6.9716    0.0000 </r>
       <r>    7.3614    0.0000 </r>
       <r>    7.3625    0.0000 </r>
       <r>    7.3626    0.0000 </r>
       <r>    7.3637    0.0000 </r>
       <r>    7.4793    0.0000 </r>
       <r>    7.4812    0.0000 </r>
       <r>    7.7136    0.0000 </r>
       <r>    7.7136    0.0000 </r>
       <r>    7.7156    0.0000 </r>
       <r>    7.7156    0.0000 </r>
       <r>    8.2651    0.0000 </r>
       <r>    8.2652    0.0000 </r>
       <r>    8.2652    0.0000 </r>
       <r>    8.2660    0.0000 </r>
       <r>    8.2660    0.0000 </r>
       <r>    8.2667    0.0000 </r>
       <r>    8.2667    0.0000 </r>
       <r>    8.2669    0.0000 </r>
       <r>    8.5376    0.0000 </r>
       <r>    8.5377    0.0000 </r>
       <r>    8.5379    0.0000 </r>
       <r>    8.5382    0.0000 </r>
       <r>    8.5383    0.0000 </r>
       <r>    8.5384    0.0000 </r>
       <r>    8.5388    0.0000 </r>
       <r>    8.5393    0.0000 </r>
       <r>    8.5395    0.0000 </r>
       <r>    8.5397    0.0000 </r>
      </set>
      <set comment="kpoint 3">
       <r>  -21.2993    1.0000 </r>
       <r>  -21.2992    1.0000 </r>
       <r>  -21.2991    1.0000 </r>
       <r>  -21.2991    1.0000 </r>
       <r>  -21.2991    1.0000 </r>
       <r>  -21.2991    1.0000 </r>
       <r>  -21.2991    1.0000 </r>
       <r>  -21.2991    1.0000 </r>
       <r>  -21.2918    1.0000 </r>
       <r>  -21.2915    1.0000 </r>
       <r>  -21.2912    1.0000 </r>
       <r>  -21.2911    1.0000 </r>
       <r>  -21.2910    1.0000 </r>
       <r>  -21.2910    1.0000 </r>
       <r>  -21.2910    1.0000 </r>
       <r>  -21.2909    1.0000 </r>
       <r>  -21.2908    1.0000 </r>
       <r>  -21.2907    1.0000 </r>
       <r>  -21.2906    1.0000 </r>
       <r>  -21.2906    1.0000 </r>
       <r>  -21.2903    1.0000 </r>
       <r>  -21.2899    1.0000 </r>
       <r>  -21.2883    1.0000 </r>
       <r>  -21.2883    1.0000 </r>
       <r>  -21.2882    1.0000 </r>
       <r>  -21.2881    1.0000 </r>
       <r>  -21.2881    1.0000 </r>
       <r>  -21.2880    1.0000 </r>
       <r>  -21.2880    1.0000 </r>
       <r>  -21.2879    1.0000 </r>
       <r>  -21.2840    1.0000 </r>
       <r>  -21.2839    1.0000 </r>
       <r>  -21.2839    1.0000 </r>
       <r>  -21.2839    1.0000 </r>
       <r>  -21.2839    1.0000 </r>
       <r>  -21.2839    1.0000 </r>
       <r>  -21.2839    1.0000 </r>
       <r>  -21.2839    1.0000 </r>
       <r>  -21.2809    1.0000 </r>
       <r>  -21.2808    1.0000 </r>
       <r>  -21.2807    1.0000 </r>
       <r>  -21.2807    1.0000 </r>
       <r>  -21.2800    1.0000 </r>
       <r>  -21.2800    1.0000 </r>
       <r>  -21.2800    1.0000 </r>
       <r>  -21.2800    1.0000 </r>
       <r>  -21.2776    1.0000 </r>
       <r>  -21.2773    1.0000 </r>
       <r>  -21.2773    1.0000 </r>
       <r>  -21.2771    1.0000 </r>
       <r>  -21.2764    1.0000 </r>
       <r>  -21.2764    1.0000 </r>
       <r>  -21.2761    1.0000 </r>
       <r>  -21.2760    1.0000 </r>
       <r>  -21.2760    1.0000 </r>
       <r>  -21.2760    1.0000 </r>
       <r>  -21.2759    1.0000 </r>
       <r>  -21.2757    1.0000 </r>
       <r>  -21.2757    1.0000 </r>
       <r>  -21.2757    1.0000 </r>
       <r>  -21.2757    1.0000 </r>
       <r>  -21.2756    1.0000 </r>
       <r>  -21.2756    1.0000 </r>
       <r>  -21.2755    1.0000 </r>
       <r>  -21.2754    1.0000 </r>
       <r>  -21.2752    1.0000 </r>
       <r>  -21.2748    1.0000 </r>
       <r>  -21.2748    1.0000 </r>
       <r>  -21.2747    1.0000 </r>
       <r>  -21.2747    1.0000 </r>
       <r>  -21.2747    1.0000 </r>
       <r>  -21.2746    1.0000 </r>
       <r>  -21.2746    1.0000 </r>
       <r>  -21.2745    1.0000 </r>
       <r>  -21.2742    1.0000 </r>
       <r>  -21.2740    1.0000 </r>
       <r>  -21.2723    1.0000 </r>
       <r>  -21.2722    1.0000 </r>
       <r>  -21.2721    1.0000 </r>
       <r>  -21.2720    1.0000 </r>
       <r>  -21.2720    1.0000 </r>
       <r>  -21.2719    1.0000 </r>
       <r>  -21.2718    1.0000 </r>
       <r>  -21.2717    1.0000 </r>
       <r>  -21.2717    1.0000 </r>
       <r>  -21.2716    1.0000 </r>
       <r>  -21.2716    1.0000 </r>
       <r>  -21.2715    1.0000 </r>
       <r>  -21.2714    1.0000 </r>
       <r>  -21.2713    1.0000 </r>
       <r>  -21.2713    1.0000 </r>
       <r>  -21.2710    1.0000 </r>
       <r>  -21.2706    1.0000 </r>
       <r>  -21.2706    1.0000 </r>
       <r>  -21.2704    1.0000 </r>
       <r>  -21.2704    1.0000 </r>
       <r>  -13.2912    1.0000 </r>
       <r>  -13.2911    1.0000 </r>
       <r>  -13.0990    1.0000 </r>
       <r>  -13.0968    1.0000 </r>
       <r>  -13.0968    1.0000 </r>
       <r>  -13.0968    1.0000 </r>
       <r>  -13.0968    1.0000 </r>
       <r>  -13.0968    1.0000 </r>
       <r>  -13.0968    1.0000 </r>
       <r>  -13.0948    1.0000 </r>
       <r>  -13.0015    1.0000 </r>
       <r>  -13.0006    1.0000 </r>
       <r>  -13.0006    1.0000 </r>
       <r>  -13.0006    1.0000 </r>
       <r>  -13.0006    1.0000 </r>
       <r>  -13.0006    1.0000 </r>
       <r>  -13.0006    1.0000 </r>
       <r>  -13.0006    1.0000 </r>
       <r>  -12.9955    1.0000 </r>
       <r>  -12.9948    1.0000 </r>
       <r>  -12.9459    1.0000 </r>
       <r>  -12.9438    1.0000 </r>
       <r>  -12.9438    1.0000 </r>
       <r>  -12.9438    1.0000 </r>
       <r>  -12.9438    1.0000 </r>
       <r>  -12.9438    1.0000 </r>
       <r>  -12.9438    1.0000 </r>
       <r>  -12.9418    1.0000 </r>
       <r>  -12.9312    1.0000 </r>
       <r>  -12.9312    1.0000 </r>
       <r>  -12.9311    1.0000 </r>
       <r>  -12.9306    1.0000 </r>
       <r>   -2.5044    1.0000 </r>
       <r>   -2.5044    1.0000 </r>
       <r>   -2.5044    1.0000 </r>
       <r>   -2.5043    1.0000 </r>
       <r>   -2.5043    1.0000 </r>
       <r>   -2.5043    1.0000 </r>
       <r>   -2.5042    1.0000 </r>
       <r>   -2.5042    1.0000 </r>
       <r>   -2.2876    1.0000 </r>
       <r>   -2.2876    1.0000 </r>
       <r>   -2.2876    1.0000 </r>
       <r>   -2.2876    1.0000 </r>
       <r>   -2.2741    1.0000 </r>
       <r>   -2.2741    1.0000 </r>
       <r>   -2.1378    1.0000 </r>
       <r>   -2.1364    1.0000 </r>
       <r>   -2.1364    1.0000 </r>
       <r>   -2.1364    1.0000 </r>
       <r>   -2.1364    1.0000 </r>
       <r>   -2.1364    1.0000 </r>
       <r>   -2.1363    1.0000 </r>
       <r>   -2.1349    1.0000 </r>
       <r>   -1.9859    1.0000 </r>
       <r>   -1.9859    1.0000 </r>
       <r>   -1.9855    1.0000 </r>
       <r>   -1.9854    1.0000 </r>
       <r>   -1.9854    1.0000 </r>
       <r>   -1.9854    1.0000 </r>
       <r>   -1.9850    1.0000 </r>
       <r>   -1.9850    1.0000 </r>
       <r>   -1.8091    1.0000 </r>
       <r>   -1.8088    1.0000 </r>
       <r>   -1.8087    1.0000 </r>
       <r>   -1.8087    1.0000 </r>
       <r>   -1.8087    1.0000 </r>
       <r>   -1.8087    1.0000 </r>
       <r>   -1.8087    1.0000 </r>
       <r>   -1.8084    1.0000 </r>
       <r>   -1.4977    1.0000 </r>
       <r>   -1.4977    1.0000 </r>
       <r>   -1.4977    1.0000 </r>
       <r>   -1.4977    1.0000 </r>
       <r>   -1.3804    1.0000 </r>
       <r>   -1.3804    1.0000 </r>
       <r>   -1.3804    1.0000 </r>
       <r>   -1.3804    1.0000 </r>
       <r>   -1.2124    1.0000 </r>
       <r>   -1.2123    1.0000 </r>
       <r>   -1.2122    1.0000 </r>
       <r>   -1.2122    1.0000 </r>
       <r>   -1.1915    1.0000 </r>
       <r>   -1.1912    1.0000 </r>
       <r>   -1.1911    1.0000 </r>
       <r>   -1.1909    1.0000 </r>
       <r>   -1.1909    1.0000 </r>
       <r>   -1.1909    1.0000 </r>
       <r>   -1.1905    1.0000 </r>
       <r>   -1.1904    1.0000 </r>
       <r>   -1.1744    1.0000 </r>
       <r>   -1.1742    1.0000 </r>
       <r>   -1.1742    1.0000 </r>
       <r>   -1.1742    1.0000 </r>
       <r>   -1.1742    1.0000 </r>
       <r>   -1.1742    1.0000 </r>
       <r>   -1.1741    1.0000 </r>
       <r>   -1.1741    1.0000 </r>
       <r>   -1.1600    1.0000 </r>
       <r>   -1.1598    1.0000 </r>
       <r>   -1.1597    1.0000 </r>
       <r>   -1.1597    1.0000 </r>
       <r>   -1.1597    1.0000 </r>
       <r>   -1.1596    1.0000 </r>
       <r>   -1.1595    1.0000 </r>
       <r>   -1.1594    1.0000 </r>
       <r>   -1.0833    1.0000 </r>
       <r>   -1.0833    1.0000 </r>
       <r>   -0.9469    1.0000 </r>
       <r>   -0.9469    1.0000 </r>
       <r>   -0.9468    1.0000 </r>
       <r>   -0.9468    1.0000 </r>
       <r>   -0.9468    1.0000 </r>
       <r>   -0.9468    1.0000 </r>
       <r>   -0.9468    1.0000 </r>
       <r>   -0.9468    1.0000 </r>
       <r>   -0.9340    1.0000 </r>
       <r>   -0.9326    1.0000 </r>
       <r>   -0.9325    1.0000 </r>
       <r>   -0.9325    1.0000 </r>
       <r>   -0.9325    1.0000 </r>
       <r>   -0.9325    1.0000 </r>
       <r>   -0.9324    1.0000 </r>
       <r>   -0.9310    1.0000 </r>
       <r>   -0.7684    1.0000 </r>
       <r>   -0.7684    1.0000 </r>
       <r>   -0.7684    1.0000 </r>
       <r>   -0.7684    1.0000 </r>
       <r>    5.0224    0.0000 </r>
       <r>    5.0224    0.0000 </r>
       <r>    6.7173    0.0000 </r>
       <r>    6.7182    0.0000 </r>
       <r>    6.7184    0.0000 </r>
       <r>    6.7184    0.0000 </r>
       <r>    6.7184    0.0000 </r>
       <r>    6.7184    0.0000 </r>
       <r>    6.7185    0.0000 </r>
       <r>    6.7195    0.0000 </r>
       <r>    6.8430    0.0000 </r>
       <r>    6.8430    0.0000 </r>
       <r>    6.8431    0.0000 </r>
       <r>    6.8431    0.0000 </r>
       <r>    6.8433    0.0000 </r>
       <r>    6.8434    0.0000 </r>
       <r>    6.8434    0.0000 </r>
       <r>    6.8435    0.0000 </r>
       <r>    6.9711    0.0000 </r>
       <r>    6.9711    0.0000 </r>
       <r>    7.3626    0.0000 </r>
       <r>    7.3626    0.0000 </r>
       <r>    7.3626    0.0000 </r>
       <r>    7.3626    0.0000 </r>
       <r>    7.4803    0.0000 </r>
       <r>    7.4803    0.0000 </r>
       <r>    7.7146    0.0000 </r>
       <r>    7.7146    0.0000 </r>
       <r>    7.7146    0.0000 </r>
       <r>    7.7146    0.0000 </r>
       <r>    8.2649    0.0000 </r>
       <r>    8.2656    0.0000 </r>
       <r>    8.2660    0.0000 </r>
       <r>    8.2660    0.0000 </r>
       <r>    8.2660    0.0000 </r>
       <r>    8.2660    0.0000 </r>
       <r>    8.2663    0.0000 </r>
       <r>    8.2671    0.0000 </r>
       <r>    8.5377    0.0000 </r>
       <r>    8.5380    0.0000 </r>
       <r>    8.5382    0.0000 </r>
       <r>    8.5383    0.0000 </r>
       <r>    8.5385    0.0000 </r>
       <r>    8.5386    0.0000 </r>
       <r>    8.5388    0.0000 </r>
       <r>    8.5388    0.0000 </r>
       <r>    8.5390    0.0000 </r>
       <r>    8.5396    0.0000 </r>
      </set>
      <set comment="kpoint 4">
       <r>  -21.2973    1.0000 </r>
       <r>  -21.2973    1.0000 </r>
       <r>  -21.2969    1.0000 </r>
       <r>  -21.2969    1.0000 </r>
       <r>  -21.2968    1.0000 </r>
       <r>  -21.2967    1.0000 </r>
       <r>  -21.2965    1.0000 </r>
       <r>  -21.2964    1.0000 </r>
       <r>  -21.2941    1.0000 </r>
       <r>  -21.2941    1.0000 </r>
       <r>  -21.2938    1.0000 </r>
       <r>  -21.2937    1.0000 </r>
       <r>  -21.2936    1.0000 </r>
       <r>  -21.2935    1.0000 </r>
       <r>  -21.2932    1.0000 </r>
       <r>  -21.2931    1.0000 </r>
       <r>  -21.2920    1.0000 </r>
       <r>  -21.2919    1.0000 </r>
       <r>  -21.2916    1.0000 </r>
       <r>  -21.2915    1.0000 </r>
       <r>  -21.2911    1.0000 </r>
       <r>  -21.2911    1.0000 </r>
       <r>  -21.2908    1.0000 </r>
       <r>  -21.2907    1.0000 </r>
       <r>  -21.2895    1.0000 </r>
       <r>  -21.2890    1.0000 </r>
       <r>  -21.2882    1.0000 </r>
       <r>  -21.2879    1.0000 </r>
       <r>  -21.2869    1.0000 </r>
       <r>  -21.2868    1.0000 </r>
       <r>  -21.2866    1.0000 </r>
       <r>  -21.2865    1.0000 </r>
       <r>  -21.2805    1.0000 </r>
       <r>  -21.2804    1.0000 </r>
       <r>  -21.2803    1.0000 </r>
       <r>  -21.2801    1.0000 </r>
       <r>  -21.2801    1.0000 </r>
       <r>  -21.2798    1.0000 </r>
       <r>  -21.2798    1.0000 </r>
       <r>  -21.2794    1.0000 </r>
       <r>  -21.2792    1.0000 </r>
       <r>  -21.2792    1.0000 </r>
       <r>  -21.2790    1.0000 </r>
       <r>  -21.2789    1.0000 </r>
       <r>  -21.2789    1.0000 </r>
       <r>  -21.2789    1.0000 </r>
       <r>  -21.2788    1.0000 </r>
       <r>  -21.2787    1.0000 </r>
       <r>  -21.2787    1.0000 </r>
       <r>  -21.2785    1.0000 </r>
       <r>  -21.2785    1.0000 </r>
       <r>  -21.2783    1.0000 </r>
       <r>  -21.2775    1.0000 </r>
       <r>  -21.2774    1.0000 </r>
       <r>  -21.2771    1.0000 </r>
       <r>  -21.2771    1.0000 </r>
       <r>  -21.2769    1.0000 </r>
       <r>  -21.2766    1.0000 </r>
       <r>  -21.2766    1.0000 </r>
       <r>  -21.2762    1.0000 </r>
       <r>  -21.2760    1.0000 </r>
       <r>  -21.2760    1.0000 </r>
       <r>  -21.2757    1.0000 </r>
       <r>  -21.2755    1.0000 </r>
       <r>  -21.2752    1.0000 </r>
       <r>  -21.2750    1.0000 </r>
       <r>  -21.2747    1.0000 </r>
       <r>  -21.2745    1.0000 </r>
       <r>  -21.2742    1.0000 </r>
       <r>  -21.2742    1.0000 </r>
       <r>  -21.2740    1.0000 </r>
       <r>  -21.2740    1.0000 </r>
       <r>  -21.2733    1.0000 </r>
       <r>  -21.2731    1.0000 </r>
       <r>  -21.2731    1.0000 </r>
       <r>  -21.2731    1.0000 </r>
       <r>  -21.2730    1.0000 </r>
       <r>  -21.2730    1.0000 </r>
       <r>  -21.2728    1.0000 </r>
       <r>  -21.2728    1.0000 </r>
       <r>  -21.2727    1.0000 </r>
       <r>  -21.2727    1.0000 </r>
       <r>  -21.2724    1.0000 </r>
       <r>  -21.2723    1.0000 </r>
       <r>  -21.2723    1.0000 </r>
       <r>  -21.2722    1.0000 </r>
       <r>  -21.2721    1.0000 </r>
       <r>  -21.2720    1.0000 </r>
       <r>  -21.2719    1.0000 </r>
       <r>  -21.2716    1.0000 </r>
       <r>  -21.2715    1.0000 </r>
       <r>  -21.2712    1.0000 </r>
       <r>  -21.2697    1.0000 </r>
       <r>  -21.2696    1.0000 </r>
       <r>  -21.2693    1.0000 </r>
       <r>  -21.2693    1.0000 </r>
       <r>  -13.2330    1.0000 </r>
       <r>  -13.2319    1.0000 </r>
       <r>  -13.2313    1.0000 </r>
       <r>  -13.2303    1.0000 </r>
[...]
      </set>
     </set>
    </set>
   </array>
  </eigenvalues>
  <separator name="orbital magnetization" >
   <v name="MAGDIPOLOUT">      0.00000000      0.00000000      0.00000000</v>
  </separator>
  <dos>
   <i name="efermi">     -0.51698936 </i>
   <total>
    <array>
     <dimension dim="1">gridpoints</dimension>
     <dimension dim="2">spin</dimension>
     <field>energy</field>
     <field>total</field>
     <field>integrated</field>
     <set>
      <set comment="spin 1">
       <r>   -22.8144     0.0000     0.0000 </r>
       <r>   -22.7036     0.0000     0.0000 </r>
       <r>   -22.5928     0.0000     0.0000 </r>
       <r>   -22.4820     0.0000     0.0000 </r>
       <r>   -22.3712     0.0000     0.0000 </r>
       <r>   -22.2604     0.0000     0.0000 </r>
       <r>   -22.1496     0.0000     0.0000 </r>
       <r>   -22.0388     0.0000     0.0000 </r>
       <r>   -21.9280     0.0000     0.0000 </r>
       <r>   -21.8172     0.0000     0.0000 </r>
       <r>   -21.7064     0.0000     0.0000 </r>
       <r>   -21.5956     0.0000     0.0000 </r>
       <r>   -21.4848     0.0000     0.0000 </r>
       <r>   -21.3741     0.0000     0.0000 </r>
       <r>   -21.2633  1487.8135   164.8415 </r>
       <r>   -21.1525   245.1246   192.0000 </r>
       <r>   -21.0417     0.0000   192.0000 </r>
       <r>   -20.9309     0.0000   192.0000 </r>
       <r>   -20.8201     0.0000   192.0000 </r>
       <r>   -20.7093     0.0000   192.0000 </r>
       <r>   -20.5985     0.0000   192.0000 </r>
       <r>   -20.4877     0.0000   192.0000 </r>
       <r>   -20.3769     0.0000   192.0000 </r>
       <r>   -20.2661     0.0000   192.0000 </r>
       <r>   -20.1553     0.0000   192.0000 </r>
       <r>   -20.0445     0.0000   192.0000 </r>
       <r>   -19.9337     0.0000   192.0000 </r>
       <r>   -19.8229     0.0000   192.0000 </r>
       <r>   -19.7121     0.0000   192.0000 </r>
       <r>   -19.6013     0.0000   192.0000 </r>
       <r>   -19.4905     0.0000   192.0000 </r>
       <r>   -19.3798     0.0000   192.0000 </r>
       <r>   -19.2690     0.0000   192.0000 </r>
       <r>   -19.1582     0.0000   192.0000 </r>
       <r>   -19.0474     0.0000   192.0000 </r>
       <r>   -18.9366     0.0000   192.0000 </r>
       <r>   -18.8258     0.0000   192.0000 </r>
       <r>   -18.7150     0.0000   192.0000 </r>
       <r>   -18.6042     0.0000   192.0000 </r>
       <r>   -18.4934     0.0000   192.0000 </r>
       <r>   -18.3826     0.0000   192.0000 </r>
       <r>   -18.2718     0.0000   192.0000 </r>
       <r>   -18.1610     0.0000   192.0000 </r>
       <r>   -18.0502     0.0000   192.0000 </r>
       <r>   -17.9394     0.0000   192.0000 </r>
       <r>   -17.8286     0.0000   192.0000 </r>
       <r>   -17.7178     0.0000   192.0000 </r>
       <r>   -17.6070     0.0000   192.0000 </r>
       <r>   -17.4962     0.0000   192.0000 </r>
       <r>   -17.3855     0.0000   192.0000 </r>
       <r>   -17.2747     0.0000   192.0000 </r>
       <r>   -17.1639     0.0000   192.0000 </r>
       <r>   -17.0531     0.0000   192.0000 </r>
       <r>   -16.9423     0.0000   192.0000 </r>
       <r>   -16.8315     0.0000   192.0000 </r>
       <r>   -16.7207     0.0000   192.0000 </r>
       <r>   -16.6099     0.0000   192.0000 </r>
       <r>   -16.4991     0.0000   192.0000 </r>
       <r>   -16.3883     0.0000   192.0000 </r>
       <r>   -16.2775     0.0000   192.0000 </r>
       <r>   -16.1667     0.0000   192.0000 </r>
       <r>   -16.0559     0.0000   192.0000 </r>
       <r>   -15.9451     0.0000   192.0000 </r>
       <r>   -15.8343     0.0000   192.0000 </r>
       <r>   -15.7235     0.0000   192.0000 </r>
       <r>   -15.6127     0.0000   192.0000 </r>
       <r>   -15.5019     0.0000   192.0000 </r>
       <r>   -15.3911     0.0000   192.0000 </r>
       <r>   -15.2804     0.0000   192.0000 </r>
       <r>   -15.1696     0.0000   192.0000 </r>
       <r>   -15.0588     0.0000   192.0000 </r>
       <r>   -14.9480     0.0000   192.0000 </r>
       <r>   -14.8372     0.0000   192.0000 </r>
       <r>   -14.7264     0.0000   192.0000 </r>
       <r>   -14.6156     0.0000   192.0000 </r>
       <r>   -14.5048     0.0000   192.0000 </r>
       <r>   -14.3940     0.0000   192.0000 </r>
       <r>   -14.2832     0.0000   192.0000 </r>
       <r>   -14.1724     0.0000   192.0000 </r>
       <r>   -14.0616     0.0000   192.0000 </r>
       <r>   -13.9508     0.0000   192.0000 </r>
       <r>   -13.8400     0.0000   192.0000 </r>
       <r>   -13.7292     0.0000   192.0000 </r>
       <r>   -13.6184     0.0000   192.0000 </r>
       <r>   -13.5076     0.0000   192.0000 </r>
       <r>   -13.3968     0.0066   192.0007 </r>
       <r>   -13.2861    10.9248   193.2111 </r>
       <r>   -13.1753    43.2245   198.0002 </r>
       <r>   -13.0645   101.4505   209.2404 </r>
       <r>   -12.9537   274.2309   239.6237 </r>
       <r>   -12.8429   147.8066   256.0000 </r>
       <r>   -12.7321     0.0000   256.0000 </r>
       <r>   -12.6213     0.0000   256.0000 </r>
       <r>   -12.5105     0.0000   256.0000 </r>
       <r>   -12.3997     0.0000   256.0000 </r>
       <r>   -12.2889     0.0000   256.0000 </r>
       <r>   -12.1781     0.0000   256.0000 </r>
       <r>   -12.0673     0.0000   256.0000 </r>
       <r>   -11.9565     0.0000   256.0000 </r>
       <r>   -11.8457     0.0000   256.0000 </r>
       <r>   -11.7349     0.0000   256.0000 </r>
       <r>   -11.6241     0.0000   256.0000 </r>
       <r>   -11.5133     0.0000   256.0000 </r>
       <r>   -11.4025     0.0000   256.0000 </r>
       <r>   -11.2918     0.0000   256.0000 </r>
       <r>   -11.1810     0.0000   256.0000 </r>
       <r>   -11.0702     0.0000   256.0000 </r>
       <r>   -10.9594     0.0000   256.0000 </r>
       <r>   -10.8486     0.0000   256.0000 </r>
       <r>   -10.7378     0.0000   256.0000 </r>
       <r>   -10.6270     0.0000   256.0000 </r>
       <r>   -10.5162     0.0000   256.0000 </r>
       <r>   -10.4054     0.0000   256.0000 </r>
       <r>   -10.2946     0.0000   256.0000 </r>
       <r>   -10.1838     0.0000   256.0000 </r>
       <r>   -10.0730     0.0000   256.0000 </r>
       <r>    -9.9622     0.0000   256.0000 </r>
       <r>    -9.8514     0.0000   256.0000 </r>
       <r>    -9.7406     0.0000   256.0000 </r>
       <r>    -9.6298     0.0000   256.0000 </r>
       <r>    -9.5190     0.0000   256.0000 </r>
       <r>    -9.4082     0.0000   256.0000 </r>
       <r>    -9.2975     0.0000   256.0000 </r>
       <r>    -9.1867     0.0000   256.0000 </r>
       <r>    -9.0759     0.0000   256.0000 </r>
       <r>    -8.9651     0.0000   256.0000 </r>
       <r>    -8.8543     0.0000   256.0000 </r>
       <r>    -8.7435     0.0000   256.0000 </r>
       <r>    -8.6327     0.0000   256.0000 </r>
       <r>    -8.5219     0.0000   256.0000 </r>
       <r>    -8.4111     0.0000   256.0000 </r>
       <r>    -8.3003     0.0000   256.0000 </r>
       <r>    -8.1895     0.0000   256.0000 </r>
       <r>    -8.0787     0.0000   256.0000 </r>
       <r>    -7.9679     0.0000   256.0000 </r>
       <r>    -7.8571     0.0000   256.0000 </r>
       <r>    -7.7463     0.0000   256.0000 </r>
       <r>    -7.6355     0.0000   256.0000 </r>
       <r>    -7.5247     0.0000   256.0000 </r>
       <r>    -7.4139     0.0000   256.0000 </r>
       <r>    -7.3032     0.0000   256.0000 </r>
       <r>    -7.1924     0.0000   256.0000 </r>
       <r>    -7.0816     0.0000   256.0000 </r>
       <r>    -6.9708     0.0000   256.0000 </r>
       <r>    -6.8600     0.0000   256.0000 </r>
       <r>    -6.7492     0.0000   256.0000 </r>
       <r>    -6.6384     0.0000   256.0000 </r>
       <r>    -6.5276     0.0000   256.0000 </r>
       <r>    -6.4168     0.0000   256.0000 </r>
       <r>    -6.3060     0.0000   256.0000 </r>
       <r>    -6.1952     0.0000   256.0000 </r>
       <r>    -6.0844     0.0000   256.0000 </r>
       <r>    -5.9736     0.0000   256.0000 </r>
       <r>    -5.8628     0.0000   256.0000 </r>
       <r>    -5.7520     0.0000   256.0000 </r>
       <r>    -5.6412     0.0000   256.0000 </r>
       <r>    -5.5304     0.0000   256.0000 </r>
       <r>    -5.4196     0.0000   256.0000 </r>
       <r>    -5.3089     0.0000   256.0000 </r>
       <r>    -5.1981     0.0000   256.0000 </r>
       <r>    -5.0873     0.0000   256.0000 </r>
       <r>    -4.9765     0.0000   256.0000 </r>
       <r>    -4.8657     0.0000   256.0000 </r>
       <r>    -4.7549     0.0000   256.0000 </r>
       <r>    -4.6441     0.0000   256.0000 </r>
       <r>    -4.5333     0.0000   256.0000 </r>
       <r>    -4.4225     0.0000   256.0000 </r>
       <r>    -4.3117     0.0000   256.0000 </r>
       <r>    -4.2009     0.0000   256.0000 </r>
       <r>    -4.0901     0.0000   256.0000 </r>
       <r>    -3.9793     0.0000   256.0000 </r>
       <r>    -3.8685     0.0000   256.0000 </r>
       <r>    -3.7577     0.0000   256.0000 </r>
       <r>    -3.6469     0.0000   256.0000 </r>
       <r>    -3.5361     0.0000   256.0000 </r>
       <r>    -3.4253     0.0000   256.0000 </r>
       <r>    -3.3146     0.0000   256.0000 </r>
       <r>    -3.2038     0.0000   256.0000 </r>
       <r>    -3.0930     0.0000   256.0000 </r>
       <r>    -2.9822     0.0000   256.0000 </r>
       <r>    -2.8714     0.0000   256.0000 </r>
       <r>    -2.7606     0.0001   256.0000 </r>
       <r>    -2.6498     9.0239   256.9998 </r>
       <r>    -2.5390     0.3858   257.0427 </r>
       <r>    -2.4282    63.9183   264.1245 </r>
       <r>    -2.3174    92.5150   274.3747 </r>
       <r>    -2.2066   172.8640   293.5271 </r>
       <r>    -2.0958    96.6685   304.2374 </r>
       <r>    -1.9850    27.8242   307.3202 </r>
       <r>    -1.8742    54.2636   313.3323 </r>
       <r>    -1.7634   111.9088   325.7317 </r>
       <r>    -1.6526     0.1647   325.7500 </r>
       <r>    -1.5418     0.1565   325.7673 </r>
       <r>    -1.4310   203.9566   348.3646 </r>
       <r>    -1.3202    80.6759   357.3032 </r>
       <r>    -1.2095    84.2199   366.6343 </r>
       <r>    -1.0987   286.6425   398.3928 </r>
       <r>    -0.9879   118.8455   411.5602 </r>
       <r>    -0.8771   226.8059   436.6891 </r>
       <r>    -0.7663    57.0005   443.0047 </r>
       <r>    -0.6555    43.3869   447.8117 </r>
       <r>    -0.5447     1.6993   448.0000 </r>
       <r>    -0.4339     0.0000   448.0000 </r>
       <r>    -0.3231     0.0000   448.0000 </r>
       <r>    -0.2123     0.0000   448.0000 </r>
       <r>    -0.1015     0.0000   448.0000 </r>
       <r>     0.0093     0.0000   448.0000 </r>
       <r>     0.1201     0.0000   448.0000 </r>
       <r>     0.2309     0.0000   448.0000 </r>
       <r>     0.3417     0.0000   448.0000 </r>
       <r>     0.4525     0.0000   448.0000 </r>
       <r>     0.5633     0.0000   448.0000 </r>
       <r>     0.6741     0.0000   448.0000 </r>
       <r>     0.7848     0.0000   448.0000 </r>
       <r>     0.8956     0.0000   448.0000 </r>
       <r>     1.0064     0.0000   448.0000 </r>
       <r>     1.1172     0.0000   448.0000 </r>
       <r>     1.2280     0.0000   448.0000 </r>
       <r>     1.3388     0.0000   448.0000 </r>
       <r>     1.4496     0.0000   448.0000 </r>
       <r>     1.5604     0.0000   448.0000 </r>
       <r>     1.6712     0.0000   448.0000 </r>
       <r>     1.7820     0.0000   448.0000 </r>
       <r>     1.8928     0.0000   448.0000 </r>
       <r>     2.0036     0.0000   448.0000 </r>
       <r>     2.1144     0.0000   448.0000 </r>
       <r>     2.2252     0.0000   448.0000 </r>
       <r>     2.3360     0.0000   448.0000 </r>
       <r>     2.4468     0.0000   448.0000 </r>
       <r>     2.5576     0.0000   448.0000 </r>
       <r>     2.6684     0.0000   448.0000 </r>
       <r>     2.7791     0.0000   448.0000 </r>
       <r>     2.8899     0.0000   448.0000 </r>
       <r>     3.0007     0.0000   448.0000 </r>
       <r>     3.1115     0.0000   448.0000 </r>
       <r>     3.2223     0.0000   448.0000 </r>
       <r>     3.3331     0.0000   448.0000 </r>
       <r>     3.4439     0.0000   448.0000 </r>
       <r>     3.5547     0.0000   448.0000 </r>
       <r>     3.6655     0.0000   448.0000 </r>
       <r>     3.7763     0.0000   448.0000 </r>
       <r>     3.8871     0.0000   448.0000 </r>
       <r>     3.9979     0.0000   448.0000 </r>
       <r>     4.1087     0.0000   448.0000 </r>
       <r>     4.2195     0.0000   448.0000 </r>
       <r>     4.3303     0.5378   448.0596 </r>
       <r>     4.4411     1.7186   448.2500 </r>
       <r>     4.5519     0.0000   448.2500 </r>
       <r>     4.6627     0.0000   448.2500 </r>
       <r>     4.7734     0.0000   448.2500 </r>
       <r>     4.8842     0.0000   448.2500 </r>
       <r>     4.9950     0.3597   448.2898 </r>
       <r>     5.1058    13.1789   449.7500 </r>
       <r>     5.2166     0.0000   449.7500 </r>
       <r>     5.3274     0.0000   449.7500 </r>
       <r>     5.4382     0.0000   449.7500 </r>
       <r>     5.5490    20.2837   451.9973 </r>
       <r>     5.6598     6.7935   452.7500 </r>
       <r>     5.7706     0.0002   452.7500 </r>
       <r>     5.8814    18.0474   454.7496 </r>
       <r>     5.9922     0.0007   454.7500 </r>
       <r>     6.1030     0.0000   454.7500 </r>
       <r>     6.2138     0.0000   454.7500 </r>
       <r>     6.3246     0.0137   454.7515 </r>
       <r>     6.4354    15.8365   456.5061 </r>
       <r>     6.5462     6.7140   457.2500 </r>
       <r>     6.6570    48.5195   462.6257 </r>
       <r>     6.7677    59.7760   469.2485 </r>
       <r>     6.8785    60.5881   475.9623 </r>
       <r>     6.9893    12.5464   477.3525 </r>
       <r>     7.1001     1.3316   477.5000 </r>
       <r>     7.2109     4.1435   477.9591 </r>
       <r>     7.3217     2.6784   478.2558 </r>
       <r>     7.4325    81.0486   487.2356 </r>
       <r>     7.5433   165.2738   505.5470 </r>
       <r>     7.6541    10.8571   506.7500 </r>
       <r>     7.7649    27.0717   509.7494 </r>
       <r>     7.8757     0.0010   509.7501 </r>
       <r>     7.9865    54.1472   515.7493 </r>
       <r>     8.0973     0.0000   515.7500 </r>
       <r>     8.2081    13.5054   517.2463 </r>
       <r>     8.3189    92.8946   527.5385 </r>
       <r>     8.4297     1.9036   527.7500 </r>
       <r>     8.5405    41.5101   532.3491 </r>
       <r>     8.6513    62.2857   539.2500 </r>
       <r>     8.7620     0.0000   539.2500 </r>
       <r>     8.8728     7.7811   540.1121 </r>
       <r>     8.9836    35.0910   544.0000 </r>
       <r>     9.0944     0.0000   544.0000 </r>
       <r>     9.2052     0.0000   544.0000 </r>
       <r>     9.3160     0.0000   544.0000 </r>
       <r>     9.4268     0.0000   544.0000 </r>
       <r>     9.5376     0.0000   544.0000 </r>
       <r>     9.6484     0.0000   544.0000 </r>
       <r>     9.7592     0.0000   544.0000 </r>
       <r>     9.8700     0.0000   544.0000 </r>
       <r>     9.9808     0.0000   544.0000 </r>
       <r>    10.0916     0.0000   544.0000 </r>
       <r>    10.2024     0.0000   544.0000 </r>
       <r>    10.3132     0.0000   544.0000 </r>
       <r>    10.4240     0.0000   544.0000 </r>
      </set>
     </set>
    </array>
   </total>
  </dos>
 </calculation>
 <structure name="finalpos" >
  <crystal>
   <varray name="basis" >
    <v>      11.20400236       0.00000000       0.00000000 </v>
    <v>       0.00000000      11.20400236       0.00000000 </v>
    <v>       0.00000000       0.00000000      11.20400236 </v>
   </varray>
   <i name="volume">   1406.43470641 </i>
   <varray name="rec_basis" >
    <v>       0.08925382       0.00000000       0.00000000 </v>
    <v>       0.00000000       0.08925382       0.00000000 </v>
    <v>       0.00000000       0.00000000       0.08925382 </v>
   </varray>
  </crystal>
  <varray name="positions" >
   <v>       0.00089254       0.00000000       0.00000000 </v>
   <v>       0.25000000       0.25000000       0.00000000 </v>
   <v>       0.25000000       0.00000000       0.25000000 </v>
   <v>       0.00000000       0.25000000       0.25000000 </v>
   <v>       0.00000000       0.00000000       0.50000000 </v>
   <v>       0.25000000       0.25000000       0.50000000 </v>
   <v>       0.25000000       0.00000000       0.75000000 </v>
   <v>       0.00000000       0.25000000       0.75000000 </v>
   <v>       0.00000000       0.50000000       0.00000000 </v>
   <v>       0.25000000       0.75000000       0.00000000 </v>
   <v>       0.25000000       0.50000000       0.25000000 </v>
   <v>       0.00000000       0.75000000       0.25000000 </v>
   <v>       0.00000000       0.50000000       0.50000000 </v>
   <v>       0.25000000       0.75000000       0.50000000 </v>
   <v>       0.25000000       0.50000000       0.75000000 </v>
   <v>       0.00000000       0.75000000       0.75000000 </v>
   <v>       0.50000000       0.00000000       0.00000000 </v>
   <v>       0.75000000       0.25000000       0.00000000 </v>
   <v>       0.75000000       0.00000000       0.25000000 </v>
   <v>       0.50000000       0.25000000       0.25000000 </v>
   <v>       0.50000000       0.00000000       0.50000000 </v>
   <v>       0.75000000       0.25000000       0.50000000 </v>
   <v>       0.75000000       0.00000000       0.75000000 </v>
   <v>       0.50000000       0.25000000       0.75000000 </v>
   <v>       0.50000000       0.50000000       0.00000000 </v>
   <v>       0.75000000       0.75000000       0.00000000 </v>
   <v>       0.75000000       0.50000000       0.25000000 </v>
   <v>       0.50000000       0.75000000       0.25000000 </v>
   <v>       0.50000000       0.50000000       0.50000000 </v>
   <v>       0.75000000       0.75000000       0.50000000 </v>
   <v>       0.75000000       0.50000000       0.75000000 </v>
   <v>       0.50000000       0.75000000       0.75000000 </v>
   <v>       0.25000000       0.25000000       0.25000000 </v>
   <v>       0.00000000       0.00000000       0.25000000 </v>
   <v>       0.00000000       0.25000000       0.00000000 </v>
   <v>       0.25000000       0.00000000       0.00000000 </v>
   <v>       0.25000000       0.25000000       0.75000000 </v>
   <v>       0.00000000       0.00000000       0.75000000 </v>
   <v>       0.00000000       0.25000000       0.50000000 </v>
   <v>       0.25000000       0.00000000       0.50000000 </v>
   <v>       0.25000000       0.75000000       0.25000000 </v>
   <v>       0.00000000       0.50000000       0.25000000 </v>
   <v>       0.00000000       0.75000000       0.00000000 </v>
   <v>       0.25000000       0.50000000       0.00000000 </v>
   <v>       0.25000000       0.75000000       0.75000000 </v>
   <v>       0.00000000       0.50000000       0.75000000 </v>
   <v>       0.00000000       0.75000000       0.50000000 </v>
   <v>       0.25000000       0.50000000       0.50000000 </v>
   <v>       0.75000000       0.25000000       0.25000000 </v>
   <v>       0.50000000       0.00000000       0.25000000 </v>
   <v>       0.50000000       0.25000000       0.00000000 </v>
   <v>       0.75000000       0.00000000       0.00000000 </v>
   <v>       0.75000000       0.25000000       0.75000000 </v>
   <v>       0.50000000       0.00000000       0.75000000 </v>
   <v>       0.50000000       0.25000000       0.50000000 </v>
   <v>       0.75000000       0.00000000       0.50000000 </v>
   <v>       0.75000000       0.75000000       0.25000000 </v>
   <v>       0.50000000       0.50000000       0.25000000 </v>
   <v>       0.50000000       0.75000000       0.00000000 </v>
   <v>       0.75000000       0.50000000       0.00000000 </v>
   <v>       0.75000000       0.75000000       0.75000000 </v>
   <v>       0.50000000       0.50000000       0.75000000 </v>
   <v>       0.50000000       0.75000000       0.50000000 </v>
   <v>       0.75000000       0.50000000       0.50000000 </v>
  </varray>
 </structure>
</modeling>
