   2   2   0   0
  0.2006348E+02  0.3842823E-09  0.3842823E-09  0.3842823E-09  0.5000000E-15
  1.000000000000000E-004
  CAR 
 unknown system                          
     16.83015596     -7.28950029  301      5.83561265      1.00000000
     -7.290  0.0000E+00  0.0000E+00
     -7.209  0.0000E+00  0.0000E+00
     -7.129  0.0000E+00  0.0000E+00
     -7.048  0.0000E+00  0.0000E+00
     -6.968  0.0000E+00  0.0000E+00
     -6.888  0.0000E+00  0.0000E+00
     -6.807  0.0000E+00  0.0000E+00
     -6.727  0.0000E+00  0.0000E+00
     -6.646  0.0000E+00  0.0000E+00
     -6.566  0.0000E+00  0.0000E+00
     -6.486  0.0000E+00  0.0000E+00
     -6.405  0.0000E+00  0.0000E+00
     -6.325  0.0000E+00  0.0000E+00
     -6.244  0.5775E-06  0.4643E-07
     -6.164  0.3811E-02  0.3065E-03
     -6.084  0.7522E-04  0.3125E-03
     -6.003  0.0000E+00  0.3125E-03
     -5.923  0.0000E+00  0.3125E-03
     -5.842  0.0000E+00  0.3125E-03
     -5.762  0.0000E+00  0.3125E-03
     -5.682  0.0000E+00  0.3125E-03
     -5.601  0.0000E+00  0.3125E-03
     -5.521  0.0000E+00  0.3125E-03
     -5.440  0.2200E-04  0.3143E-03
     -5.360  0.3088E-01  0.2797E-02
     -5.280  0.1966E-03  0.2812E-02
     -5.199  0.2017E-10  0.2813E-02
     -5.119  0.8590E-02  0.3503E-02
     -5.038  0.1473E-01  0.4687E-02
     -4.958  0.1033E-08  0.4687E-02
     -4.878  0.0000E+00  0.4687E-02
     -4.797  0.0000E+00  0.4687E-02
     -4.717  0.0000E+00  0.4687E-02
     -4.636  0.0000E+00  0.4687E-02
     -4.556  0.0000E+00  0.4687E-02
     -4.476  0.0000E+00  0.4687E-02
     -4.395  0.0000E+00  0.4687E-02
     -4.315  0.0000E+00  0.4687E-02
     -4.234  0.1770E-09  0.4688E-02
     -4.154  0.2161E-01  0.6425E-02
     -4.074  0.2504E-01  0.8437E-02
     -3.993  0.5210E-09  0.8438E-02
     -3.913  0.1822E-05  0.8438E-02
     -3.832  0.1520E-01  0.9659E-02
     -3.752  0.3484E-03  0.9687E-02
     -3.672  0.0000E+00  0.9687E-02
     -3.591  0.9321E-16  0.9688E-02
     -3.511  0.1115E-02  0.9777E-02
     -3.430  0.9214E-01  0.1719E-01
     -3.350  0.2853E-04  0.1719E-01
     -3.270  0.0000E+00  0.1719E-01
     -3.189  0.0000E+00  0.1719E-01
     -3.109  0.0000E+00  0.1719E-01
     -3.028  0.0000E+00  0.1719E-01
     -2.948  0.0000E+00  0.1719E-01
     -2.868  0.0000E+00  0.1719E-01
     -2.787  0.0000E+00  0.1719E-01
     -2.707  0.0000E+00  0.1719E-01
     -2.626  0.0000E+00  0.1719E-01
     -2.546  0.0000E+00  0.1719E-01
     -2.466  0.0000E+00  0.1719E-01
     -2.385  0.0000E+00  0.1719E-01
     -2.305  0.0000E+00  0.1719E-01
     -2.224  0.0000E+00  0.1719E-01
     -2.144  0.2110E-10  0.1719E-01
     -2.064  0.8654E-02  0.1788E-01
     -1.983  0.1467E-01  0.1906E-01
     -1.903  0.9815E-02  0.1985E-01
     -1.822  0.3683E-01  0.2281E-01
     -1.742  0.2473E-07  0.2281E-01
     -1.662  0.0000E+00  0.2281E-01
     -1.581  0.0000E+00  0.2281E-01
     -1.501  0.0000E+00  0.2281E-01
     -1.420  0.0000E+00  0.2281E-01
     -1.340  0.6802E-14  0.2281E-01
     -1.260  0.1114E-02  0.2290E-01
     -1.179  0.1443E-01  0.2406E-01
     -1.099  0.1889E-06  0.2406E-01
     -1.018  0.0000E+00  0.2406E-01
     -0.938  0.0000E+00  0.2406E-01
     -0.858  0.0000E+00  0.2406E-01
     -0.777  0.0000E+00  0.2406E-01
     -0.697  0.7577E-06  0.2406E-01
     -0.616  0.8538E-01  0.3093E-01
     -0.536  0.7904E-02  0.3156E-01
     -0.456  0.0000E+00  0.3156E-01
     -0.375  0.0000E+00  0.3156E-01
     -0.295  0.0000E+00  0.3156E-01
     -0.214  0.0000E+00  0.3156E-01
     -0.134  0.0000E+00  0.3156E-01
     -0.054  0.0000E+00  0.3156E-01
      0.027  0.0000E+00  0.3156E-01
      0.107  0.0000E+00  0.3156E-01
      0.188  0.5655E-09  0.3156E-01
      0.268  0.2530E-01  0.3360E-01
      0.348  0.2134E-01  0.3531E-01
      0.429  0.0000E+00  0.3531E-01
      0.509  0.0000E+00  0.3531E-01
      0.590  0.0000E+00  0.3531E-01
      0.670  0.0000E+00  0.3531E-01
      0.750  0.0000E+00  0.3531E-01
      0.831  0.0000E+00  0.3531E-01
      0.911  0.0000E+00  0.3531E-01
      0.992  0.0000E+00  0.3531E-01
      1.072  0.0000E+00  0.3531E-01
      1.152  0.0000E+00  0.3531E-01
      1.233  0.0000E+00  0.3531E-01
      1.313  0.0000E+00  0.3531E-01
      1.394  0.0000E+00  0.3531E-01
      1.474  0.0000E+00  0.3531E-01
      1.554  0.0000E+00  0.3531E-01
      1.635  0.0000E+00  0.3531E-01
      1.715  0.3523E-11  0.3531E-01
      1.796  0.7947E-02  0.3595E-01
      1.876  0.6325E-01  0.4104E-01
      1.956  0.2356E-01  0.4293E-01
      2.037  0.2962E-01  0.4531E-01
      2.117  0.9554E-07  0.4531E-01
      2.198  0.7735E-01  0.5153E-01
      2.278  0.3925E-01  0.5469E-01
      2.358  0.3403E-05  0.5469E-01
      2.439  0.0000E+00  0.5469E-01
      2.519  0.0000E+00  0.5469E-01
      2.600  0.0000E+00  0.5469E-01
      2.680  0.0000E+00  0.5469E-01
      2.760  0.0000E+00  0.5469E-01
      2.841  0.1506E-04  0.5469E-01
      2.921  0.2315E-01  0.5655E-01
      3.002  0.1588E-03  0.5656E-01
      3.082  0.0000E+00  0.5656E-01
      3.162  0.0000E+00  0.5656E-01
      3.243  0.0000E+00  0.5656E-01
      3.323  0.0000E+00  0.5656E-01
      3.404  0.0000E+00  0.5656E-01
      3.484  0.1490E-04  0.5656E-01
      3.564  0.9155E-01  0.6392E-01
      3.645  0.1724E-02  0.6406E-01
      3.725  0.0000E+00  0.6406E-01
      3.806  0.6060E-04  0.6407E-01
      3.886  0.4641E-01  0.6780E-01
      3.966  0.1751E-03  0.6781E-01
      4.047  0.0000E+00  0.6781E-01
      4.127  0.0000E+00  0.6781E-01
      4.208  0.0000E+00  0.6781E-01
      4.288  0.0000E+00  0.6781E-01
      4.368  0.1444E-04  0.6781E-01
      4.449  0.4608E-01  0.7152E-01
      4.529  0.2985E-02  0.7176E-01
      4.610  0.2866E-01  0.7406E-01
      4.690  0.3069E-06  0.7406E-01
      4.770  0.0000E+00  0.7406E-01
      4.851  0.0000E+00  0.7406E-01
      4.931  0.3133E-05  0.7406E-01
      5.012  0.5993E-01  0.7888E-01
      5.092  0.2253E-02  0.7906E-01
      5.172  0.0000E+00  0.7906E-01
      5.253  0.0000E+00  0.7906E-01
      5.333  0.0000E+00  0.7906E-01
      5.414  0.0000E+00  0.7906E-01
      5.494  0.0000E+00  0.7906E-01
      5.574  0.0000E+00  0.7906E-01
      5.655  0.8710E-13  0.7906E-01
      5.735  0.1677E-02  0.7920E-01
      5.816  0.9984E-02  0.8000E-01
      5.896  0.2220E-07  0.8000E-01
      5.976  0.0000E+00  0.8000E-01
      6.057  0.0000E+00  0.8000E-01
      6.137  0.0000E+00  0.8000E-01
      6.218  0.2589E-17  0.8000E-01
      6.298  0.1443E-03  0.8001E-01
      6.378  0.2316E-01  0.8187E-01
      6.459  0.1695E-04  0.8188E-01
      6.539  0.0000E+00  0.8188E-01
      6.620  0.0000E+00  0.8188E-01
      6.700  0.4933E-08  0.8188E-01
      6.780  0.1713E-01  0.8325E-01
      6.861  0.6190E-02  0.8375E-01
      6.941  0.0000E+00  0.8375E-01
      7.021  0.0000E+00  0.8375E-01
      7.102  0.2096E-04  0.8375E-01
      7.182  0.1021E+00  0.9196E-01
      7.263  0.6724E-02  0.9250E-01
      7.343  0.0000E+00  0.9250E-01
      7.423  0.0000E+00  0.9250E-01
      7.504  0.0000E+00  0.9250E-01
      7.584  0.1848E-10  0.9250E-01
      7.665  0.1075E-01  0.9336E-01
      7.745  0.2034E-01  0.9500E-01
      7.825  0.1919E-08  0.9500E-01
      7.906  0.0000E+00  0.9500E-01
      7.986  0.1463E-14  0.9500E-01
      8.067  0.1613E-02  0.9513E-01
      8.147  0.4503E-01  0.9875E-01
      8.227  0.1326E-02  0.9886E-01
      8.308  0.1034E-01  0.9969E-01
      8.388  0.4416E-07  0.9969E-01
      8.469  0.0000E+00  0.9969E-01
      8.549  0.0000E+00  0.9969E-01
      8.629  0.0000E+00  0.9969E-01
      8.710  0.2068E-04  0.9969E-01
      8.790  0.2318E-01  0.1016E+00
      8.871  0.1223E-03  0.1016E+00
      8.951  0.1729E-03  0.1016E+00
      9.031  0.3335E-01  0.1043E+00
      9.112  0.1457E-02  0.1044E+00
      9.192  0.4316E-01  0.1078E+00
      9.273  0.1903E-01  0.1094E+00
      9.353  0.0000E+00  0.1094E+00
      9.433  0.0000E+00  0.1094E+00
      9.514  0.0000E+00  0.1094E+00
      9.594  0.0000E+00  0.1094E+00
      9.675  0.0000E+00  0.1094E+00
      9.755  0.0000E+00  0.1094E+00
      9.835  0.2678E-08  0.1094E+00
      9.916  0.3029E-01  0.1118E+00
      9.996  0.1636E-01  0.1131E+00
     10.077  0.2019E-01  0.1147E+00
     10.157  0.7310E-01  0.1206E+00
     10.237  0.4455E-07  0.1206E+00
     10.318  0.0000E+00  0.1206E+00
     10.398  0.2406E-06  0.1206E+00
     10.479  0.4192E-01  0.1240E+00
     10.559  0.4721E-02  0.1244E+00
     10.639  0.1018E-01  0.1252E+00
     10.720  0.3646E-01  0.1281E+00
     10.800  0.3867E-01  0.1312E+00
     10.881  0.7972E-02  0.1319E+00
     10.961  0.0000E+00  0.1319E+00
     11.041  0.0000E+00  0.1319E+00
     11.122  0.0000E+00  0.1319E+00
     11.202  0.0000E+00  0.1319E+00
     11.283  0.6214E-16  0.1319E+00
     11.363  0.9730E-03  0.1320E+00
     11.443  0.1225E+00  0.1418E+00
     11.524  0.1650E-01  0.1431E+00
     11.604  0.8186E-01  0.1497E+00
     11.685  0.1142E-01  0.1506E+00
     11.765  0.3086E-01  0.1531E+00
     11.845  0.1578E-01  0.1544E+00
     11.926  0.0000E+00  0.1544E+00
     12.006  0.0000E+00  0.1544E+00
     12.087  0.0000E+00  0.1544E+00
     12.167  0.0000E+00  0.1544E+00
     12.247  0.0000E+00  0.1544E+00
     12.328  0.0000E+00  0.1544E+00
     12.408  0.1726E-17  0.1544E+00
     12.489  0.1611E-03  0.1544E+00
     12.569  0.3091E-01  0.1569E+00
     12.649  0.2796E-04  0.1569E+00
     12.730  0.0000E+00  0.1569E+00
     12.810  0.0000E+00  0.1569E+00
     12.891  0.0000E+00  0.1569E+00
     12.971  0.0000E+00  0.1569E+00
     13.051  0.0000E+00  0.1569E+00
     13.132  0.1594E-12  0.1569E+00
     13.212  0.2402E-02  0.1571E+00
     13.293  0.1315E-01  0.1581E+00
     13.373  0.2368E-07  0.1581E+00
     13.453  0.0000E+00  0.1581E+00
     13.534  0.0000E+00  0.1581E+00
     13.614  0.0000E+00  0.1581E+00
     13.695  0.0000E+00  0.1581E+00
     13.775  0.0000E+00  0.1581E+00
     13.855  0.0000E+00  0.1581E+00
     13.936  0.0000E+00  0.1581E+00
     14.016  0.0000E+00  0.1581E+00
     14.097  0.0000E+00  0.1581E+00
     14.177  0.0000E+00  0.1581E+00
     14.257  0.0000E+00  0.1581E+00
     14.338  0.0000E+00  0.1581E+00
     14.418  0.0000E+00  0.1581E+00
     14.499  0.0000E+00  0.1581E+00
     14.579  0.0000E+00  0.1581E+00
     14.659  0.0000E+00  0.1581E+00
     14.740  0.0000E+00  0.1581E+00
     14.820  0.0000E+00  0.1581E+00
     14.901  0.0000E+00  0.1581E+00
     14.981  0.0000E+00  0.1581E+00
     15.061  0.0000E+00  0.1581E+00
     15.142  0.0000E+00  0.1581E+00
     15.222  0.0000E+00  0.1581E+00
     15.303  0.0000E+00  0.1581E+00
     15.383  0.0000E+00  0.1581E+00
     15.463  0.0000E+00  0.1581E+00
     15.544  0.0000E+00  0.1581E+00
     15.624  0.1049E-15  0.1581E+00
     15.705  0.4514E-03  0.1582E+00
     15.785  0.2287E-01  0.1600E+00
     15.865  0.3465E-05  0.1600E+00
     15.946  0.0000E+00  0.1600E+00
     16.026  0.0000E+00  0.1600E+00
     16.107  0.0000E+00  0.1600E+00
     16.187  0.0000E+00  0.1600E+00
     16.267  0.0000E+00  0.1600E+00
     16.348  0.0000E+00  0.1600E+00
     16.428  0.0000E+00  0.1600E+00
     16.509  0.0000E+00  0.1600E+00
     16.589  0.0000E+00  0.1600E+00
     16.669  0.0000E+00  0.1600E+00
     16.750  0.0000E+00  0.1600E+00
     16.830  0.0000E+00  0.1600E+00
