    2    2  100    1
  0.2006348E+02  0.3842823E-09  0.3842823E-09  0.3842823E-09  0.5000000E-15
  1.000000000000000E-004
  CAR 
 unknown system                          
      8      8      8
 
  0.0000000E+00  0.0000000E+00  0.0000000E+00  0.1562500E-01
      1         -6.193152   1.000000
      2          5.750153   1.000000
      3          5.750153   1.000000
      4          5.750153   1.000000
      5          8.244564   0.000000
      6          8.244565   0.000000
      7          8.244565   0.000000
      8          8.975159   0.000000
 
  0.2500000E+00  0.1017233E-16 -0.4661268E-17  0.1250000E+00
      1         -5.395192   1.000000
      2          1.804863   1.000000
      3          4.986121   1.000000
      4          4.986121   1.000000
      5          7.670297   0.000000
      6          9.185094   0.000000
      7          9.185094   0.000000
      8         12.524870   0.000000
 
  0.5000000E+00  0.2034466E-16 -0.9322536E-17  0.6250000E-01
      1         -3.860723   1.000000
      2         -1.238885   1.000000
      3          4.549174   1.000000
      4          4.549174   1.000000
      5          7.176606   0.000000
      6          9.007762   0.000000
      7          9.007762   0.000000
      8         13.226595   0.000000
 
  0.2500000E+00  0.2500000E+00  0.4301788E-16  0.9375000E-01
      1         -5.113975   1.000000
      2          2.226734   1.000000
      3          3.848133   1.000000
      4          3.848133   1.000000
      5          6.771435   0.000000
      6          8.754076   0.000000
      7         11.438098   0.000000
      8         11.438098   0.000000
 
  0.5000000E+00  0.2500000E+00  0.1133803E-16  0.3750000E+00
      1         -3.478811   1.000000
      2         -0.635826   1.000000
      3          2.184387   1.000000
      4          3.534843   1.000000
      5          7.151522   0.000000
      6         10.087745   0.000000
      7         11.395709   0.000000
      8         11.587786   0.000000
 
 -0.2500000E+00  0.2500000E+00  0.8581016E-16  0.1875000E+00
      1         -4.152641   1.000000
      2          0.266486   1.000000
      3          1.961253   1.000000
      4          4.416744   1.000000
      5          8.092381   0.000000
      6         10.460620   0.000000
      7         10.786799   0.000000
      8         11.759133   0.000000
 
  0.5000000E+00  0.5000000E+00  0.8603577E-16  0.4687500E-01
      1         -2.058922   1.000000
      2         -2.058922   1.000000
      3          2.886261   1.000000
      4          2.886262   1.000000
      5          6.333280   0.000000
      6          6.333280   0.000000
      7         15.733808   0.000000
      8         15.733808   0.000000
 
 -0.2500000E+00  0.5000000E+00  0.2500000E+00  0.9375000E-01
      1         -1.891394   1.000000
      2         -1.891394   1.000000
      3          1.860706   1.000000
      4          1.860706   1.000000
      5          9.910431   0.000000
      6          9.910431   0.000000
      7         10.650450   0.000000
      8         10.650450   0.000000
