<?xml version="1.0" encoding="ISO-8859-1"?>
<modeling>
 <generator>
  <i name="program" type="string">vasp </i>
  <i name="version" type="string">6.3.0  </i>
  <i name="subversion" type="string">20Jan22 (build Aug 13 2022 13:28:16) complex                          parallel </i>
  <i name="platform" type="string">LinuxIFC </i>
  <i name="date" type="string">2022 09 07 </i>
  <i name="time" type="string">11:45:12 </i>
 </generator>
 <incar>
  <i type="string" name="PREC">Accurate</i>
  <i type="int" name="IALGO">    38</i>
  <i type="logical" name="ADDGRID"> T  </i>
  <i type="int" name="NELMIN">     5</i>
  <i type="int" name="IBRION">     2</i>
  <i name="EDIFF">      0.00000001</i>
  <i name="EDIFFG">     -0.00010000</i>
  <i type="int" name="NSW">   100</i>
  <i type="int" name="ISIF">     3</i>
  <i name="ENCUT">    318.00000000</i>
  <i type="logical" name="LREAL"> F  </i>
  <i type="int" name="ISMEAR">     0</i>
  <i name="SIGMA">      0.02000000</i>
  <i type="logical" name="LWAVE"> F  </i>
  <i type="logical" name="LCHARG"> F  </i>
  <i type="string" name="GGA">Ps</i>
 </incar>
 <primitive_cell>
  <structure name="primitive_cell" >
   <crystal>
    <varray name="basis" >
     <v>       0.00000000       2.71728628       2.71728628 </v>
     <v>       2.71728628       0.00000000       2.71728628 </v>
     <v>       2.71728628       2.71728628       0.00000000 </v>
    </varray>
    <i name="volume">     40.12695303 </i>
    <varray name="rec_basis" >
     <v>      -0.18400711       0.18400711       0.18400711 </v>
     <v>       0.18400711      -0.18400711       0.18400711 </v>
     <v>       0.18400711       0.18400711      -0.18400711 </v>
    </varray>
   </crystal>
   <varray name="positions" >
    <v>       0.50000000       0.50000000       0.50000000 </v>
    <v>       0.75000000       0.75000000       0.75000000 </v>
   </varray>
  </structure>
  <varray name="primitive_index" >
   <v type="int" >        1 </v>
   <v type="int" >        2 </v>
  </varray>
 </primitive_cell>
 <kpoints>
  <generation param="Gamma">
   <v type="int" name="divisions">       4        4        4 </v>
   <v name="usershift">      0.00000000       0.00000000       0.00000000 </v>
   <v name="genvec1">      0.25000000       0.00000000      -0.00000000 </v>
   <v name="genvec2">      0.00000000       0.25000000       0.00000000 </v>
   <v name="genvec3">     -0.00000000      -0.00000000       0.25000000 </v>
   <v name="shift">      0.00000000       0.00000000       0.00000000 </v>
  </generation>
  <varray name="kpointlist" >
   <v>       0.00000000       0.00000000       0.00000000 </v>
   <v>       0.25000000       0.00000000      -0.00000000 </v>
   <v>       0.50000000       0.00000000      -0.00000000 </v>
   <v>       0.25000000       0.25000000       0.00000000 </v>
   <v>       0.50000000       0.25000000       0.00000000 </v>
   <v>      -0.25000000       0.25000000       0.00000000 </v>
   <v>       0.50000000       0.50000000       0.00000000 </v>
   <v>      -0.25000000       0.50000000       0.25000000 </v>
  </varray>
  <varray name="weights" >
   <v>       0.01562500 </v>
   <v>       0.12500000 </v>
   <v>       0.06250000 </v>
   <v>       0.09375000 </v>
   <v>       0.37500000 </v>
   <v>       0.18750000 </v>
   <v>       0.04687500 </v>
   <v>       0.09375000 </v>
  </varray>
 </kpoints>
 <parameters>
  <separator name="general" >
   <i type="string" name="SYSTEM">unknown system</i>
   <i type="logical" name="LCOMPAT"> F  </i>
  </separator>
  <separator name="electronic" >
   <i type="string" name="PREC">accura</i>
   <i name="ENMAX">    318.00000000</i>
   <i name="ENAUG">    322.06900000</i>
   <i name="EDIFF">      0.00000001</i>
   <i type="int" name="IALGO">    38</i>
   <i type="int" name="IWAVPR">    11</i>
   <i type="int" name="NBANDS">     8</i>
   <i type="int" name="NBANDSLOW">    -1</i>
   <i type="int" name="NBANDSHIGH">    -1</i>
   <i name="NELECT">      8.00000000</i>
   <i type="int" name="TURBO">     0</i>
   <i type="int" name="IRESTART">     0</i>
   <i type="int" name="NREBOOT">     0</i>
   <i type="int" name="NMIN">     0</i>
   <i name="EREF">      0.00000000</i>
   <separator name="electronic smearing" >
    <i type="int" name="ISMEAR">     0</i>
    <i name="SIGMA">      0.02000000</i>
    <i name="KSPACING">      0.50000000</i>
    <i type="logical" name="KGAMMA"> T  </i>
    <i type="logical" name="KBLOWUP"> T  </i>
   </separator>
   <separator name="electronic projectors" >
    <i type="logical" name="LREAL"> F  </i>
    <v name="ROPT">      0.00000000</v>
    <i type="int" name="LMAXPAW">  -100</i>
    <i type="int" name="LMAXMIX">     2</i>
    <i type="logical" name="NLSPLINE"> F  </i>
   </separator>
   <separator name="electronic startup" >
    <i type="int" name="ISTART">     0</i>
    <i type="int" name="ICHARG">     2</i>
    <i type="int" name="INIWAV">     1</i>
   </separator>
   <separator name="electronic spin" >
    <i type="int" name="ISPIN">     1</i>
    <i type="logical" name="LNONCOLLINEAR"> F  </i>
    <v name="MAGMOM">      1.00000000      1.00000000</v>
    <i name="NUPDOWN">     -1.00000000</i>
    <i type="logical" name="LSORBIT"> F  </i>
    <v name="SAXIS">      0.00000000      0.00000000      1.00000000</v>
    <i type="logical" name="LSPIRAL"> F  </i>
    <v name="QSPIRAL">      0.00000000      0.00000000      0.00000000</v>
    <i type="logical" name="LZEROZ"> F  </i>
   </separator>
   <separator name="electronic exchange-correlation" >
    <i type="logical" name="LASPH"> F  </i>
    <i type="logical" name="LMETAGGA"> F  </i>
   </separator>
   <separator name="electronic convergence" >
    <i type="int" name="NELM">    60</i>
    <i type="int" name="NELMDL">    -5</i>
    <i type="int" name="NELMIN">     5</i>
    <i name="ENINI">    318.00000000</i>
    <separator name="electronic convergence detail" >
     <i type="logical" name="LDIAG"> T  </i>
     <i type="logical" name="LSUBROT"> F  </i>
     <i name="WEIMIN">      0.00100000</i>
     <i name="EBREAK">      0.00000000</i>
     <i name="DEPER">      0.30000000</i>
     <i type="int" name="NRMM">     4</i>
     <i name="TIME">      0.40000000</i>
    </separator>
   </separator>
   <separator name="electronic mixer" >
    <i name="AMIX">      0.40000000</i>
    <i name="BMIX">      1.00000000</i>
    <i name="AMIN">      0.10000000</i>
    <i name="AMIX_MAG">      1.60000000</i>
    <i name="BMIX_MAG">      1.00000000</i>
    <separator name="electronic mixer details" >
     <i type="int" name="IMIX">     4</i>
     <i type="logical" name="MIXFIRST"> F  </i>
     <i type="int" name="MAXMIX">   -45</i>
     <i name="WC">    100.00000000</i>
     <i type="int" name="INIMIX">     1</i>
     <i type="int" name="MIXPRE">     1</i>
     <i type="int" name="MREMOVE">     5</i>
    </separator>
   </separator>
   <separator name="electronic dipolcorrection" >
    <i type="logical" name="LDIPOL"> F  </i>
    <i type="logical" name="LMONO"> F  </i>
    <i type="int" name="IDIPOL">     0</i>
    <i name="EPSILON">      1.00000000</i>
    <v name="DIPOL">   -100.00000000   -100.00000000   -100.00000000</v>
    <i name="EFIELD">      0.00000000</i>
   </separator>
  </separator>
  <separator name="grids" >
   <i type="int" name="NGX">    24</i>
   <i type="int" name="NGY">    24</i>
   <i type="int" name="NGZ">    24</i>
   <i type="int" name="NGXF">    48</i>
   <i type="int" name="NGYF">    48</i>
   <i type="int" name="NGZF">    48</i>
   <i type="logical" name="ADDGRID"> T  </i>
  </separator>
  <separator name="ionic" >
   <i type="int" name="NSW">   100</i>
   <i type="int" name="IBRION">     2</i>
   <i type="int" name="MDALGO">     0</i>
   <i type="int" name="ISIF">     3</i>
   <i name="PSTRESS">      0.00000000</i>
   <i name="EDIFFG">     -0.00010000</i>
   <i type="int" name="NFREE">     1</i>
   <i name="POTIM">      0.50000000</i>
   <i name="SMASS">     -3.00000000</i>
   <i name="SCALEE">      1.00000000</i>
  </separator>
  <separator name="ionic md" >
   <i name="TEBEG">      0.00010000</i>
   <i name="TEEND">      0.00010000</i>
   <i type="int" name="NBLOCK">     1</i>
   <i type="int" name="KBLOCK">   100</i>
   <i type="int" name="NPACO">   256</i>
   <i name="APACO">     10.00000000</i>
  </separator>
  <separator name="symmetry" >
   <i type="int" name="ISYM">     2</i>
   <i name="SYMPREC">      0.00001000</i>
  </separator>
  <separator name="dos" >
   <i type="int" name="LORBIT">     0</i>
   <v name="RWIGS">     -1.00000000</v>
   <i type="int" name="NEDOS">   301</i>
   <i name="EMIN">     10.00000000</i>
   <i name="EMAX">    -10.00000000</i>
   <i name="EFERMI">      0.00000000</i>
  </separator>
  <separator name="writing" >
   <i type="int" name="NWRITE">     2</i>
   <i type="logical" name="LWAVE"> F  </i>
   <i type="logical" name="LDOWNSAMPLE"> F  </i>
   <i type="logical" name="LCHARG"> F  </i>
   <i type="logical" name="LPARD"> F  </i>
   <i type="logical" name="LVTOT"> F  </i>
   <i type="logical" name="LVHAR"> F  </i>
   <i type="logical" name="LELF"> F  </i>
   <i type="logical" name="LOPTICS"> F  </i>
   <v name="STM">      0.00000000      0.00000000      0.00000000      0.00000000      0.00000000      0.00000000      0.00000000</v>
  </separator>
  <separator name="performance" >
   <i type="int" name="NPAR">     2</i>
   <i type="int" name="NSIM">     4</i>
   <i type="int" name="NBLK">    -1</i>
   <i type="logical" name="LPLANE"> T  </i>
   <i type="logical" name="LSCALAPACK"> T  </i>
   <i type="logical" name="LSCAAWARE"> F  </i>
   <i type="logical" name="LSCALU"> F  </i>
   <i type="logical" name="LASYNC"> F  </i>
   <i type="logical" name="LORBITALREAL"> F  </i>
  </separator>
  <separator name="miscellaneous" >
   <i type="int" name="IDIOT">     3</i>
   <i type="int" name="PHON_NSTRUCT">    -1</i>
   <i type="logical" name="LMUSIC"> F  </i>
   <v name="POMASS">     28.08500000</v>
   <v name="DARWINR">      0.00000000</v>
   <v name="DARWINV">      1.00000000</v>
   <i type="logical" name="LCORR"> T  </i>
  </separator>
  <i type="logical" name="GGA_COMPAT"> T  </i>
  <i type="logical" name="LBERRY"> F  </i>
  <i type="int" name="ICORELEVEL">     0</i>
  <i type="logical" name="LDAU"> F  </i>
  <i type="int" name="I_CONSTRAINED_M">     0</i>
  <separator name="electronic exchange-correlation" >
   <i type="string" name="GGA">PS</i>
   <i type="int" name="VOSKOWN">     0</i>
   <i type="logical" name="LHFCALC"> F  </i>
   <i type="string" name="PRECFOCK"></i>
   <i type="logical" name="LSYMGRAD"> F  </i>
   <i type="logical" name="LHFONE"> F  </i>
   <i type="logical" name="LRHFCALC"> F  </i>
   <i type="logical" name="LTHOMAS"> F  </i>
   <i type="logical" name="LMODELHF"> F  </i>
   <i type="logical" name="LFOCKACE"> F  </i>
   <i name="ENCUT4O">     -1.00000000</i>
   <i type="int" name="EXXOEP">     0</i>
   <i type="int" name="FOURORBIT">     0</i>
   <i name="AEXX">      0.00000000</i>
   <i name="HFALPHA">      0.00000000</i>
   <i name="MCALPHA">      0.00000000</i>
   <i name="ALDAX">      1.00000000</i>
   <i name="AGGAX">      1.00000000</i>
   <i name="ALDAC">      1.00000000</i>
   <i name="AGGAC">      1.00000000</i>
   <i type="int" name="NKREDX">     1</i>
   <i type="int" name="NKREDY">     1</i>
   <i type="int" name="NKREDZ">     1</i>
   <i type="logical" name="SHIFTRED"> F  </i>
   <i type="logical" name="ODDONLY"> F  </i>
   <i type="logical" name="EVENONLY"> F  </i>
   <i type="int" name="LMAXFOCK">     0</i>
   <i type="int" name="NMAXFOCKAE">     0</i>
   <i type="logical" name="LFOCKAEDFT"> F  </i>
   <i name="HFSCREEN">      0.00000000</i>
   <i name="HFSCREENC">      0.00000000</i>
   <i type="int" name="NBANDSGWLOW">     0</i>
  </separator>
  <separator name="vdW DFT" >
   <i type="logical" name="LUSE_VDW"> F  </i>
   <i name="Zab_VDW">     -0.84910000</i>
   <i name="PARAM1">      0.12340000</i>
   <i name="PARAM2">      1.00000000</i>
   <i name="PARAM3">      0.00000000</i>
  </separator>
  <separator name="model GW" >
   <i type="int" name="MODEL_GW">     0</i>
   <i name="MODEL_EPS0">     12.03808591</i>
   <i name="MODEL_ALPHA">      1.00000000</i>
  </separator>
  <separator name="linear response parameters" >
   <i type="logical" name="LEPSILON"> F  </i>
   <i type="logical" name="LRPA"> F  </i>
   <i type="logical" name="LNABLA"> F  </i>
   <i type="logical" name="LVEL"> F  </i>
   <i name="CSHIFT">      0.10000000</i>
   <i name="OMEGAMAX">     -1.00000000</i>
   <i name="DEG_THRESHOLD">      0.00200000</i>
   <i name="RTIME">     -0.10000000</i>
   <i name="WPLASMAI">      0.00000000</i>
   <v name="DFIELD">      0.00000000      0.00000000      0.00000000</v>
   <v name="WPLASMA">      0.00000000      0.00000000      0.00000000      0.00000000      0.00000000      0.00000000      0.00000000      0.00000000      0.00000000</v>
  </separator>
  <separator name="orbital magnetization" >
   <i type="logical" name="NUCIND"> F  </i>
   <v name="MAGPOS">      0.00000000      0.00000000      0.00000000</v>
   <i type="logical" name="LNICSALL"> T  </i>
   <i type="logical" name="ORBITALMAG"> F  </i>
   <i type="logical" name="LMAGBLOCH"> F  </i>
   <i type="logical" name="LCHIMAG"> F  </i>
   <i type="logical" name="LGAUGE"> T  </i>
   <i type="int" name="MAGATOM">     0</i>
   <v name="MAGDIPOL">      0.00000000      0.00000000      0.00000000</v>
   <v name="AVECCONST">      0.00000000      0.00000000      0.00000000</v>
  </separator>
  <separator name="response functions" >
   <i type="logical" name="LFINITE_TEMPERATURE"> F  </i>
   <i type="logical" name="LADDER"> F  </i>
   <i type="logical" name="LRPAFORCE"> F  </i>
   <i type="logical" name="LFXC"> F  </i>
   <i type="logical" name="LHARTREE"> T  </i>
   <i type="int" name="IBSE">     0</i>
   <v type="int" name="KPOINT">    -1     0     0     0</v>
   <i type="logical" name="LTCTC"> F  </i>
   <i type="logical" name="LTCTE"> F  </i>
   <i type="logical" name="LTETE"> F  </i>
   <i type="logical" name="LTRIPLET"> F  </i>
   <i type="logical" name="LFXCEPS"> F  </i>
   <i type="logical" name="LFXHEG"> F  </i>
   <i type="int" name="NATURALO">     2</i>
   <i type="logical" name="LHOLEGF"> F  </i>
   <i type="logical" name="L2ORDER"> F  </i>
   <i type="logical" name="LDMP1"> F  </i>
   <i type="logical" name="LMP2LT"> F  </i>
   <i type="logical" name="LSMP2LT"> F  </i>
   <i type="logical" name="LGWLF"> F  </i>
   <i name="ENCUTGW">     -2.00000000</i>
   <i name="ENCUTGWSOFT">     -2.00000000</i>
   <i name="ENCUTLF">     -1.00000000</i>
   <i type="logical" name="LESF_SPLINES"> F  </i>
   <i type="int" name="LMAXMP2">    -1</i>
   <i name="SCISSOR">      0.00000000</i>
   <i type="int" name="NOMEGA">     0</i>
   <i type="int" name="NOMEGAR">     0</i>
   <i type="int" name="NBANDSGW">    -1</i>
   <i type="int" name="NBANDSO">    -1</i>
   <i type="int" name="NBANDSV">    -1</i>
   <i type="int" name="NELMGW">     1</i>
   <i type="int" name="NELMHF">     1</i>
   <i type="int" name="DIM">     3</i>
   <i type="int" name="IESPILON">     4</i>
   <i type="int" name="ANTIRES">     0</i>
   <i name="OMEGAMAX">    -30.00000000</i>
   <i name="OMEGAMIN">    -30.00000000</i>
   <i name="OMEGATL">   -200.00000000</i>
   <i type="int" name="OMEGAGRID">     0</i>
   <i name="CSHIFT">     -0.10000000</i>
   <i type="logical" name="LSELFENERGY"> F  </i>
   <i type="logical" name="LSPECTRAL"> F  </i>
   <i type="logical" name="LSPECTRALGW"> F  </i>
   <i type="logical" name="LSINGLES"> F  </i>
   <i type="logical" name="LFERMIGW"> F  </i>
   <i type="logical" name="ODDONLYGW"> F  </i>
   <i type="logical" name="EVENONLYGW"> F  </i>
   <i type="int" name="NKREDLFX">     1</i>
   <i type="int" name="NKREDLFY">     1</i>
   <i type="int" name="NKREDLFZ">     1</i>
   <i type="int" name="MAXMEM">  2800</i>
   <i type="int" name="TELESCOPE">     0</i>
   <i type="int" name="NTAUPAR">    -1</i>
   <i type="int" name="NOMEGAPAR">    -1</i>
   <i name="DAMP_NEWTON">      0.80000001</i>
   <i name="LAMBDA">      1.00000000</i>
  </separator>
  <separator name="External order field" >
   <i name="OFIELD_KAPPA">      0.00000000</i>
   <v name="OFIELD_K">      0.00000000      0.00000000      0.00000000</v>
   <i name="OFIELD_Q6_NEAR">      0.00000000</i>
   <i name="OFIELD_Q6_FAR">      0.00000000</i>
   <i name="OFIELD_A">      0.00000000</i>
  </separator>
  <separator name="optional k-points parameters" >
   <i type="int" name="KPOINTS_OPT_MODE">     1</i>
   <i type="logical" name="LKPOINTS_OPT"> F  </i>
  </separator>
 </parameters>
 <atominfo>
  <atoms>       2 </atoms>
  <types>       1 </types>
  <array name="atoms" >
   <dimension dim="1">ion</dimension>
   <field type="string">element</field>
   <field type="int">atomtype</field>
   <set>
    <rc><c>Si</c><c>   1</c></rc>
    <rc><c>Si</c><c>   1</c></rc>
   </set>
  </array>
  <array name="atomtypes" >
   <dimension dim="1">type</dimension>
   <field type="int">atomspertype</field>
   <field type="string">element</field>
   <field>mass</field>
   <field>valence</field>
   <field type="string">pseudopotential</field>
   <set>
    <rc><c>   2</c><c>Si</c><c>     28.08500000</c><c>      4.00000000</c><c>  PAW_PBE Si 05Jan2001                  </c></rc>
   </set>
  </array>
 </atominfo>
 <structure name="initialpos" >
  <crystal>
   <varray name="basis" >
    <v>       0.00000000       2.71728628       2.71728628 </v>
    <v>       2.71728628       0.00000000       2.71728628 </v>
    <v>       2.71728628       2.71728628       0.00000000 </v>
   </varray>
   <i name="volume">     40.12695303 </i>
   <varray name="rec_basis" >
    <v>      -0.18400711       0.18400711       0.18400711 </v>
    <v>       0.18400711      -0.18400711       0.18400711 </v>
    <v>       0.18400711       0.18400711      -0.18400711 </v>
   </varray>
  </crystal>
  <varray name="positions" >
   <v>       0.50000000       0.50000000       0.50000000 </v>
   <v>       0.75000000       0.75000000       0.75000000 </v>
  </varray>
 </structure>
 <calculation>
  <scstep>
   <time name="dav">    0.02    0.02</time>
   <time name="total">    0.07    0.07</time>
   <energy>
    <i name="alphaZ">      3.35566279 </i>
    <i name="ewald">   -228.37121534 </i>
    <i name="hartreedc">    -11.03901212 </i>
    <i name="XCdc">    -17.46418083 </i>
    <i name="pawpsdc">    174.95707044 </i>
    <i name="pawaedc">   -140.38057629 </i>
    <i name="eentropy">     -0.00265007 </i>
    <i name="bandstr">     15.91001354 </i>
    <i name="atom">    205.14896951 </i>
    <i name="e_fr_energy">      2.11408163 </i>
    <i name="e_wo_entrp">      2.11673169 </i>
    <i name="e_0_energy">      2.11540666 </i>
   </energy>
  </scstep>
  <scstep>
   <time name="dav">    0.03    0.03</time>
   <time name="total">    0.03    0.03</time>
   <energy>
    <i name="e_fr_energy">    -11.40228328 </i>
    <i name="e_wo_entrp">    -11.40228328 </i>
    <i name="e_0_energy">    -11.40228328 </i>
   </energy>
  </scstep>
  <scstep>
   <time name="dav">    0.02    0.02</time>
   <time name="total">    0.02    0.02</time>
   <energy>
    <i name="e_fr_energy">    -11.54240478 </i>
    <i name="e_wo_entrp">    -11.54240478 </i>
    <i name="e_0_energy">    -11.54240478 </i>
   </energy>
  </scstep>
  <scstep>
   <time name="dav">    0.03    0.03</time>
   <time name="total">    0.03    0.03</time>
   <energy>
    <i name="e_fr_energy">    -11.54305359 </i>
    <i name="e_wo_entrp">    -11.54305359 </i>
    <i name="e_0_energy">    -11.54305359 </i>
   </energy>
  </scstep>
  <scstep>
   <time name="dav">    0.02    0.02</time>
   <time name="total">    0.04    0.04</time>
   <energy>
    <i name="e_fr_energy">    -11.54305414 </i>
    <i name="e_wo_entrp">    -11.54305414 </i>
    <i name="e_0_energy">    -11.54305414 </i>
   </energy>
  </scstep>
  <scstep>
   <time name="dav">    0.02    0.02</time>
   <time name="total">    0.06    0.06</time>
   <energy>
    <i name="e_fr_energy">    -11.37038005 </i>
    <i name="e_wo_entrp">    -11.37038005 </i>
    <i name="e_0_energy">    -11.37038005 </i>
   </energy>
  </scstep>
  <scstep>
   <time name="dav">    0.02    0.02</time>
   <time name="total">    0.06    0.06</time>
   <energy>
    <i name="e_fr_energy">    -11.29142029 </i>
    <i name="e_wo_entrp">    -11.29142029 </i>
    <i name="e_0_energy">    -11.29142029 </i>
   </energy>
  </scstep>
  <scstep>
   <time name="dav">    0.02    0.02</time>
   <time name="total">    0.06    0.06</time>
   <energy>
    <i name="e_fr_energy">    -11.29220616 </i>
    <i name="e_wo_entrp">    -11.29220616 </i>
    <i name="e_0_energy">    -11.29220616 </i>
   </energy>
  </scstep>
  <scstep>
   <time name="dav">    0.02    0.02</time>
   <time name="total">    0.06    0.06</time>
   <energy>
    <i name="e_fr_energy">    -11.29228393 </i>
    <i name="e_wo_entrp">    -11.29228393 </i>
    <i name="e_0_energy">    -11.29228393 </i>
   </energy>
  </scstep>
  <scstep>
   <time name="dav">    0.02    0.02</time>
   <time name="total">    0.06    0.06</time>
   <energy>
    <i name="e_fr_energy">    -11.29230226 </i>
    <i name="e_wo_entrp">    -11.29230226 </i>
    <i name="e_0_energy">    -11.29230226 </i>
   </energy>
  </scstep>
  <scstep>
   <time name="dav">    0.02    0.02</time>
   <time name="total">    0.06    0.06</time>
   <energy>
    <i name="e_fr_energy">    -11.29230194 </i>
    <i name="e_wo_entrp">    -11.29230194 </i>
    <i name="e_0_energy">    -11.29230194 </i>
   </energy>
  </scstep>
  <scstep>
   <time name="dav">    0.02    0.02</time>
   <time name="total">    0.05    0.05</time>
   <energy>
    <i name="e_fr_energy">    -11.29230181 </i>
    <i name="e_wo_entrp">    -11.29230181 </i>
    <i name="e_0_energy">    -11.29230181 </i>
   </energy>
  </scstep>
  <scstep>
   <time name="dav">    0.01    0.01</time>
   <time name="total">    0.05    0.05</time>
   <energy>
    <i name="e_fr_energy">    -11.29230180 </i>
    <i name="e_wo_entrp">    -11.29230180 </i>
    <i name="e_0_energy">    -11.29230180 </i>
   </energy>
  </scstep>
  <scstep>
   <time name="dav">    0.01    0.01</time>
   <time name="total">    0.04    0.04</time>
   <energy>
    <i name="alphaZ">      3.35566279 </i>
    <i name="ewald">   -228.37121534 </i>
    <i name="hartreedc">    -14.96099817 </i>
    <i name="XCdc">    -16.81588108 </i>
    <i name="pawpsdc">    904.24615682 </i>
    <i name="pawaedc">   -869.89337332 </i>
    <i name="eentropy">     -0.00000000 </i>
    <i name="bandstr">      5.99837699 </i>
    <i name="atom">    205.14896951 </i>
    <i name="e_fr_energy">    -11.29230180 </i>
    <i name="e_wo_entrp">    -11.29230180 </i>
    <i name="e_0_energy">    -11.29230180 </i>
   </energy>
  </scstep>
  <structure>
   <crystal>
    <varray name="basis" >
     <v>       0.00000000       2.71728628       2.71728628 </v>
     <v>       2.71728628       0.00000000       2.71728628 </v>
     <v>       2.71728628       2.71728628       0.00000000 </v>
    </varray>
    <i name="volume">     40.12695303 </i>
    <varray name="rec_basis" >
     <v>      -0.18400711       0.18400711       0.18400711 </v>
     <v>       0.18400711      -0.18400711       0.18400711 </v>
     <v>       0.18400711       0.18400711      -0.18400711 </v>
    </varray>
   </crystal>
   <varray name="positions" >
    <v>       0.50000000       0.50000000       0.50000000 </v>
    <v>       0.75000000       0.75000000       0.75000000 </v>
   </varray>
  </structure>
  <varray name="forces" >
   <v>       0.00000000       0.00000000       0.00000000 </v>
   <v>      -0.00000000      -0.00000000      -0.00000000 </v>
  </varray>
  <varray name="stress" >
   <v>       6.22970892       0.00000000       0.00000000 </v>
   <v>       0.00000000       6.22970892      -0.00000000 </v>
   <v>       0.00000000       0.00000000       6.22970892 </v>
  </varray>
  <energy>
   <i name="e_fr_energy">    -11.29230180 </i>
   <i name="e_wo_entrp">    -11.29230180 </i>
   <i name="e_0_energy">    -11.29230180 </i>
  </energy>
  <time name="totalsc">    0.97    0.97</time>
 </calculation>
 <calculation>
  <scstep>
   <time name="dav">    0.01    0.01</time>
   <time name="total">    0.05    0.05</time>
   <energy>
    <i name="alphaZ">      3.31805885 </i>
    <i name="ewald">   -227.51495760 </i>
    <i name="hartreedc">    -14.90489633 </i>
    <i name="XCdc">    -16.86699680 </i>
    <i name="pawpsdc">    904.24903554 </i>
    <i name="pawaedc">   -869.89625339 </i>
    <i name="eentropy">     -0.00000000 </i>
    <i name="bandstr">      5.17375296 </i>
    <i name="atom">    205.14896951 </i>
    <i name="e_fr_energy">    -11.29328726 </i>
    <i name="e_wo_entrp">    -11.29328726 </i>
    <i name="e_0_energy">    -11.29328726 </i>
   </energy>
  </scstep>
  <scstep>
   <time name="dav">    0.01    0.01</time>
   <time name="total">    0.05    0.05</time>
   <energy>
    <i name="e_fr_energy">    -11.29278311 </i>
    <i name="e_wo_entrp">    -11.29278311 </i>
    <i name="e_0_energy">    -11.29278311 </i>
   </energy>
  </scstep>
  <scstep>
   <time name="dav">    0.01    0.01</time>
   <time name="total">    0.05    0.05</time>
   <energy>
    <i name="e_fr_energy">    -11.29252811 </i>
    <i name="e_wo_entrp">    -11.29252811 </i>
    <i name="e_0_energy">    -11.29252811 </i>
   </energy>
  </scstep>
  <scstep>
   <time name="dav">    0.02    0.02</time>
   <time name="total">    0.05    0.05</time>
   <energy>
    <i name="e_fr_energy">    -11.29252778 </i>
    <i name="e_wo_entrp">    -11.29252778 </i>
    <i name="e_0_energy">    -11.29252778 </i>
   </energy>
  </scstep>
  <scstep>
   <time name="dav">    0.01    0.01</time>
   <time name="total">    0.05    0.05</time>
   <energy>
    <i name="e_fr_energy">    -11.29252541 </i>
    <i name="e_wo_entrp">    -11.29252541 </i>
    <i name="e_0_energy">    -11.29252541 </i>
   </energy>
  </scstep>
  <scstep>
   <time name="dav">    0.02    0.02</time>
   <time name="total">    0.05    0.05</time>
   <energy>
    <i name="e_fr_energy">    -11.29252529 </i>
    <i name="e_wo_entrp">    -11.29252529 </i>
    <i name="e_0_energy">    -11.29252529 </i>
   </energy>
  </scstep>
  <scstep>
   <time name="dav">    0.01    0.01</time>
   <time name="total">    0.05    0.05</time>
   <energy>
    <i name="e_fr_energy">    -11.29252510 </i>
    <i name="e_wo_entrp">    -11.29252510 </i>
    <i name="e_0_energy">    -11.29252510 </i>
   </energy>
  </scstep>
  <scstep>
   <time name="dav">    0.01    0.01</time>
   <time name="total">    0.04    0.04</time>
   <energy>
    <i name="e_fr_energy">    -11.29252515 </i>
    <i name="e_wo_entrp">    -11.29252515 </i>
    <i name="e_0_energy">    -11.29252515 </i>
   </energy>
  </scstep>
  <scstep>
   <time name="dav">    0.01    0.01</time>
   <time name="total">    0.04    0.04</time>
   <energy>
    <i name="e_fr_energy">    -11.29252518 </i>
    <i name="e_wo_entrp">    -11.29252518 </i>
    <i name="e_0_energy">    -11.29252518 </i>
   </energy>
  </scstep>
  <scstep>
   <time name="dav">    0.01    0.01</time>
   <time name="total">    0.03    0.03</time>
   <energy>
    <i name="alphaZ">      3.31805885 </i>
    <i name="ewald">   -227.51495760 </i>
    <i name="hartreedc">    -15.09170417 </i>
    <i name="XCdc">    -16.86404833 </i>
    <i name="pawpsdc">    884.49802077 </i>
    <i name="pawaedc">   -850.13659481 </i>
    <i name="eentropy">     -0.00000000 </i>
    <i name="bandstr">      5.34973060 </i>
    <i name="atom">    205.14896951 </i>
    <i name="e_fr_energy">    -11.29252519 </i>
    <i name="e_wo_entrp">    -11.29252519 </i>
    <i name="e_0_energy">    -11.29252519 </i>
   </energy>
  </scstep>
  <structure>
   <crystal>
    <varray name="basis" >
     <v>       0.00000000       2.72751285       2.72751285 </v>
     <v>       2.72751285       0.00000000       2.72751285 </v>
     <v>       2.72751285       2.72751285      -0.00000000 </v>
    </varray>
    <i name="volume">     40.58171636 </i>
    <varray name="rec_basis" >
     <v>      -0.18331719       0.18331719       0.18331719 </v>
     <v>       0.18331719      -0.18331719       0.18331719 </v>
     <v>       0.18331719       0.18331719      -0.18331719 </v>
    </varray>
   </crystal>
   <varray name="positions" >
    <v>       0.50000000       0.50000000       0.50000000 </v>
    <v>       0.75000000       0.75000000       0.75000000 </v>
   </varray>
  </structure>
  <varray name="forces" >
   <v>       0.00000000       0.00000000       0.00000000 </v>
   <v>      -0.00000000      -0.00000000      -0.00000000 </v>
  </varray>
  <varray name="stress" >
   <v>      -4.48020182       0.00000000      -0.00000000 </v>
   <v>      -0.00000000      -4.48020182      -0.00000000 </v>
   <v>       0.00000000       0.00000000      -4.48020182 </v>
  </varray>
  <energy>
   <i name="e_fr_energy">    -11.29252519 </i>
   <i name="e_wo_entrp">    -11.29252519 </i>
   <i name="e_0_energy">    -11.29252519 </i>
  </energy>
  <time name="totalsc">    0.77    0.80</time>
 </calculation>
 <calculation>
  <scstep>
   <time name="dav">    0.01    0.01</time>
   <time name="total">    0.05    0.05</time>
   <energy>
    <i name="alphaZ">      3.33412840 </i>
    <i name="ewald">   -227.88165561 </i>
    <i name="hartreedc">    -15.11603032 </i>
    <i name="XCdc">    -16.84219955 </i>
    <i name="pawpsdc">    884.49974785 </i>
    <i name="pawaedc">   -850.13832169 </i>
    <i name="eentropy">     -0.00000000 </i>
    <i name="bandstr">      5.70242612 </i>
    <i name="atom">    205.14896951 </i>
    <i name="e_fr_energy">    -11.29293528 </i>
    <i name="e_wo_entrp">    -11.29293528 </i>
    <i name="e_0_energy">    -11.29293528 </i>
   </energy>
  </scstep>
  <scstep>
   <time name="dav">    0.01    0.01</time>
   <time name="total">    0.05    0.05</time>
   <energy>
    <i name="e_fr_energy">    -11.29284396 </i>
    <i name="e_wo_entrp">    -11.29284396 </i>
    <i name="e_0_energy">    -11.29284396 </i>
   </energy>
  </scstep>
  <scstep>
   <time name="dav">    0.01    0.01</time>
   <time name="total">    0.05    0.05</time>
   <energy>
    <i name="e_fr_energy">    -11.29280016 </i>
    <i name="e_wo_entrp">    -11.29280016 </i>
    <i name="e_0_energy">    -11.29280016 </i>
   </energy>
  </scstep>
  <scstep>
   <time name="dav">    0.02    0.02</time>
   <time name="total">    0.05    0.05</time>
   <energy>
    <i name="e_fr_energy">    -11.29280040 </i>
    <i name="e_wo_entrp">    -11.29280040 </i>
    <i name="e_0_energy">    -11.29280040 </i>
   </energy>
  </scstep>
  <scstep>
   <time name="dav">    0.01    0.01</time>
   <time name="total">    0.05    0.05</time>
   <energy>
    <i name="e_fr_energy">    -11.29280094 </i>
    <i name="e_wo_entrp">    -11.29280094 </i>
    <i name="e_0_energy">    -11.29280094 </i>
   </energy>
  </scstep>
  <scstep>
   <time name="dav">    0.01    0.01</time>
   <time name="total">    0.05    0.05</time>
   <energy>
    <i name="e_fr_energy">    -11.29280100 </i>
    <i name="e_wo_entrp">    -11.29280100 </i>
    <i name="e_0_energy">    -11.29280100 </i>
   </energy>
  </scstep>
  <scstep>
   <time name="dav">    0.01    0.01</time>
   <time name="total">    0.05    0.05</time>
   <energy>
    <i name="e_fr_energy">    -11.29280110 </i>
    <i name="e_wo_entrp">    -11.29280110 </i>
    <i name="e_0_energy">    -11.29280110 </i>
   </energy>
  </scstep>
  <scstep>
   <time name="dav">    0.01    0.01</time>
   <time name="total">    0.05    0.05</time>
   <energy>
    <i name="e_fr_energy">    -11.29280106 </i>
    <i name="e_wo_entrp">    -11.29280106 </i>
    <i name="e_0_energy">    -11.29280106 </i>
   </energy>
  </scstep>
  <scstep>
   <time name="dav">    0.01    0.01</time>
   <time name="total">    0.04    0.04</time>
   <energy>
    <i name="e_fr_energy">    -11.29280105 </i>
    <i name="e_wo_entrp">    -11.29280105 </i>
    <i name="e_0_energy">    -11.29280105 </i>
   </energy>
  </scstep>
  <scstep>
   <time name="dav">    0.01    0.01</time>
   <time name="total">    0.03    0.03</time>
   <energy>
    <i name="alphaZ">      3.33412840 </i>
    <i name="ewald">   -227.88165561 </i>
    <i name="hartreedc">    -15.03558784 </i>
    <i name="XCdc">    -16.84342324 </i>
    <i name="pawpsdc">    892.88738550 </i>
    <i name="pawaedc">   -858.52964052 </i>
    <i name="eentropy">     -0.00000000 </i>
    <i name="bandstr">      5.62702275 </i>
    <i name="atom">    205.14896951 </i>
    <i name="e_fr_energy">    -11.29280105 </i>
    <i name="e_wo_entrp">    -11.29280105 </i>
    <i name="e_0_energy">    -11.29280105 </i>
   </energy>
  </scstep>
  <structure>
   <crystal>
    <varray name="basis" >
     <v>       0.00000000       2.72312384       2.72312384 </v>
     <v>       2.72312384       0.00000000       2.72312384 </v>
     <v>       2.72312384       2.72312384      -0.00000000 </v>
    </varray>
    <i name="volume">     40.38612404 </i>
    <varray name="rec_basis" >
     <v>      -0.18361266       0.18361266       0.18361266 </v>
     <v>       0.18361266      -0.18361266       0.18361266 </v>
     <v>       0.18361266       0.18361266      -0.18361266 </v>
    </varray>
   </crystal>
   <varray name="positions" >
    <v>       0.50000000       0.50000000       0.50000000 </v>
    <v>       0.75000000       0.75000000       0.75000000 </v>
   </varray>
  </structure>
  <varray name="forces" >
   <v>       0.00000000       0.00000000      -0.00000000 </v>
   <v>      -0.00000000      -0.00000000       0.00000000 </v>
  </varray>
  <varray name="stress" >
   <v>       0.04866747      -0.00000000       0.00000000 </v>
   <v>       0.00000000       0.04866747       0.00000000 </v>
   <v>      -0.00000000       0.00000000       0.04866747 </v>
  </varray>
  <energy>
   <i name="e_fr_energy">    -11.29280105 </i>
   <i name="e_wo_entrp">    -11.29280105 </i>
   <i name="e_0_energy">    -11.29280105 </i>
  </energy>
  <time name="totalsc">    0.76    0.76</time>
 </calculation>
 <calculation>
  <scstep>
   <time name="dav">    0.01    0.01</time>
   <time name="total">    0.05    0.05</time>
   <energy>
    <i name="alphaZ">      3.33395599 </i>
    <i name="ewald">   -227.87772759 </i>
    <i name="hartreedc">    -15.03532701 </i>
    <i name="XCdc">    -16.84365720 </i>
    <i name="pawpsdc">    892.89326476 </i>
    <i name="pawaedc">   -858.53552011 </i>
    <i name="eentropy">     -0.00000000 </i>
    <i name="bandstr">      5.62324055 </i>
    <i name="atom">    205.14896951 </i>
    <i name="e_fr_energy">    -11.29280110 </i>
    <i name="e_wo_entrp">    -11.29280110 </i>
    <i name="e_0_energy">    -11.29280110 </i>
   </energy>
  </scstep>
  <scstep>
   <time name="dav">    0.01    0.01</time>
   <time name="total">    0.05    0.05</time>
   <energy>
    <i name="e_fr_energy">    -11.29280108 </i>
    <i name="e_wo_entrp">    -11.29280108 </i>
    <i name="e_0_energy">    -11.29280108 </i>
   </energy>
  </scstep>
  <scstep>
   <time name="dav">    0.01    0.01</time>
   <time name="total">    0.05    0.05</time>
   <energy>
    <i name="e_fr_energy">    -11.29280105 </i>
    <i name="e_wo_entrp">    -11.29280105 </i>
    <i name="e_0_energy">    -11.29280105 </i>
   </energy>
  </scstep>
  <scstep>
   <time name="dav">    0.01    0.01</time>
   <time name="total">    0.04    0.04</time>
   <energy>
    <i name="e_fr_energy">    -11.29280105 </i>
    <i name="e_wo_entrp">    -11.29280105 </i>
    <i name="e_0_energy">    -11.29280105 </i>
   </energy>
  </scstep>
  <scstep>
   <time name="dav">    0.01    0.01</time>
   <time name="total">    0.03    0.03</time>
   <energy>
    <i name="alphaZ">      3.33395599 </i>
    <i name="ewald">   -227.87772759 </i>
    <i name="hartreedc">    -15.03619600 </i>
    <i name="XCdc">    -16.84364020 </i>
    <i name="pawpsdc">    892.79865876 </i>
    <i name="pawaedc">   -858.44087864 </i>
    <i name="eentropy">     -0.00000000 </i>
    <i name="bandstr">      5.62405713 </i>
    <i name="atom">    205.14896951 </i>
    <i name="e_fr_energy">    -11.29280104 </i>
    <i name="e_wo_entrp">    -11.29280104 </i>
    <i name="e_0_energy">    -11.29280104 </i>
   </energy>
  </scstep>
  <structure>
   <crystal>
    <varray name="basis" >
     <v>       0.00000000       2.72317078       2.72317078 </v>
     <v>       2.72317078       0.00000000       2.72317078 </v>
     <v>       2.72317078       2.72317078      -0.00000000 </v>
    </varray>
    <i name="volume">     40.38821253 </i>
    <varray name="rec_basis" >
     <v>      -0.18360949       0.18360949       0.18360949 </v>
     <v>       0.18360949      -0.18360949       0.18360949 </v>
     <v>       0.18360949       0.18360949      -0.18360949 </v>
    </varray>
   </crystal>
   <varray name="positions" >
    <v>       0.50000000       0.50000000       0.50000000 </v>
    <v>       0.75000000       0.75000000       0.75000000 </v>
   </varray>
  </structure>
  <varray name="forces" >
   <v>       0.00000000      -0.00000000      -0.00000000 </v>
   <v>      -0.00000000       0.00000000       0.00000000 </v>
  </varray>
  <varray name="stress" >
   <v>      -0.00039482       0.00000000       0.00000000 </v>
   <v>      -0.00000000      -0.00039482       0.00000000 </v>
   <v>       0.00000000       0.00000000      -0.00039482 </v>
  </varray>
  <energy>
   <i name="e_fr_energy">    -11.29280104 </i>
   <i name="e_wo_entrp">    -11.29280104 </i>
   <i name="e_0_energy">    -11.29280104 </i>
  </energy>
  <time name="totalsc">    0.52    0.52</time>
  <eigenvalues>
   <array>
    <dimension dim="1">band</dimension>
    <dimension dim="2">kpoint</dimension>
    <dimension dim="3">spin</dimension>
    <field>eigene</field>
    <field>occ</field>
    <set>
     <set comment="spin 1">
      <set comment="kpoint 1">
       <r>   -6.1932    1.0000 </r>
       <r>    5.7502    1.0000 </r>
       <r>    5.7502    1.0000 </r>
       <r>    5.7502    1.0000 </r>
       <r>    8.2446    0.0000 </r>
       <r>    8.2446    0.0000 </r>
       <r>    8.2446    0.0000 </r>
       <r>    8.9752    0.0000 </r>
      </set>
      <set comment="kpoint 2">
       <r>   -5.3952    1.0000 </r>
       <r>    1.8049    1.0000 </r>
       <r>    4.9861    1.0000 </r>
       <r>    4.9861    1.0000 </r>
       <r>    7.6703    0.0000 </r>
       <r>    9.1851    0.0000 </r>
       <r>    9.1851    0.0000 </r>
       <r>   12.5249    0.0000 </r>
      </set>
      <set comment="kpoint 3">
       <r>   -3.8607    1.0000 </r>
       <r>   -1.2389    1.0000 </r>
       <r>    4.5492    1.0000 </r>
       <r>    4.5492    1.0000 </r>
       <r>    7.1766    0.0000 </r>
       <r>    9.0078    0.0000 </r>
       <r>    9.0078    0.0000 </r>
       <r>   13.2266    0.0000 </r>
      </set>
      <set comment="kpoint 4">
       <r>   -5.1140    1.0000 </r>
       <r>    2.2267    1.0000 </r>
       <r>    3.8481    1.0000 </r>
       <r>    3.8481    1.0000 </r>
       <r>    6.7714    0.0000 </r>
       <r>    8.7541    0.0000 </r>
       <r>   11.4381    0.0000 </r>
       <r>   11.4381    0.0000 </r>
      </set>
      <set comment="kpoint 5">
       <r>   -3.4788    1.0000 </r>
       <r>   -0.6358    1.0000 </r>
       <r>    2.1844    1.0000 </r>
       <r>    3.5348    1.0000 </r>
       <r>    7.1515    0.0000 </r>
       <r>   10.0877    0.0000 </r>
       <r>   11.3957    0.0000 </r>
       <r>   11.5878    0.0000 </r>
      </set>
      <set comment="kpoint 6">
       <r>   -4.1526    1.0000 </r>
       <r>    0.2665    1.0000 </r>
       <r>    1.9613    1.0000 </r>
       <r>    4.4167    1.0000 </r>
       <r>    8.0924    0.0000 </r>
       <r>   10.4606    0.0000 </r>
       <r>   10.7868    0.0000 </r>
       <r>   11.7591    0.0000 </r>
      </set>
      <set comment="kpoint 7">
       <r>   -2.0589    1.0000 </r>
       <r>   -2.0589    1.0000 </r>
       <r>    2.8863    1.0000 </r>
       <r>    2.8863    1.0000 </r>
       <r>    6.3333    0.0000 </r>
       <r>    6.3333    0.0000 </r>
       <r>   15.7338    0.0000 </r>
       <r>   15.7338    0.0000 </r>
      </set>
      <set comment="kpoint 8">
       <r>   -1.8914    1.0000 </r>
       <r>   -1.8914    1.0000 </r>
       <r>    1.8607    1.0000 </r>
       <r>    1.8607    1.0000 </r>
       <r>    9.9104    0.0000 </r>
       <r>    9.9104    0.0000 </r>
       <r>   10.6504    0.0000 </r>
       <r>   10.6504    0.0000 </r>
      </set>
     </set>
    </set>
   </array>
  </eigenvalues>
  <separator name="orbital magnetization" >
   <v name="MAGDIPOLOUT">      0.00000000      0.00000000      0.00000000</v>
  </separator>
  <dos>
   <i name="efermi">      5.83561265 </i>
   <total>
    <array>
     <dimension dim="1">gridpoints</dimension>
     <dimension dim="2">spin</dimension>
     <field>energy</field>
     <field>total</field>
     <field>integrated</field>
     <set>
      <set comment="spin 1">
       <r>    -7.2895     0.0000     0.0000 </r>
       <r>    -7.2091     0.0000     0.0000 </r>
       <r>    -7.1287     0.0000     0.0000 </r>
       <r>    -7.0483     0.0000     0.0000 </r>
       <r>    -6.9679     0.0000     0.0000 </r>
       <r>    -6.8875     0.0000     0.0000 </r>
       <r>    -6.8071     0.0000     0.0000 </r>
       <r>    -6.7267     0.0000     0.0000 </r>
       <r>    -6.6463     0.0000     0.0000 </r>
       <r>    -6.5659     0.0000     0.0000 </r>
       <r>    -6.4855     0.0000     0.0000 </r>
       <r>    -6.4051     0.0000     0.0000 </r>
       <r>    -6.3247     0.0000     0.0000 </r>
       <r>    -6.2443     0.0001     0.0000 </r>
       <r>    -6.1639     0.3811     0.0306 </r>
       <r>    -6.0835     0.0075     0.0312 </r>
       <r>    -6.0031     0.0000     0.0312 </r>
       <r>    -5.9227     0.0000     0.0312 </r>
       <r>    -5.8423     0.0000     0.0312 </r>
       <r>    -5.7619     0.0000     0.0312 </r>
       <r>    -5.6815     0.0000     0.0312 </r>
       <r>    -5.6011     0.0000     0.0312 </r>
       <r>    -5.5207     0.0000     0.0312 </r>
       <r>    -5.4403     0.0022     0.0314 </r>
       <r>    -5.3599     3.0876     0.2797 </r>
       <r>    -5.2795     0.0197     0.2812 </r>
       <r>    -5.1991     0.0000     0.2813 </r>
       <r>    -5.1187     0.8590     0.3503 </r>
       <r>    -5.0383     1.4731     0.4687 </r>
       <r>    -4.9579     0.0000     0.4688 </r>
       <r>    -4.8775     0.0000     0.4688 </r>
       <r>    -4.7971     0.0000     0.4688 </r>
       <r>    -4.7167     0.0000     0.4688 </r>
       <r>    -4.6363     0.0000     0.4688 </r>
       <r>    -4.5559     0.0000     0.4688 </r>
       <r>    -4.4755     0.0000     0.4688 </r>
       <r>    -4.3951     0.0000     0.4688 </r>
       <r>    -4.3147     0.0000     0.4688 </r>
       <r>    -4.2343     0.0000     0.4688 </r>
       <r>    -4.1539     2.1607     0.6425 </r>
       <r>    -4.0735     2.5035     0.8437 </r>
       <r>    -3.9931     0.0000     0.8438 </r>
       <r>    -3.9127     0.0002     0.8438 </r>
       <r>    -3.8323     1.5197     0.9659 </r>
       <r>    -3.7520     0.0348     0.9687 </r>
       <r>    -3.6716     0.0000     0.9688 </r>
       <r>    -3.5912     0.0000     0.9688 </r>
       <r>    -3.5108     0.1115     0.9777 </r>
       <r>    -3.4304     9.2142     1.7185 </r>
       <r>    -3.3500     0.0029     1.7188 </r>
       <r>    -3.2696     0.0000     1.7188 </r>
       <r>    -3.1892     0.0000     1.7188 </r>
       <r>    -3.1088     0.0000     1.7188 </r>
       <r>    -3.0284     0.0000     1.7188 </r>
       <r>    -2.9480     0.0000     1.7188 </r>
       <r>    -2.8676     0.0000     1.7188 </r>
       <r>    -2.7872     0.0000     1.7188 </r>
       <r>    -2.7068     0.0000     1.7188 </r>
       <r>    -2.6264     0.0000     1.7188 </r>
       <r>    -2.5460     0.0000     1.7188 </r>
       <r>    -2.4656     0.0000     1.7188 </r>
       <r>    -2.3852     0.0000     1.7188 </r>
       <r>    -2.3048     0.0000     1.7188 </r>
       <r>    -2.2244     0.0000     1.7188 </r>
       <r>    -2.1440     0.0000     1.7188 </r>
       <r>    -2.0636     0.8654     1.7883 </r>
       <r>    -1.9832     1.4667     1.9062 </r>
       <r>    -1.9028     0.9815     1.9852 </r>
       <r>    -1.8224     3.6828     2.2812 </r>
       <r>    -1.7420     0.0000     2.2812 </r>
       <r>    -1.6616     0.0000     2.2812 </r>
       <r>    -1.5812     0.0000     2.2812 </r>
       <r>    -1.5008     0.0000     2.2812 </r>
       <r>    -1.4204     0.0000     2.2812 </r>
       <r>    -1.3400     0.0000     2.2813 </r>
       <r>    -1.2596     0.1114     2.2902 </r>
       <r>    -1.1792     1.4434     2.4062 </r>
       <r>    -1.0988     0.0000     2.4062 </r>
       <r>    -1.0184     0.0000     2.4062 </r>
       <r>    -0.9380     0.0000     2.4062 </r>
       <r>    -0.8576     0.0000     2.4062 </r>
       <r>    -0.7772     0.0000     2.4062 </r>
       <r>    -0.6968     0.0001     2.4063 </r>
       <r>    -0.6164     8.5380     3.0927 </r>
       <r>    -0.5360     0.7904     3.1562 </r>
       <r>    -0.4556     0.0000     3.1562 </r>
       <r>    -0.3752     0.0000     3.1562 </r>
       <r>    -0.2948     0.0000     3.1562 </r>
       <r>    -0.2144     0.0000     3.1562 </r>
       <r>    -0.1340     0.0000     3.1562 </r>
       <r>    -0.0536     0.0000     3.1562 </r>
       <r>     0.0268     0.0000     3.1562 </r>
       <r>     0.1072     0.0000     3.1562 </r>
       <r>     0.1876     0.0000     3.1563 </r>
       <r>     0.2680     2.5299     3.3596 </r>
       <r>     0.3484     2.1344     3.5312 </r>
       <r>     0.4288     0.0000     3.5312 </r>
       <r>     0.5092     0.0000     3.5312 </r>
       <r>     0.5896     0.0000     3.5312 </r>
       <r>     0.6700     0.0000     3.5312 </r>
       <r>     0.7504     0.0000     3.5312 </r>
       <r>     0.8308     0.0000     3.5312 </r>
       <r>     0.9112     0.0000     3.5312 </r>
       <r>     0.9916     0.0000     3.5312 </r>
       <r>     1.0720     0.0000     3.5312 </r>
       <r>     1.1524     0.0000     3.5312 </r>
       <r>     1.2328     0.0000     3.5312 </r>
       <r>     1.3132     0.0000     3.5312 </r>
       <r>     1.3936     0.0000     3.5312 </r>
       <r>     1.4740     0.0000     3.5312 </r>
       <r>     1.5544     0.0000     3.5312 </r>
       <r>     1.6348     0.0000     3.5312 </r>
       <r>     1.7152     0.0000     3.5313 </r>
       <r>     1.7956     0.7947     3.5951 </r>
       <r>     1.8760     6.3250     4.1037 </r>
       <r>     1.9564     2.3560     4.2931 </r>
       <r>     2.0368     2.9623     4.5312 </r>
       <r>     2.1172     0.0000     4.5313 </r>
       <r>     2.1976     7.7350     5.1531 </r>
       <r>     2.2780     3.9253     5.4687 </r>
       <r>     2.3584     0.0003     5.4688 </r>
       <r>     2.4388     0.0000     5.4688 </r>
       <r>     2.5192     0.0000     5.4688 </r>
       <r>     2.5996     0.0000     5.4688 </r>
       <r>     2.6800     0.0000     5.4688 </r>
       <r>     2.7604     0.0000     5.4688 </r>
       <r>     2.8408     0.0015     5.4689 </r>
       <r>     2.9212     2.3147     5.6550 </r>
       <r>     3.0016     0.0159     5.6562 </r>
       <r>     3.0820     0.0000     5.6562 </r>
       <r>     3.1624     0.0000     5.6562 </r>
       <r>     3.2427     0.0000     5.6562 </r>
       <r>     3.3231     0.0000     5.6562 </r>
       <r>     3.4035     0.0000     5.6562 </r>
       <r>     3.4839     0.0015     5.6564 </r>
       <r>     3.5643     9.1546     6.3924 </r>
       <r>     3.6447     0.1724     6.4062 </r>
       <r>     3.7251     0.0000     6.4062 </r>
       <r>     3.8055     0.0061     6.4067 </r>
       <r>     3.8859     4.6407     6.7798 </r>
       <r>     3.9663     0.0175     6.7812 </r>
       <r>     4.0467     0.0000     6.7812 </r>
       <r>     4.1271     0.0000     6.7812 </r>
       <r>     4.2075     0.0000     6.7812 </r>
       <r>     4.2879     0.0000     6.7812 </r>
       <r>     4.3683     0.0014     6.7814 </r>
       <r>     4.4487     4.6075     7.1518 </r>
       <r>     4.5291     0.2985     7.1758 </r>
       <r>     4.6095     2.8663     7.4062 </r>
       <r>     4.6899     0.0000     7.4062 </r>
       <r>     4.7703     0.0000     7.4062 </r>
       <r>     4.8507     0.0000     7.4062 </r>
       <r>     4.9311     0.0003     7.4063 </r>
       <r>     5.0115     5.9934     7.8881 </r>
       <r>     5.0919     0.2253     7.9062 </r>
       <r>     5.1723     0.0000     7.9062 </r>
       <r>     5.2527     0.0000     7.9062 </r>
       <r>     5.3331     0.0000     7.9062 </r>
       <r>     5.4135     0.0000     7.9062 </r>
       <r>     5.4939     0.0000     7.9062 </r>
       <r>     5.5743     0.0000     7.9062 </r>
       <r>     5.6547     0.0000     7.9063 </r>
       <r>     5.7351     0.1677     7.9197 </r>
       <r>     5.8155     0.9984     8.0000 </r>
       <r>     5.8959     0.0000     8.0000 </r>
       <r>     5.9763     0.0000     8.0000 </r>
       <r>     6.0567     0.0000     8.0000 </r>
       <r>     6.1371     0.0000     8.0000 </r>
       <r>     6.2175     0.0000     8.0000 </r>
       <r>     6.2979     0.0144     8.0012 </r>
       <r>     6.3783     2.3160     8.1874 </r>
       <r>     6.4587     0.0017     8.1875 </r>
       <r>     6.5391     0.0000     8.1875 </r>
       <r>     6.6195     0.0000     8.1875 </r>
       <r>     6.6999     0.0000     8.1875 </r>
       <r>     6.7803     1.7132     8.3252 </r>
       <r>     6.8607     0.6190     8.3750 </r>
       <r>     6.9411     0.0000     8.3750 </r>
       <r>     7.0215     0.0000     8.3750 </r>
       <r>     7.1019     0.0021     8.3752 </r>
       <r>     7.1823    10.2087     9.1959 </r>
       <r>     7.2627     0.6724     9.2500 </r>
       <r>     7.3431     0.0000     9.2500 </r>
       <r>     7.4235     0.0000     9.2500 </r>
       <r>     7.5039     0.0000     9.2500 </r>
       <r>     7.5843     0.0000     9.2500 </r>
       <r>     7.6647     1.0752     9.3364 </r>
       <r>     7.7451     2.0343     9.5000 </r>
       <r>     7.8255     0.0000     9.5000 </r>
       <r>     7.9059     0.0000     9.5000 </r>
       <r>     7.9863     0.0000     9.5000 </r>
       <r>     8.0667     0.1613     9.5130 </r>
       <r>     8.1471     4.5027     9.8750 </r>
       <r>     8.2275     0.1326     9.8856 </r>
       <r>     8.3079     1.0337     9.9687 </r>
       <r>     8.3883     0.0000     9.9688 </r>
       <r>     8.4687     0.0000     9.9688 </r>
       <r>     8.5491     0.0000     9.9688 </r>
       <r>     8.6295     0.0000     9.9688 </r>
       <r>     8.7099     0.0021     9.9689 </r>
       <r>     8.7903     2.3178    10.1553 </r>
       <r>     8.8707     0.0122    10.1563 </r>
       <r>     8.9511     0.0173    10.1576 </r>
       <r>     9.0315     3.3352    10.4258 </r>
       <r>     9.1119     0.1457    10.4375 </r>
       <r>     9.1923     4.3156    10.7845 </r>
       <r>     9.2727     1.9034    10.9375 </r>
       <r>     9.3531     0.0000    10.9375 </r>
       <r>     9.4335     0.0000    10.9375 </r>
       <r>     9.5139     0.0000    10.9375 </r>
       <r>     9.5943     0.0000    10.9375 </r>
       <r>     9.6747     0.0000    10.9375 </r>
       <r>     9.7551     0.0000    10.9375 </r>
       <r>     9.8355     0.0000    10.9375 </r>
       <r>     9.9159     3.0286    11.1810 </r>
       <r>     9.9963     1.6356    11.3125 </r>
       <r>    10.0767     2.0187    11.4748 </r>
       <r>    10.1571     7.3097    12.0625 </r>
       <r>    10.2374     0.0000    12.0625 </r>
       <r>    10.3178     0.0000    12.0625 </r>
       <r>    10.3982     0.0000    12.0625 </r>
       <r>    10.4786     4.1921    12.3995 </r>
       <r>    10.5590     0.4721    12.4375 </r>
       <r>    10.6394     1.0178    12.5193 </r>
       <r>    10.7198     3.6464    12.8125 </r>
       <r>    10.8002     3.8671    13.1234 </r>
       <r>    10.8806     0.7972    13.1875 </r>
       <r>    10.9610     0.0000    13.1875 </r>
       <r>    11.0414     0.0000    13.1875 </r>
       <r>    11.1218     0.0000    13.1875 </r>
       <r>    11.2022     0.0000    13.1875 </r>
       <r>    11.2826     0.0000    13.1875 </r>
       <r>    11.3630     0.0973    13.1953 </r>
       <r>    11.4434    12.2454    14.1798 </r>
       <r>    11.5238     1.6500    14.3125 </r>
       <r>    11.6042     8.1861    14.9707 </r>
       <r>    11.6846     1.1424    15.0625 </r>
       <r>    11.7650     3.0859    15.3106 </r>
       <r>    11.8454     1.5784    15.4375 </r>
       <r>    11.9258     0.0000    15.4375 </r>
       <r>    12.0062     0.0000    15.4375 </r>
       <r>    12.0866     0.0000    15.4375 </r>
       <r>    12.1670     0.0000    15.4375 </r>
       <r>    12.2474     0.0000    15.4375 </r>
       <r>    12.3278     0.0000    15.4375 </r>
       <r>    12.4082     0.0000    15.4375 </r>
       <r>    12.4886     0.0161    15.4388 </r>
       <r>    12.5690     3.0906    15.6873 </r>
       <r>    12.6494     0.0028    15.6875 </r>
       <r>    12.7298     0.0000    15.6875 </r>
       <r>    12.8102     0.0000    15.6875 </r>
       <r>    12.8906     0.0000    15.6875 </r>
       <r>    12.9710     0.0000    15.6875 </r>
       <r>    13.0514     0.0000    15.6875 </r>
       <r>    13.1318     0.0000    15.6875 </r>
       <r>    13.2122     0.2402    15.7068 </r>
       <r>    13.2926     1.3146    15.8125 </r>
       <r>    13.3730     0.0000    15.8125 </r>
       <r>    13.4534     0.0000    15.8125 </r>
       <r>    13.5338     0.0000    15.8125 </r>
       <r>    13.6142     0.0000    15.8125 </r>
       <r>    13.6946     0.0000    15.8125 </r>
       <r>    13.7750     0.0000    15.8125 </r>
       <r>    13.8554     0.0000    15.8125 </r>
       <r>    13.9358     0.0000    15.8125 </r>
       <r>    14.0162     0.0000    15.8125 </r>
       <r>    14.0966     0.0000    15.8125 </r>
       <r>    14.1770     0.0000    15.8125 </r>
       <r>    14.2574     0.0000    15.8125 </r>
       <r>    14.3378     0.0000    15.8125 </r>
       <r>    14.4182     0.0000    15.8125 </r>
       <r>    14.4986     0.0000    15.8125 </r>
       <r>    14.5790     0.0000    15.8125 </r>
       <r>    14.6594     0.0000    15.8125 </r>
       <r>    14.7398     0.0000    15.8125 </r>
       <r>    14.8202     0.0000    15.8125 </r>
       <r>    14.9006     0.0000    15.8125 </r>
       <r>    14.9810     0.0000    15.8125 </r>
       <r>    15.0614     0.0000    15.8125 </r>
       <r>    15.1418     0.0000    15.8125 </r>
       <r>    15.2222     0.0000    15.8125 </r>
       <r>    15.3026     0.0000    15.8125 </r>
       <r>    15.3830     0.0000    15.8125 </r>
       <r>    15.4634     0.0000    15.8125 </r>
       <r>    15.5438     0.0000    15.8125 </r>
       <r>    15.6242     0.0000    15.8125 </r>
       <r>    15.7046     0.0451    15.8161 </r>
       <r>    15.7850     2.2866    16.0000 </r>
       <r>    15.8654     0.0003    16.0000 </r>
       <r>    15.9458     0.0000    16.0000 </r>
       <r>    16.0262     0.0000    16.0000 </r>
       <r>    16.1066     0.0000    16.0000 </r>
       <r>    16.1870     0.0000    16.0000 </r>
       <r>    16.2674     0.0000    16.0000 </r>
       <r>    16.3478     0.0000    16.0000 </r>
       <r>    16.4282     0.0000    16.0000 </r>
       <r>    16.5086     0.0000    16.0000 </r>
       <r>    16.5890     0.0000    16.0000 </r>
       <r>    16.6694     0.0000    16.0000 </r>
       <r>    16.7498     0.0000    16.0000 </r>
       <r>    16.8302     0.0000    16.0000 </r>
      </set>
     </set>
    </array>
   </total>
  </dos>
 </calculation>
 <structure name="finalpos" >
  <crystal>
   <varray name="basis" >
    <v>       0.00000000       2.72317078       2.72317078 </v>
    <v>       2.72317078       0.00000000       2.72317078 </v>
    <v>       2.72317078       2.72317078      -0.00000000 </v>
   </varray>
   <i name="volume">     40.38821253 </i>
   <varray name="rec_basis" >
    <v>      -0.18360949       0.18360949       0.18360949 </v>
    <v>       0.18360949      -0.18360949       0.18360949 </v>
    <v>       0.18360949       0.18360949      -0.18360949 </v>
   </varray>
  </crystal>
  <varray name="positions" >
   <v>       0.50000000       0.50000000       0.50000000 </v>
   <v>       0.75000000       0.75000000       0.75000000 </v>
  </varray>
 </structure>
</modeling>
