 running on    2 total cores
 distrk:  each k-point on    2 cores,    1 groups
 distr:  one band on    1 cores,    2 groups
 vasp.6.3.0 20Jan22 (build Aug 13 2022 13:28:16) complex                        
  
 POSCAR found type information on POSCAR Si
 POSCAR found :  1 types and       2 ions
 scaLAPACK will be used
 -----------------------------------------------------------------------------
|                                                                             |
|           W    W    AA    RRRRR   N    N  II  N    N   GGGG   !!!           |
|           W    W   A  A   R    R  NN   N  II  NN   N  G    G  !!!           |
|           W    W  A    A  R    R  N N  N  II  N N  N  G       !!!           |
|           W WW W  AAAAAA  RRRRR   N  N N  II  N  N N  G  GGG   !            |
|           WW  WW  A    A  R   R   N   NN  II  N   NN  G    G                |
|           W    W  A    A  R    R  N    N  II  N    N   GGGG   !!!           |
|                                                                             |
|     The value NPAR = 4 specified in the INCAR file was overwritten,         |
|     because it was not compatible with the 2 processes available:           |
|     NPAR = 2                                                                |
|     was used instead, please check that this makes sense for your           |
|     machine.                                                                |
|                                                                             |
 -----------------------------------------------------------------------------

 -----------------------------------------------------------------------------
|                                                                             |
|               ----> ADVICE to this user running VASP <----                  |
|                                                                             |
|     You enforced a specific xc type in the INCAR file but a different       |
|     type was found in the POTCAR file.                                      |
|     I HOPE YOU KNOW WHAT YOU ARE DOING!                                     |
|                                                                             |
 -----------------------------------------------------------------------------

 LDA part: xc-table for Pade appr. of Perdew
 POSCAR, INCAR and KPOINTS ok, starting setup
 FFT: planning ... GRIDC
 FFT: planning ... GRID_SOFT
 FFT: planning ... GRID
 WAVECAR not read
 entering main loop
       N       E                     dE             d eps       ncg     rms          rms(c)
DAV:   1     0.211408162531E+01    0.21141E+01   -0.28077E+03   128   0.561E+02
DAV:   2    -0.114022832848E+02   -0.13516E+02   -0.12880E+02   200   0.701E+01
DAV:   3    -0.115424047810E+02   -0.14012E+00   -0.14012E+00   152   0.927E+00
DAV:   4    -0.115430535916E+02   -0.64881E-03   -0.64881E-03   216   0.705E-01
DAV:   5    -0.115430541437E+02   -0.55204E-06   -0.55204E-06   144   0.140E-02    0.512E+00
DAV:   6    -0.113703800503E+02    0.17267E+00   -0.10647E-01   160   0.167E+00    0.308E+00
DAV:   7    -0.112914202911E+02    0.78960E-01   -0.19034E-01   136   0.234E+00    0.207E-01
DAV:   8    -0.112922061591E+02   -0.78587E-03   -0.49778E-03   144   0.547E-01    0.728E-02
DAV:   9    -0.112922839337E+02   -0.77775E-04   -0.10269E-04   176   0.783E-02    0.522E-02
DAV:  10    -0.112923022610E+02   -0.18327E-04   -0.19608E-05   144   0.327E-02    0.131E-02
DAV:  11    -0.112923019441E+02    0.31697E-06   -0.16614E-07   184   0.323E-03    0.476E-03
DAV:  12    -0.112923018106E+02    0.13344E-06   -0.84657E-08   144   0.236E-03    0.336E-04
DAV:  13    -0.112923017968E+02    0.13835E-07   -0.29247E-09   128   0.306E-04    0.329E-04
DAV:  14    -0.112923017979E+02   -0.11235E-08   -0.20675E-10   112   0.110E-04
   1 F= -.11292302E+02 E0= -.11292302E+02  d E =-.112923E+02
 curvature:   0.00 expect dE= 0.000E+00 dE for cont linesearch  0.000E+00
 trial: gam= 0.00000 g(F)=  0.488E-52 g(S)=  0.176E-02 ort = 0.000E+00 (trialstep = 0.100E+01)
 search vector abs. value=  0.176E-02
 bond charge predicted
       N       E                     dE             d eps       ncg     rms          rms(c)
DAV:   1    -0.112932872590E+02   -0.98546E-03   -0.27529E-02   136   0.936E-01    0.155E-01
DAV:   2    -0.112927831125E+02    0.50415E-03   -0.44138E-04   128   0.140E-01    0.912E-02
DAV:   3    -0.112925281072E+02    0.25501E-03   -0.54858E-04   136   0.119E-01    0.297E-02
DAV:   4    -0.112925277788E+02    0.32843E-06   -0.50108E-06   152   0.203E-02    0.277E-02
DAV:   5    -0.112925254069E+02    0.23719E-05   -0.67640E-07   136   0.617E-03    0.633E-03
DAV:   6    -0.112925252906E+02    0.11629E-06   -0.18606E-08   152   0.102E-03    0.437E-03
DAV:   7    -0.112925251049E+02    0.18574E-06   -0.13638E-08   120   0.998E-04    0.335E-03
DAV:   8    -0.112925251545E+02   -0.49632E-07   -0.62921E-10    64   0.166E-04    0.131E-03
DAV:   9    -0.112925251849E+02   -0.30443E-07   -0.92377E-11    64   0.991E-05    0.264E-04
DAV:  10    -0.112925251913E+02   -0.63389E-08   -0.11183E-11    64   0.351E-05
   2 F= -.11292525E+02 E0= -.11292525E+02  d E =-.223393E-03
 trial-energy change:   -0.000223  1 .order   -0.000240   -0.001762    0.001281
 step:   0.5708(harm=  0.5789)  dis= 0.00000  next Energy=   -11.292801 (dE=-0.500E-03)
 bond charge predicted
       N       E                     dE             d eps       ncg     rms          rms(c)
DAV:   1    -0.112929352796E+02   -0.41009E-03   -0.50942E-03   136   0.404E-01    0.668E-02
DAV:   2    -0.112928439597E+02    0.91320E-04   -0.81230E-05   128   0.598E-02    0.391E-02
DAV:   3    -0.112928001630E+02    0.43797E-04   -0.10102E-04   136   0.511E-02    0.129E-02
DAV:   4    -0.112928003997E+02   -0.23673E-06   -0.92491E-07   152   0.874E-03    0.121E-02
DAV:   5    -0.112928009372E+02   -0.53748E-06   -0.12466E-07   136   0.266E-03    0.297E-03
DAV:   6    -0.112928009991E+02   -0.61961E-07   -0.31453E-09    64   0.439E-04    0.204E-03
DAV:   7    -0.112928011049E+02   -0.10578E-06   -0.32798E-09    72   0.523E-04    0.192E-03
DAV:   8    -0.112928010649E+02    0.39970E-07   -0.40464E-10    64   0.141E-04    0.444E-04
DAV:   9    -0.112928010539E+02    0.11040E-07   -0.31699E-11    64   0.514E-05    0.696E-05
DAV:  10    -0.112928010511E+02    0.27751E-08   -0.46865E-12    64   0.213E-05
   3 F= -.11292801E+02 E0= -.11292801E+02  d E =-.499253E-03
 curvature:  -0.29 expect dE=-0.315E-07 dE for cont linesearch -0.315E-07
 ZBRENT: interpolating
 opt :   0.5754  next Energy=   -11.292801 (dE=-0.499E-03)
 bond charge predicted
       N       E                     dE             d eps       ncg     rms          rms(c)
DAV:   1    -0.112928011015E+02   -0.47559E-07   -0.58266E-07   136   0.432E-03    0.709E-04
DAV:   2    -0.112928010782E+02    0.23293E-07   -0.92228E-09   104   0.639E-04    0.415E-04
DAV:   3    -0.112928010489E+02    0.29267E-07   -0.11219E-08    72   0.551E-04    0.104E-04
DAV:   4    -0.112928010460E+02    0.29187E-08   -0.39723E-10    64   0.173E-04    0.114E-04
DAV:   5    -0.112928010429E+02    0.30675E-08   -0.64355E-11    64   0.669E-05
   4 F= -.11292801E+02 E0= -.11292801E+02  d E =-.499245E-03
 curvature:  -0.29 expect dE=-0.209E-11 dE for cont linesearch -0.209E-11
 trial: gam= 0.00000 g(F)=  0.125E-50 g(S)=  0.717E-11 ort =-0.112E-06 (trialstep = 0.915E+00)
 search vector abs. value=  0.107E-09
 reached required accuracy - stopping structural energy minimisation
