unknown system                          
           1
     0.000000    2.717286    2.717286
     2.717286    0.000000    2.717286
     2.717286    2.717286    0.000000
   Si
     2
Direct configuration=     1
   0.50000000  0.50000000  0.50000000
   0.75000000  0.75000000  0.75000000
unknown system                          
           1
     0.000000    2.727513    2.727513
     2.727513    0.000000    2.727513
     2.727513    2.727513   -0.000000
   Si
     2
Direct configuration=     2
   0.50000000  0.50000000  0.50000000
   0.75000000  0.75000000  0.75000000
unknown system                          
           1
     0.000000    2.723124    2.723124
     2.723124    0.000000    2.723124
     2.723124    2.723124   -0.000000
   Si
     2
Direct configuration=     3
   0.50000000  0.50000000  0.50000000
   0.75000000  0.75000000  0.75000000
unknown system                          
           1
     0.000000    2.723171    2.723171
     2.723171    0.000000    2.723171
     2.723171    2.723171   -0.000000
   Si
     2
Direct configuration=     4
   0.50000000  0.50000000  0.50000000
   0.75000000  0.75000000  0.75000000
