  64  64   0   0
  0.2197554E+02  0.1120400E-08  0.1120400E-08  0.1120400E-08  0.5000000E-15
  1.000000000000000E-004
  CAR 
 unknown system                          
     11.05744050    -22.85022874  301     -0.55593621      1.00000000
    -22.850  0.0000E+00  0.0000E+00
    -22.737  0.0000E+00  0.0000E+00
    -22.624  0.0000E+00  0.0000E+00
    -22.511  0.0000E+00  0.0000E+00
    -22.398  0.0000E+00  0.0000E+00
    -22.285  0.0000E+00  0.0000E+00
    -22.172  0.0000E+00  0.0000E+00
    -22.059  0.0000E+00  0.0000E+00
    -21.946  0.0000E+00  0.0000E+00
    -21.833  0.0000E+00  0.0000E+00
    -21.720  0.0000E+00  0.0000E+00
    -21.607  0.0000E+00  0.0000E+00
    -21.494  0.0000E+00  0.0000E+00
    -21.381  0.6837E-05  0.7728E-06
    -21.268  0.1316E+04  0.1487E+03
    -21.155  0.3830E+03  0.1920E+03
    -21.042  0.0000E+00  0.1920E+03
    -20.929  0.0000E+00  0.1920E+03
    -20.816  0.0000E+00  0.1920E+03
    -20.703  0.0000E+00  0.1920E+03
    -20.590  0.0000E+00  0.1920E+03
    -20.477  0.0000E+00  0.1920E+03
    -20.364  0.0000E+00  0.1920E+03
    -20.251  0.0000E+00  0.1920E+03
    -20.138  0.0000E+00  0.1920E+03
    -20.025  0.0000E+00  0.1920E+03
    -19.912  0.0000E+00  0.1920E+03
    -19.799  0.0000E+00  0.1920E+03
    -19.686  0.0000E+00  0.1920E+03
    -19.572  0.0000E+00  0.1920E+03
    -19.459  0.0000E+00  0.1920E+03
    -19.346  0.0000E+00  0.1920E+03
    -19.233  0.0000E+00  0.1920E+03
    -19.120  0.0000E+00  0.1920E+03
    -19.007  0.0000E+00  0.1920E+03
    -18.894  0.0000E+00  0.1920E+03
    -18.781  0.0000E+00  0.1920E+03
    -18.668  0.0000E+00  0.1920E+03
    -18.555  0.0000E+00  0.1920E+03
    -18.442  0.0000E+00  0.1920E+03
    -18.329  0.0000E+00  0.1920E+03
    -18.216  0.0000E+00  0.1920E+03
    -18.103  0.0000E+00  0.1920E+03
    -17.990  0.0000E+00  0.1920E+03
    -17.877  0.0000E+00  0.1920E+03
    -17.764  0.0000E+00  0.1920E+03
    -17.651  0.0000E+00  0.1920E+03
    -17.538  0.0000E+00  0.1920E+03
    -17.425  0.0000E+00  0.1920E+03
    -17.312  0.0000E+00  0.1920E+03
    -17.199  0.0000E+00  0.1920E+03
    -17.086  0.0000E+00  0.1920E+03
    -16.973  0.0000E+00  0.1920E+03
    -16.860  0.0000E+00  0.1920E+03
    -16.747  0.0000E+00  0.1920E+03
    -16.634  0.0000E+00  0.1920E+03
    -16.521  0.0000E+00  0.1920E+03
    -16.408  0.0000E+00  0.1920E+03
    -16.295  0.0000E+00  0.1920E+03
    -16.182  0.0000E+00  0.1920E+03
    -16.069  0.0000E+00  0.1920E+03
    -15.956  0.0000E+00  0.1920E+03
    -15.843  0.0000E+00  0.1920E+03
    -15.730  0.0000E+00  0.1920E+03
    -15.617  0.0000E+00  0.1920E+03
    -15.504  0.0000E+00  0.1920E+03
    -15.391  0.0000E+00  0.1920E+03
    -15.278  0.0000E+00  0.1920E+03
    -15.164  0.0000E+00  0.1920E+03
    -15.051  0.0000E+00  0.1920E+03
    -14.938  0.0000E+00  0.1920E+03
    -14.825  0.0000E+00  0.1920E+03
    -14.712  0.0000E+00  0.1920E+03
    -14.599  0.0000E+00  0.1920E+03
    -14.486  0.0000E+00  0.1920E+03
    -14.373  0.0000E+00  0.1920E+03
    -14.260  0.0000E+00  0.1920E+03
    -14.147  0.0000E+00  0.1920E+03
    -14.034  0.0000E+00  0.1920E+03
    -13.921  0.0000E+00  0.1920E+03
    -13.808  0.0000E+00  0.1920E+03
    -13.695  0.0000E+00  0.1920E+03
    -13.582  0.0000E+00  0.1920E+03
    -13.469  0.4175E-14  0.1920E+03
    -13.356  0.1221E+01  0.1921E+03
    -13.243  0.1986E+02  0.1944E+03
    -13.130  0.4842E+02  0.1999E+03
    -13.017  0.1268E+03  0.2142E+03
    -12.904  0.3667E+03  0.2556E+03
    -12.791  0.3307E+01  0.2560E+03
    -12.678  0.0000E+00  0.2560E+03
    -12.565  0.0000E+00  0.2560E+03
    -12.452  0.0000E+00  0.2560E+03
    -12.339  0.0000E+00  0.2560E+03
    -12.226  0.0000E+00  0.2560E+03
    -12.113  0.0000E+00  0.2560E+03
    -12.000  0.0000E+00  0.2560E+03
    -11.887  0.0000E+00  0.2560E+03
    -11.774  0.0000E+00  0.2560E+03
    -11.661  0.0000E+00  0.2560E+03
    -11.548  0.0000E+00  0.2560E+03
    -11.435  0.0000E+00  0.2560E+03
    -11.322  0.0000E+00  0.2560E+03
    -11.209  0.0000E+00  0.2560E+03
    -11.096  0.0000E+00  0.2560E+03
    -10.983  0.0000E+00  0.2560E+03
    -10.870  0.0000E+00  0.2560E+03
    -10.756  0.0000E+00  0.2560E+03
    -10.643  0.0000E+00  0.2560E+03
    -10.530  0.0000E+00  0.2560E+03
    -10.417  0.0000E+00  0.2560E+03
    -10.304  0.0000E+00  0.2560E+03
    -10.191  0.0000E+00  0.2560E+03
    -10.078  0.0000E+00  0.2560E+03
     -9.965  0.0000E+00  0.2560E+03
     -9.852  0.0000E+00  0.2560E+03
     -9.739  0.0000E+00  0.2560E+03
     -9.626  0.0000E+00  0.2560E+03
     -9.513  0.0000E+00  0.2560E+03
     -9.400  0.0000E+00  0.2560E+03
     -9.287  0.0000E+00  0.2560E+03
     -9.174  0.0000E+00  0.2560E+03
     -9.061  0.0000E+00  0.2560E+03
     -8.948  0.0000E+00  0.2560E+03
     -8.835  0.0000E+00  0.2560E+03
     -8.722  0.0000E+00  0.2560E+03
     -8.609  0.0000E+00  0.2560E+03
     -8.496  0.0000E+00  0.2560E+03
     -8.383  0.0000E+00  0.2560E+03
     -8.270  0.0000E+00  0.2560E+03
     -8.157  0.0000E+00  0.2560E+03
     -8.044  0.0000E+00  0.2560E+03
     -7.931  0.0000E+00  0.2560E+03
     -7.818  0.0000E+00  0.2560E+03
     -7.705  0.0000E+00  0.2560E+03
     -7.592  0.0000E+00  0.2560E+03
     -7.479  0.0000E+00  0.2560E+03
     -7.366  0.0000E+00  0.2560E+03
     -7.253  0.0000E+00  0.2560E+03
     -7.140  0.0000E+00  0.2560E+03
     -7.027  0.0000E+00  0.2560E+03
     -6.914  0.0000E+00  0.2560E+03
     -6.801  0.0000E+00  0.2560E+03
     -6.688  0.0000E+00  0.2560E+03
     -6.575  0.0000E+00  0.2560E+03
     -6.462  0.0000E+00  0.2560E+03
     -6.348  0.0000E+00  0.2560E+03
     -6.235  0.0000E+00  0.2560E+03
     -6.122  0.0000E+00  0.2560E+03
     -6.009  0.0000E+00  0.2560E+03
     -5.896  0.0000E+00  0.2560E+03
     -5.783  0.0000E+00  0.2560E+03
     -5.670  0.0000E+00  0.2560E+03
     -5.557  0.0000E+00  0.2560E+03
     -5.444  0.0000E+00  0.2560E+03
     -5.331  0.0000E+00  0.2560E+03
     -5.218  0.0000E+00  0.2560E+03
     -5.105  0.0000E+00  0.2560E+03
     -4.992  0.0000E+00  0.2560E+03
     -4.879  0.0000E+00  0.2560E+03
     -4.766  0.0000E+00  0.2560E+03
     -4.653  0.0000E+00  0.2560E+03
     -4.540  0.0000E+00  0.2560E+03
     -4.427  0.0000E+00  0.2560E+03
     -4.314  0.0000E+00  0.2560E+03
     -4.201  0.0000E+00  0.2560E+03
     -4.088  0.0000E+00  0.2560E+03
     -3.975  0.0000E+00  0.2560E+03
     -3.862  0.0000E+00  0.2560E+03
     -3.749  0.0000E+00  0.2560E+03
     -3.636  0.0000E+00  0.2560E+03
     -3.523  0.0000E+00  0.2560E+03
     -3.410  0.0000E+00  0.2560E+03
     -3.297  0.0000E+00  0.2560E+03
     -3.184  0.0000E+00  0.2560E+03
     -3.071  0.0000E+00  0.2560E+03
     -2.958  0.0000E+00  0.2560E+03
     -2.845  0.0000E+00  0.2560E+03
     -2.732  0.1099E+00  0.2560E+03
     -2.619  0.8738E+01  0.2570E+03
     -2.506  0.2458E+02  0.2598E+03
     -2.393  0.8411E+02  0.2693E+03
     -2.280  0.8213E+02  0.2786E+03
     -2.167  0.1547E+03  0.2961E+03
     -2.054  0.7255E+02  0.3043E+03
     -1.940  0.5655E+02  0.3106E+03
     -1.827  0.6206E+02  0.3177E+03
     -1.714  0.7161E+02  0.3257E+03
     -1.601  0.2184E-09  0.3258E+03
     -1.488  0.7049E+02  0.3337E+03
     -1.375  0.1972E+03  0.3560E+03
     -1.262  0.2445E+02  0.3588E+03
     -1.149  0.2536E+03  0.3874E+03
     -1.036  0.1365E+03  0.4029E+03
     -0.923  0.2592E+03  0.4322E+03
     -0.810  0.6236E+02  0.4392E+03
     -0.697  0.7109E+02  0.4473E+03
     -0.584  0.6604E+01  0.4480E+03
     -0.471  0.0000E+00  0.4480E+03
     -0.358  0.0000E+00  0.4480E+03
     -0.245  0.0000E+00  0.4480E+03
     -0.132  0.0000E+00  0.4480E+03
     -0.019  0.0000E+00  0.4480E+03
      0.094  0.0000E+00  0.4480E+03
      0.207  0.0000E+00  0.4480E+03
      0.320  0.0000E+00  0.4480E+03
      0.433  0.0000E+00  0.4480E+03
      0.546  0.0000E+00  0.4480E+03
      0.659  0.0000E+00  0.4480E+03
      0.772  0.0000E+00  0.4480E+03
      0.885  0.0000E+00  0.4480E+03
      0.998  0.0000E+00  0.4480E+03
      1.111  0.0000E+00  0.4480E+03
      1.224  0.0000E+00  0.4480E+03
      1.337  0.0000E+00  0.4480E+03
      1.450  0.0000E+00  0.4480E+03
      1.563  0.0000E+00  0.4480E+03
      1.676  0.0000E+00  0.4480E+03
      1.789  0.0000E+00  0.4480E+03
      1.902  0.0000E+00  0.4480E+03
      2.015  0.0000E+00  0.4480E+03
      2.128  0.0000E+00  0.4480E+03
      2.241  0.0000E+00  0.4480E+03
      2.354  0.0000E+00  0.4480E+03
      2.467  0.0000E+00  0.4480E+03
      2.581  0.0000E+00  0.4480E+03
      2.694  0.0000E+00  0.4480E+03
      2.807  0.0000E+00  0.4480E+03
      2.920  0.0000E+00  0.4480E+03
      3.033  0.0000E+00  0.4480E+03
      3.146  0.0000E+00  0.4480E+03
      3.259  0.0000E+00  0.4480E+03
      3.372  0.0000E+00  0.4480E+03
      3.485  0.0000E+00  0.4480E+03
      3.598  0.0000E+00  0.4480E+03
      3.711  0.0000E+00  0.4480E+03
      3.824  0.0000E+00  0.4480E+03
      3.937  0.0000E+00  0.4480E+03
      4.050  0.0000E+00  0.4480E+03
      4.163  0.0000E+00  0.4480E+03
      4.276  0.5873E-05  0.4480E+03
      4.389  0.2211E+01  0.4482E+03
      4.502  0.0000E+00  0.4482E+03
      4.615  0.0000E+00  0.4482E+03
      4.728  0.0000E+00  0.4482E+03
      4.841  0.0000E+00  0.4482E+03
      4.954  0.1179E-04  0.4483E+03
      5.067  0.1326E+02  0.4497E+03
      5.180  0.1083E-01  0.4498E+03
      5.293  0.0000E+00  0.4498E+03
      5.406  0.0000E+00  0.4498E+03
      5.519  0.2188E+01  0.4500E+03
      5.632  0.2435E+02  0.4527E+03
      5.745  0.5171E-07  0.4528E+03
      5.858  0.1706E+02  0.4547E+03
      5.971  0.6309E+00  0.4548E+03
      6.084  0.0000E+00  0.4548E+03
      6.197  0.0000E+00  0.4548E+03
      6.310  0.5833E-03  0.4548E+03
      6.423  0.1385E+02  0.4563E+03
      6.536  0.8266E+01  0.4572E+03
      6.649  0.4046E+02  0.4618E+03
      6.762  0.6563E+02  0.4692E+03
      6.875  0.5910E+02  0.4759E+03
      6.989  0.1248E+02  0.4773E+03
      7.102  0.1481E+01  0.4775E+03
      7.215  0.4696E+01  0.4780E+03
      7.328  0.2140E+01  0.4783E+03
      7.441  0.8113E+02  0.4874E+03
      7.554  0.1674E+03  0.5064E+03
      7.667  0.3407E+01  0.5068E+03
      7.780  0.2653E+02  0.5097E+03
      7.893  0.1189E+00  0.5098E+03
      8.006  0.5297E+02  0.5157E+03
      8.119  0.4149E-02  0.5158E+03
      8.232  0.1382E+02  0.5173E+03
      8.345  0.9233E+02  0.5277E+03
      8.458  0.1324E-01  0.5278E+03
      8.571  0.1471E+03  0.5444E+03
      8.684  0.1217E+02  0.5458E+03
      8.797  0.5531E-06  0.5458E+03
      8.910  0.7968E+02  0.5548E+03
      9.023  0.1255E+03  0.5689E+03
      9.136  0.4987E+01  0.5695E+03
      9.249  0.2196E+02  0.5720E+03
      9.362  0.2212E+02  0.5745E+03
      9.475  0.1880E+01  0.5747E+03
      9.588  0.1155E+02  0.5760E+03
      9.701  0.0000E+00  0.5760E+03
      9.814  0.0000E+00  0.5760E+03
      9.927  0.0000E+00  0.5760E+03
     10.040  0.0000E+00  0.5760E+03
     10.153  0.0000E+00  0.5760E+03
     10.266  0.0000E+00  0.5760E+03
     10.379  0.0000E+00  0.5760E+03
     10.492  0.0000E+00  0.5760E+03
     10.605  0.0000E+00  0.5760E+03
     10.718  0.0000E+00  0.5760E+03
     10.831  0.0000E+00  0.5760E+03
     10.944  0.0000E+00  0.5760E+03
     11.057  0.0000E+00  0.5760E+03
