       N       E                     dE             d eps       ncg     rms          rms(c)
DAV:   1     0.438973139627E+04    0.43897E+04   -0.17119E+05  3648   0.125E+03
DAV:   2     0.364366374830E+03   -0.40254E+04   -0.38300E+04  3872   0.367E+02
DAV:   3    -0.205108272959E+03   -0.56947E+03   -0.56510E+03  4160   0.155E+02
DAV:   4    -0.228136809180E+03   -0.23029E+02   -0.22915E+02  4160   0.334E+01
DAV:   5    -0.229005331568E+03   -0.86852E+00   -0.86703E+00  4512   0.631E+00    0.106E+01
DAV:   6    -0.224139198121E+03    0.48661E+01   -0.94850E+00  4224   0.535E+00    0.775E+00
DAV:   7    -0.223778381366E+03    0.36082E+00   -0.20631E+00  4704   0.233E+00    0.534E+00
DAV:   8    -0.223903779540E+03   -0.12540E+00   -0.26947E-01  4000   0.125E+00    0.144E+00
DAV:   9    -0.223898214097E+03    0.55654E-02   -0.11039E-02  4320   0.255E-01    0.637E-01
DAV:  10    -0.223902365954E+03   -0.41519E-02   -0.19026E-02  4032   0.228E-01    0.300E-01
DAV:  11    -0.223901595012E+03    0.77094E-03   -0.17588E-03  4448   0.815E-02    0.870E-02
DAV:  12    -0.223901559537E+03    0.35475E-04   -0.13621E-04  4416   0.225E-02    0.168E-02
DAV:  13    -0.223901558124E+03    0.14135E-05   -0.25051E-05  4288   0.841E-03    0.472E-03
DAV:  14    -0.223901559658E+03   -0.15340E-05   -0.18190E-06  4160   0.328E-03    0.819E-03
DAV:  15    -0.223901560934E+03   -0.12767E-05   -0.38072E-07  4000   0.157E-03    0.289E-03
DAV:  16    -0.223901561373E+03   -0.43926E-06   -0.91243E-08  4224   0.712E-04    0.556E-04
DAV:  17    -0.223901561416E+03   -0.42433E-07   -0.96022E-09  2784   0.580E-04    0.128E-04
DAV:  18    -0.223901561466E+03   -0.50488E-07   -0.57475E-09  2656   0.354E-04    0.399E-04
DAV:  19    -0.223901561425E+03    0.41749E-07   -0.32512E-09  2368   0.199E-04    0.237E-04
DAV:  20    -0.223901561382E+03    0.42950E-07   -0.19065E-09  2464   0.241E-04    0.110E-04
DAV:  21    -0.223901561370E+03    0.12107E-07   -0.10649E-09  2272   0.113E-04    0.579E-05
DAV:  22    -0.223901561368E+03    0.20736E-08   -0.36801E-10  2304   0.682E-05
   1 F= -.22390156E+03 E0= -.22390156E+03  d E =-.537910E-15
