 vasp.6.3.2 27Jun22 (build Oct 14 2022 12:13:54) complex                        
  
 executed on             LinuxIFC date 2025.08.28  22:07:57
 running on   32 total cores
 distrk:  each k-point on   32 cores,    1 groups
 distr:  one band on NCORE=   1 cores,   32 groups


--------------------------------------------------------------------------------------------------------


 INCAR:
   ENCUT = 341.213600
   SIGMA = 0.020000
   EDIFF = 1.00e-08
   GGA = PS
   PREC = Accurate
   IALGO = 38
   IBRION = -1
   ISMEAR = 0
   NELMIN = 5
   ADDGRID = .TRUE.
   LCHARG = .FALSE.
   LWAVE = .FALSE.
   LREAL = .FALSE.

 POTCAR:    PAW_PBE Na_pv 19Sep2006               
 POTCAR:    PAW_PBE Cl 06Sep2000                  
 -----------------------------------------------------------------------------
|                                                                             |
|           W    W    AA    RRRRR   N    N  II  N    N   GGGG   !!!           |
|           W    W   A  A   R    R  NN   N  II  NN   N  G    G  !!!           |
|           W    W  A    A  R    R  N N  N  II  N N  N  G       !!!           |
|           W WW W  AAAAAA  RRRRR   N  N N  II  N  N N  G  GGG   !            |
|           WW  WW  A    A  R   R   N   NN  II  N   NN  G    G                |
|           W    W  A    A  R    R  N    N  II  N    N   GGGG   !!!           |
|                                                                             |
|     For optimal performance we recommend to set                             |
|       NCORE = 2 up to number-of-cores-per-socket                            |
|     NCORE specifies how many cores store one orbital (NPAR=cpu/NCORE).      |
|     This setting can greatly improve the performance of VASP for DFT.       |
|     The default, NCORE=1 might be grossly inefficient on modern             |
|     multi-core architectures or massively parallel machines. Do your        |
|     own testing! More info at https://www.vasp.at/wiki/index.php/NCORE      |
|     Unfortunately you need to use the default for GW and RPA                |
|     calculations (for HF NCORE is supported but not extensively tested      |
|     yet).                                                                   |
|                                                                             |
 -----------------------------------------------------------------------------

 POTCAR:    PAW_PBE Na_pv 19Sep2006               
   SHA256 =  6a2f546d9e11350984debacf3dc457d8cffc0868e817d445faca461816a32b94 Na_pv/POTCAR          
   COPYR  = (c) Copyright 19Sep2006 Georg Kresse                                                    
   COPYR  = This file is part of the software VASP. Any use, copying, and all other rights are regul
   COPYR  = If you do not have a valid VASP license, you may not use, copy or distribute this file. 
   VRHFIN =Na: p6s1                                                                                 
   LEXCH  = PE                                                                                      
   EATOM  =   766.0439 eV,   56.3026 Ry                                                             
                                                                                                    
   TITEL  = PAW_PBE Na_pv 19Sep2006                                                                 
   LULTRA =        F    use ultrasoft PP ?                                                          
   IUNSCR =        1    unscreen: 0-lin 1-nonlin 2-no                                               
   RPACOR =    1.800    partial core radius                                                         
   POMASS =   22.990; ZVAL   =    7.000    mass and valenz                                          
   RCORE  =    2.200    outmost cutoff radius                                                       
   RWIGS  =    2.200; RWIGS  =    1.164    wigner-seitz radius (au A)                               
   ENMAX  =  259.561; ENMIN  =  194.671 eV                                                          
   ICORE  =        2    local potential                                                             
   LCOR   =        T    correct aug charges                                                         
   LPAW   =        T    paw PP                                                                      
   EAUG   =  368.056                                                                                
   DEXC   =    0.000                                                                                
   RMAX   =    2.245    core radius for proj-oper                                                   
   RAUG   =    1.300    factor for augmentation sphere                                              
   RDEP   =    2.259    radius for radial grids                                                     
   RDEPT  =    1.738    core radius for aug-charge                                                  
                                                                                                    
   Atomic configuration                                                                             
    5 entries                                                                                       
     n  l   j            E        occ.                                                              
     1  0  0.50     -1033.6933   2.0000                                                             
     2  0  0.50       -56.7526   2.0000                                                             
     2  1  1.50       -28.6721   6.0000                                                             
     3  0  0.50        -2.7440   1.0000                                                             
     3  2  1.50        -1.3606   0.0000                                                             
   Description                                                                                      
     l       E           TYP  RCUT    TYP  RCUT                                                     
     1    -28.6720912     23  2.000                                                                 
     1      6.8029130     23  2.000                                                                 
     0     -2.7439560     23  2.200                                                                 
     0     34.0145650     23  2.200                                                                 
     2     -1.3605826     23  2.200                                                                 
  local pseudopotential read in
  partial core-charges read in
  partial kinetic energy density read in
  atomic valenz-charges read in
  non local Contribution for L=           1  read in
    real space projection operators read in
  non local Contribution for L=           1  read in
    real space projection operators read in
  non local Contribution for L=           0  read in
    real space projection operators read in
  non local Contribution for L=           0  read in
    real space projection operators read in
    PAW grid and wavefunctions read in
 
   number of l-projection  operators is LMAX  =           4
   number of lm-projection operators is LMMAX =           8
 
 POTCAR:    PAW_PBE Cl 06Sep2000                  
   SHA256 =  9f1b6e6ed4247ac726a768b330d26d7667cc3c95a39ff49c1d064c2d9dcce931 Cl/POTCAR             
   COPYR  = (c) Copyright 06Sep2000 Georg Kresse                                                    
   COPYR  = This file is part of the software VASP. Any use, copying, and all other rights are regul
   COPYR  = If you do not have a valid VASP license, you may not use, copy or distribute this file. 
   VRHFIN =Cl: s2p5                                                                                 
   LEXCH  = PE                                                                                      
   EATOM  =   409.7259 eV,   30.1140 Ry                                                             
                                                                                                    
   TITEL  = PAW_PBE Cl 06Sep2000                                                                    
   LULTRA =        F    use ultrasoft PP ?                                                          
   IUNSCR =        1    unscreen: 0-lin 1-nonlin 2-no                                               
   RPACOR =    1.500    partial core radius                                                         
   POMASS =   35.453; ZVAL   =    7.000    mass and valenz                                          
   RCORE  =    1.900    outmost cutoff radius                                                       
   RWIGS  =    2.100; RWIGS  =    1.111    wigner-seitz radius (au A)                               
   ENMAX  =  262.472; ENMIN  =  196.854 eV                                                          
   ICORE  =        2    local potential                                                             
   LCOR   =        T    correct aug charges                                                         
   LPAW   =        T    paw PP                                                                      
   EAUG   =  356.192                                                                                
   DEXC   =    0.000                                                                                
   RMAX   =    1.945    core radius for proj-oper                                                   
   RAUG   =    1.300    factor for augmentation sphere                                              
   RDEP   =    2.020    radius for radial grids                                                     
   RDEPT  =    1.678    core radius for aug-charge                                                  
                                                                                                    
   Atomic configuration                                                                             
    6 entries                                                                                       
     n  l   j            E        occ.                                                              
     1  0  0.50     -2751.1850   2.0000                                                             
     2  0  0.50      -252.6861   2.0000                                                             
     2  1  1.50      -191.6157   6.0000                                                             
     3  0  0.50       -20.6916   2.0000                                                             
     3  1  0.50        -8.5949   5.0000                                                             
     3  2  1.50        -8.1635   0.0000                                                             
   Description                                                                                      
     l       E           TYP  RCUT    TYP  RCUT                                                     
     0    -20.6915656     23  1.900                                                                 
     0    -22.0521482     23  1.900                                                                 
     1     -8.5948577     23  1.900                                                                 
     1     -5.3847331     23  1.900                                                                 
     2     -8.1634956     23  1.900                                                                 
  local pseudopotential read in
  partial core-charges read in
  partial kinetic energy density read in
  atomic valenz-charges read in
  non local Contribution for L=           0  read in
    real space projection operators read in
  non local Contribution for L=           0  read in
    real space projection operators read in
  non local Contribution for L=           1  read in
    real space projection operators read in
  non local Contribution for L=           1  read in
    real space projection operators read in
    PAW grid and wavefunctions read in
 
   number of l-projection  operators is LMAX  =           4
   number of lm-projection operators is LMMAX =           8
 
 -----------------------------------------------------------------------------
|                                                                             |
|               ----> ADVICE to this user running VASP <----                  |
|                                                                             |
|     You have a (more or less) 'large supercell' and for larger cells it     |
|     might be more efficient to use real-space projection operators.         |
|     Therefore, try LREAL= Auto in the INCAR file.                           |
|     Mind: For very accurate calculation, you might also keep the            |
|     reciprocal projection scheme (i.e. LREAL=.FALSE.).                      |
|                                                                             |
 -----------------------------------------------------------------------------

 -----------------------------------------------------------------------------
|                                                                             |
|               ----> ADVICE to this user running VASP <----                  |
|                                                                             |
|     You enforced a specific xc type in the INCAR file but a different       |
|     type was found in the POTCAR file.                                      |
|     I HOPE YOU KNOW WHAT YOU ARE DOING!                                     |
|                                                                             |
 -----------------------------------------------------------------------------

  PAW_PBE Na_pv 19Sep2006               :
 energy of atom  1       EATOM= -766.0439
 kinetic energy error for atom=    0.0189 (will be added to EATOM!!)
  PAW_PBE Cl 06Sep2000                  :
 energy of atom  2       EATOM= -409.7259
 kinetic energy error for atom=    0.0106 (will be added to EATOM!!)
 
 
 POSCAR: Na Cl
  positions in cartesian coordinates
  No initial velocities read in
 exchange correlation table for  LEXCH =       14
   RHO(1)=    0.500       N(1)  =     2000
   RHO(2)=  100.500       N(2)  =     4000
 


--------------------------------------------------------------------------------------------------------


 ion  position               nearest neighbor table
   1  0.000  0.000  0.000-
   2  0.250  0.250  0.000-
   3  0.250  0.000  0.250-
   4  0.000  0.250  0.250-
   5  0.000  0.000  0.500-
   6  0.250  0.250  0.500-
   7  0.250  0.000  0.750-
   8  0.000  0.250  0.750-
   9  0.000  0.500  0.000-
  10  0.250  0.750  0.000-
  11  0.250  0.500  0.250-
  12  0.000  0.750  0.250-
  13  0.000  0.500  0.500-
  14  0.250  0.750  0.500-
  15  0.250  0.500  0.750-
  16  0.000  0.750  0.750-
  17  0.500  0.000  0.000-
  18  0.750  0.250  0.000-
  19  0.750  0.000  0.250-
  20  0.500  0.250  0.250-
  21  0.500  0.000  0.500-
  22  0.750  0.250  0.500-
  23  0.750  0.000  0.750-
  24  0.500  0.250  0.750-
  25  0.500  0.500  0.000-
  26  0.750  0.750  0.000-
  27  0.750  0.500  0.250-
  28  0.500  0.750  0.250-
  29  0.500  0.500  0.500-
  30  0.750  0.750  0.500-
  31  0.750  0.500  0.750-
  32  0.500  0.750  0.750-
  33  0.253  0.250  0.250-
  34  0.000  0.000  0.250-
  35  0.000  0.250  0.000-
  36  0.250  0.000  0.000-
  37  0.250  0.250  0.750-
  38  0.000  0.000  0.750-
  39  0.000  0.250  0.500-
  40  0.250  0.000  0.500-
  41  0.250  0.750  0.250-
  42  0.000  0.500  0.250-
  43  0.000  0.750  0.000-
  44  0.250  0.500  0.000-
  45  0.250  0.750  0.750-
  46  0.000  0.500  0.750-
  47  0.000  0.750  0.500-
  48  0.250  0.500  0.500-
  49  0.750  0.250  0.250-
  50  0.500  0.000  0.250-
  51  0.500  0.250  0.000-
  52  0.750  0.000  0.000-
  53  0.750  0.250  0.750-
  54  0.500  0.000  0.750-
  55  0.500  0.250  0.500-
  56  0.750  0.000  0.500-
  57  0.750  0.750  0.250-
  58  0.500  0.500  0.250-
  59  0.500  0.750  0.000-
  60  0.750  0.500  0.000-
  61  0.750  0.750  0.750-
  62  0.500  0.500  0.750-
  63  0.500  0.750  0.500-
  64  0.750  0.500  0.500-
 
  LATTYP: Found a simple cubic cell.
 ALAT       =    11.2040023600
  
  Lattice vectors:
  
 A1 = (  11.2040023600,   0.0000000000,   0.0000000000)
 A2 = (   0.0000000000,  11.2040023600,   0.0000000000)
 A3 = (   0.0000000000,   0.0000000000,  11.2040023600)


Analysis of symmetry for initial positions (statically):
=====================================================================
 Subroutine PRICEL returns:
 Original cell was already a primitive cell.
 

 Routine SETGRP: Setting up the symmetry group for a 
 simple cubic supercell.


 Subroutine GETGRP returns: Found  8 space group operations
 (whereof  2 operations were pure point group operations)
 out of a pool of 48 trial point group operations.


The static configuration has the point symmetry C_1h.
 The point group associated with its full space group is C_4v.


Analysis of symmetry for dynamics (positions and initial velocities):
=====================================================================
 Subroutine PRICEL returns:
 Original cell was already a primitive cell.
 

 Routine SETGRP: Setting up the symmetry group for a 
 simple cubic supercell.


 Subroutine GETGRP returns: Found  8 space group operations
 (whereof  2 operations were pure point group operations)
 out of a pool of 48 trial point group operations.


The dynamic configuration has the point symmetry C_1h.
 The point group associated with its full space group is C_4v.


 Subroutine INISYM returns: Found  8 space group operations
 (whereof  2 operations are pure point group operations),
 and found     1 'primitive' translations


----------------------------------------------------------------------------------------

                                     Primitive cell                                     

  volume of cell :    1406.4347

  direct lattice vectors                    reciprocal lattice vectors
    11.204002360  0.000000000  0.000000000     0.089253819  0.000000000  0.000000000
     0.000000000 11.204002360  0.000000000     0.000000000  0.089253819  0.000000000
     0.000000000  0.000000000 11.204002360     0.000000000  0.000000000  0.089253819

  length of vectors
    11.204002360 11.204002360 11.204002360     0.089253819  0.089253819  0.089253819

  position of ions in fractional coordinates (direct lattice)
     0.000000000  0.000000000  0.000000000
     0.250000000  0.250000000  0.000000000
     0.250000000  0.000000000  0.250000000
     0.000000000  0.250000000  0.250000000
     0.000000000  0.000000000  0.500000000
     0.250000000  0.250000000  0.500000000
     0.250000000  0.000000000  0.750000000
     0.000000000  0.250000000  0.750000000
     0.000000000  0.500000000  0.000000000
     0.250000000  0.750000000  0.000000000
     0.250000000  0.500000000  0.250000000
     0.000000000  0.750000000  0.250000000
     0.000000000  0.500000000  0.500000000
     0.250000000  0.750000000  0.500000000
     0.250000000  0.500000000  0.750000000
     0.000000000  0.750000000  0.750000000
     0.500000000  0.000000000  0.000000000
     0.750000000  0.250000000  0.000000000
     0.750000000  0.000000000  0.250000000
     0.500000000  0.250000000  0.250000000
     0.500000000  0.000000000  0.500000000
     0.750000000  0.250000000  0.500000000
     0.750000000  0.000000000  0.750000000
     0.500000000  0.250000000  0.750000000
     0.500000000  0.500000000  0.000000000
     0.750000000  0.750000000  0.000000000
     0.750000000  0.500000000  0.250000000
     0.500000000  0.750000000  0.250000000
     0.500000000  0.500000000  0.500000000
     0.750000000  0.750000000  0.500000000
     0.750000000  0.500000000  0.750000000
     0.500000000  0.750000000  0.750000000
     0.252677615  0.250000000  0.250000000
     0.000000000  0.000000000  0.250000000
     0.000000000  0.250000000  0.000000000
     0.250000000  0.000000000  0.000000000
     0.250000000  0.250000000  0.750000000
     0.000000000  0.000000000  0.750000000
     0.000000000  0.250000000  0.500000000
     0.250000000  0.000000000  0.500000000
     0.250000000  0.750000000  0.250000000
     0.000000000  0.500000000  0.250000000
     0.000000000  0.750000000  0.000000000
     0.250000000  0.500000000  0.000000000
     0.250000000  0.750000000  0.750000000
     0.000000000  0.500000000  0.750000000
     0.000000000  0.750000000  0.500000000
     0.250000000  0.500000000  0.500000000
     0.750000000  0.250000000  0.250000000
     0.500000000  0.000000000  0.250000000
     0.500000000  0.250000000  0.000000000
     0.750000000  0.000000000  0.000000000
     0.750000000  0.250000000  0.750000000
     0.500000000  0.000000000  0.750000000
     0.500000000  0.250000000  0.500000000
     0.750000000  0.000000000  0.500000000
     0.750000000  0.750000000  0.250000000
     0.500000000  0.500000000  0.250000000
     0.500000000  0.750000000  0.000000000
     0.750000000  0.500000000  0.000000000
     0.750000000  0.750000000  0.750000000
     0.500000000  0.500000000  0.750000000
     0.500000000  0.750000000  0.500000000
     0.750000000  0.500000000  0.500000000

  ion indices of the primitive-cell ions
   primitive index   ion index
                 1           1
                 2           2
                 3           3
                 4           4
                 5           5
                 6           6
                 7           7
                 8           8
                 9           9
                10          10
                11          11
                12          12
                13          13
                14          14
                15          15
                16          16
                17          17
                18          18
                19          19
                20          20
                21          21
                22          22
                23          23
                24          24
                25          25
                26          26
                27          27
                28          28
                29          29
                30          30
                31          31
                32          32
                33          33
                34          34
                35          35
                36          36
                37          37
                38          38
                39          39
                40          40
                41          41
                42          42
                43          43
                44          44
                45          45
                46          46
                47          47
                48          48
                49          49
                50          50
                51          51
                52          52
                53          53
                54          54
                55          55
                56          56
                57          57
                58          58
                59          59
                60          60
                61          61
                62          62
                63          63
                64          64

----------------------------------------------------------------------------------------

 
 
 KPOINTS: KPOINTS created by Atomic Simulation Env

Automatic generation of k-mesh.
 Grid dimensions read from file:
 generate k-points for:    2    2    2

 Generating k-lattice:

  Cartesian coordinates                     Fractional coordinates (reciprocal lattice)
     0.044626910  0.000000000  0.000000000     0.500000000  0.000000000  0.000000000
     0.000000000  0.044626910  0.000000000     0.000000000  0.500000000  0.000000000
     0.000000000  0.000000000  0.044626910     0.000000000  0.000000000  0.500000000

  Length of vectors
     0.044626910  0.044626910  0.044626910

  Shift w.r.t. Gamma in fractional coordinates (k-lattice)
     0.000000000  0.000000000  0.000000000

 
 Subroutine IBZKPT returns following result:
 ===========================================
 
 Found      6 irreducible k-points:
 
 Following reciprocal coordinates:
            Coordinates               Weight
  0.000000  0.000000  0.000000      1.000000
  0.500000  0.000000  0.000000      1.000000
  0.000000  0.500000  0.000000      2.000000
  0.500000  0.500000  0.000000      2.000000
  0.000000  0.500000  0.500000      1.000000
  0.500000  0.500000  0.500000      1.000000
 
 Following cartesian coordinates:
            Coordinates               Weight
  0.000000  0.000000  0.000000      1.000000
  0.044627  0.000000  0.000000      1.000000
  0.000000  0.044627  0.000000      2.000000
  0.044627  0.044627  0.000000      2.000000
  0.000000  0.044627  0.044627      1.000000
  0.044627  0.044627  0.044627      1.000000
 


--------------------------------------------------------------------------------------------------------




 Dimension of arrays:
   k-points           NKPTS =      6   k-points in BZ     NKDIM =      6   number of bands    NBANDS=    288
   number of dos      NEDOS =    301   number of ions     NIONS =     64
   non local maximal  LDIM  =      4   non local SUM 2l+1 LMDIM =      8
   total plane-waves  NPLWV = 343000
   max r-space proj   IRMAX =      1   max aug-charges    IRDMAX=  56280
   dimension x,y,z NGX =    70 NGY =   70 NGZ =   70
   dimension x,y,z NGXF=   140 NGYF=  140 NGZF=  140
   support grid    NGXF=   280 NGYF=  280 NGZF=  280
   ions per type =              32  32
   NGX,Y,Z   is equivalent  to a cutoff of  10.39, 10.39, 10.39 a.u.
   NGXF,Y,Z  is equivalent  to a cutoff of  20.77, 20.77, 20.77 a.u.

 SYSTEM =  unknown system                          
 POSCAR =  Na Cl                                   

 Startparameter for this run:
   NWRITE =      2    write-flag & timer
   PREC   = accura    normal or accurate (medium, high low for compatibility)
   ISTART =      0    job   : 0-new  1-cont  2-samecut
   ICHARG =      2    charge: 1-file 2-atom 10-const
   ISPIN  =      1    spin polarized calculation?
   LNONCOLLINEAR =      F non collinear calculations
   LSORBIT =      F    spin-orbit coupling
   INIWAV =      1    electr: 0-lowe 1-rand  2-diag
   LASPH  =      F    aspherical Exc in radial PAW
 Electronic Relaxation 1
   ENCUT  =  341.2 eV  25.08 Ry    5.01 a.u.  16.87 16.87 16.87*2*pi/ulx,y,z
   ENINI  =  341.2     initial cutoff
   ENAUG  =  368.1 eV  augmentation charge cutoff
   NELM   =     60;   NELMIN=  5; NELMDL= -5     # of ELM steps 
   EDIFF  = 0.1E-07   stopping-criterion for ELM
   LREAL  =      F    real-space projection
   NLSPLINE    = F    spline interpolate recip. space projectors
   LCOMPAT=      F    compatible to vasp.4.4
   GGA_COMPAT  = T    GGA compatible to vasp.4.4-vasp.4.6
   LMAXPAW     = -100 max onsite density
   LMAXMIX     =    2 max onsite mixed and CHGCAR
   VOSKOWN=      0    Vosko Wilk Nusair interpolation
   ROPT   =    0.00000   0.00000
 Ionic relaxation
   EDIFFG = 0.1E-06   stopping-criterion for IOM
   NSW    =      0    number of steps for IOM
   NBLOCK =      1;   KBLOCK =      1    inner block; outer block 
   IBRION =     -1    ionic relax: 0-MD 1-quasi-New 2-CG
   NFREE  =      0    steps in history (QN), initial steepest desc. (CG)
   ISIF   =      2    stress and relaxation
   IWAVPR =     10    prediction:  0-non 1-charg 2-wave 3-comb
   ISYM   =      2    0-nonsym 1-usesym 2-fastsym
   LCORR  =      T    Harris-Foulkes like correction to forces

   POTIM  = 0.5000    time-step for ionic-motion
   TEIN   =    0.0    initial temperature
   TEBEG  =    0.0;   TEEND  =   0.0 temperature during run
   SMASS  =  -3.00    Nose mass-parameter (am)
   estimated Nose-frequenzy (Omega)   =  0.10E-29 period in steps = 0.13E+47 mass=  -0.287E-26a.u.
   SCALEE = 1.0000    scale energy and forces
   NPACO  =    256;   APACO  = 10.0  distance and # of slots for P.C.
   PSTRESS=    0.0 pullay stress

  Mass of Ions in am
   POMASS =  22.99 35.45
  Ionic Valenz
   ZVAL   =   7.00  7.00
  Atomic Wigner-Seitz radii
   RWIGS  =  -1.00 -1.00
  virtual crystal weights 
   VCA    =   1.00  1.00
   NELECT =     448.0000    total number of electrons
   NUPDOWN=      -1.0000    fix difference up-down

 DOS related values:
   EMIN   =  10.00;   EMAX   =-10.00  energy-range for DOS
   EFERMI =   0.00
   ISMEAR =     0;   SIGMA  =   0.02  broadening in eV -4-tet -1-fermi 0-gaus

 Electronic relaxation 2 (details)
   IALGO  =     38    algorithm
   LDIAG  =      T    sub-space diagonalisation (order eigenvalues)
   LSUBROT=      F    optimize rotation matrix (better conditioning)
   TURBO    =      0    0=normal 1=particle mesh
   IRESTART =      0    0=no restart 2=restart with 2 vectors
   NREBOOT  =      0    no. of reboots
   NMIN     =      0    reboot dimension
   EREF     =   0.00    reference energy to select bands
   IMIX   =      4    mixing-type and parameters
     AMIX     =   0.40;   BMIX     =  1.00
     AMIX_MAG =   1.60;   BMIX_MAG =  1.00
     AMIN     =   0.10
     WC   =   100.;   INIMIX=   1;  MIXPRE=   1;  MAXMIX= -45

 Intra band minimization:
   WEIMIN = 0.0000     energy-eigenvalue tresh-hold
   EBREAK =  0.87E-11  absolut break condition
   DEPER  =   0.30     relativ break condition  

   TIME   =   0.40     timestep for ELM

  volume/ion in A,a.u.               =      21.98       148.30
  Fermi-wavevector in a.u.,A,eV,Ry     =   1.118049  2.112807 17.007750  1.250034
  Thomas-Fermi vector in A             =   2.254677
 
 Write flags
   LWAVE        =      F    write WAVECAR
   LDOWNSAMPLE  =      F    k-point downsampling of WAVECAR
   LCHARG       =      F    write CHGCAR
   LVTOT        =      F    write LOCPOT, total local potential
   LVHAR        =      F    write LOCPOT, Hartree potential only
   LELF         =      F    write electronic localiz. function (ELF)
   LORBIT       =      0    0 simple, 1 ext, 2 COOP (PROOUT), +10 PAW based schemes


 Dipole corrections
   LMONO  =      F    monopole corrections only (constant potential shift)
   LDIPOL =      F    correct potential (dipole corrections)
   IDIPOL =      0    1-x, 2-y, 3-z, 4-all directions 
   EPSILON=  1.0000000 bulk dielectric constant

 Exchange correlation treatment:
   GGA     =    PS    GGA type
   LEXCH   =    14    internal setting for exchange type
   LIBXC   =     F    Libxc                    
   VOSKOWN =     0    Vosko Wilk Nusair interpolation
   LHFCALC =     F    Hartree Fock is set to
   LHFONE  =     F    Hartree Fock one center treatment
   AEXX    =    0.0000 exact exchange contribution

 Linear response parameters
   LEPSILON=     F    determine dielectric tensor
   LRPA    =     F    only Hartree local field effects (RPA)
   LNABLA  =     F    use nabla operator in PAW spheres
   LVEL    =     F    velocity operator in full k-point grid
   CSHIFT  =0.1000    complex shift for real part using Kramers Kronig
   OMEGAMAX=  -1.0    maximum frequency
   DEG_THRESHOLD= 0.2000000E-02 threshold for treating states as degnerate
   RTIME   =   -0.100 relaxation time in fs
  (WPLASMAI=    0.000 imaginary part of plasma frequency in eV, 0.658/RTIME)
   DFIELD  = 0.0000000 0.0000000 0.0000000 field for delta impulse in time
 
  Optional k-point grid parameters
   LKPOINTS_OPT  =     F    use optional k-point grid
   KPOINTS_OPT_MODE=     1    mode for optional k-point grid
 
 Orbital magnetization related:
   ORBITALMAG=     F  switch on orbital magnetization
   LCHIMAG   =     F  perturbation theory with respect to B field
   DQ        =  0.001000  dq finite difference perturbation B field
   LLRAUG    =     F  two centre corrections for induced B field



--------------------------------------------------------------------------------------------------------


 Static calculation
 charge density and potential will be updated during run
 non-spin polarized calculation
 Variant of blocked Davidson
 Davidson routine will perform the subspace rotation
 perform sub-space diagonalisation
    after iterative eigenvector-optimisation
 modified Broyden-mixing scheme, WC =      100.0
 initial mixing is a Kerker type mixing with AMIX =  0.4000 and BMIX =      1.0000
 Hartree-type preconditioning will be used
 using additional bands           64
 reciprocal scheme for non local part
 use partial core corrections
 calculate Harris-corrections to forces 
   (improved forces if not selfconsistent)
 use gradient corrections 
 use of overlap-Matrix (Vanderbilt PP)
 Gauss-broadening in eV      SIGMA  =   0.02


--------------------------------------------------------------------------------------------------------


  energy-cutoff  :      341.21
  volume of cell :     1406.43
      direct lattice vectors                 reciprocal lattice vectors
    11.204002360  0.000000000  0.000000000     0.089253819  0.000000000  0.000000000
     0.000000000 11.204002360  0.000000000     0.000000000  0.089253819  0.000000000
     0.000000000  0.000000000 11.204002360     0.000000000  0.000000000  0.089253819

  length of vectors
    11.204002360 11.204002360 11.204002360     0.089253819  0.089253819  0.089253819


 
 k-points in units of 2pi/SCALE and weight: KPOINTS created by Atomic Simulation Env
   0.00000000  0.00000000  0.00000000       0.125
   0.04462691  0.00000000  0.00000000       0.125
   0.00000000  0.04462691  0.00000000       0.250
   0.04462691  0.04462691  0.00000000       0.250
   0.00000000  0.04462691  0.04462691       0.125
   0.04462691  0.04462691  0.04462691       0.125
 
 k-points in reciprocal lattice and weights: KPOINTS created by Atomic Simulation Env
   0.00000000  0.00000000  0.00000000       0.125
   0.50000000  0.00000000  0.00000000       0.125
   0.00000000  0.50000000  0.00000000       0.250
   0.50000000  0.50000000  0.00000000       0.250
   0.00000000  0.50000000  0.50000000       0.125
   0.50000000  0.50000000  0.50000000       0.125
 
 position of ions in fractional coordinates (direct lattice) 
   0.00000000  0.00000000  0.00000000
   0.25000000  0.25000000  0.00000000
   0.25000000  0.00000000  0.25000000
   0.00000000  0.25000000  0.25000000
   0.00000000  0.00000000  0.50000000
   0.25000000  0.25000000  0.50000000
   0.25000000  0.00000000  0.75000000
   0.00000000  0.25000000  0.75000000
   0.00000000  0.50000000  0.00000000
   0.25000000  0.75000000  0.00000000
   0.25000000  0.50000000  0.25000000
   0.00000000  0.75000000  0.25000000
   0.00000000  0.50000000  0.50000000
   0.25000000  0.75000000  0.50000000
   0.25000000  0.50000000  0.75000000
   0.00000000  0.75000000  0.75000000
   0.50000000  0.00000000  0.00000000
   0.75000000  0.25000000  0.00000000
   0.75000000  0.00000000  0.25000000
   0.50000000  0.25000000  0.25000000
   0.50000000  0.00000000  0.50000000
   0.75000000  0.25000000  0.50000000
   0.75000000  0.00000000  0.75000000
   0.50000000  0.25000000  0.75000000
   0.50000000  0.50000000  0.00000000
   0.75000000  0.75000000  0.00000000
   0.75000000  0.50000000  0.25000000
   0.50000000  0.75000000  0.25000000
   0.50000000  0.50000000  0.50000000
   0.75000000  0.75000000  0.50000000
   0.75000000  0.50000000  0.75000000
   0.50000000  0.75000000  0.75000000
   0.25267761  0.25000000  0.25000000
   0.00000000  0.00000000  0.25000000
   0.00000000  0.25000000  0.00000000
   0.25000000  0.00000000  0.00000000
   0.25000000  0.25000000  0.75000000
   0.00000000  0.00000000  0.75000000
   0.00000000  0.25000000  0.50000000
   0.25000000  0.00000000  0.50000000
   0.25000000  0.75000000  0.25000000
   0.00000000  0.50000000  0.25000000
   0.00000000  0.75000000  0.00000000
   0.25000000  0.50000000  0.00000000
   0.25000000  0.75000000  0.75000000
   0.00000000  0.50000000  0.75000000
   0.00000000  0.75000000  0.50000000
   0.25000000  0.50000000  0.50000000
   0.75000000  0.25000000  0.25000000
   0.50000000  0.00000000  0.25000000
   0.50000000  0.25000000  0.00000000
   0.75000000  0.00000000  0.00000000
   0.75000000  0.25000000  0.75000000
   0.50000000  0.00000000  0.75000000
   0.50000000  0.25000000  0.50000000
   0.75000000  0.00000000  0.50000000
   0.75000000  0.75000000  0.25000000
   0.50000000  0.50000000  0.25000000
   0.50000000  0.75000000  0.00000000
   0.75000000  0.50000000  0.00000000
   0.75000000  0.75000000  0.75000000
   0.50000000  0.50000000  0.75000000
   0.50000000  0.75000000  0.50000000
   0.75000000  0.50000000  0.50000000
 
 position of ions in cartesian coordinates  (Angst):
   0.00000000  0.00000000  0.00000000
   2.80100059  2.80100059  0.00000000
   2.80100059  0.00000000  2.80100059
   0.00000000  2.80100059  2.80100059
   0.00000000  0.00000000  5.60200118
   2.80100059  2.80100059  5.60200118
   2.80100059  0.00000000  8.40300177
   0.00000000  2.80100059  8.40300177
   0.00000000  5.60200118  0.00000000
   2.80100059  8.40300177  0.00000000
   2.80100059  5.60200118  2.80100059
   0.00000000  8.40300177  2.80100059
   0.00000000  5.60200118  5.60200118
   2.80100059  8.40300177  5.60200118
   2.80100059  5.60200118  8.40300177
   0.00000000  8.40300177  8.40300177
   5.60200118  0.00000000  0.00000000
   8.40300177  2.80100059  0.00000000
   8.40300177  0.00000000  2.80100059
   5.60200118  2.80100059  2.80100059
   5.60200118  0.00000000  5.60200118
   8.40300177  2.80100059  5.60200118
   8.40300177  0.00000000  8.40300177
   5.60200118  2.80100059  8.40300177
   5.60200118  5.60200118  0.00000000
   8.40300177  8.40300177  0.00000000
   8.40300177  5.60200118  2.80100059
   5.60200118  8.40300177  2.80100059
   5.60200118  5.60200118  5.60200118
   8.40300177  8.40300177  5.60200118
   8.40300177  5.60200118  8.40300177
   5.60200118  8.40300177  8.40300177
   2.83100059  2.80100059  2.80100059
   0.00000000  0.00000000  2.80100059
   0.00000000  2.80100059  0.00000000
   2.80100059  0.00000000  0.00000000
   2.80100059  2.80100059  8.40300177
   0.00000000  0.00000000  8.40300177
   0.00000000  2.80100059  5.60200118
   2.80100059  0.00000000  5.60200118
   2.80100059  8.40300177  2.80100059
   0.00000000  5.60200118  2.80100059
   0.00000000  8.40300177  0.00000000
   2.80100059  5.60200118  0.00000000
   2.80100059  8.40300177  8.40300177
   0.00000000  5.60200118  8.40300177
   0.00000000  8.40300177  5.60200118
   2.80100059  5.60200118  5.60200118
   8.40300177  2.80100059  2.80100059
   5.60200118  0.00000000  2.80100059
   5.60200118  2.80100059  0.00000000
   8.40300177  0.00000000  0.00000000
   8.40300177  2.80100059  8.40300177
   5.60200118  0.00000000  8.40300177
   5.60200118  2.80100059  5.60200118
   8.40300177  0.00000000  5.60200118
   8.40300177  8.40300177  2.80100059
   5.60200118  5.60200118  2.80100059
   5.60200118  8.40300177  0.00000000
   8.40300177  5.60200118  0.00000000
   8.40300177  8.40300177  8.40300177
   5.60200118  5.60200118  8.40300177
   5.60200118  8.40300177  5.60200118
   8.40300177  5.60200118  5.60200118
 


--------------------------------------------------------------------------------------------------------


 k-point   1 :   0.0000 0.0000 0.0000  plane waves:   20005
 k-point   2 :   0.5000 0.0000 0.0000  plane waves:   20138
 k-point   3 :   0.0000 0.5000 0.0000  plane waves:   20138
 k-point   4 :   0.5000 0.5000 0.0000  plane waves:   20160
 k-point   5 :   0.0000 0.5000 0.5000  plane waves:   20160
 k-point   6 :   0.5000 0.5000 0.5000  plane waves:   20336

 maximum and minimum number of plane-waves per node :     20336    20005

 maximum number of plane-waves:     20336
 maximum index in each direction: 
   IXMAX=   16   IYMAX=   16   IZMAX=   16
   IXMIN=  -17   IYMIN=  -17   IZMIN=  -17


 serial   3D FFT for wavefunctions
 parallel 3D FFT for charge:
    minimum data exchange during FFTs selected (reduces bandwidth)


 total amount of memory used by VASP MPI-rank0   118439. kBytes
=======================================================================

   base      :      30000. kBytes
   nonl-proj :      36470. kBytes
   fftplans  :      14405. kBytes
   grid      :      19342. kBytes
   one-center:        196. kBytes
   wavefun   :      18026. kBytes
 
     INWAV:  cpu time      0.0000: real time      0.0000
 Broyden mixing: mesh for mixing (old mesh)
   NGX = 33   NGY = 33   NGZ = 33
  (NGX  =140   NGY  =140   NGZ  =140)
  gives a total of  35937 points

 initial charge density was supplied:
 charge density of overlapping atoms calculated
 number of electron     448.0000000 magnetization 
 keeping initial charge density in first step


--------------------------------------------------------------------------------------------------------


 Maximum index for augmentation-charges         1834 (set IRDMAX)


--------------------------------------------------------------------------------------------------------


 First call to EWALD:  gamma=   0.158
 Maximum number of real-space cells 3x 3x 3
 Maximum number of reciprocal cells 3x 3x 3

    FEWALD:  cpu time      0.0015: real time      0.0015


--------------------------------------- Iteration      1(   1)  ---------------------------------------


    POTLOK:  cpu time      0.0424: real time      0.0429
    SETDIJ:  cpu time      0.0315: real time      0.0316
     EDDAV:  cpu time      7.6945: real time      7.7352
       DOS:  cpu time      0.0015: real time      0.0015
    --------------------------------------------
      LOOP:  cpu time      7.7699: real time      7.8112

 eigenvalue-minimisations  :  3648
 total energy-change (2. order) : 0.4389731E+04  (-0.1711934E+05)
 number of electron     448.0000000 magnetization 
 augmentation part      448.0000000 magnetization 

 Free energy of the ion-electron system (eV)
  ---------------------------------------------------
  alpha Z        PSCENC =       751.52672365
  Ewald energy   TEWEN  =    -22871.39982569
  -Hartree energ DENC   =     -8992.19325711
  -exchange      EXHF   =         0.00000000
  -V(xc)+E(xc)   XCENC  =      1456.53403488
  PAW double counting   =     26466.43774078   -29286.08056155
  entropy T*S    EENTRO =        -0.00150940
  eigenvalues    EBANDS =      -667.27141921
  atomic energy  EATOM  =     37532.17946992
  Solvation  Ediel_sol  =         0.00000000
  ---------------------------------------------------
  free energy    TOTEN  =      4389.73139627 eV

  energy without entropy =     4389.73290567  energy(sigma->0) =     4389.73215097


--------------------------------------------------------------------------------------------------------




--------------------------------------- Iteration      1(   2)  ---------------------------------------


     EDDAV:  cpu time      8.0847: real time      8.1287
       DOS:  cpu time      0.0006: real time      0.0006
    --------------------------------------------
      LOOP:  cpu time      8.0853: real time      8.1293

 eigenvalue-minimisations  :  3872
 total energy-change (2. order) :-0.4025365E+04  (-0.3829975E+04)
 number of electron     448.0000000 magnetization 
 augmentation part      448.0000000 magnetization 

 Free energy of the ion-electron system (eV)
  ---------------------------------------------------
  alpha Z        PSCENC =       751.52672365
  Ewald energy   TEWEN  =    -22871.39982569
  -Hartree energ DENC   =     -8992.19325711
  -exchange      EXHF   =         0.00000000
  -V(xc)+E(xc)   XCENC  =      1456.53403488
  PAW double counting   =     26466.43774078   -29286.08056155
  entropy T*S    EENTRO =        -0.00000000
  eigenvalues    EBANDS =     -4692.63795005
  atomic energy  EATOM  =     37532.17946992
  Solvation  Ediel_sol  =         0.00000000
  ---------------------------------------------------
  free energy    TOTEN  =       364.36637483 eV

  energy without entropy =      364.36637483  energy(sigma->0) =      364.36637483


--------------------------------------------------------------------------------------------------------




--------------------------------------- Iteration      1(   3)  ---------------------------------------


     EDDAV:  cpu time      8.5783: real time      8.6238
       DOS:  cpu time      0.0006: real time      0.0006
    --------------------------------------------
      LOOP:  cpu time      8.5790: real time      8.6245

 eigenvalue-minimisations  :  4160
 total energy-change (2. order) :-0.5694746E+03  (-0.5650991E+03)
 number of electron     448.0000000 magnetization 
 augmentation part      448.0000000 magnetization 

 Free energy of the ion-electron system (eV)
  ---------------------------------------------------
  alpha Z        PSCENC =       751.52672365
  Ewald energy   TEWEN  =    -22871.39982569
  -Hartree energ DENC   =     -8992.19325711
  -exchange      EXHF   =         0.00000000
  -V(xc)+E(xc)   XCENC  =      1456.53403488
  PAW double counting   =     26466.43774078   -29286.08056155
  entropy T*S    EENTRO =        -0.00000000
  eigenvalues    EBANDS =     -5262.11259784
  atomic energy  EATOM  =     37532.17946992
  Solvation  Ediel_sol  =         0.00000000
  ---------------------------------------------------
  free energy    TOTEN  =      -205.10827296 eV

  energy without entropy =     -205.10827296  energy(sigma->0) =     -205.10827296


--------------------------------------------------------------------------------------------------------




--------------------------------------- Iteration      1(   4)  ---------------------------------------


     EDDAV:  cpu time      8.5833: real time      8.6291
       DOS:  cpu time      0.0006: real time      0.0006
    --------------------------------------------
      LOOP:  cpu time      8.5839: real time      8.6297

 eigenvalue-minimisations  :  4160
 total energy-change (2. order) :-0.2302854E+02  (-0.2291456E+02)
 number of electron     448.0000000 magnetization 
 augmentation part      448.0000000 magnetization 

 Free energy of the ion-electron system (eV)
  ---------------------------------------------------
  alpha Z        PSCENC =       751.52672365
  Ewald energy   TEWEN  =    -22871.39982569
  -Hartree energ DENC   =     -8992.19325711
  -exchange      EXHF   =         0.00000000
  -V(xc)+E(xc)   XCENC  =      1456.53403488
  PAW double counting   =     26466.43774078   -29286.08056155
  entropy T*S    EENTRO =        -0.00000000
  eigenvalues    EBANDS =     -5285.14113406
  atomic energy  EATOM  =     37532.17946992
  Solvation  Ediel_sol  =         0.00000000
  ---------------------------------------------------
  free energy    TOTEN  =      -228.13680918 eV

  energy without entropy =     -228.13680918  energy(sigma->0) =     -228.13680918


--------------------------------------------------------------------------------------------------------




--------------------------------------- Iteration      1(   5)  ---------------------------------------


     EDDAV:  cpu time      9.1626: real time      9.2107
       DOS:  cpu time      0.0006: real time      0.0006
    CHARGE:  cpu time      0.2661: real time      0.2676
    MIXING:  cpu time      0.0012: real time      0.0012
    --------------------------------------------
      LOOP:  cpu time      9.4304: real time      9.4802

 eigenvalue-minimisations  :  4512
 total energy-change (2. order) :-0.8685224E+00  (-0.8670336E+00)
 number of electron     448.0000022 magnetization 
 augmentation part      111.6387588 magnetization 

 Broyden mixing:
  rms(total) = 0.10606E+01    rms(broyden)= 0.10601E+01
  rms(prec ) = 0.14936E+01
  weight for this iteration     100.00

 Free energy of the ion-electron system (eV)
  ---------------------------------------------------
  alpha Z        PSCENC =       751.52672365
  Ewald energy   TEWEN  =    -22871.39982569
  -Hartree energ DENC   =     -8992.19325711
  -exchange      EXHF   =         0.00000000
  -V(xc)+E(xc)   XCENC  =      1456.53403488
  PAW double counting   =     26466.43774078   -29286.08056155
  entropy T*S    EENTRO =        -0.00000000
  eigenvalues    EBANDS =     -5286.00965645
  atomic energy  EATOM  =     37532.17946992
  Solvation  Ediel_sol  =         0.00000000
  ---------------------------------------------------
  free energy    TOTEN  =      -229.00533157 eV

  energy without entropy =     -229.00533157  energy(sigma->0) =     -229.00533157


--------------------------------------------------------------------------------------------------------




--------------------------------------- Iteration      1(   6)  ---------------------------------------


    POTLOK:  cpu time      0.0364: real time      0.0370
    SETDIJ:  cpu time      0.0299: real time      0.0301
     EDDAV:  cpu time      8.6948: real time      8.7404
       DOS:  cpu time      0.0005: real time      0.0005
    CHARGE:  cpu time      0.2676: real time      0.2691
    MIXING:  cpu time      0.0012: real time      0.0012
    --------------------------------------------
      LOOP:  cpu time      9.0304: real time      9.0783

 eigenvalue-minimisations  :  4224
 total energy-change (2. order) : 0.4866133E+01  (-0.9484984E+00)
 number of electron     448.0000022 magnetization 
 augmentation part      112.4594861 magnetization 

 Broyden mixing:
  rms(total) = 0.77530E+00    rms(broyden)= 0.77524E+00
  rms(prec ) = 0.89142E+00
  weight for this iteration     100.00

 eigenvalues of (default mixing * dielectric matrix)
  average eigenvalue GAMMA=   1.0760
  1.0760

 Free energy of the ion-electron system (eV)
  ---------------------------------------------------
  alpha Z        PSCENC =       751.52672365
  Ewald energy   TEWEN  =    -22871.39982569
  -Hartree energ DENC   =     -9061.60626606
  -exchange      EXHF   =         0.00000000
  -V(xc)+E(xc)   XCENC  =      1465.42199129
  PAW double counting   =     27290.27489148   -30102.14900374
  entropy T*S    EENTRO =        -0.00000000
  eigenvalues    EBANDS =     -5228.38717898
  atomic energy  EATOM  =     37532.17946992
  Solvation  Ediel_sol  =         0.00000000
  ---------------------------------------------------
  free energy    TOTEN  =      -224.13919812 eV

  energy without entropy =     -224.13919812  energy(sigma->0) =     -224.13919812


--------------------------------------------------------------------------------------------------------




--------------------------------------- Iteration      1(   7)  ---------------------------------------


    POTLOK:  cpu time      0.0356: real time      0.0359
    SETDIJ:  cpu time      0.0299: real time      0.0300
     EDDAV:  cpu time      9.4994: real time      9.5490
       DOS:  cpu time      0.0006: real time      0.0006
    CHARGE:  cpu time      0.2669: real time      0.2685
    MIXING:  cpu time      0.0014: real time      0.0014
    --------------------------------------------
      LOOP:  cpu time      9.8338: real time      9.8854

 eigenvalue-minimisations  :  4704
 total energy-change (2. order) : 0.3608168E+00  (-0.2063077E+00)
 number of electron     448.0000022 magnetization 
 augmentation part      112.8278424 magnetization 

 Broyden mixing:
  rms(total) = 0.53363E+00    rms(broyden)= 0.53360E+00
  rms(prec ) = 0.56358E+00
  weight for this iteration     100.00

 eigenvalues of (default mixing * dielectric matrix)
  average eigenvalue GAMMA=   2.1612
  1.4398  2.8826

 Free energy of the ion-electron system (eV)
  ---------------------------------------------------
  alpha Z        PSCENC =       751.52672365
  Ewald energy   TEWEN  =    -22871.39982569
  -Hartree energ DENC   =     -9085.75858986
  -exchange      EXHF   =         0.00000000
  -V(xc)+E(xc)   XCENC  =      1470.12535893
  PAW double counting   =     28328.24551998   -31140.96572414
  entropy T*S    EENTRO =        -0.00000000
  eigenvalues    EBANDS =     -5207.73131416
  atomic energy  EATOM  =     37532.17946992
  Solvation  Ediel_sol  =         0.00000000
  ---------------------------------------------------
  free energy    TOTEN  =      -223.77838137 eV

  energy without entropy =     -223.77838137  energy(sigma->0) =     -223.77838137


--------------------------------------------------------------------------------------------------------




--------------------------------------- Iteration      1(   8)  ---------------------------------------


    POTLOK:  cpu time      0.0369: real time      0.0415
    SETDIJ:  cpu time      0.0300: real time      0.0301
     EDDAV:  cpu time      8.3260: real time      8.3702
       DOS:  cpu time      0.0005: real time      0.0005
    CHARGE:  cpu time      0.2696: real time      0.2711
    MIXING:  cpu time      0.0012: real time      0.0012
    --------------------------------------------
      LOOP:  cpu time      8.6642: real time      8.7145

 eigenvalue-minimisations  :  4000
 total energy-change (2. order) :-0.1253982E+00  (-0.2694696E-01)
 number of electron     448.0000022 magnetization 
 augmentation part      112.8086823 magnetization 

 Broyden mixing:
  rms(total) = 0.14446E+00    rms(broyden)= 0.14446E+00
  rms(prec ) = 0.14735E+00
  weight for this iteration     100.00

 eigenvalues of (default mixing * dielectric matrix)
  average eigenvalue GAMMA=   1.5530
  2.5425  1.3913  0.7251

 Free energy of the ion-electron system (eV)
  ---------------------------------------------------
  alpha Z        PSCENC =       751.52672365
  Ewald energy   TEWEN  =    -22871.39982569
  -Hartree energ DENC   =     -9075.10136905
  -exchange      EXHF   =         0.00000000
  -V(xc)+E(xc)   XCENC  =      1472.34552833
  PAW double counting   =     29815.25176096   -32635.14805293
  entropy T*S    EENTRO =        -0.00000000
  eigenvalues    EBANDS =     -5213.55801474
  atomic energy  EATOM  =     37532.17946992
  Solvation  Ediel_sol  =         0.00000000
  ---------------------------------------------------
  free energy    TOTEN  =      -223.90377954 eV

  energy without entropy =     -223.90377954  energy(sigma->0) =     -223.90377954


--------------------------------------------------------------------------------------------------------




--------------------------------------- Iteration      1(   9)  ---------------------------------------


    POTLOK:  cpu time      0.0364: real time      0.0374
    SETDIJ:  cpu time      0.0299: real time      0.0301
     EDDAV:  cpu time      8.8551: real time      8.9014
       DOS:  cpu time      0.0006: real time      0.0006
    CHARGE:  cpu time      0.2681: real time      0.2696
    MIXING:  cpu time      0.0011: real time      0.0011
    --------------------------------------------
      LOOP:  cpu time      9.1912: real time      9.2402

 eigenvalue-minimisations  :  4320
 total energy-change (2. order) : 0.5565443E-02  (-0.1103856E-02)
 number of electron     448.0000022 magnetization 
 augmentation part      112.8304496 magnetization 

 Broyden mixing:
  rms(total) = 0.63697E-01    rms(broyden)= 0.63696E-01
  rms(prec ) = 0.65673E-01
  weight for this iteration     100.00

 eigenvalues of (default mixing * dielectric matrix)
  average eigenvalue GAMMA=   2.0108
  2.8260  2.8260  0.9969  1.3942

 Free energy of the ion-electron system (eV)
  ---------------------------------------------------
  alpha Z        PSCENC =       751.52672365
  Ewald energy   TEWEN  =    -22871.39982569
  -Hartree energ DENC   =     -9077.77757808
  -exchange      EXHF   =         0.00000000
  -V(xc)+E(xc)   XCENC  =      1472.35852183
  PAW double counting   =     29638.08826896   -32457.14524691
  entropy T*S    EENTRO =        -0.00000000
  eigenvalues    EBANDS =     -5211.72854778
  atomic energy  EATOM  =     37532.17946992
  Solvation  Ediel_sol  =         0.00000000
  ---------------------------------------------------
  free energy    TOTEN  =      -223.89821410 eV

  energy without entropy =     -223.89821410  energy(sigma->0) =     -223.89821410


--------------------------------------------------------------------------------------------------------




--------------------------------------- Iteration      1(  10)  ---------------------------------------


    POTLOK:  cpu time      0.0358: real time      0.0361
    SETDIJ:  cpu time      0.0299: real time      0.0301
     EDDAV:  cpu time      8.3857: real time      8.4309
       DOS:  cpu time      0.0005: real time      0.0005
    CHARGE:  cpu time      0.2689: real time      0.2703
    MIXING:  cpu time      0.0015: real time      0.0015
    --------------------------------------------
      LOOP:  cpu time      8.7223: real time      8.7694

 eigenvalue-minimisations  :  4032
 total energy-change (2. order) :-0.4151857E-02  (-0.1902605E-02)
 number of electron     448.0000022 magnetization 
 augmentation part      112.8613465 magnetization 

 Broyden mixing:
  rms(total) = 0.29960E-01    rms(broyden)= 0.29957E-01
  rms(prec ) = 0.32058E-01
  weight for this iteration     100.00

 eigenvalues of (default mixing * dielectric matrix)
  average eigenvalue GAMMA=   1.7093
  2.9331  2.5154  1.2956  1.0199  0.7827

 Free energy of the ion-electron system (eV)
  ---------------------------------------------------
  alpha Z        PSCENC =       751.52672365
  Ewald energy   TEWEN  =    -22871.39982569
  -Hartree energ DENC   =     -9079.42956258
  -exchange      EXHF   =         0.00000000
  -V(xc)+E(xc)   XCENC  =      1472.60869600
  PAW double counting   =     29453.58995206   -32272.81655200
  entropy T*S    EENTRO =        -0.00000000
  eigenvalues    EBANDS =     -5210.16126733
  atomic energy  EATOM  =     37532.17946992
  Solvation  Ediel_sol  =         0.00000000
  ---------------------------------------------------
  free energy    TOTEN  =      -223.90236595 eV

  energy without entropy =     -223.90236595  energy(sigma->0) =     -223.90236595


--------------------------------------------------------------------------------------------------------




--------------------------------------- Iteration      1(  11)  ---------------------------------------


    POTLOK:  cpu time      0.0356: real time      0.0359
    SETDIJ:  cpu time      0.0298: real time      0.0300
     EDDAV:  cpu time      9.0584: real time      9.1059
       DOS:  cpu time      0.0005: real time      0.0005
    CHARGE:  cpu time      0.2709: real time      0.2726
    MIXING:  cpu time      0.0012: real time      0.0012
    --------------------------------------------
      LOOP:  cpu time      9.3965: real time      9.4460

 eigenvalue-minimisations  :  4448
 total energy-change (2. order) : 0.7709426E-03  (-0.1758847E-03)
 number of electron     448.0000022 magnetization 
 augmentation part      112.8515189 magnetization 

 Broyden mixing:
  rms(total) = 0.87033E-02    rms(broyden)= 0.87032E-02
  rms(prec ) = 0.91261E-02
  weight for this iteration     100.00

 eigenvalues of (default mixing * dielectric matrix)
  average eigenvalue GAMMA=   1.5695
  2.9118  2.4552  1.3261  1.0043  0.8598  0.8598

 Free energy of the ion-electron system (eV)
  ---------------------------------------------------
  alpha Z        PSCENC =       751.52672365
  Ewald energy   TEWEN  =    -22871.39982569
  -Hartree energ DENC   =     -9078.29140416
  -exchange      EXHF   =         0.00000000
  -V(xc)+E(xc)   XCENC  =      1472.52909506
  PAW double counting   =     29487.07476589   -32306.45002800
  entropy T*S    EENTRO =        -0.00000000
  eigenvalues    EBANDS =     -5211.07039168
  atomic energy  EATOM  =     37532.17946992
  Solvation  Ediel_sol  =         0.00000000
  ---------------------------------------------------
  free energy    TOTEN  =      -223.90159501 eV

  energy without entropy =     -223.90159501  energy(sigma->0) =     -223.90159501


--------------------------------------------------------------------------------------------------------




--------------------------------------- Iteration      1(  12)  ---------------------------------------


    POTLOK:  cpu time      0.0366: real time      0.0368
    SETDIJ:  cpu time      0.0300: real time      0.0302
     EDDAV:  cpu time      9.0120: real time      9.0595
       DOS:  cpu time      0.0005: real time      0.0005
    CHARGE:  cpu time      0.2684: real time      0.2699
    MIXING:  cpu time      0.0014: real time      0.0014
    --------------------------------------------
      LOOP:  cpu time      9.3489: real time      9.3984

 eigenvalue-minimisations  :  4416
 total energy-change (2. order) : 0.3547461E-04  (-0.1362115E-04)
 number of electron     448.0000022 magnetization 
 augmentation part      112.8490042 magnetization 

 Broyden mixing:
  rms(total) = 0.16844E-02    rms(broyden)= 0.16837E-02
  rms(prec ) = 0.19552E-02
  weight for this iteration     100.00

 eigenvalues of (default mixing * dielectric matrix)
  average eigenvalue GAMMA=   1.5997
  2.8794  2.3647  1.7317  1.1680  1.1680  1.0848  0.8012

 Free energy of the ion-electron system (eV)
  ---------------------------------------------------
  alpha Z        PSCENC =       751.52672365
  Ewald energy   TEWEN  =    -22871.39982569
  -Hartree energ DENC   =     -9078.14252563
  -exchange      EXHF   =         0.00000000
  -V(xc)+E(xc)   XCENC  =      1472.51897813
  PAW double counting   =     29497.99047961   -32317.36121839
  entropy T*S    EENTRO =        -0.00000000
  eigenvalues    EBANDS =     -5211.21364114
  atomic energy  EATOM  =     37532.17946992
  Solvation  Ediel_sol  =         0.00000000
  ---------------------------------------------------
  free energy    TOTEN  =      -223.90155954 eV

  energy without entropy =     -223.90155954  energy(sigma->0) =     -223.90155954


--------------------------------------------------------------------------------------------------------




--------------------------------------- Iteration      1(  13)  ---------------------------------------


    POTLOK:  cpu time      0.0358: real time      0.0368
    SETDIJ:  cpu time      0.0297: real time      0.0299
     EDDAV:  cpu time      8.7998: real time      8.8458
       DOS:  cpu time      0.0005: real time      0.0005
    CHARGE:  cpu time      0.2658: real time      0.2673
    MIXING:  cpu time      0.0013: real time      0.0013
    --------------------------------------------
      LOOP:  cpu time      9.1329: real time      9.1815

 eigenvalue-minimisations  :  4288
 total energy-change (2. order) : 0.1413493E-05  (-0.2505076E-05)
 number of electron     448.0000022 magnetization 
 augmentation part      112.8477585 magnetization 

 Broyden mixing:
  rms(total) = 0.47186E-03    rms(broyden)= 0.47137E-03
  rms(prec ) = 0.52306E-03
  weight for this iteration     100.00

 eigenvalues of (default mixing * dielectric matrix)
  average eigenvalue GAMMA=   1.6178
  2.9784  2.2768  2.2768  1.1634  1.1634  0.9681  1.0576  1.0576

 Free energy of the ion-electron system (eV)
  ---------------------------------------------------
  alpha Z        PSCENC =       751.52672365
  Ewald energy   TEWEN  =    -22871.39982569
  -Hartree energ DENC   =     -9078.05675631
  -exchange      EXHF   =         0.00000000
  -V(xc)+E(xc)   XCENC  =      1472.51059796
  PAW double counting   =     29499.05263109   -32318.42467556
  entropy T*S    EENTRO =        -0.00000000
  eigenvalues    EBANDS =     -5211.28972320
  atomic energy  EATOM  =     37532.17946992
  Solvation  Ediel_sol  =         0.00000000
  ---------------------------------------------------
  free energy    TOTEN  =      -223.90155812 eV

  energy without entropy =     -223.90155812  energy(sigma->0) =     -223.90155812


--------------------------------------------------------------------------------------------------------




--------------------------------------- Iteration      1(  14)  ---------------------------------------


    POTLOK:  cpu time      0.0356: real time      0.0358
    SETDIJ:  cpu time      0.0299: real time      0.0300
     EDDAV:  cpu time      8.6105: real time      8.6559
       DOS:  cpu time      0.0005: real time      0.0005
    CHARGE:  cpu time      0.2700: real time      0.2714
    MIXING:  cpu time      0.0014: real time      0.0014
    --------------------------------------------
      LOOP:  cpu time      8.9479: real time      8.9950

 eigenvalue-minimisations  :  4160
 total energy-change (2. order) :-0.1534019E-05  (-0.1819012E-06)
 number of electron     448.0000022 magnetization 
 augmentation part      112.8477383 magnetization 

 Broyden mixing:
  rms(total) = 0.81937E-03    rms(broyden)= 0.81935E-03
  rms(prec ) = 0.83729E-03
  weight for this iteration     100.00

 eigenvalues of (default mixing * dielectric matrix)
  average eigenvalue GAMMA=   1.6576
  3.0346  2.6015  2.6015  1.4235  1.2391  1.2391  0.9714  0.9714  0.8358

 Free energy of the ion-electron system (eV)
  ---------------------------------------------------
  alpha Z        PSCENC =       751.52672365
  Ewald energy   TEWEN  =    -22871.39982569
  -Hartree energ DENC   =     -9078.07099239
  -exchange      EXHF   =         0.00000000
  -V(xc)+E(xc)   XCENC  =      1472.51225649
  PAW double counting   =     29499.96499775   -32319.33300995
  entropy T*S    EENTRO =        -0.00000000
  eigenvalues    EBANDS =     -5211.28117944
  atomic energy  EATOM  =     37532.17946992
  Solvation  Ediel_sol  =         0.00000000
  ---------------------------------------------------
  free energy    TOTEN  =      -223.90155966 eV

  energy without entropy =     -223.90155966  energy(sigma->0) =     -223.90155966


--------------------------------------------------------------------------------------------------------




--------------------------------------- Iteration      1(  15)  ---------------------------------------


    POTLOK:  cpu time      0.0360: real time      0.0406
    SETDIJ:  cpu time      0.0301: real time      0.0302
     EDDAV:  cpu time      8.3147: real time      8.3583
       DOS:  cpu time      0.0005: real time      0.0005
    CHARGE:  cpu time      0.2684: real time      0.2698
    MIXING:  cpu time      0.0014: real time      0.0014
    --------------------------------------------
      LOOP:  cpu time      8.6512: real time      8.7008

 eigenvalue-minimisations  :  4000
 total energy-change (2. order) :-0.1276683E-05  (-0.3807222E-07)
 number of electron     448.0000022 magnetization 
 augmentation part      112.8477929 magnetization 

 Broyden mixing:
  rms(total) = 0.28894E-03    rms(broyden)= 0.28894E-03
  rms(prec ) = 0.29762E-03
  weight for this iteration     100.00

 eigenvalues of (default mixing * dielectric matrix)
  average eigenvalue GAMMA=   1.6091
  3.0972  2.7542  2.4240  1.4347  1.3079  1.3079  0.9765  0.9765  0.9319  0.8803

 Free energy of the ion-electron system (eV)
  ---------------------------------------------------
  alpha Z        PSCENC =       751.52672365
  Ewald energy   TEWEN  =    -22871.39982569
  -Hartree energ DENC   =     -9078.09540650
  -exchange      EXHF   =         0.00000000
  -V(xc)+E(xc)   XCENC  =      1472.51263436
  PAW double counting   =     29498.84535970   -32318.20975781
  entropy T*S    EENTRO =        -0.00000000
  eigenvalues    EBANDS =     -5211.26075857
  atomic energy  EATOM  =     37532.17946992
  Solvation  Ediel_sol  =         0.00000000
  ---------------------------------------------------
  free energy    TOTEN  =      -223.90156093 eV

  energy without entropy =     -223.90156093  energy(sigma->0) =     -223.90156093


--------------------------------------------------------------------------------------------------------




--------------------------------------- Iteration      1(  16)  ---------------------------------------


    POTLOK:  cpu time      0.0356: real time      0.0371
    SETDIJ:  cpu time      0.0302: real time      0.0303
     EDDAV:  cpu time      8.6987: real time      8.7445
       DOS:  cpu time      0.0004: real time      0.0004
    CHARGE:  cpu time      0.2715: real time      0.2731
    MIXING:  cpu time      0.0018: real time      0.0018
    --------------------------------------------
      LOOP:  cpu time      9.0383: real time      9.0872

 eigenvalue-minimisations  :  4224
 total energy-change (2. order) :-0.4392641E-06  (-0.9124265E-08)
 number of electron     448.0000022 magnetization 
 augmentation part      112.8478469 magnetization 

 Broyden mixing:
  rms(total) = 0.55562E-04    rms(broyden)= 0.55549E-04
  rms(prec ) = 0.61689E-04
  weight for this iteration     100.00

 eigenvalues of (default mixing * dielectric matrix)
  average eigenvalue GAMMA=   1.5865
  3.1073  2.7374  2.4021  1.4561  1.3200  1.3200  1.2115  1.2115  0.8942  0.8942
  0.8966

 Free energy of the ion-electron system (eV)
  ---------------------------------------------------
  alpha Z        PSCENC =       751.52672365
  Ewald energy   TEWEN  =    -22871.39982569
  -Hartree energ DENC   =     -9078.10354120
  -exchange      EXHF   =         0.00000000
  -V(xc)+E(xc)   XCENC  =      1472.51294286
  PAW double counting   =     29498.33018679   -32317.69432422
  entropy T*S    EENTRO =        -0.00000000
  eigenvalues    EBANDS =     -5211.25319349
  atomic energy  EATOM  =     37532.17946992
  Solvation  Ediel_sol  =         0.00000000
  ---------------------------------------------------
  free energy    TOTEN  =      -223.90156137 eV

  energy without entropy =     -223.90156137  energy(sigma->0) =     -223.90156137


--------------------------------------------------------------------------------------------------------




--------------------------------------- Iteration      1(  17)  ---------------------------------------


    POTLOK:  cpu time      0.0358: real time      0.0361
    SETDIJ:  cpu time      0.0302: real time      0.0304
     EDDAV:  cpu time      6.3925: real time      6.4261
       DOS:  cpu time      0.0004: real time      0.0004
    CHARGE:  cpu time      0.2673: real time      0.2686
    MIXING:  cpu time      0.0014: real time      0.0014
    --------------------------------------------
      LOOP:  cpu time      6.7277: real time      6.7630

 eigenvalue-minimisations  :  2784
 total energy-change (2. order) :-0.4243338E-07  (-0.9602159E-09)
 number of electron     448.0000022 magnetization 
 augmentation part      112.8478580 magnetization 

 Broyden mixing:
  rms(total) = 0.12768E-04    rms(broyden)= 0.12744E-04
  rms(prec ) = 0.19099E-04
  weight for this iteration     100.00

 eigenvalues of (default mixing * dielectric matrix)
  average eigenvalue GAMMA=   1.6048
  3.1877  2.8899  2.1908  2.1908  1.3052  1.3052  1.2273  1.2273  0.9510  0.8699
  0.9564  0.9564

 Free energy of the ion-electron system (eV)
  ---------------------------------------------------
  alpha Z        PSCENC =       751.52672365
  Ewald energy   TEWEN  =    -22871.39982569
  -Hartree energ DENC   =     -9078.10615874
  -exchange      EXHF   =         0.00000000
  -V(xc)+E(xc)   XCENC  =      1472.51306459
  PAW double counting   =     29498.22749192   -32317.59165612
  entropy T*S    EENTRO =        -0.00000000
  eigenvalues    EBANDS =     -5211.25067095
  atomic energy  EATOM  =     37532.17946992
  Solvation  Ediel_sol  =         0.00000000
  ---------------------------------------------------
  free energy    TOTEN  =      -223.90156142 eV

  energy without entropy =     -223.90156142  energy(sigma->0) =     -223.90156142


--------------------------------------------------------------------------------------------------------




--------------------------------------- Iteration      1(  18)  ---------------------------------------


    POTLOK:  cpu time      0.0355: real time      0.0358
    SETDIJ:  cpu time      0.0301: real time      0.0302
     EDDAV:  cpu time      6.1772: real time      6.2095
       DOS:  cpu time      0.0005: real time      0.0005
    CHARGE:  cpu time      0.2688: real time      0.2701
    MIXING:  cpu time      0.0024: real time      0.0024
    --------------------------------------------
      LOOP:  cpu time      6.5145: real time      6.5486

 eigenvalue-minimisations  :  2656
 total energy-change (2. order) :-0.5048787E-07  (-0.5747533E-09)
 number of electron     448.0000022 magnetization 
 augmentation part      112.8478645 magnetization 

 Broyden mixing:
  rms(total) = 0.39861E-04    rms(broyden)= 0.39854E-04
  rms(prec ) = 0.41682E-04
  weight for this iteration     100.00

 eigenvalues of (default mixing * dielectric matrix)
  average eigenvalue GAMMA=   1.5786
  3.2066  2.8991  2.2897  2.2897  1.1801  1.1801  1.2018  1.2018  1.2510  1.1467
  0.9436  0.8661  0.8661

 Free energy of the ion-electron system (eV)
  ---------------------------------------------------
  alpha Z        PSCENC =       751.52672365
  Ewald energy   TEWEN  =    -22871.39982569
  -Hartree energ DENC   =     -9078.10829838
  -exchange      EXHF   =         0.00000000
  -V(xc)+E(xc)   XCENC  =      1472.51314327
  PAW double counting   =     29498.16238722   -32317.52642176
  entropy T*S    EENTRO =        -0.00000000
  eigenvalues    EBANDS =     -5211.24873971
  atomic energy  EATOM  =     37532.17946992
  Solvation  Ediel_sol  =         0.00000000
  ---------------------------------------------------
  free energy    TOTEN  =      -223.90156147 eV

  energy without entropy =     -223.90156147  energy(sigma->0) =     -223.90156147


--------------------------------------------------------------------------------------------------------




--------------------------------------- Iteration      1(  19)  ---------------------------------------


    POTLOK:  cpu time      0.0361: real time      0.0365
    SETDIJ:  cpu time      0.0300: real time      0.0303
     EDDAV:  cpu time      5.6977: real time      5.7273
       DOS:  cpu time      0.0005: real time      0.0005
    CHARGE:  cpu time      0.2681: real time      0.2696
    MIXING:  cpu time      0.0015: real time      0.0016
    --------------------------------------------
      LOOP:  cpu time      6.0339: real time      6.0658

 eigenvalue-minimisations  :  2368
 total energy-change (2. order) : 0.4174944E-07  (-0.3251164E-09)
 number of electron     448.0000022 magnetization 
 augmentation part      112.8478662 magnetization 

 Broyden mixing:
  rms(total) = 0.23695E-04    rms(broyden)= 0.23685E-04
  rms(prec ) = 0.24916E-04
  weight for this iteration     100.00

 eigenvalues of (default mixing * dielectric matrix)
  average eigenvalue GAMMA=   1.6547
  3.5019  2.9428  2.4504  2.4504  1.7037  1.7037  1.1923  1.1923  1.1764  1.1764
  0.9901  0.8523  0.9167  0.9167

 Free energy of the ion-electron system (eV)
  ---------------------------------------------------
  alpha Z        PSCENC =       751.52672365
  Ewald energy   TEWEN  =    -22871.39982569
  -Hartree energ DENC   =     -9078.10783496
  -exchange      EXHF   =         0.00000000
  -V(xc)+E(xc)   XCENC  =      1472.51312994
  PAW double counting   =     29498.20176584   -32317.56565537
  entropy T*S    EENTRO =        -0.00000000
  eigenvalues    EBANDS =     -5211.24933476
  atomic energy  EATOM  =     37532.17946992
  Solvation  Ediel_sol  =         0.00000000
  ---------------------------------------------------
  free energy    TOTEN  =      -223.90156142 eV

  energy without entropy =     -223.90156142  energy(sigma->0) =     -223.90156142


--------------------------------------------------------------------------------------------------------




--------------------------------------- Iteration      1(  20)  ---------------------------------------


    POTLOK:  cpu time      0.0356: real time      0.0358
    SETDIJ:  cpu time      0.0302: real time      0.0303
     EDDAV:  cpu time      5.8625: real time      5.8931
       DOS:  cpu time      0.0005: real time      0.0005
    CHARGE:  cpu time      0.2667: real time      0.2683
    MIXING:  cpu time      0.0015: real time      0.0015
    --------------------------------------------
      LOOP:  cpu time      6.1970: real time      6.2295

 eigenvalue-minimisations  :  2464
 total energy-change (2. order) : 0.4294998E-07  (-0.1906531E-09)
 number of electron     448.0000022 magnetization 
 augmentation part      112.8478614 magnetization 

 Broyden mixing:
  rms(total) = 0.10998E-04    rms(broyden)= 0.10976E-04
  rms(prec ) = 0.11474E-04
  weight for this iteration     100.00

 eigenvalues of (default mixing * dielectric matrix)
  average eigenvalue GAMMA=   1.6496
  3.9125  3.0118  2.7522  2.3894  1.5745  1.5745  1.2685  1.2685  1.2448  1.0877
  1.0877  0.9595  0.9595  0.8267  0.8267

 Free energy of the ion-electron system (eV)
  ---------------------------------------------------
  alpha Z        PSCENC =       751.52672365
  Ewald energy   TEWEN  =    -22871.39982569
  -Hartree energ DENC   =     -9078.10704215
  -exchange      EXHF   =         0.00000000
  -V(xc)+E(xc)   XCENC  =      1472.51308485
  PAW double counting   =     29498.22888581   -32317.59275598
  entropy T*S    EENTRO =        -0.00000000
  eigenvalues    EBANDS =     -5211.25010180
  atomic energy  EATOM  =     37532.17946992
  Solvation  Ediel_sol  =         0.00000000
  ---------------------------------------------------
  free energy    TOTEN  =      -223.90156138 eV

  energy without entropy =     -223.90156138  energy(sigma->0) =     -223.90156138


--------------------------------------------------------------------------------------------------------




--------------------------------------- Iteration      1(  21)  ---------------------------------------


    POTLOK:  cpu time      0.0359: real time      0.0370
    SETDIJ:  cpu time      0.0300: real time      0.0302
     EDDAV:  cpu time      5.5406: real time      5.5696
       DOS:  cpu time      0.0004: real time      0.0004
    CHARGE:  cpu time      0.2676: real time      0.2692
    MIXING:  cpu time      0.0017: real time      0.0017
    --------------------------------------------
      LOOP:  cpu time      5.8762: real time      5.9080

 eigenvalue-minimisations  :  2272
 total energy-change (2. order) : 0.1210719E-07  (-0.1064941E-09)
 number of electron     448.0000022 magnetization 
 augmentation part      112.8478605 magnetization 

 Broyden mixing:
  rms(total) = 0.57866E-05    rms(broyden)= 0.57456E-05
  rms(prec ) = 0.61163E-05
  weight for this iteration     100.00

 eigenvalues of (default mixing * dielectric matrix)
  average eigenvalue GAMMA=   1.6205
  4.0772  3.0222  2.8105  2.3529  1.6316  1.6316  1.3050  1.3050  1.2032  1.0860
  1.0860  0.9345  0.9345  0.8155  0.8664  0.8664

 Free energy of the ion-electron system (eV)
  ---------------------------------------------------
  alpha Z        PSCENC =       751.52672365
  Ewald energy   TEWEN  =    -22871.39982569
  -Hartree energ DENC   =     -9078.10679328
  -exchange      EXHF   =         0.00000000
  -V(xc)+E(xc)   XCENC  =      1472.51307991
  PAW double counting   =     29498.24150349   -32317.60540520
  entropy T*S    EENTRO =        -0.00000000
  eigenvalues    EBANDS =     -5211.25031417
  atomic energy  EATOM  =     37532.17946992
  Solvation  Ediel_sol  =         0.00000000
  ---------------------------------------------------
  free energy    TOTEN  =      -223.90156137 eV

  energy without entropy =     -223.90156137  energy(sigma->0) =     -223.90156137


--------------------------------------------------------------------------------------------------------




--------------------------------------- Iteration      1(  22)  ---------------------------------------


    POTLOK:  cpu time      0.0354: real time      0.0357
    SETDIJ:  cpu time      0.0302: real time      0.0303
     EDDAV:  cpu time      5.5918: real time      5.6209
       DOS:  cpu time      0.0003: real time      0.0003
    --------------------------------------------
      LOOP:  cpu time      5.6578: real time      5.6872

 eigenvalue-minimisations  :  2304
 total energy-change (2. order) : 0.2073648E-08  (-0.3680059E-10)
 number of electron     448.0000022 magnetization 
 augmentation part      112.8478605 magnetization 

 Free energy of the ion-electron system (eV)
  ---------------------------------------------------
[...]
         0         1         2         3         4         5         6         7         8         9
 total charge-density along one line
 
 pseudopotential strength for first ion, spin component:           1
-25.389  -0.000  -0.000   2.511   0.000   0.000   0.000   0.000
 -0.000 -25.389  -0.000   0.000   2.511   0.000   0.000   0.000
 -0.000  -0.000 -25.389   0.000   0.000   2.511   0.000   0.000
  2.511   0.000   0.000   6.528  -0.000  -0.000  -0.000   0.000
  0.000   2.511   0.000  -0.000   6.528  -0.000  -0.000   0.000
  0.000   0.000   2.511  -0.000  -0.000   6.528   0.000   0.000
  0.000   0.000   0.000  -0.000  -0.000   0.000   1.428   6.993
  0.000   0.000   0.000   0.000   0.000   0.000   6.993  33.989
 total augmentation occupancy for first ion, spin component:           1
  2.002   0.000   0.000   0.002   0.000   0.000  -0.000   0.000
  0.000   2.002   0.000   0.000   0.002   0.000  -0.000   0.000
  0.000   0.000   2.002   0.000   0.000   0.002  -0.000   0.000
  0.002   0.000   0.000   0.017   0.000   0.000  -0.000  -0.000
  0.000   0.002   0.000   0.000   0.017   0.000  -0.000  -0.000
  0.000   0.000   0.002   0.000   0.000   0.017   0.000  -0.000
 -0.000  -0.000  -0.000  -0.000  -0.000   0.000   0.403  -0.001
  0.000   0.000   0.000  -0.000  -0.000  -0.000  -0.001   0.000


------------------------ aborting loop because EDIFF is reached ----------------------------------------


    CHARGE:  cpu time      0.2673: real time      0.2689
    FORLOC:  cpu time      0.0116: real time      0.0117
    FORNL :  cpu time      1.7317: real time      1.7413
    STRESS:  cpu time      9.6491: real time      9.6961
    FORCOR:  cpu time      0.0432: real time      0.0433
    FORHAR:  cpu time      0.0171: real time      0.0171
    MIXING:  cpu time      0.0013: real time      0.0014
    OFIELD:  cpu time      0.0000: real time      0.0000

  FORCE on cell =-STRESS in cart. coord.  units (eV):
  Direction    XX          YY          ZZ          XY          YZ          ZX
  --------------------------------------------------------------------------------------
  Alpha Z   751.52672   751.52672   751.52672
  Ewald   -7623.74468 -7623.89624 -7623.89624     0.00000     0.00000     0.00000
  Hartree  3026.06951  3026.01862  3026.01862    -0.00000    -0.00000    -0.00000
  E(xc)   -2014.34767 -2014.34774 -2014.34774     0.00000     0.00000     0.00000
  Local   -2024.98368 -2024.78612 -2024.78612     0.00000     0.00000     0.00000
  n-local  1887.62563  1887.51915  1887.72146    -0.00000     0.00000     0.00000
  augment   687.00953   687.00963   687.00932    -0.00000    -0.00010    -0.00010
  Kinetic  5310.52296  5310.26773  5310.77842    -0.00000     0.00000     0.00000
  Fock        0.00000     0.00000     0.00000     0.00000     0.00000     0.00000
  -------------------------------------------------------------------------------------
  Total      -0.32168    -0.33190    -0.33190    -0.00000     0.00000     0.00000
  in kB      -0.36645    -0.37810    -0.37810    -0.00000     0.00000     0.00000
  external pressure =       -0.37 kB  Pullay stress =        0.00 kB


 VOLUME and BASIS-vectors are now :
 -----------------------------------------------------------------------------
  energy-cutoff  :      341.21
  volume of cell :     1406.43
      direct lattice vectors                 reciprocal lattice vectors
    11.204002360  0.000000000  0.000000000     0.089253819  0.000000000  0.000000000
     0.000000000 11.204002360  0.000000000     0.000000000  0.089253819  0.000000000
     0.000000000  0.000000000 11.204002360     0.000000000  0.000000000  0.089253819

  length of vectors
    11.204002360 11.204002360 11.204002360     0.089253819  0.089253819  0.089253819


 FORCES acting on ions
    electron-ion (+dipol)            ewald-force                    non-local-force                 convergence-correction
 -----------------------------------------------------------------------------------------------
   -.654E-01 -.166E+00 -.166E+00   0.646E-01 0.159E+00 0.159E+00   0.509E-03 0.603E-02 0.603E-02   0.446E-07 -.178E-05 -.178E-05
   0.961E+00 0.269E-12 -.159E-01   -.918E+00 0.888E-14 0.153E-01   -.376E-01 0.153E-25 0.772E-03   0.269E-05 0.735E-13 -.266E-06
   0.961E+00 -.159E-01 -.374E-09   -.918E+00 0.153E-01 0.142E-13   -.376E-01 0.772E-03 0.145E-24   0.269E-05 -.266E-06 0.167E-12
   -.212E+01 0.300E-12 0.846E-06   0.200E+01 -.142E-13 -.711E-14   0.139E+00 -.155E-23 -.164E-23   0.571E-06 0.614E-13 0.183E-12
   -.654E-01 -.166E+00 0.166E+00   0.646E-01 0.159E+00 -.159E+00   0.509E-03 0.603E-02 -.603E-02   0.446E-07 -.178E-05 0.178E-05
   0.961E+00 0.321E-12 0.159E-01   -.918E+00 0.000E+00 -.153E-01   -.376E-01 0.130E-24 -.772E-03   0.269E-05 0.641E-13 0.266E-06
   0.113E+00 -.387E-03 0.420E-12   -.109E+00 0.398E-03 0.888E-15   -.273E-02 -.102E-04 -.897E-25   0.640E-08 0.384E-06 -.232E-13
   -.175E-01 0.302E-12 -.529E-08   0.185E-01 0.124E-13 -.178E-14   -.850E-03 0.182E-25 0.676E-25   -.124E-06 0.726E-13 -.330E-13
   -.654E-01 0.166E+00 -.166E+00   0.646E-01 -.159E+00 0.159E+00   0.509E-03 -.603E-02 0.603E-02   0.446E-07 0.178E-05 -.178E-05
   0.113E+00 0.227E-11 -.387E-03   -.109E+00 0.133E-14 0.398E-03   -.273E-02 -.455E-25 -.102E-04   0.640E-08 0.172E-13 0.384E-06
   0.961E+00 0.159E-01 -.374E-09   -.918E+00 -.153E-01 0.142E-13   -.376E-01 -.772E-03 -.512E-25   0.269E-05 0.266E-06 0.161E-12
   -.175E-01 0.103E-11 -.115E-09   0.185E-01 0.142E-13 0.711E-14   -.850E-03 0.536E-25 0.313E-25   -.124E-06 0.156E-13 0.172E-12
   -.654E-01 0.166E+00 0.166E+00   0.646E-01 -.159E+00 -.159E+00   0.509E-03 -.603E-02 -.603E-02   0.446E-07 0.178E-05 0.178E-05
   0.113E+00 0.316E-12 0.387E-03   -.109E+00 -.107E-13 -.398E-03   -.273E-02 0.589E-25 0.102E-04   0.640E-08 0.209E-13 -.384E-06
   0.113E+00 0.387E-03 0.375E-12   -.109E+00 -.398E-03 0.178E-14   -.273E-02 0.102E-04 -.444E-25   0.640E-08 -.384E-06 -.166E-13
   -.275E-02 0.103E-11 -.238E-11   0.273E-02 0.231E-13 0.178E-14   0.208E-04 0.151E-24 -.521E-25   -.170E-06 0.254E-14 -.291E-13
   -.620E-01 0.168E+00 0.168E+00   0.614E-01 -.161E+00 -.161E+00   0.402E-03 -.608E-02 -.608E-02   -.759E-07 0.157E-05 0.157E-05
   -.300E+00 -.400E-11 0.159E-02   0.281E+00 0.178E-14 -.158E-02   0.156E-01 0.864E-26 -.934E-05   -.284E-05 0.812E-13 -.265E-06
   -.300E+00 0.159E-02 -.373E-09   0.281E+00 -.158E-02 0.142E-13   0.156E-01 -.934E-05 -.876E-25   -.284E-05 -.265E-06 0.170E-12
   -.218E+01 -.404E-11 0.849E-06   0.206E+01 0.533E-14 0.711E-14   0.143E+00 -.318E-23 -.371E-23   -.389E-06 0.428E-13 0.161E-12
   -.620E-01 0.168E+00 -.168E+00   0.614E-01 -.161E+00 0.161E+00   0.402E-03 -.608E-02 0.608E-02   -.759E-07 0.157E-05 -.157E-05
   -.300E+00 -.316E-11 -.159E-02   0.281E+00 0.000E+00 0.158E-02   0.156E-01 0.813E-25 0.934E-05   -.284E-05 0.756E-13 0.265E-06
   -.971E-01 0.290E-03 -.142E-11   0.935E-01 -.274E-03 0.178E-14   0.295E-02 -.138E-04 0.287E-24   -.629E-07 0.444E-06 -.348E-13
   -.151E-01 -.791E-12 -.529E-08   0.162E-01 0.888E-14 -.533E-14   -.932E-03 -.781E-25 -.112E-25   0.170E-07 0.574E-13 -.373E-13
   -.620E-01 -.168E+00 0.168E+00   0.614E-01 0.161E+00 -.161E+00   0.402E-03 0.608E-02 -.608E-02   -.759E-07 -.157E-05 0.157E-05
   -.971E-01 -.685E-11 0.290E-03   0.935E-01 0.000E+00 -.274E-03   0.295E-02 0.222E-24 -.138E-04   -.629E-07 0.220E-13 0.444E-06
   -.300E+00 -.159E-02 -.373E-09   0.281E+00 0.158E-02 0.142E-13   0.156E-01 0.934E-05 -.279E-26   -.284E-05 0.265E-06 0.156E-12
   -.151E-01 0.252E-11 -.115E-09   0.162E-01 0.231E-13 0.711E-14   -.932E-03 -.103E-25 -.512E-25   0.170E-07 0.287E-13 0.148E-12
   -.620E-01 -.168E+00 -.168E+00   0.614E-01 0.161E+00 0.161E+00   0.402E-03 0.608E-02 0.608E-02   -.759E-07 -.157E-05 -.157E-05
   -.971E-01 -.811E-11 -.290E-03   0.935E-01 -.142E-13 0.274E-03   0.295E-02 -.443E-25 0.138E-04   -.629E-07 0.256E-13 -.444E-06
   -.971E-01 -.290E-03 -.267E-11   0.935E-01 0.274E-03 0.000E+00   0.295E-02 0.138E-04 -.180E-24   -.629E-07 -.444E-06 -.328E-13
   -.160E-02 0.120E-11 -.286E-12   0.163E-02 0.888E-14 -.533E-14   -.220E-04 -.226E-25 -.143E-25   -.941E-07 0.176E-13 -.149E-13
   0.402E+01 -.780E-12 -.377E-05   -.397E+01 0.258E-13 0.266E-14   -.121E+00 -.752E-23 -.902E-23   0.559E-05 0.298E-13 0.184E-12
   -.256E+00 -.478E+00 0.104E-09   0.250E+00 0.470E+00 -.115E-13   0.921E-02 0.137E-01 -.323E-24   -.560E-06 -.963E-06 0.192E-12
   -.256E+00 -.749E-12 -.478E+00   0.250E+00 -.888E-14 0.470E+00   0.921E-02 -.234E-24 0.137E-01   -.560E-06 0.500E-13 -.963E-06
   0.312E+00 -.263E-02 -.263E-02   -.308E+00 0.259E-02 0.259E-02   -.589E-02 0.715E-04 0.715E-04   0.300E-05 0.213E-07 0.213E-07
   0.166E+00 -.687E-12 -.792E-09   -.163E+00 -.346E-13 -.169E-13   -.392E-02 -.732E-26 -.384E-24   0.315E-05 0.443E-13 -.802E-14
   -.871E-02 -.399E-01 0.323E-11   0.877E-02 0.391E-01 -.124E-13   -.862E-04 0.143E-02 0.248E-24   -.100E-06 -.143E-05 -.834E-14
   -.256E+00 -.747E-12 0.478E+00   0.250E+00 0.711E-14 -.470E+00   0.921E-02 0.428E-24 -.137E-01   -.560E-06 0.478E-13 0.963E-06
   0.312E+00 -.263E-02 0.263E-02   -.308E+00 0.259E-02 -.259E-02   -.589E-02 0.715E-04 -.715E-04   0.300E-05 0.213E-07 -.213E-07
   0.166E+00 -.525E-12 -.311E-11   -.163E+00 -.346E-13 -.133E-13   -.392E-02 -.517E-24 -.499E-25   0.315E-05 0.350E-14 0.167E-12
   -.256E+00 0.478E+00 0.104E-09   0.250E+00 -.470E+00 -.107E-13   0.921E-02 -.137E-01 0.525E-24   -.560E-06 0.963E-06 0.187E-12
   -.871E-02 -.678E-12 -.399E-01   0.877E-02 0.231E-13 0.391E-01   -.862E-04 -.802E-24 0.143E-02   -.100E-06 -.147E-13 -.143E-05
   0.312E+00 0.263E-02 -.263E-02   -.308E+00 -.259E-02 0.259E-02   -.589E-02 -.715E-04 0.715E-04   0.300E-05 -.213E-07 0.213E-07
   0.682E-01 -.587E-12 0.973E-12   -.674E-01 -.187E-13 -.151E-13   -.132E-02 0.894E-26 0.616E-25   -.484E-06 -.105E-13 0.151E-13
   -.871E-02 0.399E-01 0.302E-11   0.877E-02 -.391E-01 -.107E-13   -.862E-04 -.143E-02 0.393E-24   -.100E-06 0.143E-05 -.945E-14
   -.871E-02 -.883E-12 0.399E-01   0.877E-02 0.178E-13 -.391E-01   -.862E-04 0.125E-24 -.143E-02   -.100E-06 -.119E-13 0.143E-05
   0.312E+00 0.263E-02 0.263E-02   -.308E+00 -.259E-02 -.259E-02   -.589E-02 -.715E-04 -.715E-04   0.300E-05 -.213E-07 -.213E-07
   -.522E+00 -.966E-12 0.852E-06   0.516E+00 -.284E-13 -.107E-13   0.959E-02 -.197E-24 -.191E-25   -.509E-05 0.306E-13 0.189E-12
   -.252E+00 0.487E+00 0.987E-10   0.247E+00 -.479E+00 -.124E-13   0.930E-02 -.140E-01 0.598E-24   -.569E-06 0.207E-05 0.176E-12
   -.252E+00 -.601E-11 0.487E+00   0.247E+00 -.711E-14 -.479E+00   0.930E-02 0.402E-24 -.140E-01   -.569E-06 0.271E-13 0.207E-05
   -.176E+00 0.782E-03 0.782E-03   0.173E+00 -.777E-03 -.777E-03   0.392E-02 -.780E-05 -.780E-05   -.259E-05 0.204E-06 0.204E-06
   -.131E+00 -.524E-11 -.795E-09   0.128E+00 -.355E-13 -.107E-13   0.495E-02 0.215E-25 0.124E-24   -.300E-05 0.364E-13 -.626E-14
   -.702E-02 0.401E-01 0.922E-11   0.709E-02 -.392E-01 -.178E-14   -.125E-03 -.145E-02 0.142E-24   0.607E-07 0.135E-05 0.782E-14
   -.252E+00 -.120E-11 -.487E+00   0.247E+00 0.711E-14 0.479E+00   0.930E-02 0.432E-24 0.140E-01   -.569E-06 0.239E-13 -.207E-05
   -.176E+00 0.782E-03 -.782E-03   0.173E+00 -.777E-03 0.777E-03   0.392E-02 -.780E-05 0.780E-05   -.259E-05 0.204E-06 -.204E-06
   -.131E+00 -.656E-11 -.234E-11   0.128E+00 -.213E-13 -.107E-13   0.495E-02 -.382E-25 0.819E-25   -.300E-05 -.758E-14 0.177E-12
   -.252E+00 -.487E+00 0.104E-09   0.247E+00 0.479E+00 -.107E-13   0.930E-02 0.140E-01 -.126E-23   -.569E-06 -.207E-05 0.169E-12
   -.702E-02 0.265E-11 0.401E-01   0.709E-02 0.160E-13 -.392E-01   -.125E-03 0.399E-25 -.145E-02   0.607E-07 0.927E-15 0.135E-05
   -.176E+00 -.782E-03 0.782E-03   0.173E+00 0.777E-03 -.777E-03   0.392E-02 0.780E-05 -.780E-05   -.259E-05 -.204E-06 0.204E-06
   -.639E-01 -.469E-11 -.239E-11   0.630E-01 -.213E-13 -.355E-14   0.135E-02 -.171E-24 -.106E-24   0.427E-07 -.146E-13 0.350E-14
   -.702E-02 -.401E-01 0.547E-11   0.709E-02 0.392E-01 -.355E-14   -.125E-03 0.145E-02 0.937E-26   0.607E-07 -.135E-05 0.946E-14
   -.702E-02 -.100E-11 -.401E-01   0.709E-02 0.107E-13 0.392E-01   -.125E-03 -.490E-24 0.145E-02   0.607E-07 0.346E-14 -.135E-05
   -.176E+00 -.782E-03 -.782E-03   0.173E+00 0.777E-03 0.777E-03   0.392E-02 0.780E-05 0.780E-05   -.259E-05 -.204E-06 -.204E-06
 -----------------------------------------------------------------------------------------------
   -.150E+00 -.297E-10 -.126E-05   0.182E-13 -.566E-14 -.488E-13   0.150E+00 0.278E-18 -.167E-17   -.391E-05 0.393E-13 -.151E-11
 
 
 POSITION                                       TOTAL-FORCE (eV/Angst)
 -----------------------------------------------------------------------------------
      0.00000      0.00000      0.00000        -0.000236     -0.001290     -0.001290
      2.80100      2.80100      0.00000         0.005012     -0.000000      0.000092
      2.80100      0.00000      2.80100         0.005012      0.000092     -0.000000
      0.00000      2.80100      2.80100         0.016207     -0.000000     -0.000000
      0.00000      0.00000      5.60200        -0.000236     -0.001290      0.001290
      2.80100      2.80100      5.60200         0.005012     -0.000000     -0.000092
      2.80100      0.00000      8.40300         0.000607      0.000002     -0.000000
      0.00000      2.80100      8.40300         0.000151     -0.000000     -0.000000
      0.00000      5.60200      0.00000        -0.000236      0.001290     -0.001290
      2.80100      8.40300      0.00000         0.000607     -0.000000      0.000002
      2.80100      5.60200      2.80100         0.005012     -0.000092     -0.000000
      0.00000      8.40300      2.80100         0.000151     -0.000000     -0.000000
      0.00000      5.60200      5.60200        -0.000236      0.001290      0.001290
      2.80100      8.40300      5.60200         0.000607     -0.000000     -0.000002
      2.80100      5.60200      8.40300         0.000607     -0.000002     -0.000000
      0.00000      8.40300      8.40300        -0.000004     -0.000000     -0.000000
      5.60200      0.00000      0.00000        -0.000213      0.001299      0.001299
      8.40300      2.80100      0.00000        -0.002835     -0.000000      0.000003
      8.40300      0.00000      2.80100        -0.002835      0.000003     -0.000000
      5.60200      2.80100      2.80100         0.020276     -0.000000     -0.000000
      5.60200      0.00000      5.60200        -0.000213      0.001299     -0.001299
      8.40300      2.80100      5.60200        -0.002835     -0.000000     -0.000003
      8.40300      0.00000      8.40300        -0.000670      0.000003     -0.000000
      5.60200      2.80100      8.40300         0.000167     -0.000000     -0.000000
      5.60200      5.60200      0.00000        -0.000213     -0.001299      0.001299
      8.40300      8.40300      0.00000        -0.000670     -0.000000      0.000003
      8.40300      5.60200      2.80100        -0.002835     -0.000003     -0.000000
      5.60200      8.40300      2.80100         0.000167     -0.000000     -0.000000
      5.60200      5.60200      5.60200        -0.000213     -0.001299     -0.001299
      8.40300      8.40300      5.60200        -0.000670     -0.000000     -0.000003
      8.40300      5.60200      8.40300        -0.000670     -0.000003     -0.000000
      5.60200      8.40300      8.40300         0.000005     -0.000000     -0.000000
      2.83100      2.80100      2.80100        -0.076049     -0.000000     -0.000000
      0.00000      0.00000      2.80100         0.003861      0.005735     -0.000000
      0.00000      2.80100      0.00000         0.003861     -0.000000      0.005735
      2.80100      0.00000      0.00000        -0.002338      0.000030      0.000030
      2.80100      2.80100      8.40300        -0.001550     -0.000000     -0.000000
      0.00000      0.00000      8.40300        -0.000037      0.000568     -0.000000
      0.00000      2.80100      5.60200         0.003861     -0.000000     -0.005735
      2.80100      0.00000      5.60200        -0.002338      0.000030     -0.000030
      2.80100      8.40300      2.80100        -0.001550     -0.000000     -0.000000
      0.00000      5.60200      2.80100         0.003861     -0.005735     -0.000000
      0.00000      8.40300      0.00000        -0.000037     -0.000000      0.000568
      2.80100      5.60200      0.00000        -0.002338     -0.000030      0.000030
      2.80100      8.40300      8.40300        -0.000520     -0.000000     -0.000000
      0.00000      5.60200      8.40300        -0.000037     -0.000568     -0.000000
      0.00000      8.40300      5.60200        -0.000037     -0.000000     -0.000568
      2.80100      5.60200      5.60200        -0.002338     -0.000030     -0.000030
      8.40300      2.80100      2.80100         0.003843     -0.000000     -0.000000
      5.60200      0.00000      2.80100         0.003918     -0.005884     -0.000000
      5.60200      2.80100      0.00000         0.003918     -0.000000     -0.005884
      8.40300      0.00000      0.00000         0.001548     -0.000003     -0.000003
      8.40300      2.80100      8.40300         0.001961     -0.000000     -0.000000
      5.60200      0.00000      8.40300        -0.000053     -0.000576     -0.000000
      5.60200      2.80100      5.60200         0.003918     -0.000000      0.005884
      8.40300      0.00000      5.60200         0.001548     -0.000003      0.000003
      8.40300      8.40300      2.80100         0.001961     -0.000000     -0.000000
      5.60200      5.60200      2.80100         0.003918      0.005884     -0.000000
      5.60200      8.40300      0.00000        -0.000053     -0.000000     -0.000576
      8.40300      5.60200      0.00000         0.001548      0.000003     -0.000003
      8.40300      8.40300      8.40300         0.000529     -0.000000     -0.000000
      5.60200      5.60200      8.40300        -0.000053      0.000576     -0.000000
      5.60200      8.40300      5.60200        -0.000053     -0.000000      0.000576
      8.40300      5.60200      5.60200         0.001548      0.000003      0.000003
 -----------------------------------------------------------------------------------
    total drift:                                0.000207     -0.000000     -0.000001


--------------------------------------------------------------------------------------------------------



  FREE ENERGIE OF THE ION-ELECTRON SYSTEM (eV)
  ---------------------------------------------------
  free  energy   TOTEN  =      -223.90156137 eV

  energy  without entropy=     -223.90156137  energy(sigma->0) =     -223.90156137
 


--------------------------------------------------------------------------------------------------------


    POTLOK:  cpu time      0.0687: real time      0.0690


--------------------------------------------------------------------------------------------------------


     LOOP+:  cpu time    191.2423: real time    192.2718
    4ORBIT:  cpu time      0.0000: real time      0.0000

 total amount of memory used by VASP MPI-rank0   118439. kBytes
=======================================================================

   base      :      30000. kBytes
   nonl-proj :      36470. kBytes
   fftplans  :      14405. kBytes
   grid      :      19342. kBytes
   one-center:        196. kBytes
   wavefun   :      18026. kBytes
 
  
  
 General timing and accounting informations for this job:
 ========================================================
  
                  Total CPU time used (sec):      194.796
                            User time (sec):      194.245
                          System time (sec):        0.550
                         Elapsed time (sec):      196.271
  
                   Maximum memory used (kb):      308184.
                   Average memory used (kb):          N/A
  
                          Minor page faults:       110399
                          Major page faults:            0
                 Voluntary context switches:          863
