<?xml version="1.0" encoding="ISO-8859-1"?>
<modeling>
 <generator>
  <i name="program" type="string">vasp </i>
  <i name="version" type="string">6.3.2  </i>
  <i name="subversion" type="string">27Jun22 (build Oct 14 2022 12:13:54) complex                          parallel </i>
  <i name="platform" type="string">LinuxIFC </i>
  <i name="date" type="string">2025 08 28 </i>
  <i name="time" type="string">22:07:57 </i>
 </generator>
 <incar>
  <i type="string" name="PREC">Accurate</i>
  <i type="int" name="IALGO">    38</i>
  <i type="logical" name="ADDGRID"> T  </i>
  <i type="int" name="NELMIN">     5</i>
  <i type="int" name="IBRION">    -1</i>
  <i name="EDIFF">      0.00000001</i>
  <i name="ENCUT">    341.21360000</i>
  <i type="logical" name="LREAL"> F  </i>
  <i type="int" name="ISMEAR">     0</i>
  <i name="SIGMA">      0.02000000</i>
  <i type="logical" name="LWAVE"> F  </i>
  <i type="logical" name="LCHARG"> F  </i>
  <i type="string" name="GGA">PS</i>
 </incar>
 <primitive_cell>
  <structure name="primitive_cell" >
   <crystal>
    <varray name="basis" >
     <v>      11.20400236       0.00000000       0.00000000 </v>
     <v>       0.00000000      11.20400236       0.00000000 </v>
     <v>       0.00000000       0.00000000      11.20400236 </v>
    </varray>
    <i name="volume">   1406.43470641 </i>
    <varray name="rec_basis" >
     <v>       0.08925382       0.00000000       0.00000000 </v>
     <v>       0.00000000       0.08925382       0.00000000 </v>
     <v>       0.00000000       0.00000000       0.08925382 </v>
    </varray>
   </crystal>
   <varray name="positions" >
    <v>       0.00000000       0.00000000       0.00000000 </v>
    <v>       0.25000000       0.25000000       0.00000000 </v>
    <v>       0.25000000       0.00000000       0.25000000 </v>
    <v>       0.00000000       0.25000000       0.25000000 </v>
    <v>       0.00000000       0.00000000       0.50000000 </v>
    <v>       0.25000000       0.25000000       0.50000000 </v>
    <v>       0.25000000       0.00000000       0.75000000 </v>
    <v>       0.00000000       0.25000000       0.75000000 </v>
    <v>       0.00000000       0.50000000       0.00000000 </v>
    <v>       0.25000000       0.75000000       0.00000000 </v>
    <v>       0.25000000       0.50000000       0.25000000 </v>
    <v>       0.00000000       0.75000000       0.25000000 </v>
    <v>       0.00000000       0.50000000       0.50000000 </v>
    <v>       0.25000000       0.75000000       0.50000000 </v>
    <v>       0.25000000       0.50000000       0.75000000 </v>
    <v>       0.00000000       0.75000000       0.75000000 </v>
    <v>       0.50000000       0.00000000       0.00000000 </v>
    <v>       0.75000000       0.25000000       0.00000000 </v>
    <v>       0.75000000       0.00000000       0.25000000 </v>
    <v>       0.50000000       0.25000000       0.25000000 </v>
    <v>       0.50000000       0.00000000       0.50000000 </v>
    <v>       0.75000000       0.25000000       0.50000000 </v>
    <v>       0.75000000       0.00000000       0.75000000 </v>
    <v>       0.50000000       0.25000000       0.75000000 </v>
    <v>       0.50000000       0.50000000       0.00000000 </v>
    <v>       0.75000000       0.75000000       0.00000000 </v>
    <v>       0.75000000       0.50000000       0.25000000 </v>
    <v>       0.50000000       0.75000000       0.25000000 </v>
    <v>       0.50000000       0.50000000       0.50000000 </v>
    <v>       0.75000000       0.75000000       0.50000000 </v>
    <v>       0.75000000       0.50000000       0.75000000 </v>
    <v>       0.50000000       0.75000000       0.75000000 </v>
    <v>       0.25267761       0.25000000       0.25000000 </v>
    <v>       0.00000000       0.00000000       0.25000000 </v>
    <v>       0.00000000       0.25000000       0.00000000 </v>
    <v>       0.25000000       0.00000000       0.00000000 </v>
    <v>       0.25000000       0.25000000       0.75000000 </v>
    <v>       0.00000000       0.00000000       0.75000000 </v>
    <v>       0.00000000       0.25000000       0.50000000 </v>
    <v>       0.25000000       0.00000000       0.50000000 </v>
    <v>       0.25000000       0.75000000       0.25000000 </v>
    <v>       0.00000000       0.50000000       0.25000000 </v>
    <v>       0.00000000       0.75000000       0.00000000 </v>
    <v>       0.25000000       0.50000000       0.00000000 </v>
    <v>       0.25000000       0.75000000       0.75000000 </v>
    <v>       0.00000000       0.50000000       0.75000000 </v>
    <v>       0.00000000       0.75000000       0.50000000 </v>
    <v>       0.25000000       0.50000000       0.50000000 </v>
    <v>       0.75000000       0.25000000       0.25000000 </v>
    <v>       0.50000000       0.00000000       0.25000000 </v>
    <v>       0.50000000       0.25000000       0.00000000 </v>
    <v>       0.75000000       0.00000000       0.00000000 </v>
    <v>       0.75000000       0.25000000       0.75000000 </v>
    <v>       0.50000000       0.00000000       0.75000000 </v>
    <v>       0.50000000       0.25000000       0.50000000 </v>
    <v>       0.75000000       0.00000000       0.50000000 </v>
    <v>       0.75000000       0.75000000       0.25000000 </v>
    <v>       0.50000000       0.50000000       0.25000000 </v>
    <v>       0.50000000       0.75000000       0.00000000 </v>
    <v>       0.75000000       0.50000000       0.00000000 </v>
    <v>       0.75000000       0.75000000       0.75000000 </v>
    <v>       0.50000000       0.50000000       0.75000000 </v>
    <v>       0.50000000       0.75000000       0.50000000 </v>
    <v>       0.75000000       0.50000000       0.50000000 </v>
   </varray>
  </structure>
  <varray name="primitive_index" >
   <v type="int" >        1 </v>
   <v type="int" >        2 </v>
   <v type="int" >        3 </v>
   <v type="int" >        4 </v>
   <v type="int" >        5 </v>
   <v type="int" >        6 </v>
   <v type="int" >        7 </v>
   <v type="int" >        8 </v>
   <v type="int" >        9 </v>
   <v type="int" >       10 </v>
   <v type="int" >       11 </v>
   <v type="int" >       12 </v>
   <v type="int" >       13 </v>
   <v type="int" >       14 </v>
   <v type="int" >       15 </v>
   <v type="int" >       16 </v>
   <v type="int" >       17 </v>
   <v type="int" >       18 </v>
   <v type="int" >       19 </v>
   <v type="int" >       20 </v>
   <v type="int" >       21 </v>
   <v type="int" >       22 </v>
   <v type="int" >       23 </v>
   <v type="int" >       24 </v>
   <v type="int" >       25 </v>
   <v type="int" >       26 </v>
   <v type="int" >       27 </v>
   <v type="int" >       28 </v>
   <v type="int" >       29 </v>
   <v type="int" >       30 </v>
   <v type="int" >       31 </v>
   <v type="int" >       32 </v>
   <v type="int" >       33 </v>
   <v type="int" >       34 </v>
   <v type="int" >       35 </v>
   <v type="int" >       36 </v>
   <v type="int" >       37 </v>
   <v type="int" >       38 </v>
   <v type="int" >       39 </v>
   <v type="int" >       40 </v>
   <v type="int" >       41 </v>
   <v type="int" >       42 </v>
   <v type="int" >       43 </v>
   <v type="int" >       44 </v>
   <v type="int" >       45 </v>
   <v type="int" >       46 </v>
   <v type="int" >       47 </v>
   <v type="int" >       48 </v>
   <v type="int" >       49 </v>
   <v type="int" >       50 </v>
   <v type="int" >       51 </v>
   <v type="int" >       52 </v>
   <v type="int" >       53 </v>
   <v type="int" >       54 </v>
   <v type="int" >       55 </v>
   <v type="int" >       56 </v>
   <v type="int" >       57 </v>
   <v type="int" >       58 </v>
   <v type="int" >       59 </v>
   <v type="int" >       60 </v>
   <v type="int" >       61 </v>
   <v type="int" >       62 </v>
   <v type="int" >       63 </v>
   <v type="int" >       64 </v>
  </varray>
 </primitive_cell>
 <kpoints>
  <generation param="Gamma">
   <v type="int" name="divisions">       2        2        2 </v>
   <v name="usershift">      0.00000000       0.00000000       0.00000000 </v>
   <v name="genvec1">      0.50000000       0.00000000       0.00000000 </v>
   <v name="genvec2">      0.00000000       0.50000000       0.00000000 </v>
   <v name="genvec3">      0.00000000       0.00000000       0.50000000 </v>
   <v name="shift">      0.00000000       0.00000000       0.00000000 </v>
  </generation>
  <varray name="kpointlist" >
   <v>       0.00000000       0.00000000       0.00000000 </v>
   <v>       0.50000000       0.00000000       0.00000000 </v>
   <v>       0.00000000       0.50000000       0.00000000 </v>
   <v>       0.50000000       0.50000000       0.00000000 </v>
   <v>       0.00000000       0.50000000       0.50000000 </v>
   <v>       0.50000000       0.50000000       0.50000000 </v>
  </varray>
  <varray name="weights" >
   <v>       0.12500000 </v>
   <v>       0.12500000 </v>
   <v>       0.25000000 </v>
   <v>       0.25000000 </v>
   <v>       0.12500000 </v>
   <v>       0.12500000 </v>
  </varray>
 </kpoints>
 <parameters>
  <separator name="general" >
   <i type="string" name="SYSTEM">unknown system</i>
   <i type="logical" name="LCOMPAT"> F  </i>
  </separator>
  <separator name="electronic" >
   <i type="string" name="PREC">accura</i>
   <i name="ENMAX">    341.21360000</i>
   <i name="ENAUG">    368.05600000</i>
   <i name="EDIFF">      0.00000001</i>
   <i type="int" name="IALGO">    38</i>
   <i type="int" name="IWAVPR">    10</i>
   <i type="int" name="NBANDS">   288</i>
   <i type="int" name="NBANDSLOW">    -1</i>
   <i type="int" name="NBANDSHIGH">    -1</i>
   <i name="NELECT">    448.00000000</i>
   <i type="int" name="TURBO">     0</i>
   <i type="int" name="IRESTART">     0</i>
   <i type="int" name="NREBOOT">     0</i>
   <i type="int" name="NMIN">     0</i>
   <i name="EREF">      0.00000000</i>
   <separator name="electronic smearing" >
    <i type="int" name="ISMEAR">     0</i>
    <i name="SIGMA">      0.02000000</i>
    <i name="KSPACING">      0.50000000</i>
    <i type="logical" name="KGAMMA"> T  </i>
    <i type="logical" name="KBLOWUP"> T  </i>
   </separator>
   <separator name="electronic projectors" >
    <i type="logical" name="LREAL"> F  </i>
    <v name="ROPT">      0.00000000      0.00000000</v>
    <i type="int" name="LMAXPAW">  -100</i>
    <i type="int" name="LMAXMIX">     2</i>
    <i type="logical" name="NLSPLINE"> F  </i>
   </separator>
   <separator name="electronic startup" >
    <i type="int" name="ISTART">     0</i>
    <i type="int" name="ICHARG">     2</i>
    <i type="int" name="INIWAV">     1</i>
   </separator>
   <separator name="electronic spin" >
    <i type="int" name="ISPIN">     1</i>
    <i type="logical" name="LNONCOLLINEAR"> F  </i>
    <v name="MAGMOM">      1.00000000      1.00000000      1.00000000      1.00000000      1.00000000      1.00000000      1.00000000      1.00000000      1.00000000      1.00000000      1.00000000      1.00000000      1.00000000      1.00000000      1.00000000      1.00000000      1.00000000      1.00000000      1.00000000      1.00000000
      1.00000000      1.00000000      1.00000000      1.00000000      1.00000000      1.00000000      1.00000000      1.00000000      1.00000000      1.00000000      1.00000000      1.00000000      1.00000000      1.00000000      1.00000000      1.00000000      1.00000000      1.00000000      1.00000000      1.00000000
      1.00000000      1.00000000      1.00000000      1.00000000      1.00000000      1.00000000      1.00000000      1.00000000      1.00000000      1.00000000      1.00000000      1.00000000      1.00000000      1.00000000      1.00000000      1.00000000      1.00000000      1.00000000      1.00000000      1.00000000
      1.00000000      1.00000000      1.00000000      1.00000000</v>
    <i name="NUPDOWN">     -1.00000000</i>
    <i type="logical" name="LSORBIT"> F  </i>
    <v name="SAXIS">      0.00000000      0.00000000      1.00000000</v>
    <i type="logical" name="LSPIRAL"> F  </i>
    <v name="QSPIRAL">      0.00000000      0.00000000      0.00000000</v>
    <i type="logical" name="LZEROZ"> F  </i>
   </separator>
   <separator name="electronic exchange-correlation" >
    <i type="logical" name="LASPH"> F  </i>
    <i type="logical" name="LMETAGGA"> F  </i>
   </separator>
   <separator name="electronic convergence" >
    <i type="int" name="NELM">    60</i>
    <i type="int" name="NELMDL">    -5</i>
    <i type="int" name="NELMIN">     5</i>
    <i name="ENINI">    341.21360000</i>
    <separator name="electronic convergence detail" >
     <i type="logical" name="LDIAG"> T  </i>
     <i type="logical" name="LSUBROT"> F  </i>
     <i name="WEIMIN">      0.00000000</i>
     <i name="EBREAK">      0.00000000</i>
     <i name="DEPER">      0.30000000</i>
     <i type="int" name="NRMM">     4</i>
     <i name="TIME">      0.40000000</i>
    </separator>
   </separator>
   <separator name="electronic mixer" >
    <i name="AMIX">      0.40000000</i>
    <i name="BMIX">      1.00000000</i>
    <i name="AMIN">      0.10000000</i>
    <i name="AMIX_MAG">      1.60000000</i>
    <i name="BMIX_MAG">      1.00000000</i>
    <separator name="electronic mixer details" >
     <i type="int" name="IMIX">     4</i>
     <i type="logical" name="MIXFIRST"> F  </i>
     <i type="int" name="MAXMIX">   -45</i>
     <i name="WC">    100.00000000</i>
     <i type="int" name="INIMIX">     1</i>
     <i type="int" name="MIXPRE">     1</i>
     <i type="int" name="MREMOVE">     5</i>
    </separator>
   </separator>
   <separator name="electronic dipolcorrection" >
    <i type="logical" name="LDIPOL"> F  </i>
    <i type="logical" name="LMONO"> F  </i>
    <i type="int" name="IDIPOL">     0</i>
    <i name="EPSILON">      1.00000000</i>
    <v name="DIPOL">   -100.00000000   -100.00000000   -100.00000000</v>
    <i name="EFIELD">      0.00000000</i>
   </separator>
  </separator>
  <separator name="grids" >
   <i type="int" name="NGX">    70</i>
   <i type="int" name="NGY">    70</i>
   <i type="int" name="NGZ">    70</i>
   <i type="int" name="NGXF">   140</i>
   <i type="int" name="NGYF">   140</i>
   <i type="int" name="NGZF">   140</i>
   <i type="logical" name="ADDGRID"> T  </i>
  </separator>
  <separator name="ionic" >
   <i type="int" name="NSW">     0</i>
   <i type="int" name="IBRION">    -1</i>
   <i type="int" name="MDALGO">     0</i>
   <i type="int" name="ISIF">     2</i>
   <i name="PSTRESS">      0.00000000</i>
   <i name="EDIFFG">      0.00000010</i>
   <i type="int" name="NFREE">     0</i>
   <i name="POTIM">      0.50000000</i>
   <i name="SMASS">     -3.00000000</i>
   <i name="SCALEE">      1.00000000</i>
  </separator>
  <separator name="ionic md" >
   <i name="TEBEG">      0.00010000</i>
   <i name="TEEND">      0.00010000</i>
   <i type="int" name="NBLOCK">     1</i>
   <i type="int" name="KBLOCK">     1</i>
   <i type="int" name="NPACO">   256</i>
   <i name="APACO">     10.00000000</i>
  </separator>
  <separator name="symmetry" >
   <i type="int" name="ISYM">     2</i>
   <i name="SYMPREC">      0.00001000</i>
  </separator>
  <separator name="dos" >
   <i type="int" name="LORBIT">     0</i>
   <v name="RWIGS">     -1.00000000     -1.00000000</v>
   <i type="int" name="NEDOS">   301</i>
   <i name="EMIN">     10.00000000</i>
   <i name="EMAX">    -10.00000000</i>
   <i name="EFERMI">      0.00000000</i>
  </separator>
  <separator name="writing" >
   <i type="int" name="NWRITE">     2</i>
   <i type="logical" name="LWAVE"> F  </i>
   <i type="logical" name="LDOWNSAMPLE"> F  </i>
   <i type="logical" name="LCHARG"> F  </i>
   <i type="logical" name="LPARD"> F  </i>
   <i type="logical" name="LVTOT"> F  </i>
   <i type="logical" name="LVHAR"> F  </i>
   <i type="logical" name="LELF"> F  </i>
   <i type="logical" name="LOPTICS"> F  </i>
   <v name="STM">      0.00000000      0.00000000      0.00000000      0.00000000      0.00000000      0.00000000      0.00000000</v>
  </separator>
  <separator name="performance" >
   <i type="int" name="NPAR">    32</i>
   <i type="int" name="NSIM">     4</i>
   <i type="int" name="NBLK">    -1</i>
   <i type="logical" name="LPLANE"> T  </i>
   <i type="logical" name="LSCALAPACK"> T  </i>
   <i type="logical" name="LSCAAWARE"> F  </i>
   <i type="logical" name="LSCALU"> F  </i>
   <i type="logical" name="LASYNC"> F  </i>
   <i type="logical" name="LORBITALREAL"> F  </i>
  </separator>
  <separator name="miscellaneous" >
   <i type="int" name="IDIOT">     3</i>
   <i type="int" name="PHON_NSTRUCT">    -1</i>
   <i type="logical" name="LMUSIC"> F  </i>
   <v name="POMASS">     22.99000000     35.45300000</v>
   <v name="DARWINR">      0.00000000      0.00000000</v>
   <v name="DARWINV">      1.00000000      1.00000000</v>
   <i type="logical" name="LCORR"> T  </i>
  </separator>
  <i type="logical" name="GGA_COMPAT"> T  </i>
  <i type="logical" name="LBERRY"> F  </i>
  <i type="int" name="ICORELEVEL">     0</i>
  <i type="logical" name="LDAU"> F  </i>
  <i type="int" name="I_CONSTRAINED_M">     0</i>
  <separator name="electronic exchange-correlation" >
   <i type="string" name="GGA">PS</i>
   <i type="int" name="VOSKOWN">     0</i>
   <i type="logical" name="LHFCALC"> F  </i>
   <i type="string" name="PRECFOCK"></i>
   <i type="logical" name="LSYMGRAD"> F  </i>
   <i type="logical" name="LHFONE"> F  </i>
   <i type="logical" name="LRHFCALC"> F  </i>
   <i type="logical" name="LTHOMAS"> F  </i>
   <i type="logical" name="LMODELHF"> F  </i>
   <i type="logical" name="LFOCKACE"> F  </i>
   <i name="ENCUT4O">     -1.00000000</i>
   <i type="int" name="EXXOEP">     0</i>
   <i type="int" name="FOURORBIT">     0</i>
   <i name="AEXX">      0.00000000</i>
   <i name="HFALPHA">      0.00000000</i>
   <i name="MCALPHA">      0.00000000</i>
   <i name="ALDAX">      1.00000000</i>
   <i name="AGGAX">      1.00000000</i>
   <i name="ALDAC">      1.00000000</i>
   <i name="AGGAC">      1.00000000</i>
   <i type="int" name="NKREDX">     1</i>
   <i type="int" name="NKREDY">     1</i>
   <i type="int" name="NKREDZ">     1</i>
   <i type="logical" name="SHIFTRED"> F  </i>
   <i type="logical" name="ODDONLY"> F  </i>
   <i type="logical" name="EVENONLY"> F  </i>
   <i type="int" name="LMAXFOCK">     0</i>
   <i type="int" name="NMAXFOCKAE">     0</i>
   <i type="logical" name="LFOCKAEDFT"> F  </i>
   <i name="HFSCREEN">      0.00000000</i>
   <i name="HFSCREENC">      0.00000000</i>
   <i type="int" name="NBANDSGWLOW">     0</i>
  </separator>
  <separator name="vdW DFT" >
   <i type="logical" name="LUSE_VDW"> F  </i>
   <i name="Zab_VDW">     -0.84910000</i>
   <i name="PARAM1">      0.12340000</i>
   <i name="PARAM2">      1.00000000</i>
   <i name="PARAM3">      0.00000000</i>
  </separator>
  <separator name="model GW" >
   <i type="int" name="MODEL_GW">     0</i>
   <i name="MODEL_EPS0">     13.18532537</i>
   <i name="MODEL_ALPHA">      1.00000000</i>
  </separator>
  <separator name="linear response parameters" >
   <i type="logical" name="LEPSILON"> F  </i>
   <i type="logical" name="LRPA"> F  </i>
   <i type="logical" name="LNABLA"> F  </i>
   <i type="logical" name="LVEL"> F  </i>
   <i name="CSHIFT">      0.10000000</i>
   <i name="OMEGAMAX">     -1.00000000</i>
   <i name="DEG_THRESHOLD">      0.00200000</i>
   <i name="RTIME">     -0.10000000</i>
   <i name="WPLASMAI">      0.00000000</i>
   <v name="DFIELD">      0.00000000      0.00000000      0.00000000</v>
   <v name="WPLASMA">      0.00000000      0.00000000      0.00000000      0.00000000      0.00000000      0.00000000      0.00000000      0.00000000      0.00000000</v>
  </separator>
  <separator name="orbital magnetization" >
   <i type="logical" name="NUCIND"> F  </i>
   <v name="MAGPOS">      0.00000000      0.00000000      0.00000000</v>
   <i type="logical" name="LNICSALL"> T  </i>
   <i type="logical" name="ORBITALMAG"> F  </i>
   <i type="logical" name="LMAGBLOCH"> F  </i>
   <i type="logical" name="LCHIMAG"> F  </i>
   <i type="logical" name="LGAUGE"> T  </i>
   <i type="int" name="MAGATOM">     0</i>
   <v name="MAGDIPOL">      0.00000000      0.00000000      0.00000000</v>
   <v name="AVECCONST">      0.00000000      0.00000000      0.00000000</v>
  </separator>
  <separator name="response functions" >
   <i type="logical" name="LFINITE_TEMPERATURE"> F  </i>
   <i type="logical" name="LADDER"> F  </i>
   <i type="logical" name="LRPAFORCE"> F  </i>
   <i type="logical" name="LFXC"> F  </i>
   <i type="logical" name="LHARTREE"> T  </i>
   <i type="int" name="IBSE">     0</i>
   <v type="int" name="KPOINT">    -1     0     0     0</v>
   <i type="logical" name="LTCTC"> F  </i>
   <i type="logical" name="LTCTE"> F  </i>
   <i type="logical" name="LTETE"> F  </i>
   <i type="logical" name="LTRIPLET"> F  </i>
   <i type="logical" name="LFXCEPS"> F  </i>
   <i type="logical" name="LFXHEG"> F  </i>
   <i type="int" name="NATURALO">     2</i>
   <i type="logical" name="LHOLEGF"> F  </i>
   <i type="logical" name="L2ORDER"> F  </i>
   <i type="logical" name="LDMP1"> F  </i>
   <i type="logical" name="LMP2LT"> F  </i>
   <i type="logical" name="LSMP2LT"> F  </i>
   <i type="logical" name="LGWLF"> F  </i>
   <i name="ENCUTGW">     -2.00000000</i>
   <i name="ENCUTGWSOFT">     -2.00000000</i>
   <i name="ENCUTLF">     -1.00000000</i>
   <i type="logical" name="LESF_SPLINES"> F  </i>
   <i type="int" name="LMAXMP2">    -1</i>
   <i name="SCISSOR">      0.00000000</i>
   <i type="int" name="NOMEGA">     0</i>
   <i type="int" name="NOMEGAR">     0</i>
   <i type="int" name="NBANDSGW">    -1</i>
   <i type="int" name="NBANDSO">    -1</i>
   <i type="int" name="NBANDSV">    -1</i>
   <i type="int" name="NELMGW">     1</i>
   <i type="int" name="NELMHF">     1</i>
   <i type="int" name="DIM">     3</i>
   <i type="int" name="IESPILON">     4</i>
   <i type="int" name="ANTIRES">     0</i>
   <i name="OMEGAMAX">    -30.00000000</i>
   <i name="OMEGAMIN">    -30.00000000</i>
   <i name="OMEGATL">   -200.00000000</i>
   <i type="int" name="OMEGAGRID">     0</i>
   <i name="CSHIFT">     -0.10000000</i>
   <i type="logical" name="LSELFENERGY"> F  </i>
   <i type="logical" name="LSPECTRAL"> F  </i>
   <i type="logical" name="LSPECTRALGW"> F  </i>
   <i type="logical" name="LSINGLES"> F  </i>
   <i type="logical" name="LFERMIGW"> F  </i>
   <i type="logical" name="ODDONLYGW"> F  </i>
   <i type="logical" name="EVENONLYGW"> F  </i>
   <i type="int" name="NKREDLFX">     1</i>
   <i type="int" name="NKREDLFY">     1</i>
   <i type="int" name="NKREDLFZ">     1</i>
   <i type="int" name="MAXMEM">  2800</i>
   <i type="int" name="TELESCOPE">     0</i>
   <i type="int" name="NTAUPAR">    -1</i>
   <i type="int" name="NOMEGAPAR">    -1</i>
   <i name="DAMP_NEWTON">      0.80000001</i>
   <i name="LAMBDA">      1.00000000</i>
  </separator>
  <separator name="External order field" >
   <i name="OFIELD_KAPPA">      0.00000000</i>
   <v name="OFIELD_K">      0.00000000      0.00000000      0.00000000</v>
   <i name="OFIELD_Q6_NEAR">      0.00000000</i>
   <i name="OFIELD_Q6_FAR">      0.00000000</i>
   <i name="OFIELD_A">      0.00000000</i>
  </separator>
  <separator name="optional k-points parameters" >
   <i type="int" name="KPOINTS_OPT_MODE">     1</i>
   <i type="logical" name="LKPOINTS_OPT"> F  </i>
  </separator>
 </parameters>
 <atominfo>
  <atoms>      64 </atoms>
  <types>       2 </types>
  <array name="atoms" >
   <dimension dim="1">ion</dimension>
   <field type="string">element</field>
   <field type="int">atomtype</field>
   <set>
    <rc><c>Na</c><c>   1</c></rc>
    <rc><c>Na</c><c>   1</c></rc>
    <rc><c>Na</c><c>   1</c></rc>
    <rc><c>Na</c><c>   1</c></rc>
    <rc><c>Na</c><c>   1</c></rc>
    <rc><c>Na</c><c>   1</c></rc>
    <rc><c>Na</c><c>   1</c></rc>
    <rc><c>Na</c><c>   1</c></rc>
    <rc><c>Na</c><c>   1</c></rc>
    <rc><c>Na</c><c>   1</c></rc>
    <rc><c>Na</c><c>   1</c></rc>
    <rc><c>Na</c><c>   1</c></rc>
    <rc><c>Na</c><c>   1</c></rc>
    <rc><c>Na</c><c>   1</c></rc>
    <rc><c>Na</c><c>   1</c></rc>
    <rc><c>Na</c><c>   1</c></rc>
    <rc><c>Na</c><c>   1</c></rc>
    <rc><c>Na</c><c>   1</c></rc>
    <rc><c>Na</c><c>   1</c></rc>
    <rc><c>Na</c><c>   1</c></rc>
    <rc><c>Na</c><c>   1</c></rc>
    <rc><c>Na</c><c>   1</c></rc>
    <rc><c>Na</c><c>   1</c></rc>
    <rc><c>Na</c><c>   1</c></rc>
    <rc><c>Na</c><c>   1</c></rc>
    <rc><c>Na</c><c>   1</c></rc>
    <rc><c>Na</c><c>   1</c></rc>
    <rc><c>Na</c><c>   1</c></rc>
    <rc><c>Na</c><c>   1</c></rc>
    <rc><c>Na</c><c>   1</c></rc>
    <rc><c>Na</c><c>   1</c></rc>
    <rc><c>Na</c><c>   1</c></rc>
    <rc><c>Cl</c><c>   2</c></rc>
    <rc><c>Cl</c><c>   2</c></rc>
    <rc><c>Cl</c><c>   2</c></rc>
    <rc><c>Cl</c><c>   2</c></rc>
    <rc><c>Cl</c><c>   2</c></rc>
    <rc><c>Cl</c><c>   2</c></rc>
    <rc><c>Cl</c><c>   2</c></rc>
    <rc><c>Cl</c><c>   2</c></rc>
    <rc><c>Cl</c><c>   2</c></rc>
    <rc><c>Cl</c><c>   2</c></rc>
    <rc><c>Cl</c><c>   2</c></rc>
    <rc><c>Cl</c><c>   2</c></rc>
    <rc><c>Cl</c><c>   2</c></rc>
    <rc><c>Cl</c><c>   2</c></rc>
    <rc><c>Cl</c><c>   2</c></rc>
    <rc><c>Cl</c><c>   2</c></rc>
    <rc><c>Cl</c><c>   2</c></rc>
    <rc><c>Cl</c><c>   2</c></rc>
    <rc><c>Cl</c><c>   2</c></rc>
    <rc><c>Cl</c><c>   2</c></rc>
    <rc><c>Cl</c><c>   2</c></rc>
    <rc><c>Cl</c><c>   2</c></rc>
    <rc><c>Cl</c><c>   2</c></rc>
    <rc><c>Cl</c><c>   2</c></rc>
    <rc><c>Cl</c><c>   2</c></rc>
    <rc><c>Cl</c><c>   2</c></rc>
    <rc><c>Cl</c><c>   2</c></rc>
    <rc><c>Cl</c><c>   2</c></rc>
    <rc><c>Cl</c><c>   2</c></rc>
    <rc><c>Cl</c><c>   2</c></rc>
    <rc><c>Cl</c><c>   2</c></rc>
    <rc><c>Cl</c><c>   2</c></rc>
   </set>
  </array>
  <array name="atomtypes" >
   <dimension dim="1">type</dimension>
   <field type="int">atomspertype</field>
   <field type="string">element</field>
   <field>mass</field>
   <field>valence</field>
   <field type="string">pseudopotential</field>
   <set>
    <rc><c>  32</c><c>Na</c><c>     22.99000000</c><c>      7.00000000</c><c>  PAW_PBE Na_pv 19Sep2006               </c></rc>
    <rc><c>  32</c><c>Cl</c><c>     35.45300000</c><c>      7.00000000</c><c>  PAW_PBE Cl 06Sep2000                  </c></rc>
   </set>
  </array>
 </atominfo>
 <structure name="initialpos" >
  <crystal>
   <varray name="basis" >
    <v>      11.20400236       0.00000000       0.00000000 </v>
    <v>       0.00000000      11.20400236       0.00000000 </v>
    <v>       0.00000000       0.00000000      11.20400236 </v>
   </varray>
   <i name="volume">   1406.43470641 </i>
   <varray name="rec_basis" >
    <v>       0.08925382       0.00000000       0.00000000 </v>
    <v>       0.00000000       0.08925382       0.00000000 </v>
    <v>       0.00000000       0.00000000       0.08925382 </v>
   </varray>
  </crystal>
  <varray name="positions" >
   <v>       0.00000000       0.00000000       0.00000000 </v>
   <v>       0.25000000       0.25000000       0.00000000 </v>
   <v>       0.25000000       0.00000000       0.25000000 </v>
   <v>       0.00000000       0.25000000       0.25000000 </v>
   <v>       0.00000000       0.00000000       0.50000000 </v>
   <v>       0.25000000       0.25000000       0.50000000 </v>
   <v>       0.25000000       0.00000000       0.75000000 </v>
   <v>       0.00000000       0.25000000       0.75000000 </v>
   <v>       0.00000000       0.50000000       0.00000000 </v>
   <v>       0.25000000       0.75000000       0.00000000 </v>
   <v>       0.25000000       0.50000000       0.25000000 </v>
   <v>       0.00000000       0.75000000       0.25000000 </v>
   <v>       0.00000000       0.50000000       0.50000000 </v>
   <v>       0.25000000       0.75000000       0.50000000 </v>
   <v>       0.25000000       0.50000000       0.75000000 </v>
   <v>       0.00000000       0.75000000       0.75000000 </v>
   <v>       0.50000000       0.00000000       0.00000000 </v>
   <v>       0.75000000       0.25000000       0.00000000 </v>
   <v>       0.75000000       0.00000000       0.25000000 </v>
   <v>       0.50000000       0.25000000       0.25000000 </v>
   <v>       0.50000000       0.00000000       0.50000000 </v>
   <v>       0.75000000       0.25000000       0.50000000 </v>
   <v>       0.75000000       0.00000000       0.75000000 </v>
   <v>       0.50000000       0.25000000       0.75000000 </v>
   <v>       0.50000000       0.50000000       0.00000000 </v>
   <v>       0.75000000       0.75000000       0.00000000 </v>
   <v>       0.75000000       0.50000000       0.25000000 </v>
   <v>       0.50000000       0.75000000       0.25000000 </v>
   <v>       0.50000000       0.50000000       0.50000000 </v>
   <v>       0.75000000       0.75000000       0.50000000 </v>
   <v>       0.75000000       0.50000000       0.75000000 </v>
   <v>       0.50000000       0.75000000       0.75000000 </v>
   <v>       0.25267761       0.25000000       0.25000000 </v>
   <v>       0.00000000       0.00000000       0.25000000 </v>
   <v>       0.00000000       0.25000000       0.00000000 </v>
   <v>       0.25000000       0.00000000       0.00000000 </v>
   <v>       0.25000000       0.25000000       0.75000000 </v>
   <v>       0.00000000       0.00000000       0.75000000 </v>
   <v>       0.00000000       0.25000000       0.50000000 </v>
   <v>       0.25000000       0.00000000       0.50000000 </v>
   <v>       0.25000000       0.75000000       0.25000000 </v>
   <v>       0.00000000       0.50000000       0.25000000 </v>
   <v>       0.00000000       0.75000000       0.00000000 </v>
   <v>       0.25000000       0.50000000       0.00000000 </v>
   <v>       0.25000000       0.75000000       0.75000000 </v>
   <v>       0.00000000       0.50000000       0.75000000 </v>
   <v>       0.00000000       0.75000000       0.50000000 </v>
   <v>       0.25000000       0.50000000       0.50000000 </v>
   <v>       0.75000000       0.25000000       0.25000000 </v>
   <v>       0.50000000       0.00000000       0.25000000 </v>
   <v>       0.50000000       0.25000000       0.00000000 </v>
   <v>       0.75000000       0.00000000       0.00000000 </v>
   <v>       0.75000000       0.25000000       0.75000000 </v>
   <v>       0.50000000       0.00000000       0.75000000 </v>
   <v>       0.50000000       0.25000000       0.50000000 </v>
   <v>       0.75000000       0.00000000       0.50000000 </v>
   <v>       0.75000000       0.75000000       0.25000000 </v>
   <v>       0.50000000       0.50000000       0.25000000 </v>
   <v>       0.50000000       0.75000000       0.00000000 </v>
   <v>       0.75000000       0.50000000       0.00000000 </v>
   <v>       0.75000000       0.75000000       0.75000000 </v>
   <v>       0.50000000       0.50000000       0.75000000 </v>
   <v>       0.50000000       0.75000000       0.50000000 </v>
   <v>       0.75000000       0.50000000       0.50000000 </v>
  </varray>
 </structure>
 <calculation>
  <scstep>
   <time name="dav">    7.69    7.74</time>
   <time name="total">    7.77    7.81</time>
   <energy>
    <i name="alphaZ">    751.52672365 </i>
    <i name="ewald"> -22871.39982569 </i>
    <i name="hartreedc">  -8992.19325711 </i>
    <i name="XCdc">   1456.53403488 </i>
    <i name="pawpsdc">  26466.43774078 </i>
    <i name="pawaedc"> -29286.08056155 </i>
    <i name="eentropy">     -0.00150940 </i>
    <i name="bandstr">   -667.27141921 </i>
    <i name="atom">  37532.17946992 </i>
    <i name="e_fr_energy">   4389.73139627 </i>
    <i name="e_wo_entrp">   4389.73290567 </i>
    <i name="e_0_energy">   4389.73215097 </i>
   </energy>
  </scstep>
  <scstep>
   <time name="dav">    8.08    8.13</time>
   <time name="total">    8.09    8.13</time>
   <energy>
    <i name="e_fr_energy">    364.36637483 </i>
    <i name="e_wo_entrp">    364.36637483 </i>
    <i name="e_0_energy">    364.36637483 </i>
   </energy>
  </scstep>
  <scstep>
   <time name="dav">    8.58    8.62</time>
   <time name="total">    8.58    8.62</time>
   <energy>
    <i name="e_fr_energy">   -205.10827296 </i>
    <i name="e_wo_entrp">   -205.10827296 </i>
    <i name="e_0_energy">   -205.10827296 </i>
   </energy>
  </scstep>
  <scstep>
   <time name="dav">    8.58    8.63</time>
   <time name="total">    8.58    8.63</time>
   <energy>
    <i name="e_fr_energy">   -228.13680918 </i>
    <i name="e_wo_entrp">   -228.13680918 </i>
    <i name="e_0_energy">   -228.13680918 </i>
   </energy>
  </scstep>
  <scstep>
   <time name="dav">    9.16    9.21</time>
   <time name="total">    9.43    9.48</time>
   <energy>
    <i name="e_fr_energy">   -229.00533157 </i>
    <i name="e_wo_entrp">   -229.00533157 </i>
    <i name="e_0_energy">   -229.00533157 </i>
   </energy>
  </scstep>
  <scstep>
   <time name="dav">    8.69    8.74</time>
   <time name="total">    9.03    9.08</time>
   <energy>
    <i name="e_fr_energy">   -224.13919812 </i>
    <i name="e_wo_entrp">   -224.13919812 </i>
    <i name="e_0_energy">   -224.13919812 </i>
   </energy>
  </scstep>
  <scstep>
   <time name="dav">    9.50    9.55</time>
   <time name="total">    9.83    9.89</time>
   <energy>
    <i name="e_fr_energy">   -223.77838137 </i>
    <i name="e_wo_entrp">   -223.77838137 </i>
    <i name="e_0_energy">   -223.77838137 </i>
   </energy>
  </scstep>
  <scstep>
   <time name="dav">    8.33    8.37</time>
   <time name="total">    8.66    8.71</time>
   <energy>
    <i name="e_fr_energy">   -223.90377954 </i>
    <i name="e_wo_entrp">   -223.90377954 </i>
    <i name="e_0_energy">   -223.90377954 </i>
   </energy>
  </scstep>
  <scstep>
   <time name="dav">    8.86    8.90</time>
   <time name="total">    9.19    9.24</time>
   <energy>
    <i name="e_fr_energy">   -223.89821410 </i>
    <i name="e_wo_entrp">   -223.89821410 </i>
    <i name="e_0_energy">   -223.89821410 </i>
   </energy>
  </scstep>
  <scstep>
   <time name="dav">    8.39    8.43</time>
   <time name="total">    8.72    8.77</time>
   <energy>
    <i name="e_fr_energy">   -223.90236595 </i>
    <i name="e_wo_entrp">   -223.90236595 </i>
    <i name="e_0_energy">   -223.90236595 </i>
   </energy>
  </scstep>
  <scstep>
   <time name="dav">    9.06    9.11</time>
   <time name="total">    9.40    9.45</time>
   <energy>
    <i name="e_fr_energy">   -223.90159501 </i>
    <i name="e_wo_entrp">   -223.90159501 </i>
    <i name="e_0_energy">   -223.90159501 </i>
   </energy>
  </scstep>
  <scstep>
   <time name="dav">    9.01    9.06</time>
   <time name="total">    9.35    9.40</time>
   <energy>
    <i name="e_fr_energy">   -223.90155954 </i>
    <i name="e_wo_entrp">   -223.90155954 </i>
    <i name="e_0_energy">   -223.90155954 </i>
   </energy>
  </scstep>
  <scstep>
   <time name="dav">    8.80    8.85</time>
   <time name="total">    9.13    9.18</time>
   <energy>
    <i name="e_fr_energy">   -223.90155812 </i>
    <i name="e_wo_entrp">   -223.90155812 </i>
    <i name="e_0_energy">   -223.90155812 </i>
   </energy>
  </scstep>
  <scstep>
   <time name="dav">    8.61    8.66</time>
   <time name="total">    8.95    8.99</time>
   <energy>
    <i name="e_fr_energy">   -223.90155966 </i>
    <i name="e_wo_entrp">   -223.90155966 </i>
    <i name="e_0_energy">   -223.90155966 </i>
   </energy>
  </scstep>
  <scstep>
   <time name="dav">    8.31    8.36</time>
   <time name="total">    8.65    8.70</time>
   <energy>
    <i name="e_fr_energy">   -223.90156093 </i>
    <i name="e_wo_entrp">   -223.90156093 </i>
    <i name="e_0_energy">   -223.90156093 </i>
   </energy>
  </scstep>
  <scstep>
   <time name="dav">    8.70    8.74</time>
   <time name="total">    9.04    9.09</time>
   <energy>
    <i name="e_fr_energy">   -223.90156137 </i>
    <i name="e_wo_entrp">   -223.90156137 </i>
    <i name="e_0_energy">   -223.90156137 </i>
   </energy>
  </scstep>
  <scstep>
   <time name="dav">    6.39    6.43</time>
   <time name="total">    6.73    6.76</time>
   <energy>
    <i name="e_fr_energy">   -223.90156142 </i>
    <i name="e_wo_entrp">   -223.90156142 </i>
    <i name="e_0_energy">   -223.90156142 </i>
   </energy>
  </scstep>
  <scstep>
   <time name="dav">    6.18    6.21</time>
   <time name="total">    6.51    6.55</time>
   <energy>
    <i name="e_fr_energy">   -223.90156147 </i>
    <i name="e_wo_entrp">   -223.90156147 </i>
    <i name="e_0_energy">   -223.90156147 </i>
   </energy>
  </scstep>
  <scstep>
   <time name="dav">    5.70    5.73</time>
   <time name="total">    6.03    6.07</time>
   <energy>
    <i name="e_fr_energy">   -223.90156142 </i>
    <i name="e_wo_entrp">   -223.90156142 </i>
    <i name="e_0_energy">   -223.90156142 </i>
   </energy>
  </scstep>
  <scstep>
   <time name="dav">    5.86    5.89</time>
   <time name="total">    6.20    6.23</time>
   <energy>
    <i name="e_fr_energy">   -223.90156138 </i>
    <i name="e_wo_entrp">   -223.90156138 </i>
    <i name="e_0_energy">   -223.90156138 </i>
   </energy>
  </scstep>
  <scstep>
   <time name="dav">    5.54    5.57</time>
   <time name="total">    5.88    5.91</time>
   <energy>
    <i name="e_fr_energy">   -223.90156137 </i>
    <i name="e_wo_entrp">   -223.90156137 </i>
    <i name="e_0_energy">   -223.90156137 </i>
   </energy>
  </scstep>
  <scstep>
   <time name="dav">    5.59    5.62</time>
   <time name="total">    5.66    5.69</time>
   <energy>
    <i name="alphaZ">    751.52672365 </i>
    <i name="ewald"> -22871.39982569 </i>
    <i name="hartreedc">  -9078.10677362 </i>
    <i name="XCdc">   1472.51307996 </i>
    <i name="pawpsdc">  29498.24271620 </i>
    <i name="pawaedc"> -32317.60665145 </i>
    <i name="eentropy">     -0.00000000 </i>
    <i name="bandstr">  -5211.25030035 </i>
    <i name="atom">  37532.17946992 </i>
    <i name="e_fr_energy">   -223.90156137 </i>
    <i name="e_wo_entrp">   -223.90156137 </i>
    <i name="e_0_energy">   -223.90156137 </i>
   </energy>
  </scstep>
  <structure>
   <crystal>
    <varray name="basis" >
     <v>      11.20400236       0.00000000       0.00000000 </v>
     <v>       0.00000000      11.20400236       0.00000000 </v>
     <v>       0.00000000       0.00000000      11.20400236 </v>
    </varray>
    <i name="volume">   1406.43470641 </i>
    <varray name="rec_basis" >
     <v>       0.08925382       0.00000000       0.00000000 </v>
     <v>       0.00000000       0.08925382       0.00000000 </v>
     <v>       0.00000000       0.00000000       0.08925382 </v>
    </varray>
   </crystal>
   <varray name="positions" >
    <v>       0.00000000       0.00000000       0.00000000 </v>
    <v>       0.25000000       0.25000000       0.00000000 </v>
    <v>       0.25000000       0.00000000       0.25000000 </v>
    <v>       0.00000000       0.25000000       0.25000000 </v>
    <v>       0.00000000       0.00000000       0.50000000 </v>
    <v>       0.25000000       0.25000000       0.50000000 </v>
    <v>       0.25000000       0.00000000       0.75000000 </v>
    <v>       0.00000000       0.25000000       0.75000000 </v>
    <v>       0.00000000       0.50000000       0.00000000 </v>
    <v>       0.25000000       0.75000000       0.00000000 </v>
    <v>       0.25000000       0.50000000       0.25000000 </v>
    <v>       0.00000000       0.75000000       0.25000000 </v>
    <v>       0.00000000       0.50000000       0.50000000 </v>
    <v>       0.25000000       0.75000000       0.50000000 </v>
    <v>       0.25000000       0.50000000       0.75000000 </v>
    <v>       0.00000000       0.75000000       0.75000000 </v>
    <v>       0.50000000       0.00000000       0.00000000 </v>
    <v>       0.75000000       0.25000000       0.00000000 </v>
    <v>       0.75000000       0.00000000       0.25000000 </v>
    <v>       0.50000000       0.25000000       0.25000000 </v>
    <v>       0.50000000       0.00000000       0.50000000 </v>
    <v>       0.75000000       0.25000000       0.50000000 </v>
    <v>       0.75000000       0.00000000       0.75000000 </v>
    <v>       0.50000000       0.25000000       0.75000000 </v>
    <v>       0.50000000       0.50000000       0.00000000 </v>
    <v>       0.75000000       0.75000000       0.00000000 </v>
    <v>       0.75000000       0.50000000       0.25000000 </v>
    <v>       0.50000000       0.75000000       0.25000000 </v>
    <v>       0.50000000       0.50000000       0.50000000 </v>
    <v>       0.75000000       0.75000000       0.50000000 </v>
    <v>       0.75000000       0.50000000       0.75000000 </v>
    <v>       0.50000000       0.75000000       0.75000000 </v>
    <v>       0.25267761       0.25000000       0.25000000 </v>
    <v>       0.00000000       0.00000000       0.25000000 </v>
    <v>       0.00000000       0.25000000       0.00000000 </v>
    <v>       0.25000000       0.00000000       0.00000000 </v>
    <v>       0.25000000       0.25000000       0.75000000 </v>
    <v>       0.00000000       0.00000000       0.75000000 </v>
    <v>       0.00000000       0.25000000       0.50000000 </v>
    <v>       0.25000000       0.00000000       0.50000000 </v>
    <v>       0.25000000       0.75000000       0.25000000 </v>
    <v>       0.00000000       0.50000000       0.25000000 </v>
    <v>       0.00000000       0.75000000       0.00000000 </v>
    <v>       0.25000000       0.50000000       0.00000000 </v>
    <v>       0.25000000       0.75000000       0.75000000 </v>
    <v>       0.00000000       0.50000000       0.75000000 </v>
    <v>       0.00000000       0.75000000       0.50000000 </v>
    <v>       0.25000000       0.50000000       0.50000000 </v>
    <v>       0.75000000       0.25000000       0.25000000 </v>
    <v>       0.50000000       0.00000000       0.25000000 </v>
    <v>       0.50000000       0.25000000       0.00000000 </v>
    <v>       0.75000000       0.00000000       0.00000000 </v>
    <v>       0.75000000       0.25000000       0.75000000 </v>
    <v>       0.50000000       0.00000000       0.75000000 </v>
    <v>       0.50000000       0.25000000       0.50000000 </v>
    <v>       0.75000000       0.00000000       0.50000000 </v>
    <v>       0.75000000       0.75000000       0.25000000 </v>
    <v>       0.50000000       0.50000000       0.25000000 </v>
    <v>       0.50000000       0.75000000       0.00000000 </v>
    <v>       0.75000000       0.50000000       0.00000000 </v>
    <v>       0.75000000       0.75000000       0.75000000 </v>
    <v>       0.50000000       0.50000000       0.75000000 </v>
    <v>       0.50000000       0.75000000       0.50000000 </v>
    <v>       0.75000000       0.50000000       0.50000000 </v>
   </varray>
  </structure>
  <varray name="forces" >
   <v>      -0.00023564      -0.00129019      -0.00129019 </v>
   <v>       0.00501177      -0.00000000       0.00009176 </v>
   <v>       0.00501177       0.00009176      -0.00000000 </v>
   <v>       0.01620650      -0.00000000      -0.00000000 </v>
   <v>      -0.00023564      -0.00129019       0.00129019 </v>
   <v>       0.00501177      -0.00000000      -0.00009176 </v>
   <v>       0.00060734       0.00000186      -0.00000000 </v>
   <v>       0.00015132      -0.00000000      -0.00000000 </v>
   <v>      -0.00023564       0.00129019      -0.00129019 </v>
   <v>       0.00060734      -0.00000000       0.00000186 </v>
   <v>       0.00501177      -0.00009176      -0.00000000 </v>
   <v>       0.00015132      -0.00000000      -0.00000000 </v>
   <v>      -0.00023564       0.00129019       0.00129019 </v>
   <v>       0.00060734      -0.00000000      -0.00000186 </v>
   <v>       0.00060734      -0.00000186      -0.00000000 </v>
   <v>      -0.00000386      -0.00000000      -0.00000000 </v>
   <v>      -0.00021344       0.00129867       0.00129867 </v>
   <v>      -0.00283480      -0.00000000       0.00000278 </v>
   <v>      -0.00283480       0.00000278      -0.00000000 </v>
   <v>       0.02027614      -0.00000000      -0.00000000 </v>
   <v>      -0.00021344       0.00129867      -0.00129867 </v>
   <v>      -0.00283480      -0.00000000      -0.00000278 </v>
   <v>      -0.00066980       0.00000290      -0.00000000 </v>
   <v>       0.00016726      -0.00000000      -0.00000000 </v>
   <v>      -0.00021344      -0.00129867       0.00129867 </v>
   <v>      -0.00066980      -0.00000000       0.00000290 </v>
   <v>      -0.00283480      -0.00000278      -0.00000000 </v>
   <v>       0.00016726      -0.00000000      -0.00000000 </v>
   <v>      -0.00021344      -0.00129867      -0.00129867 </v>
   <v>      -0.00066980      -0.00000000      -0.00000290 </v>
   <v>      -0.00066980      -0.00000290      -0.00000000 </v>
   <v>       0.00000550      -0.00000000      -0.00000000 </v>
   <v>      -0.07604922      -0.00000000      -0.00000000 </v>
   <v>       0.00386084       0.00573525      -0.00000000 </v>
   <v>       0.00386084      -0.00000000       0.00573525 </v>
   <v>      -0.00233806       0.00003044       0.00003044 </v>
   <v>      -0.00154965      -0.00000000      -0.00000000 </v>
   <v>      -0.00003715       0.00056808      -0.00000000 </v>
   <v>       0.00386084      -0.00000000      -0.00573525 </v>
   <v>      -0.00233806       0.00003044      -0.00003044 </v>
   <v>      -0.00154965      -0.00000000      -0.00000000 </v>
   <v>       0.00386084      -0.00573525      -0.00000000 </v>
   <v>      -0.00003715      -0.00000000       0.00056808 </v>
   <v>      -0.00233806      -0.00003044       0.00003044 </v>
   <v>      -0.00051999      -0.00000000      -0.00000000 </v>
   <v>      -0.00003715      -0.00056808      -0.00000000 </v>
   <v>      -0.00003715      -0.00000000      -0.00056808 </v>
   <v>      -0.00233806      -0.00003044      -0.00003044 </v>
   <v>       0.00384335      -0.00000000      -0.00000000 </v>
   <v>       0.00391802      -0.00588351      -0.00000000 </v>
   <v>       0.00391802      -0.00000000      -0.00588351 </v>
   <v>       0.00154777      -0.00000313      -0.00000313 </v>
   <v>       0.00196051      -0.00000000      -0.00000000 </v>
   <v>      -0.00005349      -0.00057584      -0.00000000 </v>
   <v>       0.00391802      -0.00000000       0.00588351 </v>
   <v>       0.00154777      -0.00000313       0.00000313 </v>
   <v>       0.00196051      -0.00000000      -0.00000000 </v>
   <v>       0.00391802       0.00588351      -0.00000000 </v>
   <v>      -0.00005349      -0.00000000      -0.00057584 </v>
   <v>       0.00154777       0.00000313      -0.00000313 </v>
   <v>       0.00052927      -0.00000000      -0.00000000 </v>
   <v>      -0.00005349       0.00057584      -0.00000000 </v>
   <v>      -0.00005349      -0.00000000       0.00057584 </v>
   <v>       0.00154777       0.00000313       0.00000313 </v>
  </varray>
  <varray name="stress" >
   <v>      -0.36644661       0.00000000       0.00000000 </v>
   <v>      -0.00000000      -0.37809706      -0.00000000 </v>
   <v>       0.00000000       0.00000000      -0.37809706 </v>
  </varray>
  <energy>
   <i name="e_fr_energy">   -223.90156137 </i>
   <i name="e_wo_entrp">   -223.90156137 </i>
   <i name="e_0_energy">   -223.90156137 </i>
  </energy>
  <time name="totalsc">  191.24  192.27</time>
  <eigenvalues>
   <array>
    <dimension dim="1">band</dimension>
    <dimension dim="2">kpoint</dimension>
    <dimension dim="3">spin</dimension>
    <field>eigene</field>
    <field>occ</field>
    <set>
     <set comment="spin 1">
      <set comment="kpoint 1">
       <r>  -21.3090    1.0000 </r>
       <r>  -21.3090    1.0000 </r>
       <r>  -21.3085    1.0000 </r>
       <r>  -21.3036    1.0000 </r>
       <r>  -21.3006    1.0000 </r>
       <r>  -21.2999    1.0000 </r>
       <r>  -21.2999    1.0000 </r>
       <r>  -21.2934    1.0000 </r>
       <r>  -21.2934    1.0000 </r>
       <r>  -21.2933    1.0000 </r>
       <r>  -21.2933    1.0000 </r>
       <r>  -21.2933    1.0000 </r>
       <r>  -21.2931    1.0000 </r>
       <r>  -21.2931    1.0000 </r>
       <r>  -21.2929    1.0000 </r>
       <r>  -21.2929    1.0000 </r>
       <r>  -21.2925    1.0000 </r>
       <r>  -21.2915    1.0000 </r>
       <r>  -21.2915    1.0000 </r>
       <r>  -21.2896    1.0000 </r>
       <r>  -21.2896    1.0000 </r>
       <r>  -21.2879    1.0000 </r>
       <r>  -21.2863    1.0000 </r>
       <r>  -21.2863    1.0000 </r>
       <r>  -21.2856    1.0000 </r>
       <r>  -21.2856    1.0000 </r>
       <r>  -21.2855    1.0000 </r>
       <r>  -21.2855    1.0000 </r>
       <r>  -21.2855    1.0000 </r>
       <r>  -21.2854    1.0000 </r>
       <r>  -21.2854    1.0000 </r>
       <r>  -21.2838    1.0000 </r>
       <r>  -21.2837    1.0000 </r>
       <r>  -21.2836    1.0000 </r>
       <r>  -21.2836    1.0000 </r>
       <r>  -21.2836    1.0000 </r>
       <r>  -21.2836    1.0000 </r>
       <r>  -21.2829    1.0000 </r>
       <r>  -21.2823    1.0000 </r>
       <r>  -21.2823    1.0000 </r>
       <r>  -21.2813    1.0000 </r>
       <r>  -21.2812    1.0000 </r>
       <r>  -21.2811    1.0000 </r>
       <r>  -21.2806    1.0000 </r>
       <r>  -21.2804    1.0000 </r>
       <r>  -21.2802    1.0000 </r>
       <r>  -21.2802    1.0000 </r>
       <r>  -21.2800    1.0000 </r>
       <r>  -21.2800    1.0000 </r>
       <r>  -21.2799    1.0000 </r>
       <r>  -21.2799    1.0000 </r>
       <r>  -21.2799    1.0000 </r>
       <r>  -21.2799    1.0000 </r>
       <r>  -21.2798    1.0000 </r>
       <r>  -21.2798    1.0000 </r>
       <r>  -21.2791    1.0000 </r>
       <r>  -21.2791    1.0000 </r>
       <r>  -21.2787    1.0000 </r>
       <r>  -21.2772    1.0000 </r>
       <r>  -21.2772    1.0000 </r>
       <r>  -21.2762    1.0000 </r>
       <r>  -21.2758    1.0000 </r>
       <r>  -21.2756    1.0000 </r>
       <r>  -21.2756    1.0000 </r>
       <r>  -21.2747    1.0000 </r>
       <r>  -21.2747    1.0000 </r>
       <r>  -21.2747    1.0000 </r>
       <r>  -21.2744    1.0000 </r>
       <r>  -21.2744    1.0000 </r>
       <r>  -21.2742    1.0000 </r>
       <r>  -21.2742    1.0000 </r>
       <r>  -21.2734    1.0000 </r>
       <r>  -21.2734    1.0000 </r>
       <r>  -21.2725    1.0000 </r>
       <r>  -21.2725    1.0000 </r>
       <r>  -21.2719    1.0000 </r>
       <r>  -21.2719    1.0000 </r>
       <r>  -21.2718    1.0000 </r>
       <r>  -21.2718    1.0000 </r>
       <r>  -21.2716    1.0000 </r>
       <r>  -21.2716    1.0000 </r>
       <r>  -21.2715    1.0000 </r>
       <r>  -21.2714    1.0000 </r>
       <r>  -21.2714    1.0000 </r>
       <r>  -21.2712    1.0000 </r>
       <r>  -21.2710    1.0000 </r>
       <r>  -21.2710    1.0000 </r>
       <r>  -21.2709    1.0000 </r>
       <r>  -21.2708    1.0000 </r>
       <r>  -21.2708    1.0000 </r>
       <r>  -21.2695    1.0000 </r>
       <r>  -21.2685    1.0000 </r>
       <r>  -21.2685    1.0000 </r>
       <r>  -21.2556    1.0000 </r>
       <r>  -21.2556    1.0000 </r>
       <r>  -21.2555    1.0000 </r>
       <r>  -13.3579    1.0000 </r>
       <r>  -13.1388    1.0000 </r>
       <r>  -13.1374    1.0000 </r>
       <r>  -13.1374    1.0000 </r>
       <r>  -13.1374    1.0000 </r>
       <r>  -13.1373    1.0000 </r>
       <r>  -13.1360    1.0000 </r>
       <r>  -13.0145    1.0000 </r>
       <r>  -13.0145    1.0000 </r>
       <r>  -13.0127    1.0000 </r>
       <r>  -13.0113    1.0000 </r>
       <r>  -13.0112    1.0000 </r>
       <r>  -13.0112    1.0000 </r>
       <r>  -13.0112    1.0000 </r>
       <r>  -13.0112    1.0000 </r>
       <r>  -13.0111    1.0000 </r>
       <r>  -13.0098    1.0000 </r>
       <r>  -13.0087    1.0000 </r>
       <r>  -13.0087    1.0000 </r>
       <r>  -12.9900    1.0000 </r>
       <r>  -12.9899    1.0000 </r>
       <r>  -12.9891    1.0000 </r>
       <r>  -12.9891    1.0000 </r>
       <r>  -12.9417    1.0000 </r>
       <r>  -12.9408    1.0000 </r>
       <r>  -12.9406    1.0000 </r>
       <r>  -12.9230    1.0000 </r>
       <r>  -12.9215    1.0000 </r>
       <r>  -12.9213    1.0000 </r>
       <r>  -12.9213    1.0000 </r>
       <r>  -12.9212    1.0000 </r>
       <r>  -12.9188    1.0000 </r>
       <r>   -2.7000    1.0000 </r>
       <r>   -2.7000    1.0000 </r>
       <r>   -2.6999    1.0000 </r>
       <r>   -2.6999    1.0000 </r>
       <r>   -2.4239    1.0000 </r>
       <r>   -2.4239    1.0000 </r>
       <r>   -2.4239    1.0000 </r>
       <r>   -2.2053    1.0000 </r>
       <r>   -2.2049    1.0000 </r>
       <r>   -2.2049    1.0000 </r>
       <r>   -2.2043    1.0000 </r>
       <r>   -2.2043    1.0000 </r>
       <r>   -2.2042    1.0000 </r>
       <r>   -2.2042    1.0000 </r>
       <r>   -2.2042    1.0000 </r>
       <r>   -2.2041    1.0000 </r>
       <r>   -2.2035    1.0000 </r>
       <r>   -2.2035    1.0000 </r>
       <r>   -2.2032    1.0000 </r>
       <r>   -1.9266    1.0000 </r>
       <r>   -1.9266    1.0000 </r>
       <r>   -1.9256    1.0000 </r>
       <r>   -1.9256    1.0000 </r>
       <r>   -1.9247    1.0000 </r>
       <r>   -1.9247    1.0000 </r>
       <r>   -1.9246    1.0000 </r>
       <r>   -1.9246    1.0000 </r>
       <r>   -1.9237    1.0000 </r>
       <r>   -1.9237    1.0000 </r>
       <r>   -1.9227    1.0000 </r>
       <r>   -1.9227    1.0000 </r>
       <r>   -1.7970    1.0000 </r>
       <r>   -1.7966    1.0000 </r>
       <r>   -1.7966    1.0000 </r>
       <r>   -1.7966    1.0000 </r>
       <r>   -1.7966    1.0000 </r>
       <r>   -1.7963    1.0000 </r>
       <r>   -1.5086    1.0000 </r>
       <r>   -1.5086    1.0000 </r>
       <r>   -1.5056    1.0000 </r>
       <r>   -1.5054    1.0000 </r>
       <r>   -1.5053    1.0000 </r>
       <r>   -1.5053    1.0000 </r>
       <r>   -1.5053    1.0000 </r>
       <r>   -1.5052    1.0000 </r>
       <r>   -1.5052    1.0000 </r>
       <r>   -1.5050    1.0000 </r>
       <r>   -1.5022    1.0000 </r>
       <r>   -1.5022    1.0000 </r>
       <r>   -1.4648    1.0000 </r>
       <r>   -1.4630    1.0000 </r>
       <r>   -1.4629    1.0000 </r>
       <r>   -1.4627    1.0000 </r>
       <r>   -1.4627    1.0000 </r>
       <r>   -1.4609    1.0000 </r>
       <r>   -1.2948    1.0000 </r>
       <r>   -1.2948    1.0000 </r>
       <r>   -1.2947    1.0000 </r>
       <r>   -1.2946    1.0000 </r>
       <r>   -1.2946    1.0000 </r>
       <r>   -1.2946    1.0000 </r>
       <r>   -1.0035    1.0000 </r>
       <r>   -1.0035    1.0000 </r>
       <r>   -1.0011    1.0000 </r>
       <r>   -1.0011    1.0000 </r>
       <r>   -1.0009    1.0000 </r>
       <r>   -1.0008    1.0000 </r>
       <r>   -1.0007    1.0000 </r>
       <r>   -1.0007    1.0000 </r>
       <r>   -1.0004    1.0000 </r>
       <r>   -1.0004    1.0000 </r>
       <r>   -0.9979    1.0000 </r>
       <r>   -0.9979    1.0000 </r>
       <r>   -0.9523    1.0000 </r>
       <r>   -0.9512    1.0000 </r>
       <r>   -0.9499    1.0000 </r>
       <r>   -0.9480    1.0000 </r>
       <r>   -0.9480    1.0000 </r>
       <r>   -0.9478    1.0000 </r>
       <r>   -0.9478    1.0000 </r>
       <r>   -0.9478    1.0000 </r>
       <r>   -0.9476    1.0000 </r>
       <r>   -0.9476    1.0000 </r>
       <r>   -0.9475    1.0000 </r>
       <r>   -0.9468    1.0000 </r>
       <r>   -0.9459    1.0000 </r>
       <r>   -0.9459    1.0000 </r>
       <r>   -0.9458    1.0000 </r>
       <r>   -0.9456    1.0000 </r>
       <r>   -0.9456    1.0000 </r>
       <r>   -0.9444    1.0000 </r>
       <r>   -0.9424    1.0000 </r>
       <r>   -0.9417    1.0000 </r>
       <r>   -0.6650    1.0000 </r>
       <r>   -0.6649    1.0000 </r>
       <r>   -0.6649    1.0000 </r>
       <r>    4.3403    0.0000 </r>
       <r>    6.3610    0.0000 </r>
       <r>    6.3680    0.0000 </r>
       <r>    6.3680    0.0000 </r>
       <r>    6.3682    0.0000 </r>
       <r>    6.3682    0.0000 </r>
       <r>    6.3749    0.0000 </r>
       <r>    6.4446    0.0000 </r>
       <r>    6.4446    0.0000 </r>
       <r>    6.4448    0.0000 </r>
       <r>    6.4448    0.0000 </r>
       <r>    6.8279    0.0000 </r>
       <r>    6.8280    0.0000 </r>
       <r>    6.8281    0.0000 </r>
       <r>    7.2068    0.0000 </r>
       <r>    7.2068    0.0000 </r>
       <r>    7.2069    0.0000 </r>
       <r>    7.4541    0.0000 </r>
       <r>    7.4590    0.0000 </r>
       <r>    7.4590    0.0000 </r>
       <r>    7.4642    0.0000 </r>
       <r>    7.4642    0.0000 </r>
       <r>    7.4642    0.0000 </r>
       <r>    7.4642    0.0000 </r>
       <r>    7.4642    0.0000 </r>
       <r>    7.4642    0.0000 </r>
       <r>    7.4694    0.0000 </r>
       <r>    7.4694    0.0000 </r>
       <r>    7.4738    0.0000 </r>
       <r>    8.1629    0.0000 </r>
       <r>    8.1682    0.0000 </r>
       <r>    8.1682    0.0000 </r>
       <r>    8.1684    0.0000 </r>
       <r>    8.1685    0.0000 </r>
       <r>    8.1740    0.0000 </r>
       <r>    8.2776    0.0000 </r>
       <r>    8.2796    0.0000 </r>
       <r>    8.2796    0.0000 </r>
       <r>    8.2797    0.0000 </r>
       <r>    8.2797    0.0000 </r>
       <r>    8.2815    0.0000 </r>
       <r>    8.8909    0.0000 </r>
       <r>    8.8911    0.0000 </r>
       <r>    8.8990    0.0000 </r>
       <r>    8.9007    0.0000 </r>
       <r>    8.9008    0.0000 </r>
       <r>    8.9008    0.0000 </r>
       <r>    8.9009    0.0000 </r>
       <r>    8.9011    0.0000 </r>
       <r>    8.9021    0.0000 </r>
       <r>    8.9036    0.0000 </r>
       <r>    8.9052    0.0000 </r>
       <r>    8.9056    0.0000 </r>
       <r>    8.9123    0.0000 </r>
       <r>    8.9123    0.0000 </r>
       <r>    8.9160    0.0000 </r>
       <r>    8.9161    0.0000 </r>
       <r>    8.9165    0.0000 </r>
       <r>    8.9168    0.0000 </r>
       <r>    8.9170    0.0000 </r>
       <r>    8.9172    0.0000 </r>
       <r>    8.9176    0.0000 </r>
       <r>    8.9252    0.0000 </r>
       <r>    8.9276    0.0000 </r>
      </set>
      <set comment="kpoint 2">
       <r>  -21.3083    1.0000 </r>
       <r>  -21.3083    1.0000 </r>
       <r>  -21.3078    1.0000 </r>
       <r>  -21.2999    1.0000 </r>
       <r>  -21.2985    1.0000 </r>
       <r>  -21.2981    1.0000 </r>
       <r>  -21.2977    1.0000 </r>
       <r>  -21.2975    1.0000 </r>
       <r>  -21.2975    1.0000 </r>
       <r>  -21.2963    1.0000 </r>
       <r>  -21.2963    1.0000 </r>
       <r>  -21.2921    1.0000 </r>
       <r>  -21.2919    1.0000 </r>
       <r>  -21.2919    1.0000 </r>
       <r>  -21.2918    1.0000 </r>
       <r>  -21.2918    1.0000 </r>
       <r>  -21.2917    1.0000 </r>
       <r>  -21.2917    1.0000 </r>
       <r>  -21.2915    1.0000 </r>
       <r>  -21.2894    1.0000 </r>
       <r>  -21.2892    1.0000 </r>
       <r>  -21.2892    1.0000 </r>
       <r>  -21.2890    1.0000 </r>
       <r>  -21.2890    1.0000 </r>
       <r>  -21.2882    1.0000 </r>
       <r>  -21.2877    1.0000 </r>
       <r>  -21.2876    1.0000 </r>
       <r>  -21.2876    1.0000 </r>
       <r>  -21.2874    1.0000 </r>
       <r>  -21.2865    1.0000 </r>
       <r>  -21.2864    1.0000 </r>
       <r>  -21.2864    1.0000 </r>
       <r>  -21.2858    1.0000 </r>
       <r>  -21.2857    1.0000 </r>
       <r>  -21.2847    1.0000 </r>
       <r>  -21.2828    1.0000 </r>
       <r>  -21.2828    1.0000 </r>
       <r>  -21.2825    1.0000 </r>
       <r>  -21.2825    1.0000 </r>
       <r>  -21.2822    1.0000 </r>
       <r>  -21.2822    1.0000 </r>
       <r>  -21.2804    1.0000 </r>
       <r>  -21.2804    1.0000 </r>
       <r>  -21.2801    1.0000 </r>
       <r>  -21.2800    1.0000 </r>
       <r>  -21.2799    1.0000 </r>
       <r>  -21.2785    1.0000 </r>
       <r>  -21.2785    1.0000 </r>
       <r>  -21.2780    1.0000 </r>
       <r>  -21.2780    1.0000 </r>
       <r>  -21.2770    1.0000 </r>
       <r>  -21.2770    1.0000 </r>
       <r>  -21.2770    1.0000 </r>
       <r>  -21.2769    1.0000 </r>
       <r>  -21.2767    1.0000 </r>
       <r>  -21.2767    1.0000 </r>
       <r>  -21.2763    1.0000 </r>
       <r>  -21.2762    1.0000 </r>
       <r>  -21.2762    1.0000 </r>
       <r>  -21.2760    1.0000 </r>
       <r>  -21.2759    1.0000 </r>
       <r>  -21.2758    1.0000 </r>
       <r>  -21.2756    1.0000 </r>
       <r>  -21.2756    1.0000 </r>
       <r>  -21.2755    1.0000 </r>
       <r>  -21.2755    1.0000 </r>
       <r>  -21.2751    1.0000 </r>
       <r>  -21.2749    1.0000 </r>
       <r>  -21.2749    1.0000 </r>
       <r>  -21.2743    1.0000 </r>
       <r>  -21.2743    1.0000 </r>
       <r>  -21.2740    1.0000 </r>
       <r>  -21.2740    1.0000 </r>
       <r>  -21.2728    1.0000 </r>
       <r>  -21.2728    1.0000 </r>
       <r>  -21.2727    1.0000 </r>
       <r>  -21.2727    1.0000 </r>
       <r>  -21.2726    1.0000 </r>
       <r>  -21.2722    1.0000 </r>
       <r>  -21.2722    1.0000 </r>
       <r>  -21.2721    1.0000 </r>
       <r>  -21.2720    1.0000 </r>
       <r>  -21.2718    1.0000 </r>
       <r>  -21.2718    1.0000 </r>
       <r>  -21.2718    1.0000 </r>
       <r>  -21.2718    1.0000 </r>
       <r>  -21.2712    1.0000 </r>
       <r>  -21.2712    1.0000 </r>
       <r>  -21.2711    1.0000 </r>
       <r>  -21.2711    1.0000 </r>
       <r>  -21.2709    1.0000 </r>
       <r>  -21.2688    1.0000 </r>
       <r>  -21.2688    1.0000 </r>
       <r>  -21.2556    1.0000 </r>
       <r>  -21.2556    1.0000 </r>
       <r>  -21.2556    1.0000 </r>
       <r>  -13.2930    1.0000 </r>
       <r>  -13.2894    1.0000 </r>
       <r>  -13.0991    1.0000 </r>
       <r>  -13.0991    1.0000 </r>
       <r>  -13.0991    1.0000 </r>
       <r>  -13.0981    1.0000 </r>
       <r>  -13.0956    1.0000 </r>
       <r>  -13.0947    1.0000 </r>
       <r>  -13.0947    1.0000 </r>
       <r>  -13.0947    1.0000 </r>
       <r>  -13.0051    1.0000 </r>
       <r>  -13.0051    1.0000 </r>
       <r>  -13.0008    1.0000 </r>
       <r>  -13.0006    1.0000 </r>
       <r>  -13.0006    1.0000 </r>
       <r>  -13.0004    1.0000 </r>
       <r>  -12.9980    1.0000 </r>
       <r>  -12.9962    1.0000 </r>
       <r>  -12.9962    1.0000 </r>
       <r>  -12.9929    1.0000 </r>
       <r>  -12.9465    1.0000 </r>
       <r>  -12.9463    1.0000 </r>
       <r>  -12.9459    1.0000 </r>
       <r>  -12.9459    1.0000 </r>
       <r>  -12.9418    1.0000 </r>
       <r>  -12.9414    1.0000 </r>
       <r>  -12.9414    1.0000 </r>
       <r>  -12.9407    1.0000 </r>
       <r>  -12.9352    1.0000 </r>
       <r>  -12.9312    1.0000 </r>
       <r>  -12.9311    1.0000 </r>
       <r>  -12.9264    1.0000 </r>
       <r>   -2.5074    1.0000 </r>
       <r>   -2.5067    1.0000 </r>
       <r>   -2.5046    1.0000 </r>
       <r>   -2.5046    1.0000 </r>
       <r>   -2.5040    1.0000 </r>
       <r>   -2.5040    1.0000 </r>
       <r>   -2.5020    1.0000 </r>
       <r>   -2.5012    1.0000 </r>
       <r>   -2.2890    1.0000 </r>
       <r>   -2.2890    1.0000 </r>
       <r>   -2.2863    1.0000 </r>
       <r>   -2.2863    1.0000 </r>
       <r>   -2.2761    1.0000 </r>
       <r>   -2.2721    1.0000 </r>
       <r>   -2.1391    1.0000 </r>
       <r>   -2.1371    1.0000 </r>
       <r>   -2.1367    1.0000 </r>
       <r>   -2.1367    1.0000 </r>
       <r>   -2.1361    1.0000 </r>
       <r>   -2.1361    1.0000 </r>
       <r>   -2.1357    1.0000 </r>
       <r>   -2.1336    1.0000 </r>
       <r>   -1.9867    1.0000 </r>
       <r>   -1.9866    1.0000 </r>
       <r>   -1.9866    1.0000 </r>
       <r>   -1.9866    1.0000 </r>
       <r>   -1.9843    1.0000 </r>
       <r>   -1.9843    1.0000 </r>
       <r>   -1.9843    1.0000 </r>
       <r>   -1.9842    1.0000 </r>
       <r>   -1.8109    1.0000 </r>
       <r>   -1.8108    1.0000 </r>
       <r>   -1.8097    1.0000 </r>
       <r>   -1.8097    1.0000 </r>
       <r>   -1.8079    1.0000 </r>
       <r>   -1.8079    1.0000 </r>
       <r>   -1.8067    1.0000 </r>
       <r>   -1.8066    1.0000 </r>
       <r>   -1.5009    1.0000 </r>
       <r>   -1.5009    1.0000 </r>
       <r>   -1.4944    1.0000 </r>
       <r>   -1.4944    1.0000 </r>
       <r>   -1.3844    1.0000 </r>
       <r>   -1.3808    1.0000 </r>
       <r>   -1.3800    1.0000 </r>
       <r>   -1.3763    1.0000 </r>
       <r>   -1.2140    1.0000 </r>
       <r>   -1.2140    1.0000 </r>
       <r>   -1.2107    1.0000 </r>
       <r>   -1.2107    1.0000 </r>
       <r>   -1.1951    1.0000 </r>
       <r>   -1.1918    1.0000 </r>
       <r>   -1.1914    1.0000 </r>
       <r>   -1.1914    1.0000 </r>
       <r>   -1.1910    1.0000 </r>
       <r>   -1.1910    1.0000 </r>
       <r>   -1.1900    1.0000 </r>
       <r>   -1.1883    1.0000 </r>
       <r>   -1.1781    1.0000 </r>
       <r>   -1.1781    1.0000 </r>
       <r>   -1.1760    1.0000 </r>
       <r>   -1.1753    1.0000 </r>
       <r>   -1.1733    1.0000 </r>
       <r>   -1.1710    1.0000 </r>
       <r>   -1.1702    1.0000 </r>
       <r>   -1.1702    1.0000 </r>
       <r>   -1.1635    1.0000 </r>
       <r>   -1.1635    1.0000 </r>
       <r>   -1.1618    1.0000 </r>
       <r>   -1.1617    1.0000 </r>
       <r>   -1.1577    1.0000 </r>
       <r>   -1.1575    1.0000 </r>
       <r>   -1.1552    1.0000 </r>
       <r>   -1.1552    1.0000 </r>
       <r>   -1.0858    1.0000 </r>
       <r>   -1.0808    1.0000 </r>
       <r>   -0.9516    1.0000 </r>
       <r>   -0.9511    1.0000 </r>
       <r>   -0.9469    1.0000 </r>
       <r>   -0.9469    1.0000 </r>
       <r>   -0.9468    1.0000 </r>
       <r>   -0.9468    1.0000 </r>
       <r>   -0.9426    1.0000 </r>
       <r>   -0.9423    1.0000 </r>
       <r>   -0.9342    1.0000 </r>
       <r>   -0.9340    1.0000 </r>
       <r>   -0.9340    1.0000 </r>
       <r>   -0.9333    1.0000 </r>
       <r>   -0.9315    1.0000 </r>
       <r>   -0.9308    1.0000 </r>
       <r>   -0.9308    1.0000 </r>
       <r>   -0.9305    1.0000 </r>
       <r>   -0.7712    1.0000 </r>
       <r>   -0.7712    1.0000 </r>
       <r>   -0.7654    1.0000 </r>
       <r>   -0.7654    1.0000 </r>
       <r>    5.0188    0.0000 </r>
       <r>    5.0259    0.0000 </r>
       <r>    6.7098    0.0000 </r>
       <r>    6.7145    0.0000 </r>
       <r>    6.7145    0.0000 </r>
       <r>    6.7171    0.0000 </r>
       <r>    6.7197    0.0000 </r>
       <r>    6.7219    0.0000 </r>
       <r>    6.7219    0.0000 </r>
       <r>    6.7261    0.0000 </r>
       <r>    6.8386    0.0000 </r>
       <r>    6.8386    0.0000 </r>
       <r>    6.8401    0.0000 </r>
       <r>    6.8428    0.0000 </r>
       <r>    6.8436    0.0000 </r>
       <r>    6.8461    0.0000 </r>
       <r>    6.8482    0.0000 </r>
       <r>    6.8482    0.0000 </r>
       <r>    6.9683    0.0000 </r>
       <r>    6.9741    0.0000 </r>
       <r>    7.3562    0.0000 </r>
       <r>    7.3626    0.0000 </r>
       <r>    7.3626    0.0000 </r>
       <r>    7.3689    0.0000 </r>
       <r>    7.4789    0.0000 </r>
       <r>    7.4816    0.0000 </r>
       <r>    7.7110    0.0000 </r>
       <r>    7.7110    0.0000 </r>
       <r>    7.7182    0.0000 </r>
       <r>    7.7182    0.0000 </r>
       <r>    8.2559    0.0000 </r>
       <r>    8.2637    0.0000 </r>
       <r>    8.2637    0.0000 </r>
       <r>    8.2651    0.0000 </r>
       <r>    8.2668    0.0000 </r>
       <r>    8.2680    0.0000 </r>
       <r>    8.2680    0.0000 </r>
       <r>    8.2750    0.0000 </r>
       <r>    8.5285    0.0000 </r>
       <r>    8.5285    0.0000 </r>
       <r>    8.5315    0.0000 </r>
       <r>    8.5367    0.0000 </r>
       <r>    8.5374    0.0000 </r>
       <r>    8.5375    0.0000 </r>
       <r>    8.5375    0.0000 </r>
       <r>    8.5386    0.0000 </r>
       <r>    8.5388    0.0000 </r>
       <r>    8.5394    0.0000 </r>
       <r>    8.5394    0.0000 </r>
       <r>    8.5399    0.0000 </r>
       <r>    8.5400    0.0000 </r>
       <r>    8.5460    0.0000 </r>
       <r>    8.5485    0.0000 </r>
       <r>    8.5485    0.0000 </r>
       <r>    8.9467    0.0000 </r>
       <r>    8.9467    0.0000 </r>
       <r>    8.9491    0.0000 </r>
       <r>    8.9506    0.0000 </r>
       <r>    8.9512    0.0000 </r>
       <r>    8.9527    0.0000 </r>
       <r>    8.9553    0.0000 </r>
       <r>    8.9553    0.0000 </r>
       <r>    9.4912    0.0000 </r>
       <r>    9.5162    0.0000 </r>
      </set>
      <set comment="kpoint 3">
       <r>  -21.3081    1.0000 </r>
       <r>  -21.3078    1.0000 </r>
       <r>  -21.3078    1.0000 </r>
       <r>  -21.2996    1.0000 </r>
       <r>  -21.2996    1.0000 </r>
       <r>  -21.2993    1.0000 </r>
       <r>  -21.2993    1.0000 </r>
       <r>  -21.2992    1.0000 </r>
       <r>  -21.2967    1.0000 </r>
       <r>  -21.2957    1.0000 </r>
       <r>  -21.2945    1.0000 </r>
       <r>  -21.2925    1.0000 </r>
       <r>  -21.2915    1.0000 </r>
       <r>  -21.2912    1.0000 </r>
       <r>  -21.2912    1.0000 </r>
       <r>  -21.2911    1.0000 </r>
       <r>  -21.2910    1.0000 </r>
       <r>  -21.2910    1.0000 </r>
       <r>  -21.2910    1.0000 </r>
       <r>  -21.2907    1.0000 </r>
       <r>  -21.2896    1.0000 </r>
       <r>  -21.2894    1.0000 </r>
       <r>  -21.2891    1.0000 </r>
       <r>  -21.2888    1.0000 </r>
       <r>  -21.2886    1.0000 </r>
       <r>  -21.2882    1.0000 </r>
       <r>  -21.2880    1.0000 </r>
       <r>  -21.2880    1.0000 </r>
       <r>  -21.2877    1.0000 </r>
       <r>  -21.2867    1.0000 </r>
       <r>  -21.2848    1.0000 </r>
       <r>  -21.2842    1.0000 </r>
       <r>  -21.2841    1.0000 </r>
       <r>  -21.2841    1.0000 </r>
       <r>  -21.2840    1.0000 </r>
       <r>  -21.2840    1.0000 </r>
       <r>  -21.2840    1.0000 </r>
       <r>  -21.2838    1.0000 </r>
       <r>  -21.2835    1.0000 </r>
       <r>  -21.2822    1.0000 </r>
       <r>  -21.2820    1.0000 </r>
       <r>  -21.2814    1.0000 </r>
       <r>  -21.2810    1.0000 </r>
       <r>  -21.2803    1.0000 </r>
       <r>  -21.2802    1.0000 </r>
       <r>  -21.2802    1.0000 </r>
       <r>  -21.2793    1.0000 </r>
       <r>  -21.2791    1.0000 </r>
       <r>  -21.2785    1.0000 </r>
       <r>  -21.2780    1.0000 </r>
       <r>  -21.2774    1.0000 </r>
       <r>  -21.2773    1.0000 </r>
       <r>  -21.2772    1.0000 </r>
       <r>  -21.2770    1.0000 </r>
       <r>  -21.2767    1.0000 </r>
       <r>  -21.2764    1.0000 </r>
       <r>  -21.2764    1.0000 </r>
       <r>  -21.2761    1.0000 </r>
       <r>  -21.2758    1.0000 </r>
       <r>  -21.2758    1.0000 </r>
       <r>  -21.2756    1.0000 </r>
       <r>  -21.2756    1.0000 </r>
       <r>  -21.2755    1.0000 </r>
       <r>  -21.2750    1.0000 </r>
       <r>  -21.2749    1.0000 </r>
       <r>  -21.2748    1.0000 </r>
       <r>  -21.2748    1.0000 </r>
       <r>  -21.2747    1.0000 </r>
       <r>  -21.2746    1.0000 </r>
       <r>  -21.2746    1.0000 </r>
       <r>  -21.2745    1.0000 </r>
       <r>  -21.2745    1.0000 </r>
       <r>  -21.2743    1.0000 </r>
       <r>  -21.2739    1.0000 </r>
       <r>  -21.2739    1.0000 </r>
       <r>  -21.2734    1.0000 </r>
       <r>  -21.2729    1.0000 </r>
       <r>  -21.2725    1.0000 </r>
       <r>  -21.2724    1.0000 </r>
       <r>  -21.2723    1.0000 </r>
       <r>  -21.2720    1.0000 </r>
       <r>  -21.2717    1.0000 </r>
       <r>  -21.2715    1.0000 </r>
       <r>  -21.2712    1.0000 </r>
       <r>  -21.2712    1.0000 </r>
       <r>  -21.2711    1.0000 </r>
       <r>  -21.2708    1.0000 </r>
       <r>  -21.2706    1.0000 </r>
       <r>  -21.2705    1.0000 </r>
       <r>  -21.2702    1.0000 </r>
       <r>  -21.2701    1.0000 </r>
       <r>  -21.2701    1.0000 </r>
       <r>  -21.2700    1.0000 </r>
       <r>  -21.2558    1.0000 </r>
       <r>  -21.2557    1.0000 </r>
       <r>  -21.2555    1.0000 </r>
       <r>  -13.2912    1.0000 </r>
       <r>  -13.2912    1.0000 </r>
       <r>  -13.0984    1.0000 </r>
       <r>  -13.0980    1.0000 </r>
       <r>  -13.0971    1.0000 </r>
       <r>  -13.0969    1.0000 </r>
       <r>  -13.0969    1.0000 </r>
       <r>  -13.0968    1.0000 </r>
       <r>  -13.0958    1.0000 </r>
       <r>  -13.0954    1.0000 </r>
       <r>  -13.0019    1.0000 </r>
       <r>  -13.0011    1.0000 </r>
       <r>  -13.0008    1.0000 </r>
       <r>  -13.0006    1.0000 </r>
       <r>  -13.0006    1.0000 </r>
       <r>  -13.0006    1.0000 </r>
       <r>  -13.0006    1.0000 </r>
       <r>  -13.0001    1.0000 </r>
       <r>  -12.9952    1.0000 </r>
       <r>  -12.9952    1.0000 </r>
       <r>  -12.9456    1.0000 </r>
       <r>  -12.9453    1.0000 </r>
       <r>  -12.9438    1.0000 </r>
       <r>  -12.9438    1.0000 </r>
       <r>  -12.9437    1.0000 </r>
       <r>  -12.9433    1.0000 </r>
       <r>  -12.9427    1.0000 </r>
       <r>  -12.9424    1.0000 </r>
       <r>  -12.9311    1.0000 </r>
       <r>  -12.9310    1.0000 </r>
       <r>  -12.9306    1.0000 </r>
       <r>  -12.9296    1.0000 </r>
       <r>   -2.5049    1.0000 </r>
       <r>   -2.5049    1.0000 </r>
       <r>   -2.5048    1.0000 </r>
       <r>   -2.5044    1.0000 </r>
       <r>   -2.5043    1.0000 </r>
       <r>   -2.5038    1.0000 </r>
       <r>   -2.5037    1.0000 </r>
       <r>   -2.5037    1.0000 </r>
       <r>   -2.2877    1.0000 </r>
       <r>   -2.2877    1.0000 </r>
       <r>   -2.2876    1.0000 </r>
       <r>   -2.2876    1.0000 </r>
       <r>   -2.2741    1.0000 </r>
       <r>   -2.2741    1.0000 </r>
       <r>   -2.1379    1.0000 </r>
       <r>   -2.1366    1.0000 </r>
       <r>   -2.1364    1.0000 </r>
       <r>   -2.1364    1.0000 </r>
       <r>   -2.1364    1.0000 </r>
       <r>   -2.1364    1.0000 </r>
       <r>   -2.1362    1.0000 </r>
       <r>   -2.1349    1.0000 </r>
       <r>   -1.9859    1.0000 </r>
       <r>   -1.9858    1.0000 </r>
       <r>   -1.9854    1.0000 </r>
       <r>   -1.9854    1.0000 </r>
       <r>   -1.9854    1.0000 </r>
       <r>   -1.9854    1.0000 </r>
       <r>   -1.9851    1.0000 </r>
       <r>   -1.9849    1.0000 </r>
       <r>   -1.8123    1.0000 </r>
       <r>   -1.8089    1.0000 </r>
       <r>   -1.8088    1.0000 </r>
       <r>   -1.8087    1.0000 </r>
       <r>   -1.8087    1.0000 </r>
       <r>   -1.8087    1.0000 </r>
       <r>   -1.8086    1.0000 </r>
       <r>   -1.8053    1.0000 </r>
       <r>   -1.4978    1.0000 </r>
       <r>   -1.4977    1.0000 </r>
       <r>   -1.4977    1.0000 </r>
       <r>   -1.4977    1.0000 </r>
       <r>   -1.3805    1.0000 </r>
       <r>   -1.3804    1.0000 </r>
       <r>   -1.3804    1.0000 </r>
       <r>   -1.3803    1.0000 </r>
       <r>   -1.2129    1.0000 </r>
       <r>   -1.2125    1.0000 </r>
       <r>   -1.2123    1.0000 </r>
       <r>   -1.2123    1.0000 </r>
       <r>   -1.1918    1.0000 </r>
       <r>   -1.1915    1.0000 </r>
       <r>   -1.1915    1.0000 </r>
       <r>   -1.1912    1.0000 </r>
       <r>   -1.1909    1.0000 </r>
       <r>   -1.1907    1.0000 </r>
       <r>   -1.1903    1.0000 </r>
       <r>   -1.1899    1.0000 </r>
       <r>   -1.1772    1.0000 </r>
       <r>   -1.1746    1.0000 </r>
       <r>   -1.1743    1.0000 </r>
       <r>   -1.1743    1.0000 </r>
       <r>   -1.1739    1.0000 </r>
       <r>   -1.1738    1.0000 </r>
       <r>   -1.1737    1.0000 </r>
       <r>   -1.1718    1.0000 </r>
       <r>   -1.1623    1.0000 </r>
       <r>   -1.1599    1.0000 </r>
       <r>   -1.1597    1.0000 </r>
       <r>   -1.1596    1.0000 </r>
       <r>   -1.1596    1.0000 </r>
       <r>   -1.1596    1.0000 </r>
       <r>   -1.1589    1.0000 </r>
       <r>   -1.1570    1.0000 </r>
       <r>   -1.0833    1.0000 </r>
       <r>   -1.0833    1.0000 </r>
       <r>   -0.9482    1.0000 </r>
       <r>   -0.9469    1.0000 </r>
       <r>   -0.9469    1.0000 </r>
       <r>   -0.9469    1.0000 </r>
       <r>   -0.9468    1.0000 </r>
       <r>   -0.9468    1.0000 </r>
       <r>   -0.9465    1.0000 </r>
       <r>   -0.9456    1.0000 </r>
       <r>   -0.9348    1.0000 </r>
       <r>   -0.9341    1.0000 </r>
       <r>   -0.9325    1.0000 </r>
       <r>   -0.9324    1.0000 </r>
       <r>   -0.9324    1.0000 </r>
       <r>   -0.9322    1.0000 </r>
       <r>   -0.9307    1.0000 </r>
       <r>   -0.9298    1.0000 </r>
       <r>   -0.7684    1.0000 </r>
       <r>   -0.7684    1.0000 </r>
       <r>   -0.7683    1.0000 </r>
       <r>   -0.7682    1.0000 </r>
       <r>    5.0223    0.0000 </r>
       <r>    5.0224    0.0000 </r>
       <r>    6.7092    0.0000 </r>
       <r>    6.7163    0.0000 </r>
       <r>    6.7178    0.0000 </r>
       <r>    6.7184    0.0000 </r>
       <r>    6.7184    0.0000 </r>
       <r>    6.7184    0.0000 </r>
       <r>    6.7203    0.0000 </r>
       <r>    6.7263    0.0000 </r>
       <r>    6.8395    0.0000 </r>
       <r>    6.8400    0.0000 </r>
       <r>    6.8419    0.0000 </r>
       <r>    6.8430    0.0000 </r>
       <r>    6.8435    0.0000 </r>
       <r>    6.8446    0.0000 </r>
       <r>    6.8469    0.0000 </r>
       <r>    6.8471    0.0000 </r>
       <r>    6.9711    0.0000 </r>
       <r>    6.9712    0.0000 </r>
       <r>    7.3625    0.0000 </r>
       <r>    7.3625    0.0000 </r>
       <r>    7.3626    0.0000 </r>
       <r>    7.3627    0.0000 </r>
       <r>    7.4802    0.0000 </r>
       <r>    7.4803    0.0000 </r>
       <r>    7.7146    0.0000 </r>
       <r>    7.7146    0.0000 </r>
       <r>    7.7146    0.0000 </r>
       <r>    7.7146    0.0000 </r>
       <r>    8.2592    0.0000 </r>
       <r>    8.2645    0.0000 </r>
       <r>    8.2660    0.0000 </r>
       <r>    8.2660    0.0000 </r>
       <r>    8.2660    0.0000 </r>
       <r>    8.2660    0.0000 </r>
       <r>    8.2671    0.0000 </r>
       <r>    8.2726    0.0000 </r>
       <r>    8.5284    0.0000 </r>
       <r>    8.5318    0.0000 </r>
       <r>    8.5341    0.0000 </r>
       <r>    8.5358    0.0000 </r>
       <r>    8.5379    0.0000 </r>
       <r>    8.5379    0.0000 </r>
       <r>    8.5382    0.0000 </r>
       <r>    8.5384    0.0000 </r>
       <r>    8.5387    0.0000 </r>
       <r>    8.5388    0.0000 </r>
       <r>    8.5389    0.0000 </r>
       <r>    8.5390    0.0000 </r>
       <r>    8.5417    0.0000 </r>
       <r>    8.5427    0.0000 </r>
       <r>    8.5454    0.0000 </r>
       <r>    8.5484    0.0000 </r>
       <r>    8.9417    0.0000 </r>
       <r>    8.9504    0.0000 </r>
       <r>    8.9509    0.0000 </r>
       <r>    8.9509    0.0000 </r>
       <r>    8.9509    0.0000 </r>
       <r>    8.9509    0.0000 </r>
       <r>    8.9514    0.0000 </r>
       <r>    8.9602    0.0000 </r>
       <r>    9.4873    0.0000 </r>
       <r>    9.4911    0.0000 </r>
      </set>
      <set comment="kpoint 4">
       <r>  -21.3077    1.0000 </r>
       <r>  -21.3076    1.0000 </r>
       <r>  -21.3075    1.0000 </r>
       <r>  -21.2978    1.0000 </r>
       <r>  -21.2976    1.0000 </r>
       <r>  -21.2970    1.0000 </r>
       <r>  -21.2968    1.0000 </r>
       <r>  -21.2964    1.0000 </r>
       <r>  -21.2958    1.0000 </r>
       <r>  -21.2952    1.0000 </r>
       <r>  -21.2950    1.0000 </r>
       <r>  -21.2940    1.0000 </r>
       <r>  -21.2939    1.0000 </r>
       <r>  -21.2933    1.0000 </r>
       <r>  -21.2929    1.0000 </r>
       <r>  -21.2927    1.0000 </r>
       <r>  -21.2927    1.0000 </r>
       <r>  -21.2925    1.0000 </r>
       <r>  -21.2924    1.0000 </r>
       <r>  -21.2918    1.0000 </r>
       <r>  -21.2913    1.0000 </r>
       <r>  -21.2911    1.0000 </r>
       <r>  -21.2910    1.0000 </r>
       <r>  -21.2901    1.0000 </r>
       <r>  -21.2900    1.0000 </r>
       <r>  -21.2897    1.0000 </r>
       <r>  -21.2878    1.0000 </r>
       <r>  -21.2877    1.0000 </r>
       <r>  -21.2876    1.0000 </r>
       <r>  -21.2863    1.0000 </r>
       <r>  -21.2861    1.0000 </r>
       <r>  -21.2854    1.0000 </r>
       <r>  -21.2851    1.0000 </r>
       <r>  -21.2845    1.0000 </r>
       <r>  -21.2837    1.0000 </r>
       <r>  -21.2809    1.0000 </r>
       <r>  -21.2808    1.0000 </r>
[...]
      </set>
     </set>
    </set>
   </array>
  </eigenvalues>
  <separator name="orbital magnetization" >
   <v name="MAGDIPOLOUT">      0.00000000      0.00000000      0.00000000</v>
  </separator>
  <dos>
   <i name="efermi">     -0.55593621 </i>
   <total>
    <array>
     <dimension dim="1">gridpoints</dimension>
     <dimension dim="2">spin</dimension>
     <field>energy</field>
     <field>total</field>
     <field>integrated</field>
     <set>
      <set comment="spin 1">
       <r>   -22.8502     0.0000     0.0000 </r>
       <r>   -22.7372     0.0000     0.0000 </r>
       <r>   -22.6242     0.0000     0.0000 </r>
       <r>   -22.5112     0.0000     0.0000 </r>
       <r>   -22.3981     0.0000     0.0000 </r>
       <r>   -22.2851     0.0000     0.0000 </r>
       <r>   -22.1721     0.0000     0.0000 </r>
       <r>   -22.0590     0.0000     0.0000 </r>
       <r>   -21.9460     0.0000     0.0000 </r>
       <r>   -21.8330     0.0000     0.0000 </r>
       <r>   -21.7200     0.0000     0.0000 </r>
       <r>   -21.6069     0.0000     0.0000 </r>
       <r>   -21.4939     0.0000     0.0000 </r>
       <r>   -21.3809     0.0000     0.0000 </r>
       <r>   -21.2679  1315.7772   148.7165 </r>
       <r>   -21.1548   382.9536   192.0000 </r>
       <r>   -21.0418     0.0000   192.0000 </r>
       <r>   -20.9288     0.0000   192.0000 </r>
       <r>   -20.8158     0.0000   192.0000 </r>
       <r>   -20.7027     0.0000   192.0000 </r>
       <r>   -20.5897     0.0000   192.0000 </r>
       <r>   -20.4767     0.0000   192.0000 </r>
       <r>   -20.3637     0.0000   192.0000 </r>
       <r>   -20.2506     0.0000   192.0000 </r>
       <r>   -20.1376     0.0000   192.0000 </r>
       <r>   -20.0246     0.0000   192.0000 </r>
       <r>   -19.9116     0.0000   192.0000 </r>
       <r>   -19.7985     0.0000   192.0000 </r>
       <r>   -19.6855     0.0000   192.0000 </r>
       <r>   -19.5725     0.0000   192.0000 </r>
       <r>   -19.4595     0.0000   192.0000 </r>
       <r>   -19.3464     0.0000   192.0000 </r>
       <r>   -19.2334     0.0000   192.0000 </r>
       <r>   -19.1204     0.0000   192.0000 </r>
       <r>   -19.0074     0.0000   192.0000 </r>
       <r>   -18.8943     0.0000   192.0000 </r>
       <r>   -18.7813     0.0000   192.0000 </r>
       <r>   -18.6683     0.0000   192.0000 </r>
       <r>   -18.5553     0.0000   192.0000 </r>
       <r>   -18.4422     0.0000   192.0000 </r>
       <r>   -18.3292     0.0000   192.0000 </r>
       <r>   -18.2162     0.0000   192.0000 </r>
       <r>   -18.1032     0.0000   192.0000 </r>
       <r>   -17.9901     0.0000   192.0000 </r>
       <r>   -17.8771     0.0000   192.0000 </r>
       <r>   -17.7641     0.0000   192.0000 </r>
       <r>   -17.6511     0.0000   192.0000 </r>
       <r>   -17.5380     0.0000   192.0000 </r>
       <r>   -17.4250     0.0000   192.0000 </r>
       <r>   -17.3120     0.0000   192.0000 </r>
       <r>   -17.1990     0.0000   192.0000 </r>
       <r>   -17.0859     0.0000   192.0000 </r>
       <r>   -16.9729     0.0000   192.0000 </r>
       <r>   -16.8599     0.0000   192.0000 </r>
       <r>   -16.7468     0.0000   192.0000 </r>
       <r>   -16.6338     0.0000   192.0000 </r>
       <r>   -16.5208     0.0000   192.0000 </r>
       <r>   -16.4078     0.0000   192.0000 </r>
       <r>   -16.2947     0.0000   192.0000 </r>
       <r>   -16.1817     0.0000   192.0000 </r>
       <r>   -16.0687     0.0000   192.0000 </r>
       <r>   -15.9557     0.0000   192.0000 </r>
       <r>   -15.8426     0.0000   192.0000 </r>
       <r>   -15.7296     0.0000   192.0000 </r>
       <r>   -15.6166     0.0000   192.0000 </r>
       <r>   -15.5036     0.0000   192.0000 </r>
       <r>   -15.3905     0.0000   192.0000 </r>
       <r>   -15.2775     0.0000   192.0000 </r>
       <r>   -15.1645     0.0000   192.0000 </r>
       <r>   -15.0515     0.0000   192.0000 </r>
       <r>   -14.9384     0.0000   192.0000 </r>
       <r>   -14.8254     0.0000   192.0000 </r>
       <r>   -14.7124     0.0000   192.0000 </r>
       <r>   -14.5994     0.0000   192.0000 </r>
       <r>   -14.4863     0.0000   192.0000 </r>
       <r>   -14.3733     0.0000   192.0000 </r>
       <r>   -14.2603     0.0000   192.0000 </r>
       <r>   -14.1473     0.0000   192.0000 </r>
       <r>   -14.0342     0.0000   192.0000 </r>
       <r>   -13.9212     0.0000   192.0000 </r>
       <r>   -13.8082     0.0000   192.0000 </r>
       <r>   -13.6952     0.0000   192.0000 </r>
       <r>   -13.5821     0.0000   192.0000 </r>
       <r>   -13.4691     0.0000   192.0000 </r>
       <r>   -13.3561     1.2212   192.1380 </r>
       <r>   -13.2431    19.8564   194.3823 </r>
       <r>   -13.1300    48.4186   199.8552 </r>
       <r>   -13.0170   126.7561   214.1824 </r>
       <r>   -12.9040   366.6574   255.6253 </r>
       <r>   -12.7910     3.3069   256.0000 </r>
       <r>   -12.6779     0.0000   256.0000 </r>
       <r>   -12.5649     0.0000   256.0000 </r>
       <r>   -12.4519     0.0000   256.0000 </r>
       <r>   -12.3389     0.0000   256.0000 </r>
       <r>   -12.2258     0.0000   256.0000 </r>
       <r>   -12.1128     0.0000   256.0000 </r>
       <r>   -11.9998     0.0000   256.0000 </r>
       <r>   -11.8867     0.0000   256.0000 </r>
       <r>   -11.7737     0.0000   256.0000 </r>
       <r>   -11.6607     0.0000   256.0000 </r>
       <r>   -11.5477     0.0000   256.0000 </r>
       <r>   -11.4346     0.0000   256.0000 </r>
       <r>   -11.3216     0.0000   256.0000 </r>
       <r>   -11.2086     0.0000   256.0000 </r>
       <r>   -11.0956     0.0000   256.0000 </r>
       <r>   -10.9825     0.0000   256.0000 </r>
       <r>   -10.8695     0.0000   256.0000 </r>
       <r>   -10.7565     0.0000   256.0000 </r>
       <r>   -10.6435     0.0000   256.0000 </r>
       <r>   -10.5304     0.0000   256.0000 </r>
       <r>   -10.4174     0.0000   256.0000 </r>
       <r>   -10.3044     0.0000   256.0000 </r>
       <r>   -10.1914     0.0000   256.0000 </r>
       <r>   -10.0783     0.0000   256.0000 </r>
       <r>    -9.9653     0.0000   256.0000 </r>
       <r>    -9.8523     0.0000   256.0000 </r>
       <r>    -9.7393     0.0000   256.0000 </r>
       <r>    -9.6262     0.0000   256.0000 </r>
       <r>    -9.5132     0.0000   256.0000 </r>
       <r>    -9.4002     0.0000   256.0000 </r>
       <r>    -9.2872     0.0000   256.0000 </r>
       <r>    -9.1741     0.0000   256.0000 </r>
       <r>    -9.0611     0.0000   256.0000 </r>
       <r>    -8.9481     0.0000   256.0000 </r>
       <r>    -8.8351     0.0000   256.0000 </r>
       <r>    -8.7220     0.0000   256.0000 </r>
       <r>    -8.6090     0.0000   256.0000 </r>
       <r>    -8.4960     0.0000   256.0000 </r>
       <r>    -8.3830     0.0000   256.0000 </r>
       <r>    -8.2699     0.0000   256.0000 </r>
       <r>    -8.1569     0.0000   256.0000 </r>
       <r>    -8.0439     0.0000   256.0000 </r>
       <r>    -7.9309     0.0000   256.0000 </r>
       <r>    -7.8178     0.0000   256.0000 </r>
       <r>    -7.7048     0.0000   256.0000 </r>
       <r>    -7.5918     0.0000   256.0000 </r>
       <r>    -7.4788     0.0000   256.0000 </r>
       <r>    -7.3657     0.0000   256.0000 </r>
       <r>    -7.2527     0.0000   256.0000 </r>
       <r>    -7.1397     0.0000   256.0000 </r>
       <r>    -7.0266     0.0000   256.0000 </r>
       <r>    -6.9136     0.0000   256.0000 </r>
       <r>    -6.8006     0.0000   256.0000 </r>
       <r>    -6.6876     0.0000   256.0000 </r>
       <r>    -6.5745     0.0000   256.0000 </r>
       <r>    -6.4615     0.0000   256.0000 </r>
       <r>    -6.3485     0.0000   256.0000 </r>
       <r>    -6.2355     0.0000   256.0000 </r>
       <r>    -6.1224     0.0000   256.0000 </r>
       <r>    -6.0094     0.0000   256.0000 </r>
       <r>    -5.8964     0.0000   256.0000 </r>
       <r>    -5.7834     0.0000   256.0000 </r>
       <r>    -5.6703     0.0000   256.0000 </r>
       <r>    -5.5573     0.0000   256.0000 </r>
       <r>    -5.4443     0.0000   256.0000 </r>
       <r>    -5.3313     0.0000   256.0000 </r>
       <r>    -5.2182     0.0000   256.0000 </r>
       <r>    -5.1052     0.0000   256.0000 </r>
       <r>    -4.9922     0.0000   256.0000 </r>
       <r>    -4.8792     0.0000   256.0000 </r>
       <r>    -4.7661     0.0000   256.0000 </r>
       <r>    -4.6531     0.0000   256.0000 </r>
       <r>    -4.5401     0.0000   256.0000 </r>
       <r>    -4.4271     0.0000   256.0000 </r>
       <r>    -4.3140     0.0000   256.0000 </r>
       <r>    -4.2010     0.0000   256.0000 </r>
       <r>    -4.0880     0.0000   256.0000 </r>
       <r>    -3.9750     0.0000   256.0000 </r>
       <r>    -3.8619     0.0000   256.0000 </r>
       <r>    -3.7489     0.0000   256.0000 </r>
       <r>    -3.6359     0.0000   256.0000 </r>
       <r>    -3.5229     0.0000   256.0000 </r>
       <r>    -3.4098     0.0000   256.0000 </r>
       <r>    -3.2968     0.0000   256.0000 </r>
       <r>    -3.1838     0.0000   256.0000 </r>
       <r>    -3.0708     0.0000   256.0000 </r>
       <r>    -2.9577     0.0000   256.0000 </r>
       <r>    -2.8447     0.0000   256.0000 </r>
       <r>    -2.7317     0.1099   256.0124 </r>
       <r>    -2.6187     8.7376   257.0000 </r>
       <r>    -2.5056    24.5782   259.7780 </r>
       <r>    -2.3926    84.1073   269.2843 </r>
       <r>    -2.2796    82.1304   278.5671 </r>
       <r>    -2.1666   154.6714   296.0503 </r>
       <r>    -2.0535    72.5471   304.2500 </r>
       <r>    -1.9405    56.5542   310.6421 </r>
       <r>    -1.8275    62.0582   317.6562 </r>
       <r>    -1.7144    71.6100   325.7500 </r>
       <r>    -1.6014     0.0000   325.7500 </r>
       <r>    -1.4884    70.4927   333.7175 </r>
       <r>    -1.3754   197.2100   356.0072 </r>
       <r>    -1.2623    24.4544   358.7712 </r>
       <r>    -1.1493   253.6364   387.4386 </r>
       <r>    -1.0363   136.5064   402.8673 </r>
       <r>    -0.9233   259.2428   432.1689 </r>
       <r>    -0.8102    62.3587   439.2183 </r>
       <r>    -0.6972    71.0934   447.2536 </r>
       <r>    -0.5842     6.6036   448.0000 </r>
       <r>    -0.4712     0.0000   448.0000 </r>
       <r>    -0.3581     0.0000   448.0000 </r>
       <r>    -0.2451     0.0000   448.0000 </r>
       <r>    -0.1321     0.0000   448.0000 </r>
       <r>    -0.0191     0.0000   448.0000 </r>
       <r>     0.0940     0.0000   448.0000 </r>
       <r>     0.2070     0.0000   448.0000 </r>
       <r>     0.3200     0.0000   448.0000 </r>
       <r>     0.4330     0.0000   448.0000 </r>
       <r>     0.5461     0.0000   448.0000 </r>
       <r>     0.6591     0.0000   448.0000 </r>
       <r>     0.7721     0.0000   448.0000 </r>
       <r>     0.8851     0.0000   448.0000 </r>
       <r>     0.9982     0.0000   448.0000 </r>
       <r>     1.1112     0.0000   448.0000 </r>
       <r>     1.2242     0.0000   448.0000 </r>
       <r>     1.3372     0.0000   448.0000 </r>
       <r>     1.4503     0.0000   448.0000 </r>
       <r>     1.5633     0.0000   448.0000 </r>
       <r>     1.6763     0.0000   448.0000 </r>
       <r>     1.7893     0.0000   448.0000 </r>
       <r>     1.9024     0.0000   448.0000 </r>
       <r>     2.0154     0.0000   448.0000 </r>
       <r>     2.1284     0.0000   448.0000 </r>
       <r>     2.2414     0.0000   448.0000 </r>
       <r>     2.3545     0.0000   448.0000 </r>
       <r>     2.4675     0.0000   448.0000 </r>
       <r>     2.5805     0.0000   448.0000 </r>
       <r>     2.6935     0.0000   448.0000 </r>
       <r>     2.8066     0.0000   448.0000 </r>
       <r>     2.9196     0.0000   448.0000 </r>
       <r>     3.0326     0.0000   448.0000 </r>
       <r>     3.1457     0.0000   448.0000 </r>
       <r>     3.2587     0.0000   448.0000 </r>
       <r>     3.3717     0.0000   448.0000 </r>
       <r>     3.4847     0.0000   448.0000 </r>
       <r>     3.5978     0.0000   448.0000 </r>
       <r>     3.7108     0.0000   448.0000 </r>
       <r>     3.8238     0.0000   448.0000 </r>
       <r>     3.9368     0.0000   448.0000 </r>
       <r>     4.0499     0.0000   448.0000 </r>
       <r>     4.1629     0.0000   448.0000 </r>
       <r>     4.2759     0.0000   448.0000 </r>
       <r>     4.3889     2.2112   448.2499 </r>
       <r>     4.5020     0.0000   448.2500 </r>
       <r>     4.6150     0.0000   448.2500 </r>
       <r>     4.7280     0.0000   448.2500 </r>
       <r>     4.8410     0.0000   448.2500 </r>
       <r>     4.9541     0.0000   448.2500 </r>
       <r>     5.0671    13.2598   449.7487 </r>
       <r>     5.1801     0.0108   449.7500 </r>
       <r>     5.2931     0.0000   449.7500 </r>
       <r>     5.4062     0.0000   449.7500 </r>
       <r>     5.5192     2.1880   449.9973 </r>
       <r>     5.6322    24.3546   452.7500 </r>
       <r>     5.7452     0.0000   452.7500 </r>
       <r>     5.8583    17.0642   454.6787 </r>
       <r>     5.9713     0.6309   454.7500 </r>
       <r>     6.0843     0.0000   454.7500 </r>
       <r>     6.1973     0.0000   454.7500 </r>
       <r>     6.3104     0.0006   454.7501 </r>
       <r>     6.4234    13.8511   456.3156 </r>
       <r>     6.5364     8.2661   457.2500 </r>
       <r>     6.6494    40.4643   461.8235 </r>
       <r>     6.7625    65.6321   469.2416 </r>
       <r>     6.8755    59.1000   475.9216 </r>
       <r>     6.9885    12.4813   477.3326 </r>
       <r>     7.1015     1.4806   477.5000 </r>
       <r>     7.2146     4.6956   478.0307 </r>
       <r>     7.3276     2.1398   478.2726 </r>
       <r>     7.4406    81.1271   487.4420 </r>
       <r>     7.5536   167.4308   506.3661 </r>
       <r>     7.6667     3.4073   506.7512 </r>
       <r>     7.7797    26.5320   509.7500 </r>
       <r>     7.8927     0.1189   509.7634 </r>
       <r>     8.0058    52.9664   515.7500 </r>
       <r>     8.1188     0.0041   515.7505 </r>
       <r>     8.2318    13.8237   517.3129 </r>
       <r>     8.3448    92.3277   527.7483 </r>
       <r>     8.4579     0.0132   527.7500 </r>
       <r>     8.5709   147.0895   544.3749 </r>
       <r>     8.6839    12.1665   545.7500 </r>
       <r>     8.7969     0.0000   545.7500 </r>
       <r>     8.9100    79.6828   554.7562 </r>
       <r>     9.0230   125.4596   568.9363 </r>
       <r>     9.1360     4.9870   569.5000 </r>
       <r>     9.2490    21.9568   571.9817 </r>
       <r>     9.3621    22.1190   574.4817 </r>
       <r>     9.4751     1.8797   574.6941 </r>
       <r>     9.5881    11.5536   576.0000 </r>
       <r>     9.7011     0.0000   576.0000 </r>
       <r>     9.8142     0.0000   576.0000 </r>
       <r>     9.9272     0.0000   576.0000 </r>
       <r>    10.0402     0.0000   576.0000 </r>
       <r>    10.1532     0.0000   576.0000 </r>
       <r>    10.2663     0.0000   576.0000 </r>
       <r>    10.3793     0.0000   576.0000 </r>
       <r>    10.4923     0.0000   576.0000 </r>
       <r>    10.6053     0.0000   576.0000 </r>
       <r>    10.7184     0.0000   576.0000 </r>
       <r>    10.8314     0.0000   576.0000 </r>
       <r>    10.9444     0.0000   576.0000 </r>
       <r>    11.0574     0.0000   576.0000 </r>
      </set>
     </set>
    </array>
   </total>
  </dos>
 </calculation>
 <structure name="finalpos" >
  <crystal>
   <varray name="basis" >
    <v>      11.20400236       0.00000000       0.00000000 </v>
    <v>       0.00000000      11.20400236       0.00000000 </v>
    <v>       0.00000000       0.00000000      11.20400236 </v>
   </varray>
   <i name="volume">   1406.43470641 </i>
   <varray name="rec_basis" >
    <v>       0.08925382       0.00000000       0.00000000 </v>
    <v>       0.00000000       0.08925382       0.00000000 </v>
    <v>       0.00000000       0.00000000       0.08925382 </v>
   </varray>
  </crystal>
  <varray name="positions" >
   <v>       0.00000000       0.00000000       0.00000000 </v>
   <v>       0.25000000       0.25000000       0.00000000 </v>
   <v>       0.25000000       0.00000000       0.25000000 </v>
   <v>       0.00000000       0.25000000       0.25000000 </v>
   <v>       0.00000000       0.00000000       0.50000000 </v>
   <v>       0.25000000       0.25000000       0.50000000 </v>
   <v>       0.25000000       0.00000000       0.75000000 </v>
   <v>       0.00000000       0.25000000       0.75000000 </v>
   <v>       0.00000000       0.50000000       0.00000000 </v>
   <v>       0.25000000       0.75000000       0.00000000 </v>
   <v>       0.25000000       0.50000000       0.25000000 </v>
   <v>       0.00000000       0.75000000       0.25000000 </v>
   <v>       0.00000000       0.50000000       0.50000000 </v>
   <v>       0.25000000       0.75000000       0.50000000 </v>
   <v>       0.25000000       0.50000000       0.75000000 </v>
   <v>       0.00000000       0.75000000       0.75000000 </v>
   <v>       0.50000000       0.00000000       0.00000000 </v>
   <v>       0.75000000       0.25000000       0.00000000 </v>
   <v>       0.75000000       0.00000000       0.25000000 </v>
   <v>       0.50000000       0.25000000       0.25000000 </v>
   <v>       0.50000000       0.00000000       0.50000000 </v>
   <v>       0.75000000       0.25000000       0.50000000 </v>
   <v>       0.75000000       0.00000000       0.75000000 </v>
   <v>       0.50000000       0.25000000       0.75000000 </v>
   <v>       0.50000000       0.50000000       0.00000000 </v>
   <v>       0.75000000       0.75000000       0.00000000 </v>
   <v>       0.75000000       0.50000000       0.25000000 </v>
   <v>       0.50000000       0.75000000       0.25000000 </v>
   <v>       0.50000000       0.50000000       0.50000000 </v>
   <v>       0.75000000       0.75000000       0.50000000 </v>
   <v>       0.75000000       0.50000000       0.75000000 </v>
   <v>       0.50000000       0.75000000       0.75000000 </v>
   <v>       0.25267761       0.25000000       0.25000000 </v>
   <v>       0.00000000       0.00000000       0.25000000 </v>
   <v>       0.00000000       0.25000000       0.00000000 </v>
   <v>       0.25000000       0.00000000       0.00000000 </v>
   <v>       0.25000000       0.25000000       0.75000000 </v>
   <v>       0.00000000       0.00000000       0.75000000 </v>
   <v>       0.00000000       0.25000000       0.50000000 </v>
   <v>       0.25000000       0.00000000       0.50000000 </v>
   <v>       0.25000000       0.75000000       0.25000000 </v>
   <v>       0.00000000       0.50000000       0.25000000 </v>
   <v>       0.00000000       0.75000000       0.00000000 </v>
   <v>       0.25000000       0.50000000       0.00000000 </v>
   <v>       0.25000000       0.75000000       0.75000000 </v>
   <v>       0.00000000       0.50000000       0.75000000 </v>
   <v>       0.00000000       0.75000000       0.50000000 </v>
   <v>       0.25000000       0.50000000       0.50000000 </v>
   <v>       0.75000000       0.25000000       0.25000000 </v>
   <v>       0.50000000       0.00000000       0.25000000 </v>
   <v>       0.50000000       0.25000000       0.00000000 </v>
   <v>       0.75000000       0.00000000       0.00000000 </v>
   <v>       0.75000000       0.25000000       0.75000000 </v>
   <v>       0.50000000       0.00000000       0.75000000 </v>
   <v>       0.50000000       0.25000000       0.50000000 </v>
   <v>       0.75000000       0.00000000       0.50000000 </v>
   <v>       0.75000000       0.75000000       0.25000000 </v>
   <v>       0.50000000       0.50000000       0.25000000 </v>
   <v>       0.50000000       0.75000000       0.00000000 </v>
   <v>       0.75000000       0.50000000       0.00000000 </v>
   <v>       0.75000000       0.75000000       0.75000000 </v>
   <v>       0.50000000       0.50000000       0.75000000 </v>
   <v>       0.50000000       0.75000000       0.50000000 </v>
   <v>       0.75000000       0.50000000       0.50000000 </v>
  </varray>
 </structure>
</modeling>
