   2   2   0   0
  0.2006309E+02  0.3842798E-09  0.3842798E-09  0.3842798E-09  0.5000000E-15
  1.000000000000000E-004
  CAR 
 unknown system                          
     46.94831210     -8.73155030  301      5.97721335      1.00000000
     -8.732  0.0000E+00  0.0000E+00
     -8.546  0.0000E+00  0.0000E+00
     -8.360  0.0000E+00  0.0000E+00
     -8.175  0.0000E+00  0.0000E+00
     -7.989  0.0000E+00  0.0000E+00
     -7.804  0.0000E+00  0.0000E+00
     -7.618  0.0000E+00  0.0000E+00
     -7.432  0.0000E+00  0.0000E+00
     -7.247  0.0000E+00  0.0000E+00
     -7.061  0.0000E+00  0.0000E+00
     -6.876  0.0000E+00  0.0000E+00
     -6.690  0.0000E+00  0.0000E+00
     -6.504  0.0000E+00  0.0000E+00
     -6.319  0.2769E-17  0.5140E-18
     -6.133  0.4989E-01  0.9259E-02
     -5.948  0.2592E-14  0.9259E-02
     -5.762  0.3993E+00  0.8336E-01
     -5.576  0.2992E+00  0.1389E+00
     -5.391  0.0000E+00  0.1389E+00
     -5.205  0.5980E+00  0.2499E+00
     -5.020  0.0000E+00  0.2500E+00
     -4.834  0.1256E+01  0.4830E+00
     -4.648  0.0000E+00  0.5463E+00
     -4.463  0.0000E+00  0.5463E+00
     -4.277  0.2548E+00  0.5936E+00
     -4.092  0.4306E+00  0.6818E+00
     -3.906  0.5327E+00  0.9230E+00
     -3.720  0.2679E+00  0.1096E+01
     -3.535  0.0000E+00  0.1306E+01
     -3.349  0.0000E+00  0.1306E+01
     -3.164  0.2629E-02  0.1306E+01
     -2.978  0.1195E+01  0.1528E+01
     -2.792  0.1796E+01  0.1861E+01
     -2.607  0.0000E+00  0.1861E+01
     -2.421  0.0000E+00  0.1861E+01
     -2.236  0.0000E+00  0.1861E+01
     -2.050  0.1196E+00  0.1883E+01
     -1.864  0.1197E+01  0.2139E+01
     -1.679  0.0000E+00  0.2139E+01
     -1.493  0.0000E+00  0.2139E+01
     -1.308  0.4439E-08  0.2139E+01
     -1.122  0.2008E+00  0.2176E+01
     -0.936  0.1795E+01  0.2509E+01
     -0.751  0.2393E+01  0.2953E+01
     -0.565  0.0000E+00  0.2954E+01
     -0.380  0.0000E+00  0.2954E+01
     -0.194  0.1197E+01  0.3176E+01
     -0.008  0.0000E+00  0.3176E+01
      0.177  0.1197E+01  0.3398E+01
      0.363  0.3341E-04  0.3398E+01
      0.548  0.3991E+00  0.3472E+01
      0.734  0.5012E-02  0.3473E+01
      0.920  0.2943E+00  0.3528E+01
      1.105  0.0000E+00  0.3528E+01
      1.291  0.6660E-01  0.3540E+01
      1.476  0.1191E+01  0.3861E+01
      1.662  0.1547E-04  0.3861E+01
      1.848  0.1197E+01  0.4083E+01
      2.033  0.7653E-01  0.4098E+01
      2.219  0.3592E+01  0.4861E+01
      2.404  0.0000E+00  0.4861E+01
      2.590  0.2286E-13  0.4861E+01
      2.776  0.1197E+01  0.5083E+01
      2.961  0.6402E+00  0.5202E+01
      3.147  0.1535E-04  0.5583E+01
      3.332  0.1666E+01  0.5893E+01
      3.518  0.1596E+01  0.6324E+01
      3.704  0.6023E+00  0.6436E+01
      3.889  0.1493E+01  0.6713E+01
      4.075  0.2395E+01  0.7157E+01
      4.260  0.0000E+00  0.7157E+01
      4.446  0.2913E-01  0.7163E+01
      4.632  0.2166E+01  0.7565E+01
      4.817  0.7975E+00  0.7713E+01
      5.003  0.0000E+00  0.7713E+01
      5.188  0.2526E-01  0.7718E+01
      5.374  0.7981E+00  0.7972E+01
      5.560  0.0000E+00  0.7972E+01
      5.745  0.1398E-02  0.7972E+01
      5.931  0.1483E+00  0.8000E+01
      6.116  0.0000E+00  0.8000E+01
      6.302  0.3492E-06  0.8000E+01
      6.488  0.5987E+00  0.8111E+01
      6.673  0.5530E-04  0.8111E+01
      6.859  0.1197E+01  0.8333E+01
      7.044  0.0000E+00  0.8333E+01
      7.230  0.2407E+00  0.8378E+01
      7.416  0.2543E+00  0.8529E+01
      7.601  0.3990E+00  0.8611E+01
      7.787  0.2694E+01  0.9111E+01
      7.972  0.8362E-10  0.9111E+01
      8.158  0.1289E+01  0.9350E+01
      8.344  0.1497E+00  0.9435E+01
      8.529  0.2457E+01  0.9891E+01
      8.715  0.3462E-03  0.1010E+02
      8.900  0.5992E+00  0.1021E+02
      9.086  0.2426E+01  0.1066E+02
      9.272  0.1725E+01  0.1099E+02
      9.457  0.1197E+01  0.1137E+02
      9.643  0.5987E+00  0.1148E+02
      9.828  0.2706E+01  0.1198E+02
     10.014  0.2665E+01  0.1264E+02
     10.200  0.6159E+00  0.1276E+02
     10.385  0.2376E+01  0.1320E+02
     10.571  0.0000E+00  0.1320E+02
     10.756  0.1435E-03  0.1320E+02
     10.942  0.1197E+01  0.1343E+02
     11.128  0.1529E-02  0.1343E+02
     11.313  0.3999E+00  0.1350E+02
     11.499  0.1070E+01  0.1370E+02
     11.684  0.2526E-14  0.1372E+02
     11.870  0.1796E+01  0.1406E+02
     12.056  0.9677E-05  0.1406E+02
     12.241  0.2781E+01  0.1457E+02
     12.427  0.2999E+00  0.1467E+02
     12.612  0.1197E+01  0.1489E+02
     12.798  0.1224E+01  0.1512E+02
     12.984  0.9104E+00  0.1554E+02
     13.169  0.2102E+01  0.1609E+02
     13.355  0.2584E+01  0.1674E+02
     13.540  0.1134E+01  0.1695E+02
     13.726  0.7109E+00  0.1709E+02
     13.912  0.1212E-12  0.1710E+02
     14.097  0.2993E+00  0.1716E+02
     14.283  0.0000E+00  0.1716E+02
     14.468  0.0000E+00  0.1716E+02
     14.654  0.3601E+00  0.1722E+02
     14.840  0.3014E+01  0.1779E+02
     15.025  0.4979E-01  0.1798E+02
     15.211  0.1795E+01  0.1853E+02
     15.396  0.2993E+00  0.1858E+02
     15.582  0.3456E+00  0.1865E+02
     15.768  0.2989E+00  0.1892E+02
     15.953  0.2993E+00  0.1897E+02
     16.139  0.1796E+01  0.1931E+02
     16.324  0.3623E+01  0.1998E+02
     16.510  0.1197E+01  0.2034E+02
     16.696  0.9665E-02  0.2034E+02
     16.881  0.1617E+01  0.2064E+02
     17.067  0.5460E+00  0.2075E+02
     17.252  0.1794E+01  0.2109E+02
     17.438  0.9784E+00  0.2127E+02
     17.624  0.1200E+01  0.2154E+02
     17.809  0.1793E+01  0.2187E+02
     17.995  0.3020E-07  0.2187E+02
     18.180  0.1197E+01  0.2209E+02
     18.366  0.1131E+01  0.2230E+02
     18.552  0.2355E+01  0.2286E+02
     18.737  0.4149E+01  0.2364E+02
     18.923  0.1953E+01  0.2405E+02
     19.108  0.1611E+01  0.2435E+02
     19.294  0.9978E+00  0.2457E+02
     19.480  0.1154E+01  0.2479E+02
     19.665  0.1196E+01  0.2502E+02
     19.851  0.0000E+00  0.2502E+02
     20.036  0.5985E+00  0.2513E+02
     20.222  0.1832E-08  0.2513E+02
     20.408  0.1996E+01  0.2550E+02
     20.593  0.1853E+01  0.2584E+02
     20.779  0.2993E+00  0.2611E+02
     20.964  0.7017E-01  0.2612E+02
     21.150  0.2109E+01  0.2652E+02
     21.336  0.5987E+00  0.2668E+02
     21.521  0.2381E+01  0.2712E+02
     21.707  0.2064E+01  0.2750E+02
     21.892  0.1197E+01  0.2790E+02
     22.078  0.3293E+01  0.2851E+02
     22.264  0.2236E+01  0.2892E+02
     22.449  0.5987E+00  0.2906E+02
     22.635  0.1672E+01  0.2938E+02
     22.820  0.1199E+01  0.2981E+02
     23.006  0.1595E+01  0.3010E+02
     23.192  0.0000E+00  0.3010E+02
     23.377  0.1397E+01  0.3036E+02
     23.563  0.2430E+00  0.3041E+02
     23.748  0.3575E+01  0.3125E+02
     23.934  0.8114E-01  0.3127E+02
     24.120  0.3632E-01  0.3131E+02
     24.305  0.2394E+01  0.3186E+02
     24.491  0.3166E+01  0.3245E+02
     24.676  0.3078E+00  0.3253E+02
     24.862  0.2988E+00  0.3275E+02
     25.048  0.1279E-01  0.3275E+02
     25.233  0.1816E+01  0.3312E+02
     25.419  0.1477E+01  0.3340E+02
     25.604  0.1827E+01  0.3374E+02
     25.790  0.2028E+01  0.3414E+02
     25.976  0.1464E+01  0.3442E+02
     26.161  0.5927E+00  0.3453E+02
     26.347  0.5017E+01  0.3546E+02
     26.532  0.8980E+00  0.3566E+02
     26.718  0.3579E+01  0.3632E+02
     26.904  0.1782E+01  0.3666E+02
     27.089  0.4052E-03  0.3666E+02
     27.275  0.1510E+01  0.3694E+02
     27.460  0.3175E+01  0.3753E+02
     27.646  0.6681E+00  0.3765E+02
     27.832  0.2394E+01  0.3810E+02
     28.017  0.5987E+00  0.3821E+02
     28.203  0.1241E-03  0.3821E+02
     28.388  0.2832E+01  0.3874E+02
     28.574  0.1794E+01  0.3921E+02
     28.760  0.2698E+01  0.3971E+02
     28.945  0.1943E+01  0.4010E+02
     29.131  0.1197E+01  0.4041E+02
     29.316  0.9314E-11  0.4041E+02
     29.502  0.1497E+01  0.4069E+02
     29.688  0.2062E+01  0.4107E+02
     29.873  0.7989E+00  0.4131E+02
     30.059  0.1297E+01  0.4156E+02
     30.244  0.2395E+01  0.4200E+02
     30.430  0.4117E+00  0.4208E+02
     30.616  0.2394E+01  0.4272E+02
     30.801  0.0000E+00  0.4272E+02
     30.987  0.3990E+00  0.4280E+02
     31.172  0.3841E+00  0.4287E+02
     31.358  0.2945E+01  0.4345E+02
     31.544  0.3404E+00  0.4373E+02
     31.729  0.0000E+00  0.4392E+02
     31.915  0.5472E+00  0.4402E+02
     32.100  0.3340E-02  0.4414E+02
     32.286  0.4442E+01  0.4496E+02
     32.472  0.2160E+01  0.4537E+02
     32.657  0.1481E+01  0.4575E+02
     32.843  0.1225E-01  0.4596E+02
     33.028  0.2145E+01  0.4635E+02
     33.214  0.2172E+01  0.4691E+02
     33.400  0.2694E+01  0.4764E+02
     33.585  0.4430E+00  0.4772E+02
     33.771  0.2060E-11  0.4777E+02
     33.956  0.5012E+00  0.4786E+02
     34.142  0.4014E+01  0.4877E+02
     34.328  0.0000E+00  0.4881E+02
     34.513  0.8355E-05  0.4881E+02
     34.699  0.1197E+01  0.4903E+02
     34.884  0.5513E+00  0.4913E+02
     35.070  0.3348E+01  0.4976E+02
     35.256  0.3816E+01  0.5047E+02
     35.441  0.1553E+01  0.5099E+02
     35.627  0.2759E+01  0.5152E+02
     35.812  0.1197E+01  0.5174E+02
     35.998  0.3959E+01  0.5248E+02
     36.184  0.3990E+00  0.5270E+02
     36.369  0.5986E+00  0.5281E+02
     36.555  0.2390E+01  0.5326E+02
     36.740  0.2686E-01  0.5326E+02
     36.926  0.9395E+00  0.5347E+02
     37.112  0.2630E+01  0.5397E+02
     37.297  0.2216E-10  0.5404E+02
     37.483  0.2452E+01  0.5449E+02
     37.668  0.5987E+00  0.5481E+02
     37.854  0.1497E+01  0.5509E+02
     38.040  0.5837E+01  0.5618E+02
     38.225  0.2030E+01  0.5665E+02
     38.411  0.1761E+01  0.5698E+02
     38.596  0.1883E+01  0.5733E+02
     38.782  0.4390E+00  0.5751E+02
     38.968  0.4198E-03  0.5770E+02
     39.153  0.1197E+01  0.5793E+02
     39.339  0.2155E-08  0.5793E+02
     39.524  0.1503E+01  0.5820E+02
     39.710  0.3370E+01  0.5905E+02
     39.896  0.1600E+01  0.5972E+02
     40.081  0.5987E+00  0.5987E+02
     40.267  0.3138E+01  0.6045E+02
     40.452  0.1194E+01  0.6076E+02
     40.638  0.1321E+00  0.6078E+02
     40.824  0.1484E+01  0.6106E+02
     41.009  0.6653E-09  0.6106E+02
     41.195  0.1827E+01  0.6140E+02
     41.380  0.4890E+01  0.6236E+02
     41.566  0.2912E+00  0.6251E+02
     41.752  0.5987E+00  0.6262E+02
     41.937  0.3022E+00  0.6268E+02
     42.123  0.1234E+01  0.6291E+02
     42.308  0.1457E+01  0.6318E+02
     42.494  0.1197E+01  0.6340E+02
     42.680  0.2395E+01  0.6384E+02
     42.865  0.0000E+00  0.6384E+02
     43.051  0.0000E+00  0.6384E+02
     43.236  0.0000E+00  0.6384E+02
     43.422  0.3322E-04  0.6384E+02
     43.608  0.2993E+00  0.6390E+02
     43.793  0.3992E+00  0.6397E+02
     43.979  0.4984E-01  0.6398E+02
     44.164  0.0000E+00  0.6398E+02
     44.350  0.9086E-07  0.6398E+02
     44.536  0.9978E-01  0.6400E+02
     44.721  0.0000E+00  0.6400E+02
     44.907  0.0000E+00  0.6400E+02
     45.092  0.0000E+00  0.6400E+02
     45.278  0.0000E+00  0.6400E+02
     45.464  0.0000E+00  0.6400E+02
     45.649  0.0000E+00  0.6400E+02
     45.835  0.0000E+00  0.6400E+02
     46.020  0.0000E+00  0.6400E+02
     46.206  0.0000E+00  0.6400E+02
     46.392  0.0000E+00  0.6400E+02
     46.577  0.0000E+00  0.6400E+02
     46.763  0.0000E+00  0.6400E+02
     46.948  0.0000E+00  0.6400E+02
