    2    2    1    1
  0.2006309E+02  0.3842798E-09  0.3842798E-09  0.3842798E-09  0.5000000E-15
  1.000000000000000E-004
  CAR 
 unknown system                          
      8     16     32
 
  0.0000000E+00  0.0000000E+00  0.0000000E+00  0.4629630E-02
      1         -6.200647   1.000000
      2          5.778473   1.000000
      3          5.778474   1.000000
      4          5.778474   1.000000
      5          8.292537   0.000000
      6          8.292537   0.000000
      7          8.292537   0.000000
      8          9.077337   0.000000
      9         13.475113   0.000000
     10         13.475113   0.000000
     11         13.476060   0.000000
     12         16.865179   0.000000
     13         16.865179   0.000000
     14         16.865179   0.000000
     15         20.846284   0.000000
     16         28.784827   0.000000
     17         28.784827   0.000000
     18         28.784827   0.000000
     19         29.975049   0.000000
     20         29.975049   0.000000
     21         31.468182   0.000000
     22         31.468183   0.000000
     23         31.468183   0.000000
     24         34.953242   0.000000
     25         34.953242   0.000000
     26         34.953242   0.000000
     27         40.621110   0.000000
     28         40.621110   0.000000
     29         40.621110   0.000000
     30         43.836563   0.000000
     31         44.417409   0.000000
     32         44.417409   0.000000
 
  0.1666667E+00 -0.1463871E-17  0.2230530E-17  0.3703704E-01
      1         -5.838586   1.000000
      2          3.379603   1.000000
      3          5.323659   1.000000
      4          5.323659   1.000000
      5          8.060751   0.000000
      6          8.943675   0.000000
      7          8.943675   0.000000
      8         11.165313   0.000000
      9         12.808845   0.000000
     10         12.808845   0.000000
     11         14.635685   0.000000
     12         16.240804   0.000000
     13         18.783886   0.000000
     14         18.783886   0.000000
     15         22.857422   0.000000
     16         25.656603   0.000000
     17         25.656603   0.000000
     18         26.262761   0.000000
     19         29.638026   0.000000
     20         29.638026   0.000000
     21         32.142295   0.000000
     22         32.142295   0.000000
     23         33.518617   0.000000
     24         35.281284   0.000000
     25         36.911126   0.000000
     26         38.165804   0.000000
     27         38.165804   0.000000
     28         39.728228   0.000000
     29         39.728228   0.000000
     30         41.266479   0.000000
     31         41.266479   0.000000
     32         43.730930   0.000000
 
  0.3333333E+00  0.7923204E-17 -0.6389886E-17  0.3703704E-01
      1         -4.819065   1.000000
      2          0.416054   1.000000
      3          4.773065   1.000000
      4          4.773066   1.000000
      5          7.462507   0.000000
      6          9.226723   0.000000
      7          9.226723   0.000000
      8         13.477067   0.000000
      9         13.708601   0.000000
     10         13.708601   0.000000
     11         14.737232   0.000000
     12         19.217368   0.000000
     13         20.351675   0.000000
     14         20.351675   0.000000
     15         22.511333   0.000000
     16         23.315191   0.000000
     17         23.315191   0.000000
     18         27.417755   0.000000
     19         29.790540   0.000000
     20         29.790540   0.000000
     21         30.936492   0.000000
     22         32.544670   0.000000
     23         32.544670   0.000000
     24         35.038610   0.000000
     25         35.038610   0.000000
     26         35.575336   0.000000
     27         36.134050   0.000000
     28         38.498845   0.000000
     29         38.498845   0.000000
     30         39.602171   0.000000
     31         39.602171   0.000000
     32         41.295103   0.000000
 
  0.5000000E+00  0.1588675E-16 -0.1358678E-16  0.1851852E-01
      1         -3.855146   1.000000
      2         -1.230182   1.000000
      3          4.575667   1.000000
      4          4.575667   1.000000
      5          7.236986   0.000000
      6          9.053074   0.000000
      7          9.053074   0.000000
      8         13.285334   0.000000
      9         16.302081   0.000000
     10         16.302081   0.000000
     11         16.986674   0.000000
     12         17.051358   0.000000
     13         17.051358   0.000000
     14         18.683861   0.000000
     15         25.069116   0.000000
     16         25.618673   0.000000
     17         27.300511   0.000000
     18         27.300511   0.000000
     19         27.541847   0.000000
     20         27.541847   0.000000
     21         31.265043   0.000000
     22         32.136442   0.000000
     23         32.136442   0.000000
     24         33.211435   0.000000
     25         33.211435   0.000000
     26         33.865516   0.000000
     27         36.755963   0.000000
     28         38.021930   0.000000
     29         38.021930   0.000000
     30         38.578557   0.000000
     31         38.578557   0.000000
     32         39.584385   0.000000
 
  0.1666667E+00  0.1666667E+00  0.4822271E-17  0.2777778E-01
      1         -5.715452   1.000000
      2          3.735396   1.000000
      3          4.571978   1.000000
      4          4.571978   1.000000
      5          7.401022   0.000000
      6          9.995590   0.000000
      7         10.086087   0.000000
      8         10.086087   0.000000
      9         12.323659   0.000000
     10         14.012845   0.000000
     11         15.307835   0.000000
     12         17.708754   0.000000
     13         17.708754   0.000000
     14         18.271967   0.000000
     15         23.942589   0.000000
     16         25.157648   0.000000
     17         25.157648   0.000000
     18         26.414803   0.000000
     19         27.627996   0.000000
     20         29.446065   0.000000
     21         32.410394   0.000000
     22         32.872009   0.000000
     23         32.872009   0.000000
     24         37.595481   0.000000
     25         37.595481   0.000000
     26         37.815121   0.000000
     27         38.284586   0.000000
     28         38.284586   0.000000
     29         38.632976   0.000000
     30         39.418897   0.000000
     31         41.858439   0.000000
     32         43.474142   0.000000
 
  0.3333333E+00  0.1666667E+00  0.1621811E-16  0.1111111E+00
      1         -4.897684   1.000000
      2          1.326803   1.000000
      3          3.761996   1.000000
      4          4.017701   1.000000
      5          7.657592   0.000000
      6          9.764112   0.000000
      7         10.230505   0.000000
      8         10.808346   0.000000
      9         14.812505   0.000000
     10         14.850923   0.000000
     11         16.012202   0.000000
     12         18.477411   0.000000
     13         19.454325   0.000000
     14         20.994378   0.000000
     15         21.673223   0.000000
     16         22.656437   0.000000
     17         25.550004   0.000000
     18         26.331603   0.000000
     19         27.421889   0.000000
     20         29.053984   0.000000
     21         31.276386   0.000000
     22         32.190429   0.000000
     23         33.175263   0.000000
     24         35.248475   0.000000
     25         35.468033   0.000000
     26         35.892069   0.000000
     27         37.506270   0.000000
     28         38.030687   0.000000
     29         38.798704   0.000000
     30         39.719035   0.000000
     31         41.249937   0.000000
     32         42.426325   0.000000
 
  0.5000000E+00  0.1666667E+00  0.4044168E-17  0.1111111E+00
      1         -3.698026   1.000000
      2         -0.855782   1.000000
      3          2.972103   1.000000
      4          3.989933   1.000000
      5          7.727232   0.000000
      6          9.824355   0.000000
      7         10.342001   0.000000
      8         12.116582   0.000000
      9         15.049883   0.000000
     10         16.213909   0.000000
     11         17.425191   0.000000
     12         17.559729   0.000000
     13         18.367956   0.000000
     14         21.818856   0.000000
     15         23.649737   0.000000
     16         24.685593   0.000000
     17         25.817125   0.000000
     18         26.303130   0.000000
     19         26.823098   0.000000
     20         28.474830   0.000000
     21         29.685566   0.000000
     22         31.916276   0.000000
     23         32.677974   0.000000
     24         32.888564   0.000000
     25         33.312034   0.000000
     26         35.142378   0.000000
     27         35.938873   0.000000
     28         36.005096   0.000000
     29         37.762777   0.000000
     30         39.520356   0.000000
     31         40.305764   0.000000
     32         41.095288   0.000000
 
 -0.3333333E+00  0.1666667E+00  0.1512009E-16  0.1111111E+00
      1         -4.086478   1.000000
      2         -0.251828   1.000000
      3          2.697036   1.000000
      4          4.473900   1.000000
      5          8.148762   0.000000
      6          9.823041   0.000000
      7          9.949793   0.000000
      8         12.976049   0.000000
      9         13.044621   0.000000
     10         15.068221   0.000000
     11         17.107763   0.000000
     12         18.526063   0.000000
     13         20.544763   0.000000
     14         21.139138   0.000000
     15         22.001764   0.000000
     16         23.593634   0.000000
     17         25.674281   0.000000
     18         27.696708   0.000000
     19         27.740123   0.000000
     20         28.650882   0.000000
     21         30.479469   0.000000
     22         30.528107   0.000000
     23         33.035676   0.000000
     24         33.340862   0.000000
     25         34.018367   0.000000
     26         34.117555   0.000000
     27         35.418310   0.000000
     28         37.928889   0.000000
     29         39.015461   0.000000
     30         39.578435   0.000000
     31         40.258416   0.000000
     32         41.376533   0.000000
 
 -0.1666667E+00  0.1666667E+00 -0.2927743E-17  0.5555556E-01
      1         -5.248623   1.000000
      2          2.049305   1.000000
      3          3.330778   1.000000
      4          5.212822   1.000000
      5          8.760760   0.000000
      6          9.287501   0.000000
      7          9.557810   0.000000
      8         11.350940   0.000000
      9         11.811216   0.000000
     10         15.118392   0.000000
     11         16.068113   0.000000
     12         17.127349   0.000000
     13         19.025252   0.000000
     14         21.275847   0.000000
     15         21.727077   0.000000
     16         24.376534   0.000000
     17         26.128417   0.000000
     18         26.433287   0.000000
     19         26.746013   0.000000
     20         28.256170   0.000000
     21         32.338774   0.000000
     22         32.538314   0.000000
     23         34.130559   0.000000
     24         35.175533   0.000000
     25         36.241719   0.000000
     26         36.842061   0.000000
     27         37.115337   0.000000
     28         39.604132   0.000000
     29         39.716867   0.000000
     30         39.965878   0.000000
     31         40.169097   0.000000
     32         41.145296   0.000000
 
  0.3333333E+00  0.3333333E+00  0.9644541E-17  0.2777778E-01
      1         -4.291900   1.000000
      2          0.764095   1.000000
      3          3.342548   1.000000
      4          3.342548   1.000000
      5          6.398665   0.000000
      6          7.650495   0.000000
      7         13.000620   0.000000
      8         13.000620   0.000000
      9         15.547490   0.000000
     10         15.624146   0.000000
     11         18.665345   0.000000
     12         19.207384   0.000000
     13         19.207384   0.000000
     14         20.710936   0.000000
     15         21.941669   0.000000
     16         22.016051   0.000000
     17         22.016051   0.000000
     18         24.820863   0.000000
     19         28.621611   0.000000
     20         30.282611   0.000000
     21         31.167225   0.000000
     22         31.167225   0.000000
     23         32.271265   0.000000
     24         33.276251   0.000000
     25         33.600001   0.000000
     26         34.572396   0.000000
     27         34.572396   0.000000
     28         40.736676   0.000000
     29         41.212660   0.000000
     30         41.356194   0.000000
     31         41.356194   0.000000
     32         42.209795   0.000000
 
  0.5000000E+00  0.3333333E+00  0.9747534E-17  0.1111111E+00
      1         -3.123279   1.000000
      2         -0.792239   1.000000
      3          2.101913   1.000000
      4          3.206346   1.000000
      5          6.728504   0.000000
      6          8.398873   0.000000
      7         13.179304   0.000000
      8         13.198456   0.000000
      9         16.324974   0.000000
     10         16.436885   0.000000
     11         18.071854   0.000000
     12         18.592001   0.000000
     13         20.305817   0.000000
     14         21.489020   0.000000
     15         21.699564   0.000000
     16         24.259957   0.000000
     17         24.459295   0.000000
     18         25.102611   0.000000
     19         26.296757   0.000000
     20         28.393102   0.000000
     21         28.870375   0.000000
     22         29.411710   0.000000
     23         30.105275   0.000000
     24         32.339070   0.000000
     25         35.009172   0.000000
     26         35.017123   0.000000
     27         37.390695   0.000000
     28         37.896900   0.000000
     29         37.939146   0.000000
     30         40.248879   0.000000
     31         41.283530   0.000000
     32         41.977017   0.000000
 
 -0.3333333E+00  0.3333333E+00  0.1584641E-16  0.5555556E-01
      1         -2.922195   1.000000
      2         -1.001321   1.000000
      3          1.308925   1.000000
      4          3.651912   1.000000
      5          7.237491   0.000000
      6         11.487378   0.000000
      7         12.203784   0.000000
      8         12.792894   0.000000
      9         13.129012   0.000000
     10         13.383258   0.000000
     11         19.986572   0.000000
     12         20.530385   0.000000
     13         21.421810   0.000000
     14         21.468664   0.000000
     15         22.364661   0.000000
     16         23.323649   0.000000
     17         24.141477   0.000000
     18         25.547803   0.000000
     19         27.935138   0.000000
     20         28.254470   0.000000
     21         28.534738   0.000000
     22         29.604340   0.000000
     23         32.217016   0.000000
     24         32.489014   0.000000
     25         33.084507   0.000000
     26         34.612352   0.000000
     27         34.864390   0.000000
     28         35.097026   0.000000
     29         40.160621   0.000000
     30         40.761656   0.000000
     31         40.794823   0.000000
     32         41.662209   0.000000
 
  0.5000000E+00  0.5000000E+00  0.1446681E-16  0.1388889E-01
      1         -2.046372   1.000000
      2         -2.046372   1.000000
      3          2.906632   1.000000
      4          2.906632   1.000000
      5          6.368794   0.000000
      6          6.368794   0.000000
      7         15.826518   0.000000
      8         15.826518   0.000000
      9         16.721724   0.000000
     10         16.721724   0.000000
     11         18.279329   0.000000
     12         18.279329   0.000000
     13         18.711159   0.000000
     14         18.711159   0.000000
     15         24.485463   0.000000
     16         24.485463   0.000000
     17         25.319756   0.000000
     18         25.319756   0.000000
     19         25.887780   0.000000
     20         25.887780   0.000000
     21         27.131576   0.000000
     22         27.131576   0.000000
     23         31.226877   0.000000
     24         31.226877   0.000000
     25         35.212977   0.000000
     26         35.212977   0.000000
     27         39.830875   0.000000
     28         39.830875   0.000000
     29         39.901160   0.000000
     30         39.901160   0.000000
     31         41.538722   0.000000
     32         41.538722   0.000000
 
  0.5000000E+00  0.3333333E+00  0.1666667E+00  0.1111111E+00
      1         -3.904004   1.000000
      2          0.128486   1.000000
      3          2.164288   1.000000
      4          3.456751   1.000000
      5          8.552221   0.000000
      6          9.387956   0.000000
      7          9.952322   0.000000
      8         12.796057   0.000000
      9         14.723941   0.000000
     10         15.606726   0.000000
     11         18.724829   0.000000
     12         18.897210   0.000000
     13         19.523315   0.000000
     14         20.616764   0.000000
     15         22.247819   0.000000
     16         23.575269   0.000000
     17         25.263343   0.000000
     18         26.681778   0.000000
     19         26.688247   0.000000
     20         28.350159   0.000000
     21         29.918964   0.000000
     22         30.167351   0.000000
     23         32.231240   0.000000
     24         33.230059   0.000000
     25         33.965799   0.000000
     26         35.742325   0.000000
     27         37.020850   0.000000
     28         37.405992   0.000000
     29         38.139013   0.000000
     30         38.592524   0.000000
     31         39.759711   0.000000
     32         42.547105   0.000000
 
 -0.3333333E+00  0.3333333E+00  0.1666667E+00  0.1111111E+00
      1         -2.911604   1.000000
      2         -1.078316   1.000000
      3          1.721524   1.000000
      4          2.982759   1.000000
      5          9.037901   0.000000
      6          9.263798   0.000000
      7         11.795373   0.000000
      8         12.228017   0.000000
      9         13.282322   0.000000
     10         16.828743   0.000000
     11         17.663018   0.000000
     12         19.093984   0.000000
     13         21.960684   0.000000
     14         22.559054   0.000000
     15         22.703961   0.000000
     16         23.642928   0.000000
     17         24.212760   0.000000
     18         26.212246   0.000000
     19         26.605761   0.000000
     20         27.349168   0.000000
     21         28.715897   0.000000
     22         31.295900   0.000000
     23         31.382270   0.000000
     24         31.557655   0.000000
     25         34.023720   0.000000
     26         35.265164   0.000000
     27         35.916744   0.000000
     28         36.514121   0.000000
     29         36.972423   0.000000
     30         38.251961   0.000000
     31         39.528107   0.000000
     32         42.148650   0.000000
 
 -0.3333333E+00  0.5000000E+00  0.1666667E+00  0.5555556E-01
      1         -1.922544   1.000000
      2         -1.922544   1.000000
      3          2.088301   1.000000
      4          2.088301   1.000000
      5          8.434042   0.000000
      6          8.434042   0.000000
      7         12.473676   0.000000
      8         12.473676   0.000000
      9         16.306691   0.000000
     10         16.306692   0.000000
     11         18.674779   0.000000
     12         18.674779   0.000000
     13         22.145028   0.000000
     14         22.145028   0.000000
     15         22.925182   0.000000
     16         22.925182   0.000000
     17         24.453572   0.000000
     18         24.453572   0.000000
     19         27.167837   0.000000
     20         27.167837   0.000000
     21         28.940739   0.000000
     22         28.940739   0.000000
     23         30.448532   0.000000
     24         30.448532   0.000000
     25         35.578888   0.000000
     26         35.578888   0.000000
     27         36.514456   0.000000
     28         36.514456   0.000000
     29         38.025198   0.000000
     30         38.025198   0.000000
     31         42.561377   0.000000
     32         42.561377   0.000000
