 vasp.6.3.2 27Jun22 (build Oct 14 2022 12:13:54) complex                        
  
 executed on             LinuxIFC date 2023.04.03  14:23:07
 running on   32 total cores
 distrk:  each k-point on   32 cores,    1 groups
 distr:  one band on NCORE=   1 cores,   32 groups


--------------------------------------------------------------------------------------------------------


 INCAR:
   ENCUT = 318.948500
   SIGMA = 0.020000
   EDIFF = 1.00e-08
   GGA = PS
   PREC = Accurate
   IALGO = 38
   IBRION = -1
   ISMEAR = 0
   NELMIN = 5
   ADDGRID = .TRUE.
   LCHARG = .FALSE.
   LEPSILON = .TRUE.
   LWAVE = .FALSE.
   LREAL = .FALSE.

 POTCAR:    PAW_PBE Si 05Jan2001                  
 -----------------------------------------------------------------------------
|                                                                             |
|           W    W    AA    RRRRR   N    N  II  N    N   GGGG   !!!           |
|           W    W   A  A   R    R  NN   N  II  NN   N  G    G  !!!           |
|           W    W  A    A  R    R  N N  N  II  N N  N  G       !!!           |
|           W WW W  AAAAAA  RRRRR   N  N N  II  N  N N  G  GGG   !            |
|           WW  WW  A    A  R   R   N   NN  II  N   NN  G    G                |
|           W    W  A    A  R    R  N    N  II  N    N   GGGG   !!!           |
|                                                                             |
|     For optimal performance we recommend to set                             |
|       NCORE = 2 up to number-of-cores-per-socket                            |
|     NCORE specifies how many cores store one orbital (NPAR=cpu/NCORE).      |
|     This setting can greatly improve the performance of VASP for DFT.       |
|     The default, NCORE=1 might be grossly inefficient on modern             |
|     multi-core architectures or massively parallel machines. Do your        |
|     own testing! More info at https://www.vasp.at/wiki/index.php/NCORE      |
|     Unfortunately you need to use the default for GW and RPA                |
|     calculations (for HF NCORE is supported but not extensively tested      |
|     yet).                                                                   |
|                                                                             |
 -----------------------------------------------------------------------------

 POTCAR:    PAW_PBE Si 05Jan2001                  
   SHA256 =  79d9987ad8750f624c4d6acb2a16d13abf6a777132adc04dc6c8399be72b42bb Si/POTCAR             
   COPYR  = (c) Copyright 05Jan2001 Georg Kresse                                                    
   COPYR  = This file is part of the software VASP. Any use, copying, and all other rights are regul
   COPYR  = If you do not have a valid VASP license, you may not use, copy or distribute this file. 
   VRHFIN =Si: s2p2                                                                                 
   LEXCH  = PE                                                                                      
   EATOM  =   103.0669 eV,    7.5752 Ry                                                             
                                                                                                    
   TITEL  = PAW_PBE Si 05Jan2001                                                                    
   LULTRA =        F    use ultrasoft PP ?                                                          
   IUNSCR =        1    unscreen: 0-lin 1-nonlin 2-no                                               
   RPACOR =    1.500    partial core radius                                                         
   POMASS =   28.085; ZVAL   =    4.000    mass and valenz                                          
   RCORE  =    1.900    outmost cutoff radius                                                       
   RWIGS  =    2.480; RWIGS  =    1.312    wigner-seitz radius (au A)                               
   ENMAX  =  245.345; ENMIN  =  184.009 eV                                                          
   ICORE  =        2    local potential                                                             
   LCOR   =        T    correct aug charges                                                         
   LPAW   =        T    paw PP                                                                      
   EAUG   =  322.069                                                                                
   DEXC   =    0.000                                                                                
   RMAX   =    1.950    core radius for proj-oper                                                   
   RAUG   =    1.300    factor for augmentation sphere                                              
   RDEP   =    1.993    radius for radial grids                                                     
   RDEPT  =    1.837    core radius for aug-charge                                                  
                                                                                                    
   Atomic configuration                                                                             
    6 entries                                                                                       
     n  l   j            E        occ.                                                              
     1  0  0.50     -1785.8828   2.0000                                                             
     2  0  0.50      -139.4969   2.0000                                                             
     2  1  1.50       -95.5546   6.0000                                                             
     3  0  0.50       -10.8127   2.0000                                                             
     3  1  0.50        -4.0811   2.0000                                                             
     3  2  1.50        -4.0817   0.0000                                                             
   Description                                                                                      
     l       E           TYP  RCUT    TYP  RCUT                                                     
     0    -10.8127223     23  1.900                                                                 
     0     -7.6451159     23  1.900                                                                 
     1     -4.0811372     23  1.900                                                                 
     1      2.4879257     23  1.900                                                                 
     2     -4.0817478      7  1.900                                                                 
  local pseudopotential read in
  partial core-charges read in
  partial kinetic energy density read in
  atomic valenz-charges read in
  non local Contribution for L=           0  read in
    real space projection operators read in
  non local Contribution for L=           0  read in
    real space projection operators read in
  non local Contribution for L=           1  read in
    real space projection operators read in
  non local Contribution for L=           1  read in
    real space projection operators read in
    PAW grid and wavefunctions read in
 
   number of l-projection  operators is LMAX  =           4
   number of lm-projection operators is LMMAX =           8
 
 -----------------------------------------------------------------------------
|                                                                             |
|               ----> ADVICE to this user running VASP <----                  |
|                                                                             |
|     You enforced a specific xc type in the INCAR file but a different       |
|     type was found in the POTCAR file.                                      |
|     I HOPE YOU KNOW WHAT YOU ARE DOING!                                     |
|                                                                             |
 -----------------------------------------------------------------------------

  PAW_PBE Si 05Jan2001                  :
 energy of atom  1       EATOM= -103.0669
 kinetic energy error for atom=    0.0016 (will be added to EATOM!!)
 
 
 POSCAR: Si
  positions in cartesian coordinates
  No initial velocities read in
 exchange correlation table for  LEXCH =       14
   RHO(1)=    0.500       N(1)  =     2000
   RHO(2)=  100.500       N(2)  =     4000
 


--------------------------------------------------------------------------------------------------------


 ion  position               nearest neighbor table
   1  0.500  0.500  0.500-   2 2.35   2 2.35   2 2.35   2 2.35
   2  0.750  0.750  0.750-   1 2.35   1 2.35   1 2.35   1 2.35
 
  LATTYP: Found a face centered cubic cell.
 ALAT       =     5.4345374200
  
  Lattice vectors:
  
 A1 = (   0.0000000000,   2.7172687100,   2.7172687100)
 A2 = (   2.7172687100,   0.0000000000,   2.7172687100)
 A3 = (   2.7172687100,   2.7172687100,   0.0000000000)


Analysis of symmetry for initial positions (statically):
=====================================================================
 Subroutine PRICEL returns:
 Original cell was already a primitive cell.
 

 Routine SETGRP: Setting up the symmetry group for a 
 face centered cubic supercell.


 Subroutine GETGRP returns: Found 48 space group operations
 (whereof 24 operations were pure point group operations)
 out of a pool of 48 trial point group operations.


The static configuration has the point symmetry T_d .
 The point group associated with its full space group is O_h .


Analysis of symmetry for dynamics (positions and initial velocities):
=====================================================================
 Subroutine PRICEL returns:
 Original cell was already a primitive cell.
 

 Routine SETGRP: Setting up the symmetry group for a 
 face centered cubic supercell.


 Subroutine GETGRP returns: Found 48 space group operations
 (whereof 24 operations were pure point group operations)
 out of a pool of 48 trial point group operations.


The dynamic configuration has the point symmetry T_d .
 The point group associated with its full space group is O_h .


 Subroutine INISYM returns: Found 48 space group operations
 (whereof 24 operations are pure point group operations),
 and found     1 'primitive' translations


----------------------------------------------------------------------------------------

                                     Primitive cell                                     

  volume of cell :      40.1262

  direct lattice vectors                    reciprocal lattice vectors
     0.000000000  2.717268710  2.717268710    -0.184008301  0.184008301  0.184008301
     2.717268710  0.000000000  2.717268710     0.184008301 -0.184008301  0.184008301
     2.717268710  2.717268710  0.000000000     0.184008301  0.184008301 -0.184008301

  length of vectors
     3.842798262  3.842798262  3.842798262     0.318711727  0.318711727  0.318711727

  position of ions in fractional coordinates (direct lattice)
     0.500000000  0.500000000  0.500000000
     0.750000000  0.750000000  0.750000000

  ion indices of the primitive-cell ions
   primitive index   ion index
                 1           1
                 2           2

----------------------------------------------------------------------------------------

 
 
 KPOINTS: KPOINTS created by Atomic Simulation Env

Automatic generation of k-mesh.
 Grid dimensions read from file:
 generate k-points for:    6    6    6

 Generating k-lattice:

  Cartesian coordinates                     Fractional coordinates (reciprocal lattice)
    -0.030668050  0.030668050  0.030668050     0.166666667  0.000000000 -0.000000000
     0.030668050 -0.030668050  0.030668050     0.000000000  0.166666667  0.000000000
     0.030668050  0.030668050 -0.030668050    -0.000000000 -0.000000000  0.166666667

  Length of vectors
     0.053118621  0.053118621  0.053118621

  Shift w.r.t. Gamma in fractional coordinates (k-lattice)
     0.000000000  0.000000000  0.000000000

 
 Subroutine IBZKPT returns following result:
 ===========================================
 
 Found     16 irreducible k-points:
 
 Following reciprocal coordinates:
            Coordinates               Weight
  0.000000  0.000000  0.000000      1.000000
  0.166667 -0.000000  0.000000      8.000000
  0.333333  0.000000 -0.000000      8.000000
  0.500000  0.000000 -0.000000      4.000000
  0.166667  0.166667  0.000000      6.000000
  0.333333  0.166667  0.000000     24.000000
  0.500000  0.166667  0.000000     24.000000
 -0.333333  0.166667  0.000000     24.000000
 -0.166667  0.166667 -0.000000     12.000000
  0.333333  0.333333  0.000000      6.000000
  0.500000  0.333333  0.000000     24.000000
 -0.333333  0.333333  0.000000     12.000000
  0.500000  0.500000  0.000000      3.000000
  0.500000  0.333333  0.166667     24.000000
 -0.333333  0.333333  0.166667     24.000000
 -0.333333  0.500000  0.166667     12.000000
 
 Following cartesian coordinates:
            Coordinates               Weight
  0.000000  0.000000  0.000000      1.000000
 -0.030668  0.030668  0.030668      8.000000
 -0.061336  0.061336  0.061336      8.000000
 -0.092004  0.092004  0.092004      4.000000
 -0.000000  0.000000  0.061336      6.000000
 -0.030668  0.030668  0.092004     24.000000
 -0.061336  0.061336  0.122672     24.000000
  0.092004 -0.092004 -0.030668     24.000000
  0.061336 -0.061336 -0.000000     12.000000
  0.000000  0.000000  0.122672      6.000000
 -0.030668  0.030668  0.153340     24.000000
  0.122672 -0.122672 -0.000000     12.000000
  0.000000  0.000000  0.184008      3.000000
  0.000000  0.061336  0.122672     24.000000
  0.153340 -0.092004 -0.030668     24.000000
  0.184008 -0.122672 -0.000000     12.000000
 
 
 Subroutine IBZKPT_HF returns following result:
 ==============================================
 
 Found    216 k-points in 1st BZ
 the following    216 k-points will be used (e.g. in the exchange kernel)
 Following reciprocal coordinates:   # in IRBZ
  0.000000  0.000000  0.000000    0.00462963   1 t-inv F
  0.166667 -0.000000  0.000000    0.00462963   2 t-inv F
  0.333333  0.000000 -0.000000    0.00462963   3 t-inv F
  0.500000  0.000000 -0.000000    0.00462963   4 t-inv F
  0.166667  0.166667  0.000000    0.00462963   5 t-inv F
  0.333333  0.166667  0.000000    0.00462963   6 t-inv F
  0.500000  0.166667  0.000000    0.00462963   7 t-inv F
 -0.333333  0.166667  0.000000    0.00462963   8 t-inv F
 -0.166667  0.166667 -0.000000    0.00462963   9 t-inv F
  0.333333  0.333333  0.000000    0.00462963  10 t-inv F
  0.500000  0.333333  0.000000    0.00462963  11 t-inv F
 -0.333333  0.333333  0.000000    0.00462963  12 t-inv F
  0.500000  0.500000  0.000000    0.00462963  13 t-inv F
  0.500000  0.333333  0.166667    0.00462963  14 t-inv F
 -0.333333  0.333333  0.166667    0.00462963  15 t-inv F
 -0.333333  0.500000  0.166667    0.00462963  16 t-inv F
  0.000000  0.166667 -0.000000    0.00462963   2 t-inv F
 -0.000000  0.000000  0.166667    0.00462963   2 t-inv F
 -0.166667 -0.166667 -0.166667    0.00462963   2 t-inv F
 -0.166667  0.000000 -0.000000    0.00462963   2 t-inv F
 -0.000000 -0.166667  0.000000    0.00462963   2 t-inv F
  0.000000 -0.000000 -0.166667    0.00462963   2 t-inv F
  0.166667  0.166667  0.166667    0.00462963   2 t-inv F
 -0.000000  0.333333  0.000000    0.00462963   3 t-inv F
  0.000000 -0.000000  0.333333    0.00462963   3 t-inv F
 -0.333333 -0.333333 -0.333333    0.00462963   3 t-inv F
 -0.333333 -0.000000  0.000000    0.00462963   3 t-inv F
  0.000000 -0.333333 -0.000000    0.00462963   3 t-inv F
 -0.000000  0.000000 -0.333333    0.00462963   3 t-inv F
  0.333333  0.333333  0.333333    0.00462963   3 t-inv F
 -0.000000  0.500000  0.000000    0.00462963   4 t-inv F
  0.000000 -0.000000  0.500000    0.00462963   4 t-inv F
 -0.500000 -0.500000 -0.500000    0.00462963   4 t-inv F
  0.000000  0.166667  0.166667    0.00462963   5 t-inv F
  0.166667  0.000000  0.166667    0.00462963   5 t-inv F
 -0.166667 -0.166667  0.000000    0.00462963   5 t-inv F
 -0.166667  0.000000 -0.166667    0.00462963   5 t-inv F
  0.000000 -0.166667 -0.166667    0.00462963   5 t-inv F
  0.000000  0.333333  0.166667    0.00462963   6 t-inv F
  0.166667  0.000000  0.333333    0.00462963   6 t-inv F
 -0.166667 -0.166667  0.166667    0.00462963   6 t-inv F
 -0.333333 -0.166667 -0.333333    0.00462963   6 t-inv F
  0.166667  0.333333 -0.000000    0.00462963   6 t-inv F
  0.166667 -0.166667 -0.166667    0.00462963   6 t-inv F
 -0.333333 -0.333333 -0.166667    0.00462963   6 t-inv F
 -0.000000  0.166667  0.333333    0.00462963   6 t-inv F
 -0.166667  0.166667 -0.166667    0.00462963   6 t-inv F
 -0.166667 -0.333333 -0.333333    0.00462963   6 t-inv F
  0.333333 -0.000000  0.166667    0.00462963   6 t-inv F
 -0.333333 -0.166667 -0.000000    0.00462963   6 t-inv F
 -0.000000 -0.333333 -0.166667    0.00462963   6 t-inv F
 -0.166667 -0.000000 -0.333333    0.00462963   6 t-inv F
  0.166667  0.166667 -0.166667    0.00462963   6 t-inv F
  0.333333  0.166667  0.333333    0.00462963   6 t-inv F
 -0.166667 -0.333333  0.000000    0.00462963   6 t-inv F
 -0.166667  0.166667  0.166667    0.00462963   6 t-inv F
  0.333333  0.333333  0.166667    0.00462963   6 t-inv F
  0.000000 -0.166667 -0.333333    0.00462963   6 t-inv F
  0.166667 -0.166667  0.166667    0.00462963   6 t-inv F
  0.166667  0.333333  0.333333    0.00462963   6 t-inv F
 -0.333333  0.000000 -0.166667    0.00462963   6 t-inv F
  0.000000  0.500000  0.166667    0.00462963   7 t-inv F
  0.166667  0.000000  0.500000    0.00462963   7 t-inv F
 -0.166667 -0.166667  0.333333    0.00462963   7 t-inv F
 -0.500000 -0.333333 -0.500000    0.00462963   7 t-inv F
  0.166667  0.500000 -0.000000    0.00462963   7 t-inv F
  0.333333 -0.166667 -0.166667    0.00462963   7 t-inv F
 -0.500000 -0.500000 -0.333333    0.00462963   7 t-inv F
 -0.000000  0.166667  0.500000    0.00462963   7 t-inv F
 -0.166667  0.333333 -0.166667    0.00462963   7 t-inv F
 -0.333333 -0.500000 -0.500000    0.00462963   7 t-inv F
  0.500000 -0.000000  0.166667    0.00462963   7 t-inv F
 -0.500000 -0.166667 -0.000000    0.00462963   7 t-inv F
 -0.000000 -0.500000 -0.166667    0.00462963   7 t-inv F
 -0.166667 -0.000000 -0.500000    0.00462963   7 t-inv F
  0.166667  0.166667 -0.333333    0.00462963   7 t-inv F
  0.500000  0.333333  0.500000    0.00462963   7 t-inv F
 -0.166667 -0.500000  0.000000    0.00462963   7 t-inv F
 -0.333333  0.166667  0.166667    0.00462963   7 t-inv F
  0.500000  0.500000  0.333333    0.00462963   7 t-inv F
  0.000000 -0.166667 -0.500000    0.00462963   7 t-inv F
  0.166667 -0.333333  0.166667    0.00462963   7 t-inv F
  0.333333  0.500000  0.500000    0.00462963   7 t-inv F
 -0.500000  0.000000 -0.166667    0.00462963   7 t-inv F
  0.000000 -0.333333  0.166667    0.00462963   8 t-inv F
  0.166667  0.000000 -0.333333    0.00462963   8 t-inv F
 -0.166667 -0.166667 -0.500000    0.00462963   8 t-inv F
  0.333333  0.500000  0.333333    0.00462963   8 t-inv F
  0.166667 -0.333333 -0.000000    0.00462963   8 t-inv F
 -0.500000 -0.166667 -0.166667    0.00462963   8 t-inv F
  0.333333  0.333333  0.500000    0.00462963   8 t-inv F
 -0.000000  0.166667 -0.333333    0.00462963   8 t-inv F
 -0.166667 -0.500000 -0.166667    0.00462963   8 t-inv F
  0.500000  0.333333  0.333333    0.00462963   8 t-inv F
 -0.333333 -0.000000  0.166667    0.00462963   8 t-inv F
  0.333333 -0.166667 -0.000000    0.00462963   8 t-inv F
 -0.000000  0.333333 -0.166667    0.00462963   8 t-inv F
 -0.166667 -0.000000  0.333333    0.00462963   8 t-inv F
  0.166667  0.166667  0.500000    0.00462963   8 t-inv F
 -0.333333 -0.500000 -0.333333    0.00462963   8 t-inv F
 -0.166667  0.333333  0.000000    0.00462963   8 t-inv F
  0.500000  0.166667  0.166667    0.00462963   8 t-inv F
 -0.333333 -0.333333 -0.500000    0.00462963   8 t-inv F
  0.000000 -0.166667  0.333333    0.00462963   8 t-inv F
  0.166667  0.500000  0.166667    0.00462963   8 t-inv F
 -0.500000 -0.333333 -0.333333    0.00462963   8 t-inv F
  0.333333  0.000000 -0.166667    0.00462963   8 t-inv F
 -0.000000 -0.166667  0.166667    0.00462963   9 t-inv F
  0.166667 -0.000000 -0.166667    0.00462963   9 t-inv F
 -0.166667 -0.166667 -0.333333    0.00462963   9 t-inv F
  0.166667  0.333333  0.166667    0.00462963   9 t-inv F
  0.166667 -0.166667  0.000000    0.00462963   9 t-inv F
 -0.333333 -0.166667 -0.166667    0.00462963   9 t-inv F
  0.166667  0.166667  0.333333    0.00462963   9 t-inv F
  0.000000  0.166667 -0.166667    0.00462963   9 t-inv F
 -0.166667 -0.333333 -0.166667    0.00462963   9 t-inv F
  0.333333  0.166667  0.166667    0.00462963   9 t-inv F
 -0.166667  0.000000  0.166667    0.00462963   9 t-inv F
  0.000000  0.333333  0.333333    0.00462963  10 t-inv F
  0.333333  0.000000  0.333333    0.00462963  10 t-inv F
 -0.333333 -0.333333  0.000000    0.00462963  10 t-inv F
 -0.333333  0.000000 -0.333333    0.00462963  10 t-inv F
  0.000000 -0.333333 -0.333333    0.00462963  10 t-inv F
  0.000000  0.500000  0.333333    0.00462963  11 t-inv F
  0.333333  0.000000  0.500000    0.00462963  11 t-inv F
 -0.333333 -0.333333  0.166667    0.00462963  11 t-inv F
 -0.500000 -0.166667 -0.500000    0.00462963  11 t-inv F
  0.333333  0.500000 -0.000000    0.00462963  11 t-inv F
  0.166667 -0.333333 -0.333333    0.00462963  11 t-inv F
 -0.500000 -0.500000 -0.166667    0.00462963  11 t-inv F
 -0.000000  0.333333  0.500000    0.00462963  11 t-inv F
 -0.333333  0.166667 -0.333333    0.00462963  11 t-inv F
 -0.166667 -0.500000 -0.500000    0.00462963  11 t-inv F
  0.500000 -0.000000  0.333333    0.00462963  11 t-inv F
 -0.500000 -0.333333 -0.000000    0.00462963  11 t-inv F
 -0.000000 -0.500000 -0.333333    0.00462963  11 t-inv F
 -0.333333 -0.000000 -0.500000    0.00462963  11 t-inv F
  0.333333  0.333333 -0.166667    0.00462963  11 t-inv F
  0.500000  0.166667  0.500000    0.00462963  11 t-inv F
 -0.333333 -0.500000  0.000000    0.00462963  11 t-inv F
 -0.166667  0.333333  0.333333    0.00462963  11 t-inv F
  0.500000  0.500000  0.166667    0.00462963  11 t-inv F
  0.000000 -0.333333 -0.500000    0.00462963  11 t-inv F
  0.333333 -0.166667  0.333333    0.00462963  11 t-inv F
  0.166667  0.500000  0.500000    0.00462963  11 t-inv F
 -0.500000  0.000000 -0.333333    0.00462963  11 t-inv F
  0.000000 -0.333333  0.333333    0.00462963  12 t-inv F
  0.333333  0.000000 -0.333333    0.00462963  12 t-inv F
 -0.333333 -0.333333 -0.666667    0.00462963  12 t-inv F
  0.333333  0.666667  0.333333    0.00462963  12 t-inv F
  0.333333 -0.333333 -0.000000    0.00462963  12 t-inv F
 -0.666667 -0.333333 -0.333333    0.00462963  12 t-inv F
  0.333333  0.333333  0.666667    0.00462963  12 t-inv F
 -0.000000  0.333333 -0.333333    0.00462963  12 t-inv F
 -0.333333 -0.666667 -0.333333    0.00462963  12 t-inv F
  0.666667  0.333333  0.333333    0.00462963  12 t-inv F
 -0.333333 -0.000000  0.333333    0.00462963  12 t-inv F
  0.000000  0.500000  0.500000    0.00462963  13 t-inv F
  0.500000  0.000000  0.500000    0.00462963  13 t-inv F
  0.166667  0.500000  0.333333    0.00462963  14 t-inv F
  0.333333  0.166667  0.500000    0.00462963  14 t-inv F
 -0.333333 -0.166667  0.166667    0.00462963  14 t-inv F
 -0.500000 -0.166667 -0.333333    0.00462963  14 t-inv F
 -0.166667  0.333333  0.166667    0.00462963  14 t-inv F
  0.166667  0.333333 -0.166667    0.00462963  14 t-inv F
  0.166667 -0.166667 -0.333333    0.00462963  14 t-inv F
 -0.333333 -0.166667 -0.500000    0.00462963  14 t-inv F
 -0.333333 -0.500000 -0.166667    0.00462963  14 t-inv F
  0.166667 -0.166667  0.333333    0.00462963  14 t-inv F
  0.166667 -0.333333 -0.166667    0.00462963  14 t-inv F
 -0.166667  0.166667  0.333333    0.00462963  14 t-inv F
 -0.333333  0.166667 -0.166667    0.00462963  14 t-inv F
 -0.500000 -0.333333 -0.166667    0.00462963  14 t-inv F
 -0.166667 -0.333333 -0.500000    0.00462963  14 t-inv F
  0.333333  0.166667 -0.166667    0.00462963  14 t-inv F
 -0.166667  0.166667 -0.333333    0.00462963  14 t-inv F
  0.333333 -0.166667  0.166667    0.00462963  14 t-inv F
 -0.166667 -0.333333  0.166667    0.00462963  14 t-inv F
 -0.166667 -0.500000 -0.333333    0.00462963  14 t-inv F
  0.500000  0.166667  0.333333    0.00462963  14 t-inv F
  0.333333  0.500000  0.166667    0.00462963  14 t-inv F
  0.166667  0.333333  0.500000    0.00462963  14 t-inv F
  0.166667 -0.333333  0.333333    0.00462963  15 t-inv F
  0.333333  0.166667 -0.333333    0.00462963  15 t-inv F
 -0.333333 -0.166667 -0.666667    0.00462963  15 t-inv F
  0.333333  0.666667  0.500000    0.00462963  15 t-inv F
 -0.166667 -0.500000  0.166667    0.00462963  15 t-inv F
  0.166667 -0.500000 -0.166667    0.00462963  15 t-inv F
 -0.666667 -0.166667 -0.333333    0.00462963  15 t-inv F
  0.500000  0.666667  0.333333    0.00462963  15 t-inv F
  0.500000  0.333333  0.666667    0.00462963  15 t-inv F
  0.166667 -0.166667 -0.500000    0.00462963  15 t-inv F
 -0.666667 -0.333333 -0.166667    0.00462963  15 t-inv F
 -0.166667  0.166667 -0.500000    0.00462963  15 t-inv F
 -0.333333 -0.666667 -0.166667    0.00462963  15 t-inv F
  0.333333  0.500000  0.666667    0.00462963  15 t-inv F
  0.666667  0.500000  0.333333    0.00462963  15 t-inv F
 -0.500000  0.166667 -0.166667    0.00462963  15 t-inv F
 -0.166667 -0.666667 -0.333333    0.00462963  15 t-inv F
 -0.500000 -0.166667  0.166667    0.00462963  15 t-inv F
 -0.166667 -0.333333 -0.666667    0.00462963  15 t-inv F
  0.666667  0.333333  0.500000    0.00462963  15 t-inv F
 -0.333333  0.166667  0.333333    0.00462963  15 t-inv F
  0.333333 -0.333333  0.166667    0.00462963  15 t-inv F
  0.166667  0.333333 -0.333333    0.00462963  15 t-inv F
  0.166667 -0.333333  0.500000    0.00462963  16 t-inv F
  0.500000  0.166667 -0.333333    0.00462963  16 t-inv F
 -0.500000 -0.333333 -0.833333    0.00462963  16 t-inv F
  0.333333  0.833333  0.500000    0.00462963  16 t-inv F
 -0.166667 -0.500000  0.333333    0.00462963  16 t-inv F
  0.333333 -0.500000 -0.166667    0.00462963  16 t-inv F
  0.500000  0.833333  0.333333    0.00462963  16 t-inv F
  0.500000  0.333333  0.833333    0.00462963  16 t-inv F
 -0.833333 -0.500000 -0.333333    0.00462963  16 t-inv F
 -0.166667  0.333333 -0.500000    0.00462963  16 t-inv F
 -0.333333 -0.833333 -0.500000    0.00462963  16 t-inv F


--------------------------------------------------------------------------------------------------------




 Dimension of arrays:
   k-points           NKPTS =     16   k-points in BZ     NKDIM =     16   number of bands    NBANDS=     32
   number of dos      NEDOS =    301   number of ions     NIONS =      2
   non local maximal  LDIM  =      4   non local SUM 2l+1 LMDIM =      8
   total plane-waves  NPLWV =  13824
   max r-space proj   IRMAX =      1   max aug-charges    IRDMAX=  92339
   dimension x,y,z NGX =    24 NGY =   24 NGZ =   24
   dimension x,y,z NGXF=    48 NGYF=   48 NGZF=   48
   support grid    NGXF=    96 NGYF=   96 NGZF=   96
   ions per type =               2
   NGX,Y,Z   is equivalent  to a cutoff of  10.38, 10.38, 10.38 a.u.
   NGXF,Y,Z  is equivalent  to a cutoff of  20.77, 20.77, 20.77 a.u.

 SYSTEM =  unknown system                          
 POSCAR =  Si                                      

 Startparameter for this run:
   NWRITE =      2    write-flag & timer
   PREC   = accura    normal or accurate (medium, high low for compatibility)
   ISTART =      0    job   : 0-new  1-cont  2-samecut
   ICHARG =      2    charge: 1-file 2-atom 10-const
   ISPIN  =      1    spin polarized calculation?
   LNONCOLLINEAR =      F non collinear calculations
   LSORBIT =      F    spin-orbit coupling
   INIWAV =      1    electr: 0-lowe 1-rand  2-diag
   LASPH  =      F    aspherical Exc in radial PAW
 Electronic Relaxation 1
   ENCUT  =  318.9 eV  23.44 Ry    4.84 a.u.   5.60  5.60  5.60*2*pi/ulx,y,z
   ENINI  =  318.9     initial cutoff
   ENAUG  =  322.1 eV  augmentation charge cutoff
   NELM   =     60;   NELMIN=  5; NELMDL= -5     # of ELM steps 
   EDIFF  = 0.1E-07   stopping-criterion for ELM
   LREAL  =      F    real-space projection
   NLSPLINE    = F    spline interpolate recip. space projectors
   LCOMPAT=      F    compatible to vasp.4.4
   GGA_COMPAT  = T    GGA compatible to vasp.4.4-vasp.4.6
   LMAXPAW     = -100 max onsite density
   LMAXMIX     =    2 max onsite mixed and CHGCAR
   VOSKOWN=      0    Vosko Wilk Nusair interpolation
   ROPT   =    0.00000
 Ionic relaxation
   EDIFFG = 0.1E-06   stopping-criterion for IOM
   NSW    =      0    number of steps for IOM
   NBLOCK =      1;   KBLOCK =      1    inner block; outer block 
   IBRION =     -1    ionic relax: 0-MD 1-quasi-New 2-CG
   NFREE  =      0    steps in history (QN), initial steepest desc. (CG)
   ISIF   =      2    stress and relaxation
   IWAVPR =     10    prediction:  0-non 1-charg 2-wave 3-comb
   ISYM   =      2    0-nonsym 1-usesym 2-fastsym
   LCORR  =      T    Harris-Foulkes like correction to forces

   POTIM  = 0.5000    time-step for ionic-motion
   TEIN   =    0.0    initial temperature
   TEBEG  =    0.0;   TEEND  =   0.0 temperature during run
   SMASS  =  -3.00    Nose mass-parameter (am)
   estimated Nose-frequenzy (Omega)   =  0.10E-29 period in steps = 0.13E+47 mass=  -0.337E-27a.u.
   SCALEE = 1.0000    scale energy and forces
   NPACO  =    256;   APACO  = 10.0  distance and # of slots for P.C.
   PSTRESS=    0.0 pullay stress

  Mass of Ions in am
   POMASS =  28.09
  Ionic Valenz
   ZVAL   =   4.00
  Atomic Wigner-Seitz radii
   RWIGS  =  -1.00
  virtual crystal weights 
   VCA    =   1.00
   NELECT =       8.0000    total number of electrons
   NUPDOWN=      -1.0000    fix difference up-down

 DOS related values:
   EMIN   =  10.00;   EMAX   =-10.00  energy-range for DOS
   EFERMI =   0.00
   ISMEAR =     0;   SIGMA  =   0.02  broadening in eV -4-tet -1-fermi 0-gaus

 Electronic relaxation 2 (details)
   IALGO  =     38    algorithm
   LDIAG  =      T    sub-space diagonalisation (order eigenvalues)
   LSUBROT=      F    optimize rotation matrix (better conditioning)
   TURBO    =      0    0=normal 1=particle mesh
   IRESTART =      0    0=no restart 2=restart with 2 vectors
   NREBOOT  =      0    no. of reboots
   NMIN     =      0    reboot dimension
   EREF     =   0.00    reference energy to select bands
   IMIX   =      4    mixing-type and parameters
     AMIX     =   0.40;   BMIX     =  1.00
     AMIX_MAG =   1.60;   BMIX_MAG =  1.00
     AMIN     =   0.10
     WC   =   100.;   INIMIX=   1;  MIXPRE=   1;  MAXMIX= -45

 Intra band minimization:
   WEIMIN = 0.0000     energy-eigenvalue tresh-hold
   EBREAK =  0.78E-10  absolut break condition
   DEPER  =   0.30     relativ break condition  

   TIME   =   0.40     timestep for ELM

  volume/ion in A,a.u.               =      20.06       135.39
  Fermi-wavevector in a.u.,A,eV,Ry     =   0.956377  1.807290 12.444651  0.914656
  Thomas-Fermi vector in A             =   2.085299
 
 Write flags
   LWAVE        =      F    write WAVECAR
   LDOWNSAMPLE  =      F    k-point downsampling of WAVECAR
   LCHARG       =      F    write CHGCAR
   LVTOT        =      F    write LOCPOT, total local potential
   LVHAR        =      F    write LOCPOT, Hartree potential only
   LELF         =      F    write electronic localiz. function (ELF)
   LORBIT       =      0    0 simple, 1 ext, 2 COOP (PROOUT), +10 PAW based schemes


 Dipole corrections
   LMONO  =      F    monopole corrections only (constant potential shift)
   LDIPOL =      F    correct potential (dipole corrections)
   IDIPOL =      0    1-x, 2-y, 3-z, 4-all directions 
   EPSILON=  1.0000000 bulk dielectric constant

 Exchange correlation treatment:
   GGA     =    PS    GGA type
   LEXCH   =    14    internal setting for exchange type
   LIBXC   =     F    Libxc                    
   VOSKOWN =     0    Vosko Wilk Nusair interpolation
   LHFCALC =     F    Hartree Fock is set to
   LHFONE  =     F    Hartree Fock one center treatment
   AEXX    =    0.0000 exact exchange contribution

 Linear response parameters
   LEPSILON=     T    determine dielectric tensor
   LRPA    =     F    only Hartree local field effects (RPA)
   LNABLA  =     F    use nabla operator in PAW spheres
   LVEL    =     F    velocity operator in full k-point grid
   CSHIFT  =0.1000    complex shift for real part using Kramers Kronig
   OMEGAMAX=  -1.0    maximum frequency
   DEG_THRESHOLD= 0.2000000E-02 threshold for treating states as degnerate
   RTIME   =   -0.100 relaxation time in fs
  (WPLASMAI=    0.000 imaginary part of plasma frequency in eV, 0.658/RTIME)
   DFIELD  = 0.0000000 0.0000000 0.0000000 field for delta impulse in time
 
  Optional k-point grid parameters
   LKPOINTS_OPT  =     F    use optional k-point grid
   KPOINTS_OPT_MODE=     1    mode for optional k-point grid
 
 Orbital magnetization related:
   ORBITALMAG=     F  switch on orbital magnetization
   LCHIMAG   =     F  perturbation theory with respect to B field
   DQ        =  0.001000  dq finite difference perturbation B field
   LLRAUG    =     F  two centre corrections for induced B field



--------------------------------------------------------------------------------------------------------


 Static calculation
 charge density and potential will be updated during run
 non-spin polarized calculation
 Variant of blocked Davidson
 Davidson routine will perform the subspace rotation
 perform sub-space diagonalisation
    after iterative eigenvector-optimisation
 modified Broyden-mixing scheme, WC =      100.0
 initial mixing is a Kerker type mixing with AMIX =  0.4000 and BMIX =      1.0000
 Hartree-type preconditioning will be used
 using additional bands           28
 reciprocal scheme for non local part
 use partial core corrections
 calculate Harris-corrections to forces 
   (improved forces if not selfconsistent)
 use gradient corrections 
 use of overlap-Matrix (Vanderbilt PP)
 Gauss-broadening in eV      SIGMA  =   0.02


--------------------------------------------------------------------------------------------------------


  energy-cutoff  :      318.95
  volume of cell :       40.13
      direct lattice vectors                 reciprocal lattice vectors
     0.000000000  2.717268710  2.717268710    -0.184008301  0.184008301  0.184008301
     2.717268710  0.000000000  2.717268710     0.184008301 -0.184008301  0.184008301
     2.717268710  2.717268710  0.000000000     0.184008301  0.184008301 -0.184008301

  length of vectors
     3.842798262  3.842798262  3.842798262     0.318711727  0.318711727  0.318711727


 
 k-points in units of 2pi/SCALE and weight: KPOINTS created by Atomic Simulation Env
   0.00000000  0.00000000  0.00000000       0.005
  -0.03066805  0.03066805  0.03066805       0.037
  -0.06133610  0.06133610  0.06133610       0.037
  -0.09200415  0.09200415  0.09200415       0.019
   0.00000000 -0.00000000  0.06133610       0.028
  -0.03066805  0.03066805  0.09200415       0.111
  -0.06133610  0.06133610  0.12267220       0.111
   0.09200415 -0.09200415 -0.03066805       0.111
   0.06133610 -0.06133610  0.00000000       0.056
   0.00000000  0.00000000  0.12267220       0.028
  -0.03066805  0.03066805  0.15334025       0.111
   0.12267220 -0.12267220 -0.00000000       0.056
   0.00000000  0.00000000  0.18400830       0.014
   0.00000000  0.06133610  0.12267220       0.111
   0.15334025 -0.09200415 -0.03066805       0.111
   0.18400830 -0.12267220 -0.00000000       0.056
 
 k-points in reciprocal lattice and weights: KPOINTS created by Atomic Simulation Env
   0.00000000  0.00000000  0.00000000       0.005
   0.16666667 -0.00000000  0.00000000       0.037
   0.33333333  0.00000000 -0.00000000       0.037
   0.50000000  0.00000000 -0.00000000       0.019
   0.16666667  0.16666667  0.00000000       0.028
   0.33333333  0.16666667  0.00000000       0.111
   0.50000000  0.16666667  0.00000000       0.111
  -0.33333333  0.16666667  0.00000000       0.111
  -0.16666667  0.16666667 -0.00000000       0.056
   0.33333333  0.33333333  0.00000000       0.028
   0.50000000  0.33333333  0.00000000       0.111
  -0.33333333  0.33333333  0.00000000       0.056
   0.50000000  0.50000000  0.00000000       0.014
   0.50000000  0.33333333  0.16666667       0.111
  -0.33333333  0.33333333  0.16666667       0.111
  -0.33333333  0.50000000  0.16666667       0.056
 
 position of ions in fractional coordinates (direct lattice) 
   0.50000000  0.50000000  0.50000000
   0.75000000  0.75000000  0.75000000
 
 position of ions in cartesian coordinates  (Angst):
   2.71726871  2.71726871  2.71726871
   4.07590307  4.07590307  4.07590307
 


--------------------------------------------------------------------------------------------------------


 k-point   1 :   0.0000 0.0000 0.0000  plane waves:     531
 k-point   2 :   0.1667-0.0000 0.0000  plane waves:     525
 k-point   3 :   0.3333 0.0000-0.0000  plane waves:     516
 k-point   4 :   0.5000 0.0000-0.0000  plane waves:     502
 k-point   5 :   0.1667 0.1667 0.0000  plane waves:     528
 k-point   6 :   0.3333 0.1667 0.0000  plane waves:     522
 k-point   7 :   0.5000 0.1667 0.0000  plane waves:     524
 k-point   8 :  -0.3333 0.1667 0.0000  plane waves:     520
 k-point   9 :  -0.1667 0.1667-0.0000  plane waves:     521
 k-point  10 :   0.3333 0.3333 0.0000  plane waves:     512
 k-point  11 :   0.5000 0.3333 0.0000  plane waves:     513
 k-point  12 :  -0.3333 0.3333 0.0000  plane waves:     528
 k-point  13 :   0.5000 0.5000 0.0000  plane waves:     524
 k-point  14 :   0.5000 0.3333 0.1667  plane waves:     512
 k-point  15 :  -0.3333 0.3333 0.1667  plane waves:     520
 k-point  16 :  -0.3333 0.5000 0.1667  plane waves:     508

 maximum and minimum number of plane-waves per node :       531      502

 maximum number of plane-waves:       531
 maximum index in each direction: 
   IXMAX=    5   IYMAX=    5   IZMAX=    5
   IXMIN=   -6   IYMIN=   -6   IZMIN=   -5


 serial   3D FFT for wavefunctions
 parallel 3D FFT for charge:
    minimum data exchange during FFTs selected (reduces bandwidth)


 total amount of memory used by VASP MPI-rank0    32104. kBytes
=======================================================================

   base      :      30000. kBytes
   nonl-proj :        574. kBytes
   fftplans  :        588. kBytes
   grid      :        789. kBytes
   one-center:          6. kBytes
   wavefun   :        147. kBytes
 
     INWAV:  cpu time      0.0000: real time      0.0000
 Broyden mixing: mesh for mixing (old mesh)
   NGX = 11   NGY = 11   NGZ = 11
  (NGX  = 48   NGY  = 48   NGZ  = 48)
  gives a total of   1331 points

 initial charge density was supplied:
 charge density of overlapping atoms calculated
 number of electron       8.0000000 magnetization 
 keeping initial charge density in first step


--------------------------------------------------------------------------------------------------------


 Maximum index for augmentation-charges         3168 (set IRDMAX)


--------------------------------------------------------------------------------------------------------


 First call to EWALD:  gamma=   0.518
 Maximum number of real-space cells 3x 3x 3
 Maximum number of reciprocal cells 3x 3x 3

    FEWALD:  cpu time      0.0012: real time      0.0012


--------------------------------------- Iteration      1(   1)  ---------------------------------------


    POTLOK:  cpu time      0.0040: real time      0.0054
    SETDIJ:  cpu time      0.0045: real time      0.0045
     EDDAV:  cpu time      0.0879: real time      0.0908
       DOS:  cpu time      0.0007: real time      0.0007
    --------------------------------------------
      LOOP:  cpu time      0.0971: real time      0.1015

 eigenvalue-minimisations  :  1184
 total energy-change (2. order) :-0.8655213E+01  (-0.2585645E+03)
 number of electron       8.0000000 magnetization 
 augmentation part        8.0000000 magnetization 

 Free energy of the ion-electron system (eV)
  ---------------------------------------------------
  alpha Z        PSCENC =         3.35572789
  Ewald energy   TEWEN  =      -228.37269200
  -Hartree energ DENC   =       -11.03872051
  -exchange      EXHF   =         0.00000000
  -V(xc)+E(xc)   XCENC  =       -17.46411005
  PAW double counting   =       174.95707044     -140.38057629
  entropy T*S    EENTRO =        -0.00000004
  eigenvalues    EBANDS =         5.13908170
  atomic energy  EATOM  =       205.14900606
  Solvation  Ediel_sol  =         0.00000000
  ---------------------------------------------------
  free energy    TOTEN  =        -8.65521280 eV

  energy without entropy =       -8.65521276  energy(sigma->0) =       -8.65521278


--------------------------------------------------------------------------------------------------------




--------------------------------------- Iteration      1(   2)  ---------------------------------------


     EDDAV:  cpu time      0.1246: real time      0.1255
       DOS:  cpu time      0.0001: real time      0.0001
    --------------------------------------------
      LOOP:  cpu time      0.1247: real time      0.1256

 eigenvalue-minimisations  :  1536
 total energy-change (2. order) :-0.3033349E+01  (-0.3033348E+01)
 number of electron       8.0000000 magnetization 
 augmentation part        8.0000000 magnetization 

 Free energy of the ion-electron system (eV)
  ---------------------------------------------------
  alpha Z        PSCENC =         3.35572789
  Ewald energy   TEWEN  =      -228.37269200
  -Hartree energ DENC   =       -11.03872051
  -exchange      EXHF   =         0.00000000
  -V(xc)+E(xc)   XCENC  =       -17.46411005
  PAW double counting   =       174.95707044     -140.38057629
  entropy T*S    EENTRO =        -0.00000000
  eigenvalues    EBANDS =         2.10573305
  atomic energy  EATOM  =       205.14900606
  Solvation  Ediel_sol  =         0.00000000
  ---------------------------------------------------
  free energy    TOTEN  =       -11.68856140 eV

  energy without entropy =      -11.68856140  energy(sigma->0) =      -11.68856140


--------------------------------------------------------------------------------------------------------




--------------------------------------- Iteration      1(   3)  ---------------------------------------


     EDDAV:  cpu time      0.0721: real time      0.0724
       DOS:  cpu time      0.0001: real time      0.0001
    --------------------------------------------
      LOOP:  cpu time      0.0722: real time      0.0725

 eigenvalue-minimisations  :  1088
 total energy-change (2. order) :-0.2733355E-02  (-0.2733355E-02)
 number of electron       8.0000000 magnetization 
 augmentation part        8.0000000 magnetization 

 Free energy of the ion-electron system (eV)
  ---------------------------------------------------
  alpha Z        PSCENC =         3.35572789
  Ewald energy   TEWEN  =      -228.37269200
  -Hartree energ DENC   =       -11.03872051
  -exchange      EXHF   =         0.00000000
  -V(xc)+E(xc)   XCENC  =       -17.46411005
  PAW double counting   =       174.95707044     -140.38057629
  entropy T*S    EENTRO =        -0.00000000
  eigenvalues    EBANDS =         2.10299970
  atomic energy  EATOM  =       205.14900606
  Solvation  Ediel_sol  =         0.00000000
  ---------------------------------------------------
  free energy    TOTEN  =       -11.69129476 eV

  energy without entropy =      -11.69129476  energy(sigma->0) =      -11.69129476


--------------------------------------------------------------------------------------------------------




--------------------------------------- Iteration      1(   4)  ---------------------------------------


     EDDAV:  cpu time      0.1833: real time      0.1840
       DOS:  cpu time      0.0001: real time      0.0001
    --------------------------------------------
      LOOP:  cpu time      0.1834: real time      0.1840

 eigenvalue-minimisations  :  1888
 total energy-change (2. order) :-0.1145817E-05  (-0.1145889E-05)
 number of electron       8.0000000 magnetization 
 augmentation part        8.0000000 magnetization 

 Free energy of the ion-electron system (eV)
  ---------------------------------------------------
  alpha Z        PSCENC =         3.35572789
  Ewald energy   TEWEN  =      -228.37269200
  -Hartree energ DENC   =       -11.03872051
  -exchange      EXHF   =         0.00000000
  -V(xc)+E(xc)   XCENC  =       -17.46411005
  PAW double counting   =       174.95707044     -140.38057629
  entropy T*S    EENTRO =        -0.00000000
  eigenvalues    EBANDS =         2.10299855
  atomic energy  EATOM  =       205.14900606
  Solvation  Ediel_sol  =         0.00000000
  ---------------------------------------------------
  free energy    TOTEN  =       -11.69129590 eV

  energy without entropy =      -11.69129590  energy(sigma->0) =      -11.69129590


--------------------------------------------------------------------------------------------------------




--------------------------------------- Iteration      1(   5)  ---------------------------------------


     EDDAV:  cpu time      0.0805: real time      0.0809
       DOS:  cpu time      0.0001: real time      0.0001
    CHARGE:  cpu time      0.0059: real time      0.0079
    MIXING:  cpu time      0.0002: real time      0.0002
    --------------------------------------------
      LOOP:  cpu time      0.0867: real time      0.0890

 eigenvalue-minimisations  :  1120
 total energy-change (2. order) :-0.2614797E-11  (-0.2344318E-11)
 number of electron       8.0000000 magnetization 
 augmentation part       -0.4668708 magnetization 

 Broyden mixing:
  rms(total) = 0.50379E+00    rms(broyden)= 0.50379E+00
  rms(prec ) = 0.95097E+00
  weight for this iteration     100.00

 Free energy of the ion-electron system (eV)
  ---------------------------------------------------
  alpha Z        PSCENC =         3.35572789
  Ewald energy   TEWEN  =      -228.37269200
  -Hartree energ DENC   =       -11.03872051
  -exchange      EXHF   =         0.00000000
  -V(xc)+E(xc)   XCENC  =       -17.46411005
  PAW double counting   =       174.95707044     -140.38057629
  entropy T*S    EENTRO =        -0.00000000
  eigenvalues    EBANDS =         2.10299855
  atomic energy  EATOM  =       205.14900606
  Solvation  Ediel_sol  =         0.00000000
  ---------------------------------------------------
  free energy    TOTEN  =       -11.69129590 eV

  energy without entropy =      -11.69129590  energy(sigma->0) =      -11.69129590


--------------------------------------------------------------------------------------------------------




--------------------------------------- Iteration      1(   6)  ---------------------------------------


    POTLOK:  cpu time      0.0023: real time      0.0024
    SETDIJ:  cpu time      0.0024: real time      0.0024
     EDDAV:  cpu time      0.0810: real time      0.0813
       DOS:  cpu time      0.0001: real time      0.0001
    CHARGE:  cpu time      0.0044: real time      0.0044
    MIXING:  cpu time      0.0002: real time      0.0002
    --------------------------------------------
      LOOP:  cpu time      0.0905: real time      0.0909

 eigenvalue-minimisations  :  1184
 total energy-change (2. order) : 0.1561403E+00  (-0.9908060E-02)
 number of electron       8.0000000 magnetization 
 augmentation part       -0.4616808 magnetization 

 Broyden mixing:
  rms(total) = 0.30334E+00    rms(broyden)= 0.30334E+00
  rms(prec ) = 0.55464E+00
  weight for this iteration     100.00

 eigenvalues of (default mixing * dielectric matrix)
  average eigenvalue GAMMA=   2.5043
  2.5043

 Free energy of the ion-electron system (eV)
  ---------------------------------------------------
  alpha Z        PSCENC =         3.35572789
  Ewald energy   TEWEN  =      -228.37269200
  -Hartree energ DENC   =       -12.49027835
  -exchange      EXHF   =         0.00000000
  -V(xc)+E(xc)   XCENC  =       -17.23460864
  PAW double counting   =       389.90310007     -355.42857808
  entropy T*S    EENTRO =        -0.00000000
  eigenvalues    EBANDS =         3.58316741
  atomic energy  EATOM  =       205.14900606
  Solvation  Ediel_sol  =         0.00000000
  ---------------------------------------------------
  free energy    TOTEN  =       -11.53515565 eV

  energy without entropy =      -11.53515565  energy(sigma->0) =      -11.53515565


--------------------------------------------------------------------------------------------------------




--------------------------------------- Iteration      1(   7)  ---------------------------------------


    POTLOK:  cpu time      0.0022: real time      0.0023
    SETDIJ:  cpu time      0.0019: real time      0.0019
     EDDAV:  cpu time      0.0954: real time      0.0958
       DOS:  cpu time      0.0001: real time      0.0001
    CHARGE:  cpu time      0.0036: real time      0.0036
    MIXING:  cpu time      0.0002: real time      0.0002
    --------------------------------------------
      LOOP:  cpu time      0.1034: real time      0.1039

 eigenvalue-minimisations  :  1312
 total energy-change (2. order) : 0.7124186E-01  (-0.1702887E-01)
 number of electron       8.0000000 magnetization 
 augmentation part       -0.4556773 magnetization 

 Broyden mixing:
  rms(total) = 0.19458E-01    rms(broyden)= 0.19457E-01
  rms(prec ) = 0.41677E-01
  weight for this iteration     100.00

 eigenvalues of (default mixing * dielectric matrix)
  average eigenvalue GAMMA=   2.1161
  2.1161  2.1161

 Free energy of the ion-electron system (eV)
  ---------------------------------------------------
  alpha Z        PSCENC =         3.35572789
  Ewald energy   TEWEN  =      -228.37269200
  -Hartree energ DENC   =       -14.73210902
  -exchange      EXHF   =         0.00000000
  -V(xc)+E(xc)   XCENC  =       -16.86071538
  PAW double counting   =       885.21338256     -850.87093353
  entropy T*S    EENTRO =        -0.00000000
  eigenvalues    EBANDS =         5.65441962
  atomic energy  EATOM  =       205.14900606
  Solvation  Ediel_sol  =         0.00000000
  ---------------------------------------------------
  free energy    TOTEN  =       -11.46391379 eV

  energy without entropy =      -11.46391379  energy(sigma->0) =      -11.46391379


--------------------------------------------------------------------------------------------------------




--------------------------------------- Iteration      1(   8)  ---------------------------------------


    POTLOK:  cpu time      0.0022: real time      0.0022
    SETDIJ:  cpu time      0.0019: real time      0.0020
     EDDAV:  cpu time      0.0786: real time      0.0789
       DOS:  cpu time      0.0001: real time      0.0001
    CHARGE:  cpu time      0.0036: real time      0.0036
    MIXING:  cpu time      0.0002: real time      0.0002
    --------------------------------------------
      LOOP:  cpu time      0.0866: real time      0.0870

 eigenvalue-minimisations  :  1152
 total energy-change (2. order) :-0.2656517E-03  (-0.1867092E-03)
 number of electron       8.0000000 magnetization 
 augmentation part       -0.4566835 magnetization 

 Broyden mixing:
  rms(total) = 0.59466E-02    rms(broyden)= 0.59465E-02
  rms(prec ) = 0.10971E-01
  weight for this iteration     100.00

 eigenvalues of (default mixing * dielectric matrix)
  average eigenvalue GAMMA=   2.2846
  2.9083  1.9727  1.9727

 Free energy of the ion-electron system (eV)
  ---------------------------------------------------
  alpha Z        PSCENC =         3.35572789
  Ewald energy   TEWEN  =      -228.37269200
  -Hartree energ DENC   =       -14.65455512
  -exchange      EXHF   =         0.00000000
  -V(xc)+E(xc)   XCENC  =       -16.85711820
  PAW double counting   =       900.33437484     -865.97485129
  entropy T*S    EENTRO =        -0.00000000
  eigenvalues    EBANDS =         5.55592838
  atomic energy  EATOM  =       205.14900606
  Solvation  Ediel_sol  =         0.00000000
  ---------------------------------------------------
  free energy    TOTEN  =       -11.46417944 eV

  energy without entropy =      -11.46417944  energy(sigma->0) =      -11.46417944


--------------------------------------------------------------------------------------------------------




--------------------------------------- Iteration      1(   9)  ---------------------------------------


    POTLOK:  cpu time      0.0021: real time      0.0022
    SETDIJ:  cpu time      0.0019: real time      0.0020
     EDDAV:  cpu time      0.1132: real time      0.1136
       DOS:  cpu time      0.0001: real time      0.0001
    CHARGE:  cpu time      0.0036: real time      0.0036
    MIXING:  cpu time      0.0002: real time      0.0002
    --------------------------------------------
      LOOP:  cpu time      0.1211: real time      0.1216

 eigenvalue-minimisations  :  1440
 total energy-change (2. order) :-0.6389693E-04  (-0.4890630E-05)
 number of electron       8.0000000 magnetization 
 augmentation part       -0.4567437 magnetization 

 Broyden mixing:
  rms(total) = 0.44094E-02    rms(broyden)= 0.44094E-02
  rms(prec ) = 0.50336E-02
  weight for this iteration     100.00

 eigenvalues of (default mixing * dielectric matrix)
  average eigenvalue GAMMA=   2.0035
  2.7104  2.2150  2.2150  0.8735

 Free energy of the ion-electron system (eV)
  ---------------------------------------------------
  alpha Z        PSCENC =         3.35572789
  Ewald energy   TEWEN  =      -228.37269200
  -Hartree energ DENC   =       -14.68846274
  -exchange      EXHF   =         0.00000000
  -V(xc)+E(xc)   XCENC  =       -16.84952637
  PAW double counting   =       900.94443946     -866.58451591
  entropy T*S    EENTRO =        -0.00000000
  eigenvalues    EBANDS =         5.58178028
  atomic energy  EATOM  =       205.14900606
  Solvation  Ediel_sol  =         0.00000000
  ---------------------------------------------------
  free energy    TOTEN  =       -11.46424334 eV

  energy without entropy =      -11.46424334  energy(sigma->0) =      -11.46424334


--------------------------------------------------------------------------------------------------------




--------------------------------------- Iteration      1(  10)  ---------------------------------------


    POTLOK:  cpu time      0.0022: real time      0.0022
    SETDIJ:  cpu time      0.0019: real time      0.0019
     EDDAV:  cpu time      0.1043: real time      0.1048
       DOS:  cpu time      0.0001: real time      0.0001
    CHARGE:  cpu time      0.0036: real time      0.0036
    MIXING:  cpu time      0.0002: real time      0.0002
    --------------------------------------------
      LOOP:  cpu time      0.1122: real time      0.1128

 eigenvalue-minimisations  :  1344
 total energy-change (2. order) :-0.9533635E-05  (-0.7534161E-06)
 number of electron       8.0000000 magnetization 
 augmentation part       -0.4567434 magnetization 

 Broyden mixing:
  rms(total) = 0.30298E-03    rms(broyden)= 0.30295E-03
  rms(prec ) = 0.47868E-03
  weight for this iteration     100.00

 eigenvalues of (default mixing * dielectric matrix)
  average eigenvalue GAMMA=   1.9351
  0.9859  2.8261  2.4474  1.9991  1.4171

 Free energy of the ion-electron system (eV)
  ---------------------------------------------------
  alpha Z        PSCENC =         3.35572789
  Ewald energy   TEWEN  =      -228.37269200
  -Hartree energ DENC   =       -14.69331929
  -exchange      EXHF   =         0.00000000
  -V(xc)+E(xc)   XCENC  =       -16.84903679
  PAW double counting   =       891.13091784     -856.77065995
  entropy T*S    EENTRO =        -0.00000000
  eigenvalues    EBANDS =         5.58580337
  atomic energy  EATOM  =       205.14900606
  Solvation  Ediel_sol  =         0.00000000
  ---------------------------------------------------
  free energy    TOTEN  =       -11.46425287 eV

  energy without entropy =      -11.46425287  energy(sigma->0) =      -11.46425287


--------------------------------------------------------------------------------------------------------




--------------------------------------- Iteration      1(  11)  ---------------------------------------


    POTLOK:  cpu time      0.0021: real time      0.0022
    SETDIJ:  cpu time      0.0020: real time      0.0020
     EDDAV:  cpu time      0.1327: real time      0.1332
       DOS:  cpu time      0.0001: real time      0.0001
    CHARGE:  cpu time      0.0038: real time      0.0038
    MIXING:  cpu time      0.0002: real time      0.0002
    --------------------------------------------
      LOOP:  cpu time      0.1408: real time      0.1415

 eigenvalue-minimisations  :  1568
 total energy-change (2. order) :-0.4953782E-07  (-0.1482529E-07)
 number of electron       8.0000000 magnetization 
 augmentation part       -0.4567462 magnetization 

 Broyden mixing:
  rms(total) = 0.11629E-03    rms(broyden)= 0.11625E-03
  rms(prec ) = 0.23741E-03
  weight for this iteration     100.00

 eigenvalues of (default mixing * dielectric matrix)
  average eigenvalue GAMMA=   2.0630
  3.0687  2.5728  2.5728  2.1486  0.9890  1.0258

 Free energy of the ion-electron system (eV)
  ---------------------------------------------------
  alpha Z        PSCENC =         3.35572789
  Ewald energy   TEWEN  =      -228.37269200
  -Hartree energ DENC   =       -14.69348714
  -exchange      EXHF   =         0.00000000
  -V(xc)+E(xc)   XCENC  =       -16.84898668
  PAW double counting   =       891.51170752     -857.15132041
  entropy T*S    EENTRO =        -0.00000000
  eigenvalues    EBANDS =         5.58579184
  atomic energy  EATOM  =       205.14900606
  Solvation  Ediel_sol  =         0.00000000
  ---------------------------------------------------
  free energy    TOTEN  =       -11.46425292 eV

  energy without entropy =      -11.46425292  energy(sigma->0) =      -11.46425292


--------------------------------------------------------------------------------------------------------




--------------------------------------- Iteration      1(  12)  ---------------------------------------


    POTLOK:  cpu time      0.0021: real time      0.0022
    SETDIJ:  cpu time      0.0019: real time      0.0019
     EDDAV:  cpu time      0.1005: real time      0.1009
       DOS:  cpu time      0.0001: real time      0.0001
    CHARGE:  cpu time      0.0036: real time      0.0036
    MIXING:  cpu time      0.0002: real time      0.0002
    --------------------------------------------
      LOOP:  cpu time      0.1085: real time      0.1089

 eigenvalue-minimisations  :  1312
 total energy-change (2. order) :-0.5515702E-07  (-0.6921543E-08)
 number of electron       8.0000000 magnetization 
 augmentation part       -0.4567402 magnetization 

 Broyden mixing:
  rms(total) = 0.15020E-04    rms(broyden)= 0.14739E-04
  rms(prec ) = 0.16280E-04
  weight for this iteration     100.00

 eigenvalues of (default mixing * dielectric matrix)
  average eigenvalue GAMMA=   1.9435
  3.0716  2.6294  2.3835  2.1817  0.9603  1.0308  1.3474

 Free energy of the ion-electron system (eV)
  ---------------------------------------------------
  alpha Z        PSCENC =         3.35572789
  Ewald energy   TEWEN  =      -228.37269200
  -Hartree energ DENC   =       -14.69429555
  -exchange      EXHF   =         0.00000000
  -V(xc)+E(xc)   XCENC  =       -16.84899155
  PAW double counting   =       891.50675693     -857.14638423
  entropy T*S    EENTRO =        -0.00000000
  eigenvalues    EBANDS =         5.58661948
  atomic energy  EATOM  =       205.14900606
  Solvation  Ediel_sol  =         0.00000000
  ---------------------------------------------------
  free energy    TOTEN  =       -11.46425298 eV

  energy without entropy =      -11.46425298  energy(sigma->0) =      -11.46425298


--------------------------------------------------------------------------------------------------------




--------------------------------------- Iteration      1(  13)  ---------------------------------------


    POTLOK:  cpu time      0.0021: real time      0.0021
    SETDIJ:  cpu time      0.0019: real time      0.0019
     EDDAV:  cpu time      0.0653: real time      0.0655
       DOS:  cpu time      0.0001: real time      0.0001
    --------------------------------------------
      LOOP:  cpu time      0.0693: real time      0.0696

 eigenvalue-minimisations  :   992
 total energy-change (2. order) : 0.5570655E-09  (-0.1713548E-10)
 number of electron       8.0000000 magnetization 
 augmentation part       -0.4567402 magnetization 

 Free energy of the ion-electron system (eV)
  ---------------------------------------------------
  alpha Z        PSCENC =         3.35572789
  Ewald energy   TEWEN  =      -228.37269200
  -Hartree energ DENC   =       -14.69427130
  -exchange      EXHF   =         0.00000000
  -V(xc)+E(xc)   XCENC  =       -16.84899310
  PAW double counting   =       891.47831433     -857.11794092
  entropy T*S    EENTRO =        -0.00000000
  eigenvalues    EBANDS =         5.58659606
  atomic energy  EATOM  =       205.14900606
  Solvation  Ediel_sol  =         0.00000000
  ---------------------------------------------------
  free energy    TOTEN  =       -11.46425298 eV

  energy without entropy =      -11.46425298  energy(sigma->0) =      -11.46425298


--------------------------------------------------------------------------------------------------------




 average (electrostatic) potential at core
  the test charge radii are     0.9892
  (the norm of the test charge is              1.0000)
       1 -83.0477       2 -83.0477
 
 
 
 E-fermi :   5.9772     XC(G=0):  -9.5417     alpha+bet :-11.9545

 Fermi energy:         5.9772141459

 k-point     1 :       0.0000    0.0000    0.0000
  band No.  band energies     occupation 
      1      -6.2006      2.00000
      2       5.7785      2.00000
      3       5.7785      2.00000
      4       5.7785      2.00000
      5       8.2925      0.00000
      6       8.2925      0.00000
      7       8.2925      0.00000
      8       9.0773      0.00000
      9      13.4751      0.00000
     10      13.4751      0.00000
     11      13.4761      0.00000
     12      16.8652      0.00000
     13      16.8652      0.00000
     14      16.8652      0.00000
     15      20.8463      0.00000
     16      28.7848      0.00000
     17      28.7848      0.00000
     18      28.7848      0.00000
     19      29.9750      0.00000
     20      29.9750      0.00000
     21      31.4682      0.00000
     22      31.4682      0.00000
     23      31.4682      0.00000
     24      34.9532      0.00000
     25      34.9532      0.00000
     26      34.9532      0.00000
     27      40.6211      0.00000
     28      40.6211      0.00000
     29      40.6211      0.00000
     30      43.8366      0.00000
     31      44.4174      0.00000
     32      44.4174      0.00000

 k-point     2 :       0.1667   -0.0000    0.0000
  band No.  band energies     occupation 
      1      -5.8386      2.00000
      2       3.3796      2.00000
      3       5.3237      2.00000
      4       5.3237      2.00000
      5       8.0608      0.00000
      6       8.9437      0.00000
      7       8.9437      0.00000
      8      11.1653      0.00000
      9      12.8088      0.00000
     10      12.8088      0.00000
     11      14.6357      0.00000
     12      16.2408      0.00000
     13      18.7839      0.00000
     14      18.7839      0.00000
     15      22.8574      0.00000
     16      25.6566      0.00000
     17      25.6566      0.00000
     18      26.2628      0.00000
     19      29.6380      0.00000
     20      29.6380      0.00000
     21      32.1423      0.00000
     22      32.1423      0.00000
     23      33.5186      0.00000
     24      35.2813      0.00000
     25      36.9111      0.00000
     26      38.1658      0.00000
     27      38.1658      0.00000
     28      39.7282      0.00000
     29      39.7282      0.00000
     30      41.2665      0.00000
     31      41.2665      0.00000
     32      43.7309      0.00000

 k-point     3 :       0.3333    0.0000   -0.0000
  band No.  band energies     occupation 
      1      -4.8191      2.00000
      2       0.4161      2.00000
      3       4.7731      2.00000
      4       4.7731      2.00000
      5       7.4625      0.00000
      6       9.2267      0.00000
      7       9.2267      0.00000
      8      13.4771      0.00000
      9      13.7086      0.00000
     10      13.7086      0.00000
     11      14.7372      0.00000
     12      19.2174      0.00000
     13      20.3517      0.00000
     14      20.3517      0.00000
     15      22.5113      0.00000
     16      23.3152      0.00000
     17      23.3152      0.00000
     18      27.4178      0.00000
     19      29.7905      0.00000
     20      29.7905      0.00000
     21      30.9365      0.00000
     22      32.5447      0.00000
     23      32.5447      0.00000
     24      35.0386      0.00000
     25      35.0386      0.00000
     26      35.5753      0.00000
     27      36.1340      0.00000
     28      38.4988      0.00000
     29      38.4988      0.00000
     30      39.6022      0.00000
     31      39.6022      0.00000
     32      41.2951      0.00000

 k-point     4 :       0.5000    0.0000   -0.0000
  band No.  band energies     occupation 
      1      -3.8551      2.00000
      2      -1.2302      2.00000
      3       4.5757      2.00000
      4       4.5757      2.00000
      5       7.2370      0.00000
      6       9.0531      0.00000
      7       9.0531      0.00000
      8      13.2853      0.00000
      9      16.3021      0.00000
     10      16.3021      0.00000
     11      16.9867      0.00000
     12      17.0514      0.00000
     13      17.0514      0.00000
     14      18.6839      0.00000
     15      25.0691      0.00000
     16      25.6187      0.00000
     17      27.3005      0.00000
     18      27.3005      0.00000
     19      27.5418      0.00000
     20      27.5418      0.00000
     21      31.2650      0.00000
     22      32.1364      0.00000
     23      32.1364      0.00000
     24      33.2114      0.00000
     25      33.2114      0.00000
     26      33.8655      0.00000
     27      36.7560      0.00000
     28      38.0219      0.00000
     29      38.0219      0.00000
     30      38.5786      0.00000
     31      38.5786      0.00000
     32      39.5844      0.00000

 k-point     5 :       0.1667    0.1667    0.0000
  band No.  band energies     occupation 
      1      -5.7155      2.00000
      2       3.7354      2.00000
      3       4.5720      2.00000
      4       4.5720      2.00000
      5       7.4010      0.00000
      6       9.9956      0.00000
      7      10.0861      0.00000
      8      10.0861      0.00000
      9      12.3237      0.00000
     10      14.0128      0.00000
     11      15.3078      0.00000
     12      17.7088      0.00000
     13      17.7088      0.00000
     14      18.2720      0.00000
     15      23.9426      0.00000
     16      25.1576      0.00000
     17      25.1576      0.00000
     18      26.4148      0.00000
     19      27.6280      0.00000
     20      29.4461      0.00000
     21      32.4104      0.00000
     22      32.8720      0.00000
     23      32.8720      0.00000
     24      37.5955      0.00000
     25      37.5955      0.00000
     26      37.8151      0.00000
     27      38.2846      0.00000
     28      38.2846      0.00000
     29      38.6330      0.00000
     30      39.4189      0.00000
     31      41.8584      0.00000
     32      43.4741      0.00000

 k-point     6 :       0.3333    0.1667    0.0000
  band No.  band energies     occupation 
      1      -4.8977      2.00000
      2       1.3268      2.00000
      3       3.7620      2.00000
      4       4.0177      2.00000
      5       7.6576      0.00000
      6       9.7641      0.00000
      7      10.2305      0.00000
      8      10.8083      0.00000
      9      14.8125      0.00000
     10      14.8509      0.00000
     11      16.0122      0.00000
     12      18.4774      0.00000
     13      19.4543      0.00000
     14      20.9944      0.00000
     15      21.6732      0.00000
     16      22.6564      0.00000
     17      25.5500      0.00000
     18      26.3316      0.00000
     19      27.4219      0.00000
     20      29.0540      0.00000
     21      31.2764      0.00000
     22      32.1904      0.00000
     23      33.1753      0.00000
     24      35.2485      0.00000
     25      35.4680      0.00000
     26      35.8921      0.00000
     27      37.5063      0.00000
     28      38.0307      0.00000
     29      38.7987      0.00000
     30      39.7190      0.00000
     31      41.2499      0.00000
     32      42.4263      0.00000

 k-point     7 :       0.5000    0.1667    0.0000
  band No.  band energies     occupation 
      1      -3.6980      2.00000
      2      -0.8558      2.00000
      3       2.9721      2.00000
      4       3.9899      2.00000
      5       7.7272      0.00000
      6       9.8244      0.00000
      7      10.3420      0.00000
      8      12.1166      0.00000
      9      15.0499      0.00000
     10      16.2139      0.00000
     11      17.4252      0.00000
     12      17.5597      0.00000
     13      18.3680      0.00000
     14      21.8189      0.00000
     15      23.6497      0.00000
     16      24.6856      0.00000
     17      25.8171      0.00000
     18      26.3031      0.00000
     19      26.8231      0.00000
     20      28.4748      0.00000
     21      29.6856      0.00000
     22      31.9163      0.00000
     23      32.6780      0.00000
     24      32.8886      0.00000
     25      33.3120      0.00000
     26      35.1424      0.00000
     27      35.9389      0.00000
     28      36.0051      0.00000
     29      37.7628      0.00000
     30      39.5204      0.00000
     31      40.3058      0.00000
     32      41.0953      0.00000

 k-point     8 :      -0.3333    0.1667    0.0000
  band No.  band energies     occupation 
      1      -4.0865      2.00000
      2      -0.2518      2.00000
      3       2.6970      2.00000
      4       4.4739      2.00000
      5       8.1488      0.00000
      6       9.8230      0.00000
      7       9.9498      0.00000
      8      12.9760      0.00000
      9      13.0446      0.00000
     10      15.0682      0.00000
     11      17.1078      0.00000
     12      18.5261      0.00000
     13      20.5448      0.00000
     14      21.1391      0.00000
     15      22.0018      0.00000
     16      23.5936      0.00000
     17      25.6743      0.00000
     18      27.6967      0.00000
     19      27.7401      0.00000
     20      28.6509      0.00000
     21      30.4795      0.00000
     22      30.5281      0.00000
     23      33.0357      0.00000
     24      33.3409      0.00000
     25      34.0184      0.00000
     26      34.1176      0.00000
     27      35.4183      0.00000
     28      37.9289      0.00000
     29      39.0155      0.00000
     30      39.5784      0.00000
     31      40.2584      0.00000
     32      41.3765      0.00000

 k-point     9 :      -0.1667    0.1667   -0.0000
  band No.  band energies     occupation 
      1      -5.2486      2.00000
      2       2.0493      2.00000
      3       3.3308      2.00000
      4       5.2128      2.00000
      5       8.7608      0.00000
      6       9.2875      0.00000
      7       9.5578      0.00000
      8      11.3509      0.00000
      9      11.8112      0.00000
     10      15.1184      0.00000
     11      16.0681      0.00000
     12      17.1273      0.00000
     13      19.0253      0.00000
     14      21.2758      0.00000
     15      21.7271      0.00000
     16      24.3765      0.00000
     17      26.1284      0.00000
     18      26.4333      0.00000
     19      26.7460      0.00000
     20      28.2562      0.00000
     21      32.3388      0.00000
     22      32.5383      0.00000
     23      34.1306      0.00000
     24      35.1755      0.00000
     25      36.2417      0.00000
     26      36.8421      0.00000
     27      37.1153      0.00000
     28      39.6041      0.00000
     29      39.7169      0.00000
     30      39.9659      0.00000
     31      40.1691      0.00000
     32      41.1453      0.00000

 k-point    10 :       0.3333    0.3333    0.0000
  band No.  band energies     occupation 
      1      -4.2919      2.00000
      2       0.7641      2.00000
      3       3.3425      2.00000
      4       3.3425      2.00000
      5       6.3987      0.00000
      6       7.6505      0.00000
      7      13.0006      0.00000
      8      13.0006      0.00000
      9      15.5475      0.00000
     10      15.6241      0.00000
     11      18.6653      0.00000
     12      19.2074      0.00000
     13      19.2074      0.00000
     14      20.7109      0.00000
     15      21.9417      0.00000
     16      22.0161      0.00000
     17      22.0161      0.00000
     18      24.8209      0.00000
     19      28.6216      0.00000
     20      30.2826      0.00000
     21      31.1672      0.00000
     22      31.1672      0.00000
     23      32.2713      0.00000
     24      33.2763      0.00000
     25      33.6000      0.00000
     26      34.5724      0.00000
     27      34.5724      0.00000
     28      40.7367      0.00000
     29      41.2127      0.00000
     30      41.3562      0.00000
     31      41.3562      0.00000
     32      42.2098      0.00000

 k-point    11 :       0.5000    0.3333    0.0000
  band No.  band energies     occupation 
      1      -3.1233      2.00000
      2      -0.7922      2.00000
      3       2.1019      2.00000
      4       3.2063      2.00000
      5       6.7285      0.00000
      6       8.3989      0.00000
      7      13.1793      0.00000
      8      13.1985      0.00000
      9      16.3250      0.00000
     10      16.4369      0.00000
     11      18.0719      0.00000
     12      18.5920      0.00000
     13      20.3058      0.00000
     14      21.4890      0.00000
     15      21.6996      0.00000
     16      24.2600      0.00000
     17      24.4593      0.00000
     18      25.1026      0.00000
     19      26.2968      0.00000
     20      28.3931      0.00000
     21      28.8704      0.00000
     22      29.4117      0.00000
     23      30.1053      0.00000
     24      32.3391      0.00000
     25      35.0092      0.00000
     26      35.0171      0.00000
     27      37.3907      0.00000
     28      37.8969      0.00000
     29      37.9391      0.00000
     30      40.2489      0.00000
     31      41.2835      0.00000
     32      41.9770      0.00000

 k-point    12 :      -0.3333    0.3333    0.0000
  band No.  band energies     occupation 
      1      -2.9222      2.00000
      2      -1.0013      2.00000
      3       1.3089      2.00000
      4       3.6519      2.00000
      5       7.2375      0.00000
      6      11.4874      0.00000
      7      12.2038      0.00000
      8      12.7929      0.00000
      9      13.1290      0.00000
     10      13.3833      0.00000
     11      19.9866      0.00000
     12      20.5304      0.00000
     13      21.4218      0.00000
     14      21.4687      0.00000
     15      22.3647      0.00000
     16      23.3236      0.00000
     17      24.1415      0.00000
     18      25.5478      0.00000
     19      27.9351      0.00000
     20      28.2545      0.00000
     21      28.5347      0.00000
     22      29.6043      0.00000
     23      32.2170      0.00000
     24      32.4890      0.00000
     25      33.0845      0.00000
     26      34.6124      0.00000
     27      34.8644      0.00000
     28      35.0970      0.00000
     29      40.1606      0.00000
     30      40.7617      0.00000
     31      40.7948      0.00000
     32      41.6622      0.00000

 k-point    13 :       0.5000    0.5000    0.0000
  band No.  band energies     occupation 
      1      -2.0464      2.00000
      2      -2.0464      2.00000
      3       2.9066      2.00000
      4       2.9066      2.00000
      5       6.3688      0.00000
      6       6.3688      0.00000
      7      15.8265      0.00000
      8      15.8265      0.00000
      9      16.7217      0.00000
     10      16.7217      0.00000
     11      18.2793      0.00000
     12      18.2793      0.00000
     13      18.7112      0.00000
     14      18.7112      0.00000
     15      24.4855      0.00000
     16      24.4855      0.00000
     17      25.3198      0.00000
     18      25.3198      0.00000
     19      25.8878      0.00000
     20      25.8878      0.00000
     21      27.1316      0.00000
     22      27.1316      0.00000
     23      31.2269      0.00000
     24      31.2269      0.00000
     25      35.2130      0.00000
     26      35.2130      0.00000
     27      39.8309      0.00000
     28      39.8309      0.00000
     29      39.9012      0.00000
     30      39.9012      0.00000
     31      41.5387      0.00000
     32      41.5387      0.00000

 k-point    14 :       0.5000    0.3333    0.1667
  band No.  band energies     occupation 
      1      -3.9040      2.00000
      2       0.1285      2.00000
      3       2.1643      2.00000
      4       3.4568      2.00000
      5       8.5522      0.00000
      6       9.3880      0.00000
      7       9.9523      0.00000
      8      12.7961      0.00000
      9      14.7239      0.00000
     10      15.6067      0.00000
     11      18.7248      0.00000
     12      18.8972      0.00000
     13      19.5233      0.00000
     14      20.6168      0.00000
     15      22.2478      0.00000
     16      23.5753      0.00000
     17      25.2633      0.00000
     18      26.6818      0.00000
     19      26.6882      0.00000
     20      28.3502      0.00000
     21      29.9190      0.00000
     22      30.1674      0.00000
     23      32.2312      0.00000
     24      33.2301      0.00000
     25      33.9658      0.00000
     26      35.7423      0.00000
     27      37.0209      0.00000
     28      37.4060      0.00000
     29      38.1390      0.00000
     30      38.5925      0.00000
     31      39.7597      0.00000
     32      42.5471      0.00000

 k-point    15 :      -0.3333    0.3333    0.1667
  band No.  band energies     occupation 
      1      -2.9116      2.00000
      2      -1.0783      2.00000
      3       1.7215      2.00000
      4       2.9828      2.00000
      5       9.0379      0.00000
      6       9.2638      0.00000
      7      11.7954      0.00000
      8      12.2280      0.00000
      9      13.2823      0.00000
     10      16.8287      0.00000
     11      17.6630      0.00000
     12      19.0940      0.00000
     13      21.9607      0.00000
     14      22.5591      0.00000
     15      22.7040      0.00000
     16      23.6429      0.00000
     17      24.2128      0.00000
     18      26.2122      0.00000
     19      26.6058      0.00000
     20      27.3492      0.00000
     21      28.7159      0.00000
     22      31.2959      0.00000
     23      31.3823      0.00000
     24      31.5577      0.00000
     25      34.0237      0.00000
     26      35.2652      0.00000
     27      35.9167      0.00000
     28      36.5141      0.00000
     29      36.9724      0.00000
     30      38.2520      0.00000
     31      39.5281      0.00000
     32      42.1487      0.00000

 k-point    16 :      -0.3333    0.5000    0.1667
  band No.  band energies     occupation 
      1      -1.9225      2.00000
      2      -1.9225      2.00000
      3       2.0883      2.00000
      4       2.0883      2.00000
      5       8.4340      0.00000
      6       8.4340      0.00000
      7      12.4737      0.00000
      8      12.4737      0.00000
      9      16.3067      0.00000
     10      16.3067      0.00000
     11      18.6748      0.00000
     12      18.6748      0.00000
     13      22.1450      0.00000
     14      22.1450      0.00000
     15      22.9252      0.00000
[...]

 Free energy of the ion-electron system (eV)
  ---------------------------------------------------
  -Hartree energ DENC   =        -0.03389264
  -V(xc)+E(xc)   XCENC  =         0.00053494
  PAW double counting   =         0.10361811       -0.10388358
  entropy T*S    EENTRO =         0.00000000
  eigenvalues    EBANDS =        -1.78384464
  ---------------------------------------------------
  free energy    TOTEN  =        -1.81746782 eV

  energy without entropy =       -1.81746782


----------------------------------------- Iteration    3(   4)  ---------------------------------------


   POT+DIJ:  cpu time      0.0077: real time      0.0078
    HAMIL1:  cpu time      0.0045: real time      0.0045
    LRDIAG:  cpu time      0.0067: real time      0.0067
    LRDIIS:  cpu time      0.0164: real time      0.0165
    LRDIAG:  cpu time      0.0064: real time      0.0064
    MIXING:  cpu time      0.0001: real time      0.0001
    --------------------------------------------
      LOOP:  cpu time      0.0473: real time      0.0475

 Broyden mixing:
  rms(total) = 0.17321E-01    rms(broyden)= 0.17321E-01
  rms(prec ) = 0.46914E-01
  weight for this iteration     100.00

 eigenvalues of (default mixing * dielectric matrix)
  average eigenvalue GAMMA=   2.1399
  1.9160  2.3637

 Free energy of the ion-electron system (eV)
  ---------------------------------------------------
  -Hartree energ DENC   =        -0.15094004
  -V(xc)+E(xc)   XCENC  =         0.00253086
  PAW double counting   =         0.42491353       -0.42631708
  entropy T*S    EENTRO =         0.00000000
  eigenvalues    EBANDS =        -1.71612840
  ---------------------------------------------------
  free energy    TOTEN  =        -1.86594113 eV

  energy without entropy =       -1.86594113


----------------------------------------- Iteration    3(   5)  ---------------------------------------


   POT+DIJ:  cpu time      0.0076: real time      0.0077
    HAMIL1:  cpu time      0.0045: real time      0.0045
    LRDIAG:  cpu time      0.0070: real time      0.0071
    LRDIIS:  cpu time      0.0171: real time      0.0171
    LRDIAG:  cpu time      0.0064: real time      0.0064
    MIXING:  cpu time      0.0002: real time      0.0002
    --------------------------------------------
      LOOP:  cpu time      0.0485: real time      0.0487

 Broyden mixing:
  rms(total) = 0.36390E-02    rms(broyden)= 0.36389E-02
  rms(prec ) = 0.58753E-02
  weight for this iteration     100.00

 eigenvalues of (default mixing * dielectric matrix)
  average eigenvalue GAMMA=   2.3462
  2.8721  1.7647  2.4019

 Free energy of the ion-electron system (eV)
  ---------------------------------------------------
  -Hartree energ DENC   =        -0.16947091
  -V(xc)+E(xc)   XCENC  =         0.00302511
  PAW double counting   =         0.40982050       -0.41163522
  entropy T*S    EENTRO =         0.00000000
  eigenvalues    EBANDS =        -1.71590996
  ---------------------------------------------------
  free energy    TOTEN  =        -1.88417048 eV

  energy without entropy =       -1.88417048


----------------------------------------- Iteration    3(   6)  ---------------------------------------


   POT+DIJ:  cpu time      0.0076: real time      0.0077
    HAMIL1:  cpu time      0.0045: real time      0.0045
    LRDIAG:  cpu time      0.0067: real time      0.0067
    LRDIIS:  cpu time      0.0167: real time      0.0168
    LRDIAG:  cpu time      0.0064: real time      0.0064
    MIXING:  cpu time      0.0002: real time      0.0002
    --------------------------------------------
      LOOP:  cpu time      0.0476: real time      0.0478

 Broyden mixing:
  rms(total) = 0.13923E-02    rms(broyden)= 0.13923E-02
  rms(prec ) = 0.22954E-02
  weight for this iteration     100.00

 eigenvalues of (default mixing * dielectric matrix)
  average eigenvalue GAMMA=   2.0176
  1.1081  2.8003  2.4052  1.7569

 Free energy of the ion-electron system (eV)
  ---------------------------------------------------
  -Hartree energ DENC   =        -0.17001250
  -V(xc)+E(xc)   XCENC  =         0.00304743
  PAW double counting   =         0.38278860       -0.38459193
  entropy T*S    EENTRO =         0.00000000
  eigenvalues    EBANDS =        -1.71637452
  ---------------------------------------------------
  free energy    TOTEN  =        -1.88514292 eV

  energy without entropy =       -1.88514292


----------------------------------------- Iteration    3(   7)  ---------------------------------------


   POT+DIJ:  cpu time      0.0076: real time      0.0077
    HAMIL1:  cpu time      0.0045: real time      0.0045
    LRDIAG:  cpu time      0.0067: real time      0.0067
    LRDIIS:  cpu time      0.0172: real time      0.0172
    LRDIAG:  cpu time      0.0064: real time      0.0064
    MIXING:  cpu time      0.0002: real time      0.0002
    --------------------------------------------
      LOOP:  cpu time      0.0480: real time      0.0482

 Broyden mixing:
  rms(total) = 0.13428E-03    rms(broyden)= 0.13428E-03
  rms(prec ) = 0.16294E-03
  weight for this iteration     100.00

 eigenvalues of (default mixing * dielectric matrix)
  average eigenvalue GAMMA=   2.0777
  1.0644  2.6099  2.4699  2.4699  1.7746

 Free energy of the ion-electron system (eV)
  ---------------------------------------------------
  -Hartree energ DENC   =        -0.17015059
  -V(xc)+E(xc)   XCENC  =         0.00305700
  PAW double counting   =         0.36670416       -0.36849664
  entropy T*S    EENTRO =         0.00000000
  eigenvalues    EBANDS =        -1.71670326
  ---------------------------------------------------
  free energy    TOTEN  =        -1.88558933 eV

  energy without entropy =       -1.88558933


----------------------------------------- Iteration    3(   8)  ---------------------------------------


   POT+DIJ:  cpu time      0.0077: real time      0.0077
    HAMIL1:  cpu time      0.0044: real time      0.0045
    LRDIAG:  cpu time      0.0067: real time      0.0067
    LRDIIS:  cpu time      0.0169: real time      0.0170
    LRDIAG:  cpu time      0.0064: real time      0.0064
    MIXING:  cpu time      0.0002: real time      0.0002
    --------------------------------------------
      LOOP:  cpu time      0.0478: real time      0.0481

 Broyden mixing:
  rms(total) = 0.26313E-04    rms(broyden)= 0.26312E-04
  rms(prec ) = 0.56793E-04
  weight for this iteration     100.00

 eigenvalues of (default mixing * dielectric matrix)
  average eigenvalue GAMMA=   1.9387
  2.9538  2.5961  2.4029  1.7674  1.0129  0.8991

 Free energy of the ion-electron system (eV)
  ---------------------------------------------------
  -Hartree energ DENC   =        -0.17015605
  -V(xc)+E(xc)   XCENC  =         0.00305714
  PAW double counting   =         0.36776456       -0.36955807
  entropy T*S    EENTRO =         0.00000000
  eigenvalues    EBANDS =        -1.71670429
  ---------------------------------------------------
  free energy    TOTEN  =        -1.88559672 eV

  energy without entropy =       -1.88559672


----------------------------------------- Iteration    3(   9)  ---------------------------------------


   POT+DIJ:  cpu time      0.0076: real time      0.0077
    HAMIL1:  cpu time      0.0045: real time      0.0045
    LRDIAG:  cpu time      0.0067: real time      0.0067
    LRDIIS:  cpu time      0.0171: real time      0.0171
    LRDIAG:  cpu time      0.0064: real time      0.0064
    MIXING:  cpu time      0.0002: real time      0.0002
    --------------------------------------------
      LOOP:  cpu time      0.0480: real time      0.0482

 Broyden mixing:
  rms(total) = 0.55555E-05    rms(broyden)= 0.55554E-05
  rms(prec ) = 0.62478E-05
  weight for this iteration     100.00

 eigenvalues of (default mixing * dielectric matrix)
  average eigenvalue GAMMA=   1.9626
  0.9868  0.9868  2.9509  2.5736  2.4217  1.7688  2.0495

 Free energy of the ion-electron system (eV)
  ---------------------------------------------------
  -Hartree energ DENC   =        -0.17015116
  -V(xc)+E(xc)   XCENC  =         0.00305725
  PAW double counting   =         0.36758250       -0.36937592
  entropy T*S    EENTRO =         0.00000000
  eigenvalues    EBANDS =        -1.71671658
  ---------------------------------------------------
  free energy    TOTEN  =        -1.88560392 eV

  energy without entropy =       -1.88560392


----------------------------------------- Iteration    3(  10)  ---------------------------------------


   POT+DIJ:  cpu time      0.0076: real time      0.0078
    HAMIL1:  cpu time      0.0045: real time      0.0045
    LRDIAG:  cpu time      0.0067: real time      0.0067
    LRDIIS:  cpu time      0.0173: real time      0.0174
    LRDIAG:  cpu time      0.0064: real time      0.0064
    MIXING:  cpu time      0.0002: real time      0.0002
    --------------------------------------------
      LOOP:  cpu time      0.0482: real time      0.0484

 Broyden mixing:
  rms(total) = 0.25295E-05    rms(broyden)= 0.25295E-05
  rms(prec ) = 0.26427E-05
  weight for this iteration     100.00

 eigenvalues of (default mixing * dielectric matrix)
  average eigenvalue GAMMA=   1.9161
  2.9681  2.6992  2.5256  2.4034  1.7680  1.0068  1.0068  0.9506

 Free energy of the ion-electron system (eV)
  ---------------------------------------------------
  -Hartree energ DENC   =        -0.17015125
  -V(xc)+E(xc)   XCENC  =         0.00305725
  PAW double counting   =         0.36754338       -0.36933682
  entropy T*S    EENTRO =         0.00000000
  eigenvalues    EBANDS =        -1.71671658
  ---------------------------------------------------
  free energy    TOTEN  =        -1.88560402 eV

  energy without entropy =       -1.88560402


----------------------------------------- Iteration    3(  11)  ---------------------------------------


   POT+DIJ:  cpu time      0.0077: real time      0.0078
    HAMIL1:  cpu time      0.0045: real time      0.0045
    LRDIAG:  cpu time      0.0067: real time      0.0067
    LRDIIS:  cpu time      0.0168: real time      0.0168
    LRDIAG:  cpu time      0.0064: real time      0.0064
    MIXING:  cpu time      0.0002: real time      0.0002
    --------------------------------------------
      LOOP:  cpu time      0.0477: real time      0.0480

 Broyden mixing:
  rms(total) = 0.29963E-07    rms(broyden)= 0.29910E-07
  rms(prec ) = 0.54276E-07
  weight for this iteration     100.00

 eigenvalues of (default mixing * dielectric matrix)
  average eigenvalue GAMMA=   1.9495
  2.9615  1.7680  2.7173  2.4214  2.4214  2.2930  1.0007  1.0007  0.9616

 Free energy of the ion-electron system (eV)
  ---------------------------------------------------
  -Hartree energ DENC   =        -0.17015109
  -V(xc)+E(xc)   XCENC  =         0.00305725
  PAW double counting   =         0.36751385       -0.36930727
  entropy T*S    EENTRO =         0.00000000
  eigenvalues    EBANDS =        -1.71671673
  ---------------------------------------------------
  free energy    TOTEN  =        -1.88560400 eV

  energy without entropy =       -1.88560400


------------------------ aborting loop because EDIFF is reached ----------------------------------------


 change of polarisation eV/A/(eV/A) component  3 :     0.514     0.880     3.554
 dielectric tensor                  component  3 :     2.317     3.967    17.027


--------------------------------------------------------------------------------------------------------


    FORLOC:  cpu time      0.0001: real time      0.0001
    FORNL :  cpu time      0.0086: real time      0.0087
    STRESS:  cpu time      0.0394: real time      0.0396
    FORCOR:  cpu time      0.0018: real time      0.0018
    OFIELD:  cpu time      0.0000: real time      0.0000
    FORLOC:  cpu time      0.0001: real time      0.0001
    FORNL :  cpu time      0.0085: real time      0.0086
    STRESS:  cpu time      0.0396: real time      0.0398
    FORCOR:  cpu time      0.0018: real time      0.0018
    OFIELD:  cpu time      0.0000: real time      0.0000
    FORNLD:  cpu time      0.0107: real time      0.0107

 PIEZOELECTRIC TENSOR FIELD DIRECTION 3  (e Angst)
 -----------------------------------------------------------------------------
     0.00159  0.00000 -0.00000           (  0.00001  0.00000 -0.00000)
     0.00000  0.00159  0.00000           (  0.00000  0.00001  0.00000)
    -0.00000  0.00000 -0.00401           ( -0.00000  0.00000 -0.00001)

 PIEZOELECTRIC TENSOR FIELD DIRECTION 3  (C/m^2)
 -----------------------------------------------------------------------------
     0.00064  0.00000 -0.00000
     0.00000  0.00064  0.00000
    -0.00000  0.00000 -0.00160


      POSITION         DIRECTION 3           BORN EFFECTIVE CHARGE    (rigid.aug.   ionic)
 -----------------------------------------------------------------------------------------
      2.71727      2.71727      2.71727    -0.00000 -0.00000 -0.36200 (  0.22837  4.00000)
      4.07590      4.07590      4.07590     0.00000  0.00000 -0.36200 (  0.22837  4.00000)
 -----------------------------------------------------------------------------------------
    total drift (improves with k-points):  -0.00000  0.00000 -0.72401




--------------------------------------------------------------------------------------------------------


  LATTYP: Found a face centered cubic cell.
 ALAT       =     5.4345374200
  
  Lattice vectors:
  
 A1 = (   0.0000000000,   2.7172687100,   2.7172687100)
 A2 = (   2.7172687100,   0.0000000000,   2.7172687100)
 A3 = (   2.7172687100,   2.7172687100,   0.0000000000)


Analysis of symmetry for initial positions (statically):
=====================================================================
 Subroutine PRICEL returns:
 Original cell was already a primitive cell.
 

 Routine SETGRP: Setting up the symmetry group for a 
 face centered cubic supercell.


 Subroutine GETGRP returns: Found 48 space group operations
 (whereof 24 operations were pure point group operations)
 out of a pool of 48 trial point group operations.


The static configuration has the point symmetry T_d .
 The point group associated with its full space group is O_h .


Analysis of symmetry for dynamics (positions and initial velocities):
=====================================================================
 Subroutine PRICEL returns:
 Original cell was already a primitive cell.
 

 Routine SETGRP: Setting up the symmetry group for a 
 face centered cubic supercell.


 Subroutine GETGRP returns: Found 48 space group operations
 (whereof 24 operations were pure point group operations)
 out of a pool of 48 trial point group operations.


The dynamic configuration has the point symmetry T_d .
 The point group associated with its full space group is O_h .


 Subroutine INISYM returns: Found 48 space group operations
 (whereof 24 operations are pure point group operations),
 and found     1 'primitive' translations



 MACROSCOPIC STATIC DIELECTRIC TENSOR (including local field effects in DFT)
 ------------------------------------------------------
          17.027391     0.000000    -0.000000
           0.000000    17.027391     0.000000
          -0.000000     0.000000    17.027391
 ------------------------------------------------------



--------------------------------------------------------------------------------------------------------


  LATTYP: Found a face centered cubic cell.
 ALAT       =     5.4345374200
  
  Lattice vectors:
  
 A1 = (   0.0000000000,   2.7172687100,   2.7172687100)
 A2 = (   2.7172687100,   0.0000000000,   2.7172687100)
 A3 = (   2.7172687100,   2.7172687100,   0.0000000000)


Analysis of symmetry for initial positions (statically):
=====================================================================
 Subroutine PRICEL returns:
 Original cell was already a primitive cell.
 

 Routine SETGRP: Setting up the symmetry group for a 
 face centered cubic supercell.


 Subroutine GETGRP returns: Found 48 space group operations
 (whereof 24 operations were pure point group operations)
 out of a pool of 48 trial point group operations.


The static configuration has the point symmetry T_d .
 The point group associated with its full space group is O_h .


Analysis of symmetry for dynamics (positions and initial velocities):
=====================================================================
 Subroutine PRICEL returns:
 Original cell was already a primitive cell.
 

 Routine SETGRP: Setting up the symmetry group for a 
 face centered cubic supercell.


 Subroutine GETGRP returns: Found 48 space group operations
 (whereof 24 operations were pure point group operations)
 out of a pool of 48 trial point group operations.


The dynamic configuration has the point symmetry T_d .
 The point group associated with its full space group is O_h .


 Subroutine INISYM returns: Found 48 space group operations
 (whereof 24 operations are pure point group operations),
 and found     1 'primitive' translations



--------------------------------------------------------------------------------------------------------




 MACROSCOPIC STATIC DIELECTRIC TENSOR (including local field effects in DFT)
 ------------------------------------------------------
          17.027391     0.000000    -0.000000
           0.000000    17.027391     0.000000
          -0.000000     0.000000    17.027391
 ------------------------------------------------------


 PIEZOELECTRIC TENSOR (including local field effects)  for field in x, y, z        (e  Angst)
          XX          YY          ZZ          XY          YZ          ZX
  --------------------------------------------------------------------------------
  x     0.00000     0.00000     0.00000     0.00000    -0.00000    -0.00000
  y    -0.00000     0.00000     0.00000     0.00000    -0.00000    -0.00000
  z     0.00000    -0.00000     0.00000    -0.00000    -0.00000     0.00000

 PIEZOELECTRIC TENSOR (including local field effects)  for field in x, y, z        (C/m^2)
          XX          YY          ZZ          XY          YZ          ZX
  --------------------------------------------------------------------------------
  x     0.00000     0.00000     0.00000     0.00000    -0.00000    -0.00000
  y    -0.00000     0.00000     0.00000     0.00000    -0.00000    -0.00000
  z     0.00000    -0.00000     0.00000    -0.00000    -0.00000     0.00000
 
 BORN EFFECTIVE CHARGES (including local field effects) (in |e|, cummulative output)
 ---------------------------------------------------------------------------------
 ion    1
    1     0.00000    -0.00000     0.00000
    2    -0.00000    -0.00000    -0.00000
    3     0.00000     0.00000    -0.00000
 ion    2
    1    -0.00000     0.00000    -0.00000
    2     0.00000     0.00000     0.00000
    3    -0.00000    -0.00000     0.00000


--------------------------------------------------------------------------------------------------------


     LOOP+:  cpu time      4.5044: real time      4.6407
    4ORBIT:  cpu time      0.0000: real time      0.0000

 total amount of memory used by VASP MPI-rank0    32104. kBytes
=======================================================================

   base      :      30000. kBytes
   nonl-proj :        574. kBytes
   fftplans  :        588. kBytes
   grid      :        789. kBytes
   one-center:          6. kBytes
   wavefun   :        147. kBytes
 
  
  
 General timing and accounting informations for this job:
 ========================================================
  
                  Total CPU time used (sec):        4.758
                            User time (sec):        4.536
                          System time (sec):        0.222
                         Elapsed time (sec):        5.055
  
                   Maximum memory used (kb):      174596.
                   Average memory used (kb):          N/A
  
                          Minor page faults:        11566
                          Major page faults:           12
                 Voluntary context switches:          979
