 running on   32 total cores
 distrk:  each k-point on   32 cores,    1 groups
 distr:  one band on    1 cores,   32 groups
 vasp.6.3.2 27Jun22 (build Oct 14 2022 12:13:54) complex                        
  
 POSCAR found type information on POSCAR Si
 POSCAR found :  1 types and       2 ions
 scaLAPACK will be used
 -----------------------------------------------------------------------------
|                                                                             |
|           W    W    AA    RRRRR   N    N  II  N    N   GGGG   !!!           |
|           W    W   A  A   R    R  NN   N  II  NN   N  G    G  !!!           |
|           W    W  A    A  R    R  N N  N  II  N N  N  G       !!!           |
|           W WW W  AAAAAA  RRRRR   N  N N  II  N  N N  G  GGG   !            |
|           WW  WW  A    A  R   R   N   NN  II  N   NN  G    G                |
|           W    W  A    A  R    R  N    N  II  N    N   GGGG   !!!           |
|                                                                             |
|     For optimal performance we recommend to set                             |
|       NCORE = 2 up to number-of-cores-per-socket                            |
|     NCORE specifies how many cores store one orbital (NPAR=cpu/NCORE).      |
|     This setting can greatly improve the performance of VASP for DFT.       |
|     The default, NCORE=1 might be grossly inefficient on modern             |
|     multi-core architectures or massively parallel machines. Do your        |
|     own testing! More info at https://www.vasp.at/wiki/index.php/NCORE      |
|     Unfortunately you need to use the default for GW and RPA                |
|     calculations (for HF NCORE is supported but not extensively tested      |
|     yet).                                                                   |
|                                                                             |
 -----------------------------------------------------------------------------

 -----------------------------------------------------------------------------
|                                                                             |
|               ----> ADVICE to this user running VASP <----                  |
|                                                                             |
|     You enforced a specific xc type in the INCAR file but a different       |
|     type was found in the POTCAR file.                                      |
|     I HOPE YOU KNOW WHAT YOU ARE DOING!                                     |
|                                                                             |
 -----------------------------------------------------------------------------

 LDA part: xc-table for Pade appr. of Perdew
 POSCAR, INCAR and KPOINTS ok, starting setup
 FFT: planning ... GRIDC
 FFT: planning ... GRID_SOFT
 FFT: planning ... GRID
 WAVECAR not read
 entering main loop
       N       E                     dE             d eps       ncg     rms          rms(c)
DAV:   1    -0.865521280241E+01   -0.86552E+01   -0.25856E+03  1184   0.134E+02
DAV:   2    -0.116885614006E+02   -0.30333E+01   -0.30333E+01  1536   0.130E+01
DAV:   3    -0.116912947551E+02   -0.27334E-02   -0.27334E-02  1088   0.466E-01
DAV:   4    -0.116912959010E+02   -0.11458E-05   -0.11459E-05  1888   0.891E-03
DAV:   5    -0.116912959010E+02   -0.26148E-11   -0.23443E-11  1120   0.988E-06    0.504E+00
DAV:   6    -0.115351556466E+02    0.15614E+00   -0.99081E-02  1184   0.398E-01    0.303E+00
DAV:   7    -0.114639137915E+02    0.71242E-01   -0.17029E-01  1312   0.545E-01    0.195E-01
DAV:   8    -0.114641794431E+02   -0.26565E-03   -0.18671E-03  1152   0.801E-02    0.595E-02
DAV:   9    -0.114642433401E+02   -0.63897E-04   -0.48906E-05  1440   0.150E-02    0.441E-02
DAV:  10    -0.114642528737E+02   -0.95336E-05   -0.75342E-06  1344   0.528E-03    0.303E-03
DAV:  11    -0.114642529232E+02   -0.49538E-07   -0.14825E-07  1568   0.715E-04    0.116E-03
DAV:  12    -0.114642529784E+02   -0.55157E-07   -0.69215E-08  1312   0.507E-04    0.150E-04
DAV:  13    -0.114642529778E+02    0.55707E-09   -0.17135E-10   992   0.370E-05
   1 F= -.11464253E+02 E0= -.11464253E+02  d E =-.204741E-46
 Linear response reoptimize wavefunctions to high precision
DAV:   1    -0.114642529783E+02   -0.42417E-09   -0.16748E-11   704   0.958E-06
DAV:   2    -0.114642529783E+02    0.00000E+00   -0.11834E-13   512   0.867E-07
 Linear response G [H, r] |phi>, progress :
  Direction:   1
       N       E                     dE             d eps       ncg     rms
RMM:   1    -0.445979309925E+02   -0.44598E+02   -0.15217E+01  2870   0.133E+01
RMM:   2    -0.367950615572E+02    0.78029E+01   -0.21791E+00  1674   0.300E+00
RMM:   3    -0.367634578672E+02    0.31604E-01   -0.35552E-02  1741   0.333E-01
RMM:   4    -0.367626478932E+02    0.80997E-03   -0.46958E-04  1765   0.385E-02
RMM:   5    -0.367626346102E+02    0.13283E-04   -0.93694E-06  1784   0.504E-03
RMM:   6    -0.367626343047E+02    0.30547E-06   -0.42227E-07  1793   0.718E-04
RMM:   7    -0.367626342797E+02    0.25017E-07   -0.10812E-06  1640   0.102E-04
RMM:   8    -0.367626342884E+02   -0.86398E-08   -0.63245E-06  1254   0.181E-05
RMM:   9    -0.367626342650E+02    0.23356E-07    0.37470E-07   994   0.723E-06
RMM:  10    -0.367626342653E+02   -0.28551E-09    0.36116E-06   926   0.695E-06
RMM:  11    -0.367626342660E+02   -0.73256E-09    0.62953E-06   831   0.695E-06
 Linear response G [H, r] |phi>, progress :
  Direction:   2
       N       E                     dE             d eps       ncg     rms
RMM:   1    -0.444203198353E+02   -0.44420E+02   -0.51756E+01  2857   0.128E+01
RMM:   2    -0.373336233318E+02    0.70867E+01   -0.19449E+00  1672   0.280E+00
RMM:   3    -0.373048022672E+02    0.28821E-01   -0.30184E-02  1746   0.313E-01
RMM:   4    -0.373041869393E+02    0.61533E-03   -0.45997E-04  1789   0.371E-02
RMM:   5    -0.373041724339E+02    0.14505E-04   -0.10474E-05  1799   0.498E-03
RMM:   6    -0.373041720232E+02    0.41070E-06   -0.39164E-07  1810   0.742E-04
RMM:   7    -0.373041720253E+02   -0.21695E-08   -0.53008E-07  1620   0.113E-04
RMM:   8    -0.373041720006E+02    0.24759E-07   -0.10568E-06  1289   0.208E-05
RMM:   9    -0.373041720074E+02   -0.67611E-08    0.55621E-07   996   0.749E-06
RMM:  10    -0.373041720059E+02    0.14196E-08    0.13075E-06   915   0.644E-06
RMM:  11    -0.373041720051E+02    0.83727E-09   -0.97805E-07   835   0.643E-06
RMM:  12    -0.373041720065E+02   -0.13753E-08   -0.39012E-06   790   0.643E-06
 Linear response G [H, r] |phi>, progress :
  Direction:   3
       N       E                     dE             d eps       ncg     rms
RMM:   1    -0.278207883641E+02   -0.27821E+02    0.54569E+01  2791   0.115E+01
RMM:   2    -0.191768562819E+02    0.86439E+01   -0.11388E+00  1638   0.232E+00
RMM:   3    -0.191757991512E+02    0.10571E-02   -0.20227E-02  1712   0.249E-01
RMM:   4    -0.191753389936E+02    0.46016E-03   -0.39168E-04  1770   0.314E-02
RMM:   5    -0.191753263541E+02    0.12640E-04   -0.94929E-06  1771   0.442E-03
RMM:   6    -0.191753259603E+02    0.39375E-06   -0.27078E-07  1773   0.693E-04
RMM:   7    -0.191753259454E+02    0.14959E-07    0.12772E-07  1647   0.110E-04
RMM:   8    -0.191753258723E+02    0.73029E-07    0.21802E-06  1279   0.217E-05
RMM:   9    -0.191753260219E+02   -0.14954E-06    0.51815E-08  1022   0.816E-06
RMM:  10    -0.191753260269E+02   -0.50367E-08   -0.23637E-07   907   0.668E-06
RMM:  11    -0.191753260245E+02    0.23686E-08   -0.18363E-06   778   0.661E-06
RMM:  12    -0.191753260273E+02   -0.27628E-08   -0.29670E-08   695   0.660E-06
 Linear response to external field (no local field effect), progress :
  Direction:   1
       N       E                     dE             d eps       ncg     rms          rms(c)
RMM:   1    -0.229248204214E+01   -0.22925E+01   -0.12070E+01  2703   0.133E+00
RMM:   2    -0.235326330537E+01   -0.60781E-01   -0.16308E-02  1659   0.227E-01
RMM:   3    -0.235340873466E+01   -0.14543E-03   -0.79538E-05  1705   0.137E-02
RMM:   4    -0.235340920906E+01   -0.47440E-06   -0.40025E-07  1744   0.113E-03
RMM:   5    -0.235340921132E+01   -0.22605E-08   -0.23081E-09  1691   0.801E-05
 change of polarisation eV/A/(eV/A) component  1 :     4.707     2.806     0.619
 dielectric tensor                  component  1 :    22.226    12.654     2.793
 Linear response to external field (no local field effect), progress :
  Direction:   2
       N       E                     dE             d eps       ncg     rms          rms(c)
RMM:   1    -0.229354840396E+01   -0.22935E+01   -0.12018E+01  2738   0.133E+00
RMM:   2    -0.235910028392E+01   -0.65552E-01   -0.15732E-02  1663   0.223E-01
RMM:   3    -0.235923774289E+01   -0.13746E-03   -0.75786E-05  1709   0.131E-02
RMM:   4    -0.235923819335E+01   -0.45046E-06   -0.37560E-07  1740   0.106E-03
RMM:   5    -0.235923819559E+01   -0.22394E-08   -0.21306E-09  1687   0.746E-05
 change of polarisation eV/A/(eV/A) component  2 :     2.806     4.718    -0.642
 dielectric tensor                  component  2 :    12.654    22.278    -2.894
 Linear response to external field (no local field effect), progress :
  Direction:   3
       N       E                     dE             d eps       ncg     rms          rms(c)
RMM:   1    -0.864910562065E+00   -0.86491E+00   -0.46849E+00  2650   0.890E-01
RMM:   2    -0.884379110711E+00   -0.19469E-01   -0.71003E-03  1653   0.155E-01
RMM:   3    -0.884458189352E+00   -0.79079E-04   -0.32543E-05  1686   0.958E-03
RMM:   4    -0.884458381597E+00   -0.19224E-06   -0.16860E-07  1692   0.776E-04
RMM:   5    -0.884458382534E+00   -0.93675E-09   -0.92791E-10  1668   0.601E-05
 change of polarisation eV/A/(eV/A) component  3 :     0.619    -0.642     1.769
 dielectric tensor                  component  3 :     2.793    -2.894     8.977
 Linear response to external field, progress :
  Direction:   1
       N       E                     dE             d eps       ncg     rms          rms(c)
RMM:   1    -0.182030268491E+01   -0.18203E+01   -0.96242E+00  5050   0.117E+00
RMM:   2    -0.186557645586E+01   -0.45274E-01   -0.13346E-02  3092   0.202E-01    0.170E+00
RMM:   3    -0.181746384984E+01    0.48113E-01   -0.32404E-03  3165   0.127E-01    0.947E-01
RMM:   4    -0.186593926908E+01   -0.48475E-01   -0.44150E-03  3126   0.150E-01    0.173E-01
RMM:   5    -0.188417160475E+01   -0.18232E-01   -0.23438E-04  3178   0.373E-02    0.364E-02
RMM:   6    -0.188514212303E+01   -0.97052E-03   -0.48470E-06  3275   0.508E-03    0.139E-02
RMM:   7    -0.188558944640E+01   -0.44732E-03   -0.14979E-06  3241   0.298E-03    0.134E-03
RMM:   8    -0.188559676259E+01   -0.73162E-05   -0.13697E-08  3405   0.251E-04    0.263E-04
RMM:   9    -0.188560399503E+01   -0.72324E-05    0.17828E-10  3297   0.119E-04    0.555E-05
RMM:  10    -0.188560409973E+01   -0.10470E-06   -0.90789E-09  2972   0.955E-06    0.254E-05
RMM:  11    -0.188560407484E+01    0.24884E-07   -0.55198E-09  1843   0.688E-06    0.304E-07
 change of polarisation eV/A/(eV/A) component  1 :     3.554     2.009     0.567
 dielectric tensor                  component  1 :    17.027     9.062     2.555
 Linear response to external field, progress :
  Direction:   2
       N       E                     dE             d eps       ncg     rms          rms(c)
RMM:   1    -0.181506744431E+01   -0.18151E+01   -0.95718E+00  5075   0.119E+00
RMM:   2    -0.186558291619E+01   -0.50515E-01   -0.12900E-02  3099   0.202E-01    0.170E+00
RMM:   3    -0.181746750228E+01    0.48115E-01   -0.32393E-03  3165   0.127E-01    0.947E-01
RMM:   4    -0.186594092463E+01   -0.48473E-01   -0.44170E-03  3135   0.150E-01    0.173E-01
RMM:   5    -0.188417078690E+01   -0.18230E-01   -0.23426E-04  3176   0.373E-02    0.364E-02
RMM:   6    -0.188514271822E+01   -0.97193E-03   -0.48401E-06  3274   0.508E-03    0.139E-02
RMM:   7    -0.188558934770E+01   -0.44663E-03   -0.14972E-06  3240   0.298E-03    0.134E-03
RMM:   8    -0.188559671542E+01   -0.73677E-05   -0.14253E-08  3401   0.251E-04    0.263E-04
RMM:   9    -0.188560393373E+01   -0.72183E-05   -0.18823E-09  3296   0.119E-04    0.554E-05
RMM:  10    -0.188560403559E+01   -0.10186E-06    0.58645E-09  2975   0.944E-06    0.254E-05
RMM:  11    -0.188560401266E+01    0.22936E-07    0.23442E-08  1853   0.676E-06    0.303E-07
 change of polarisation eV/A/(eV/A) component  2 :     1.975     3.554    -0.554
 dielectric tensor                  component  2 :     8.904    17.027    -2.498
 Linear response to external field, progress :
  Direction:   3
       N       E                     dE             d eps       ncg     rms          rms(c)
RMM:   1    -0.181557087143E+01   -0.18156E+01   -0.95769E+00  5063   0.119E+00
RMM:   2    -0.186558305718E+01   -0.50012E-01   -0.12891E-02  3100   0.201E-01    0.170E+00
RMM:   3    -0.181746782026E+01    0.48115E-01   -0.32392E-03  3165   0.127E-01    0.947E-01
RMM:   4    -0.186594112764E+01   -0.48473E-01   -0.44166E-03  3132   0.150E-01    0.173E-01
RMM:   5    -0.188417048166E+01   -0.18229E-01   -0.23430E-04  3173   0.373E-02    0.364E-02
RMM:   6    -0.188514292036E+01   -0.97244E-03   -0.48417E-06  3275   0.508E-03    0.139E-02
RMM:   7    -0.188558932509E+01   -0.44640E-03   -0.14969E-06  3232   0.298E-03    0.134E-03
RMM:   8    -0.188559672209E+01   -0.73970E-05   -0.14666E-08  3402   0.251E-04    0.263E-04
RMM:   9    -0.188560392074E+01   -0.71987E-05   -0.45527E-09  3285   0.119E-04    0.556E-05
RMM:  10    -0.188560402341E+01   -0.10267E-06   -0.13126E-08  2986   0.960E-06    0.253E-05
RMM:  11    -0.188560400018E+01    0.23226E-07   -0.10290E-07  1841   0.691E-06    0.300E-07
 change of polarisation eV/A/(eV/A) component  3 :     0.514     0.880     3.554
 dielectric tensor                  component  3 :     2.317     3.967    17.027
 Born effective charges drift removed
