  64  64   0   0
  0.2197554E+02  0.1120400E-08  0.1120400E-08  0.1120400E-08  0.5000000E-15
  1.000000000000000E-004
  CAR 
 unknown system                          
     11.06459489    -22.84711339  301     -0.55016520      1.00000000
    -22.847  0.0000E+00  0.0000E+00
    -22.734  0.0000E+00  0.0000E+00
    -22.621  0.0000E+00  0.0000E+00
    -22.508  0.0000E+00  0.0000E+00
    -22.395  0.0000E+00  0.0000E+00
    -22.282  0.0000E+00  0.0000E+00
    -22.169  0.0000E+00  0.0000E+00
    -22.056  0.0000E+00  0.0000E+00
    -21.943  0.0000E+00  0.0000E+00
    -21.830  0.0000E+00  0.0000E+00
    -21.717  0.0000E+00  0.0000E+00
    -21.604  0.0000E+00  0.0000E+00
    -21.491  0.0000E+00  0.0000E+00
    -21.378  0.5824E-05  0.6584E-06
    -21.265  0.1415E+04  0.1599E+03
    -21.152  0.2838E+03  0.1920E+03
    -21.038  0.0000E+00  0.1920E+03
    -20.925  0.0000E+00  0.1920E+03
    -20.812  0.0000E+00  0.1920E+03
    -20.699  0.0000E+00  0.1920E+03
    -20.586  0.0000E+00  0.1920E+03
    -20.473  0.0000E+00  0.1920E+03
    -20.360  0.0000E+00  0.1920E+03
    -20.247  0.0000E+00  0.1920E+03
    -20.134  0.0000E+00  0.1920E+03
    -20.021  0.0000E+00  0.1920E+03
    -19.908  0.0000E+00  0.1920E+03
    -19.795  0.0000E+00  0.1920E+03
    -19.682  0.0000E+00  0.1920E+03
    -19.569  0.0000E+00  0.1920E+03
    -19.456  0.0000E+00  0.1920E+03
    -19.343  0.0000E+00  0.1920E+03
    -19.230  0.0000E+00  0.1920E+03
    -19.117  0.0000E+00  0.1920E+03
    -19.004  0.0000E+00  0.1920E+03
    -18.891  0.0000E+00  0.1920E+03
    -18.778  0.0000E+00  0.1920E+03
    -18.665  0.0000E+00  0.1920E+03
    -18.552  0.0000E+00  0.1920E+03
    -18.439  0.0000E+00  0.1920E+03
    -18.326  0.0000E+00  0.1920E+03
    -18.213  0.0000E+00  0.1920E+03
    -18.099  0.0000E+00  0.1920E+03
    -17.986  0.0000E+00  0.1920E+03
    -17.873  0.0000E+00  0.1920E+03
    -17.760  0.0000E+00  0.1920E+03
    -17.647  0.0000E+00  0.1920E+03
    -17.534  0.0000E+00  0.1920E+03
    -17.421  0.0000E+00  0.1920E+03
    -17.308  0.0000E+00  0.1920E+03
    -17.195  0.0000E+00  0.1920E+03
    -17.082  0.0000E+00  0.1920E+03
    -16.969  0.0000E+00  0.1920E+03
    -16.856  0.0000E+00  0.1920E+03
    -16.743  0.0000E+00  0.1920E+03
    -16.630  0.0000E+00  0.1920E+03
    -16.517  0.0000E+00  0.1920E+03
    -16.404  0.0000E+00  0.1920E+03
    -16.291  0.0000E+00  0.1920E+03
    -16.178  0.0000E+00  0.1920E+03
    -16.065  0.0000E+00  0.1920E+03
    -15.952  0.0000E+00  0.1920E+03
    -15.839  0.0000E+00  0.1920E+03
    -15.726  0.0000E+00  0.1920E+03
    -15.613  0.0000E+00  0.1920E+03
    -15.500  0.0000E+00  0.1920E+03
    -15.387  0.0000E+00  0.1920E+03
    -15.273  0.0000E+00  0.1920E+03
    -15.160  0.0000E+00  0.1920E+03
    -15.047  0.0000E+00  0.1920E+03
    -14.934  0.0000E+00  0.1920E+03
    -14.821  0.0000E+00  0.1920E+03
    -14.708  0.0000E+00  0.1920E+03
    -14.595  0.0000E+00  0.1920E+03
    -14.482  0.0000E+00  0.1920E+03
    -14.369  0.0000E+00  0.1920E+03
    -14.256  0.0000E+00  0.1920E+03
    -14.143  0.0000E+00  0.1920E+03
    -14.030  0.0000E+00  0.1920E+03
    -13.917  0.0000E+00  0.1920E+03
    -13.804  0.0000E+00  0.1920E+03
    -13.691  0.0000E+00  0.1920E+03
    -13.578  0.0000E+00  0.1920E+03
    -13.465  0.4518E-13  0.1920E+03
    -13.352  0.1478E+01  0.1922E+03
    -13.239  0.2221E+02  0.1947E+03
    -13.126  0.4778E+02  0.2001E+03
    -13.013  0.1330E+03  0.2151E+03
    -12.900  0.3599E+03  0.2558E+03
    -12.787  0.1770E+01  0.2560E+03
    -12.674  0.0000E+00  0.2560E+03
    -12.561  0.0000E+00  0.2560E+03
    -12.448  0.0000E+00  0.2560E+03
    -12.334  0.0000E+00  0.2560E+03
    -12.221  0.0000E+00  0.2560E+03
    -12.108  0.0000E+00  0.2560E+03
    -11.995  0.0000E+00  0.2560E+03
    -11.882  0.0000E+00  0.2560E+03
    -11.769  0.0000E+00  0.2560E+03
    -11.656  0.0000E+00  0.2560E+03
    -11.543  0.0000E+00  0.2560E+03
    -11.430  0.0000E+00  0.2560E+03
    -11.317  0.0000E+00  0.2560E+03
    -11.204  0.0000E+00  0.2560E+03
    -11.091  0.0000E+00  0.2560E+03
    -10.978  0.0000E+00  0.2560E+03
    -10.865  0.0000E+00  0.2560E+03
    -10.752  0.0000E+00  0.2560E+03
    -10.639  0.0000E+00  0.2560E+03
    -10.526  0.0000E+00  0.2560E+03
    -10.413  0.0000E+00  0.2560E+03
    -10.300  0.0000E+00  0.2560E+03
    -10.187  0.0000E+00  0.2560E+03
    -10.074  0.0000E+00  0.2560E+03
     -9.961  0.0000E+00  0.2560E+03
     -9.848  0.0000E+00  0.2560E+03
     -9.735  0.0000E+00  0.2560E+03
     -9.622  0.0000E+00  0.2560E+03
     -9.509  0.0000E+00  0.2560E+03
     -9.395  0.0000E+00  0.2560E+03
     -9.282  0.0000E+00  0.2560E+03
     -9.169  0.0000E+00  0.2560E+03
     -9.056  0.0000E+00  0.2560E+03
     -8.943  0.0000E+00  0.2560E+03
     -8.830  0.0000E+00  0.2560E+03
     -8.717  0.0000E+00  0.2560E+03
     -8.604  0.0000E+00  0.2560E+03
     -8.491  0.0000E+00  0.2560E+03
     -8.378  0.0000E+00  0.2560E+03
     -8.265  0.0000E+00  0.2560E+03
     -8.152  0.0000E+00  0.2560E+03
     -8.039  0.0000E+00  0.2560E+03
     -7.926  0.0000E+00  0.2560E+03
     -7.813  0.0000E+00  0.2560E+03
     -7.700  0.0000E+00  0.2560E+03
     -7.587  0.0000E+00  0.2560E+03
     -7.474  0.0000E+00  0.2560E+03
     -7.361  0.0000E+00  0.2560E+03
     -7.248  0.0000E+00  0.2560E+03
     -7.135  0.0000E+00  0.2560E+03
     -7.022  0.0000E+00  0.2560E+03
     -6.909  0.0000E+00  0.2560E+03
     -6.796  0.0000E+00  0.2560E+03
     -6.683  0.0000E+00  0.2560E+03
     -6.569  0.0000E+00  0.2560E+03
     -6.456  0.0000E+00  0.2560E+03
     -6.343  0.0000E+00  0.2560E+03
     -6.230  0.0000E+00  0.2560E+03
     -6.117  0.0000E+00  0.2560E+03
     -6.004  0.0000E+00  0.2560E+03
     -5.891  0.0000E+00  0.2560E+03
     -5.778  0.0000E+00  0.2560E+03
     -5.665  0.0000E+00  0.2560E+03
     -5.552  0.0000E+00  0.2560E+03
     -5.439  0.0000E+00  0.2560E+03
     -5.326  0.0000E+00  0.2560E+03
     -5.213  0.0000E+00  0.2560E+03
     -5.100  0.0000E+00  0.2560E+03
     -4.987  0.0000E+00  0.2560E+03
     -4.874  0.0000E+00  0.2560E+03
     -4.761  0.0000E+00  0.2560E+03
     -4.648  0.0000E+00  0.2560E+03
     -4.535  0.0000E+00  0.2560E+03
     -4.422  0.0000E+00  0.2560E+03
     -4.309  0.0000E+00  0.2560E+03
     -4.196  0.0000E+00  0.2560E+03
     -4.083  0.0000E+00  0.2560E+03
     -3.970  0.0000E+00  0.2560E+03
     -3.857  0.0000E+00  0.2560E+03
     -3.744  0.0000E+00  0.2560E+03
     -3.630  0.0000E+00  0.2560E+03
     -3.517  0.0000E+00  0.2560E+03
     -3.404  0.0000E+00  0.2560E+03
     -3.291  0.0000E+00  0.2560E+03
     -3.178  0.0000E+00  0.2560E+03
     -3.065  0.0000E+00  0.2560E+03
     -2.952  0.0000E+00  0.2560E+03
     -2.839  0.0000E+00  0.2560E+03
     -2.726  0.2836E+00  0.2560E+03
     -2.613  0.8563E+01  0.2570E+03
     -2.500  0.3283E+02  0.2607E+03
     -2.387  0.7810E+02  0.2695E+03
     -2.274  0.8722E+02  0.2794E+03
     -2.161  0.1524E+03  0.2966E+03
     -2.048  0.6746E+02  0.3043E+03
     -1.935  0.5937E+02  0.3110E+03
     -1.822  0.6790E+02  0.3186E+03
     -1.709  0.6292E+02  0.3257E+03
     -1.596  0.3380E-08  0.3258E+03
     -1.483  0.9246E+02  0.3362E+03
     -1.370  0.1798E+03  0.3565E+03
     -1.257  0.2062E+02  0.3589E+03
     -1.144  0.2635E+03  0.3886E+03
     -1.031  0.1309E+03  0.4034E+03
     -0.918  0.2633E+03  0.4332E+03
     -0.805  0.5881E+02  0.4399E+03
     -0.691  0.6563E+02  0.4473E+03
     -0.578  0.6439E+01  0.4480E+03
     -0.465  0.0000E+00  0.4480E+03
     -0.352  0.0000E+00  0.4480E+03
     -0.239  0.0000E+00  0.4480E+03
     -0.126  0.0000E+00  0.4480E+03
     -0.013  0.0000E+00  0.4480E+03
      0.100  0.0000E+00  0.4480E+03
      0.213  0.0000E+00  0.4480E+03
      0.326  0.0000E+00  0.4480E+03
      0.439  0.0000E+00  0.4480E+03
      0.552  0.0000E+00  0.4480E+03
      0.665  0.0000E+00  0.4480E+03
      0.778  0.0000E+00  0.4480E+03
      0.891  0.0000E+00  0.4480E+03
      1.004  0.0000E+00  0.4480E+03
      1.117  0.0000E+00  0.4480E+03
      1.230  0.0000E+00  0.4480E+03
      1.343  0.0000E+00  0.4480E+03
      1.456  0.0000E+00  0.4480E+03
      1.569  0.0000E+00  0.4480E+03
      1.682  0.0000E+00  0.4480E+03
      1.795  0.0000E+00  0.4480E+03
      1.908  0.0000E+00  0.4480E+03
      2.021  0.0000E+00  0.4480E+03
      2.135  0.0000E+00  0.4480E+03
      2.248  0.0000E+00  0.4480E+03
      2.361  0.0000E+00  0.4480E+03
      2.474  0.0000E+00  0.4480E+03
      2.587  0.0000E+00  0.4480E+03
      2.700  0.0000E+00  0.4480E+03
      2.813  0.0000E+00  0.4480E+03
      2.926  0.0000E+00  0.4480E+03
      3.039  0.0000E+00  0.4480E+03
      3.152  0.0000E+00  0.4480E+03
      3.265  0.0000E+00  0.4480E+03
      3.378  0.0000E+00  0.4480E+03
      3.491  0.0000E+00  0.4480E+03
      3.604  0.0000E+00  0.4480E+03
      3.717  0.0000E+00  0.4480E+03
      3.830  0.0000E+00  0.4480E+03
      3.943  0.0000E+00  0.4480E+03
      4.056  0.0000E+00  0.4480E+03
      4.169  0.0000E+00  0.4480E+03
      4.282  0.4482E-04  0.4480E+03
      4.395  0.2211E+01  0.4482E+03
      4.508  0.0000E+00  0.4482E+03
      4.621  0.0000E+00  0.4482E+03
      4.734  0.0000E+00  0.4482E+03
      4.847  0.0000E+00  0.4482E+03
      4.960  0.8502E-04  0.4483E+03
      5.074  0.1327E+02  0.4497E+03
      5.187  0.0000E+00  0.4498E+03
      5.300  0.0000E+00  0.4498E+03
      5.413  0.0000E+00  0.4498E+03
      5.526  0.4457E+01  0.4503E+03
      5.639  0.2208E+02  0.4527E+03
      5.752  0.3629E-06  0.4528E+03
      5.865  0.1750E+02  0.4547E+03
      5.978  0.1905E+00  0.4548E+03
      6.091  0.0000E+00  0.4548E+03
      6.204  0.0000E+00  0.4548E+03
      6.317  0.2999E-02  0.4548E+03
      6.430  0.1459E+02  0.4564E+03
      6.543  0.7528E+01  0.4573E+03
      6.656  0.4679E+02  0.4625E+03
      6.769  0.5936E+02  0.4692E+03
      6.882  0.5955E+02  0.4760E+03
      6.995  0.1285E+02  0.4774E+03
      7.108  0.5971E+00  0.4775E+03
      7.221  0.5612E+01  0.4781E+03
      7.334  0.1640E+01  0.4783E+03
      7.447  0.8340E+02  0.4877E+03
      7.560  0.1669E+03  0.5066E+03
      7.673  0.1261E+01  0.5068E+03
      7.786  0.2649E+02  0.5097E+03
      7.900  0.4274E+00  0.5098E+03
      8.013  0.5265E+02  0.5157E+03
      8.126  0.2007E-01  0.5158E+03
      8.239  0.1491E+02  0.5174E+03
      8.352  0.9123E+02  0.5277E+03
      8.465  0.4046E-04  0.5278E+03
      8.578  0.1536E+03  0.5451E+03
      8.691  0.5637E+01  0.5458E+03
      8.804  0.6281E-05  0.5458E+03
      8.917  0.8809E+02  0.5557E+03
      9.030  0.1201E+03  0.5693E+03
      9.143  0.1926E+01  0.5695E+03
      9.256  0.2640E+02  0.5725E+03
      9.369  0.1568E+02  0.5743E+03
      9.482  0.3946E+01  0.5747E+03
      9.595  0.1148E+02  0.5760E+03
      9.708  0.0000E+00  0.5760E+03
      9.821  0.0000E+00  0.5760E+03
      9.934  0.0000E+00  0.5760E+03
     10.047  0.0000E+00  0.5760E+03
     10.160  0.0000E+00  0.5760E+03
     10.273  0.0000E+00  0.5760E+03
     10.386  0.0000E+00  0.5760E+03
     10.499  0.0000E+00  0.5760E+03
     10.612  0.0000E+00  0.5760E+03
     10.725  0.0000E+00  0.5760E+03
     10.839  0.0000E+00  0.5760E+03
     10.952  0.0000E+00  0.5760E+03
     11.065  0.0000E+00  0.5760E+03
