       N       E                     dE             d eps       ncg     rms          rms(c)
DAV:   1     0.432190961222E+04    0.43219E+04   -0.17164E+05  4608   0.125E+03
DAV:   2     0.363873963953E+03   -0.39580E+04   -0.37659E+04  5120   0.368E+02
DAV:   3    -0.206176531722E+03   -0.57005E+03   -0.56579E+03  5600   0.156E+02
DAV:   4    -0.228192120577E+03   -0.22016E+02   -0.21914E+02  5568   0.331E+01
DAV:   5    -0.229003546981E+03   -0.81143E+00   -0.80998E+00  5696   0.616E+00    0.106E+01
DAV:   6    -0.224139530136E+03    0.48640E+01   -0.94630E+00  5728   0.530E+00    0.775E+00
DAV:   7    -0.223777580922E+03    0.36195E+00   -0.20748E+00  6336   0.235E+00    0.533E+00
DAV:   8    -0.223902927010E+03   -0.12535E+00   -0.26703E-01  5344   0.124E+00    0.143E+00
DAV:   9    -0.223897261694E+03    0.56653E-02   -0.11353E-02  5696   0.260E-01    0.605E-01
DAV:  10    -0.223901576005E+03   -0.43143E-02   -0.18840E-02  5376   0.226E-01    0.294E-01
DAV:  11    -0.223900804473E+03    0.77153E-03   -0.17273E-03  5696   0.804E-02    0.837E-02
DAV:  12    -0.223900770622E+03    0.33851E-04   -0.14282E-04  6208   0.228E-02    0.137E-02
DAV:  13    -0.223900771530E+03   -0.90824E-06   -0.21234E-05  5696   0.820E-03    0.457E-03
DAV:  14    -0.223900772249E+03   -0.71858E-06   -0.17888E-06  5376   0.315E-03    0.104E-02
DAV:  15    -0.223900773743E+03   -0.14940E-05   -0.51275E-07  5344   0.163E-03    0.362E-03
DAV:  16    -0.223900774308E+03   -0.56528E-06   -0.10605E-07  4960   0.719E-04    0.553E-04
DAV:  17    -0.223900774301E+03    0.73778E-08   -0.88524E-09  3488   0.363E-04
   1 F= -.22390077E+03 E0= -.22390077E+03  d E =-.213922E-16
