 vasp.6.3.2 27Jun22 (build Oct 14 2022 12:13:54) complex                        
  
 executed on             LinuxIFC date 2025.08.28  22:03:51
 running on   32 total cores
 distrk:  each k-point on   32 cores,    1 groups
 distr:  one band on NCORE=   1 cores,   32 groups


--------------------------------------------------------------------------------------------------------


 INCAR:
   ENCUT = 341.213600
   SIGMA = 0.020000
   EDIFF = 1.00e-08
   GGA = PS
   PREC = Accurate
   IALGO = 38
   IBRION = -1
   ISMEAR = 0
   NELMIN = 5
   ADDGRID = .TRUE.
   LCHARG = .FALSE.
   LWAVE = .FALSE.
   LREAL = .FALSE.

 POTCAR:    PAW_PBE Na_pv 19Sep2006               
 POTCAR:    PAW_PBE Cl 06Sep2000                  
 -----------------------------------------------------------------------------
|                                                                             |
|           W    W    AA    RRRRR   N    N  II  N    N   GGGG   !!!           |
|           W    W   A  A   R    R  NN   N  II  NN   N  G    G  !!!           |
|           W    W  A    A  R    R  N N  N  II  N N  N  G       !!!           |
|           W WW W  AAAAAA  RRRRR   N  N N  II  N  N N  G  GGG   !            |
|           WW  WW  A    A  R   R   N   NN  II  N   NN  G    G                |
|           W    W  A    A  R    R  N    N  II  N    N   GGGG   !!!           |
|                                                                             |
|     For optimal performance we recommend to set                             |
|       NCORE = 2 up to number-of-cores-per-socket                            |
|     NCORE specifies how many cores store one orbital (NPAR=cpu/NCORE).      |
|     This setting can greatly improve the performance of VASP for DFT.       |
|     The default, NCORE=1 might be grossly inefficient on modern             |
|     multi-core architectures or massively parallel machines. Do your        |
|     own testing! More info at https://www.vasp.at/wiki/index.php/NCORE      |
|     Unfortunately you need to use the default for GW and RPA                |
|     calculations (for HF NCORE is supported but not extensively tested      |
|     yet).                                                                   |
|                                                                             |
 -----------------------------------------------------------------------------

 POTCAR:    PAW_PBE Na_pv 19Sep2006               
   SHA256 =  6a2f546d9e11350984debacf3dc457d8cffc0868e817d445faca461816a32b94 Na_pv/POTCAR          
   COPYR  = (c) Copyright 19Sep2006 Georg Kresse                                                    
   COPYR  = This file is part of the software VASP. Any use, copying, and all other rights are regul
   COPYR  = If you do not have a valid VASP license, you may not use, copy or distribute this file. 
   VRHFIN =Na: p6s1                                                                                 
   LEXCH  = PE                                                                                      
   EATOM  =   766.0439 eV,   56.3026 Ry                                                             
                                                                                                    
   TITEL  = PAW_PBE Na_pv 19Sep2006                                                                 
   LULTRA =        F    use ultrasoft PP ?                                                          
   IUNSCR =        1    unscreen: 0-lin 1-nonlin 2-no                                               
   RPACOR =    1.800    partial core radius                                                         
   POMASS =   22.990; ZVAL   =    7.000    mass and valenz                                          
   RCORE  =    2.200    outmost cutoff radius                                                       
   RWIGS  =    2.200; RWIGS  =    1.164    wigner-seitz radius (au A)                               
   ENMAX  =  259.561; ENMIN  =  194.671 eV                                                          
   ICORE  =        2    local potential                                                             
   LCOR   =        T    correct aug charges                                                         
   LPAW   =        T    paw PP                                                                      
   EAUG   =  368.056                                                                                
   DEXC   =    0.000                                                                                
   RMAX   =    2.245    core radius for proj-oper                                                   
   RAUG   =    1.300    factor for augmentation sphere                                              
   RDEP   =    2.259    radius for radial grids                                                     
   RDEPT  =    1.738    core radius for aug-charge                                                  
                                                                                                    
   Atomic configuration                                                                             
    5 entries                                                                                       
     n  l   j            E        occ.                                                              
     1  0  0.50     -1033.6933   2.0000                                                             
     2  0  0.50       -56.7526   2.0000                                                             
     2  1  1.50       -28.6721   6.0000                                                             
     3  0  0.50        -2.7440   1.0000                                                             
     3  2  1.50        -1.3606   0.0000                                                             
   Description                                                                                      
     l       E           TYP  RCUT    TYP  RCUT                                                     
     1    -28.6720912     23  2.000                                                                 
     1      6.8029130     23  2.000                                                                 
     0     -2.7439560     23  2.200                                                                 
     0     34.0145650     23  2.200                                                                 
     2     -1.3605826     23  2.200                                                                 
  local pseudopotential read in
  partial core-charges read in
  partial kinetic energy density read in
  atomic valenz-charges read in
  non local Contribution for L=           1  read in
    real space projection operators read in
  non local Contribution for L=           1  read in
    real space projection operators read in
  non local Contribution for L=           0  read in
    real space projection operators read in
  non local Contribution for L=           0  read in
    real space projection operators read in
    PAW grid and wavefunctions read in
 
   number of l-projection  operators is LMAX  =           4
   number of lm-projection operators is LMMAX =           8
 
 POTCAR:    PAW_PBE Cl 06Sep2000                  
   SHA256 =  9f1b6e6ed4247ac726a768b330d26d7667cc3c95a39ff49c1d064c2d9dcce931 Cl/POTCAR             
   COPYR  = (c) Copyright 06Sep2000 Georg Kresse                                                    
   COPYR  = This file is part of the software VASP. Any use, copying, and all other rights are regul
   COPYR  = If you do not have a valid VASP license, you may not use, copy or distribute this file. 
   VRHFIN =Cl: s2p5                                                                                 
   LEXCH  = PE                                                                                      
   EATOM  =   409.7259 eV,   30.1140 Ry                                                             
                                                                                                    
   TITEL  = PAW_PBE Cl 06Sep2000                                                                    
   LULTRA =        F    use ultrasoft PP ?                                                          
   IUNSCR =        1    unscreen: 0-lin 1-nonlin 2-no                                               
   RPACOR =    1.500    partial core radius                                                         
   POMASS =   35.453; ZVAL   =    7.000    mass and valenz                                          
   RCORE  =    1.900    outmost cutoff radius                                                       
   RWIGS  =    2.100; RWIGS  =    1.111    wigner-seitz radius (au A)                               
   ENMAX  =  262.472; ENMIN  =  196.854 eV                                                          
   ICORE  =        2    local potential                                                             
   LCOR   =        T    correct aug charges                                                         
   LPAW   =        T    paw PP                                                                      
   EAUG   =  356.192                                                                                
   DEXC   =    0.000                                                                                
   RMAX   =    1.945    core radius for proj-oper                                                   
   RAUG   =    1.300    factor for augmentation sphere                                              
   RDEP   =    2.020    radius for radial grids                                                     
   RDEPT  =    1.678    core radius for aug-charge                                                  
                                                                                                    
   Atomic configuration                                                                             
    6 entries                                                                                       
     n  l   j            E        occ.                                                              
     1  0  0.50     -2751.1850   2.0000                                                             
     2  0  0.50      -252.6861   2.0000                                                             
     2  1  1.50      -191.6157   6.0000                                                             
     3  0  0.50       -20.6916   2.0000                                                             
     3  1  0.50        -8.5949   5.0000                                                             
     3  2  1.50        -8.1635   0.0000                                                             
   Description                                                                                      
     l       E           TYP  RCUT    TYP  RCUT                                                     
     0    -20.6915656     23  1.900                                                                 
     0    -22.0521482     23  1.900                                                                 
     1     -8.5948577     23  1.900                                                                 
     1     -5.3847331     23  1.900                                                                 
     2     -8.1634956     23  1.900                                                                 
  local pseudopotential read in
  partial core-charges read in
  partial kinetic energy density read in
  atomic valenz-charges read in
  non local Contribution for L=           0  read in
    real space projection operators read in
  non local Contribution for L=           0  read in
    real space projection operators read in
  non local Contribution for L=           1  read in
    real space projection operators read in
  non local Contribution for L=           1  read in
    real space projection operators read in
    PAW grid and wavefunctions read in
 
   number of l-projection  operators is LMAX  =           4
   number of lm-projection operators is LMMAX =           8
 
 -----------------------------------------------------------------------------
|                                                                             |
|               ----> ADVICE to this user running VASP <----                  |
|                                                                             |
|     You have a (more or less) 'large supercell' and for larger cells it     |
|     might be more efficient to use real-space projection operators.         |
|     Therefore, try LREAL= Auto in the INCAR file.                           |
|     Mind: For very accurate calculation, you might also keep the            |
|     reciprocal projection scheme (i.e. LREAL=.FALSE.).                      |
|                                                                             |
 -----------------------------------------------------------------------------

 -----------------------------------------------------------------------------
|                                                                             |
|               ----> ADVICE to this user running VASP <----                  |
|                                                                             |
|     You enforced a specific xc type in the INCAR file but a different       |
|     type was found in the POTCAR file.                                      |
|     I HOPE YOU KNOW WHAT YOU ARE DOING!                                     |
|                                                                             |
 -----------------------------------------------------------------------------

  PAW_PBE Na_pv 19Sep2006               :
 energy of atom  1       EATOM= -766.0439
 kinetic energy error for atom=    0.0189 (will be added to EATOM!!)
  PAW_PBE Cl 06Sep2000                  :
 energy of atom  2       EATOM= -409.7259
 kinetic energy error for atom=    0.0106 (will be added to EATOM!!)
 
 
 POSCAR: Na Cl
  positions in cartesian coordinates
  No initial velocities read in
 exchange correlation table for  LEXCH =       14
   RHO(1)=    0.500       N(1)  =     2000
   RHO(2)=  100.500       N(2)  =     4000
 


--------------------------------------------------------------------------------------------------------


 ion  position               nearest neighbor table
   1  0.003  0.000  0.000-
   2  0.250  0.250  0.000-
   3  0.250  0.000  0.250-
   4  0.000  0.250  0.250-
   5  0.000  0.000  0.500-
   6  0.250  0.250  0.500-
   7  0.250  0.000  0.750-
   8  0.000  0.250  0.750-
   9  0.000  0.500  0.000-
  10  0.250  0.750  0.000-
  11  0.250  0.500  0.250-
  12  0.000  0.750  0.250-
  13  0.000  0.500  0.500-
  14  0.250  0.750  0.500-
  15  0.250  0.500  0.750-
  16  0.000  0.750  0.750-
  17  0.500  0.000  0.000-
  18  0.750  0.250  0.000-
  19  0.750  0.000  0.250-
  20  0.500  0.250  0.250-
  21  0.500  0.000  0.500-
  22  0.750  0.250  0.500-
  23  0.750  0.000  0.750-
  24  0.500  0.250  0.750-
  25  0.500  0.500  0.000-
  26  0.750  0.750  0.000-
  27  0.750  0.500  0.250-
  28  0.500  0.750  0.250-
  29  0.500  0.500  0.500-
  30  0.750  0.750  0.500-
  31  0.750  0.500  0.750-
  32  0.500  0.750  0.750-
  33  0.250  0.250  0.250-
  34  0.003  0.000  0.250-
  35  0.000  0.250  0.000-
  36  0.250  0.000  0.000-
  37  0.250  0.250  0.750-
  38  0.000  0.000  0.750-
  39  0.000  0.250  0.500-
  40  0.250  0.000  0.500-
  41  0.250  0.750  0.250-
  42  0.000  0.500  0.250-
  43  0.000  0.750  0.000-
  44  0.250  0.500  0.000-
  45  0.250  0.750  0.750-
  46  0.000  0.500  0.750-
  47  0.000  0.750  0.500-
  48  0.250  0.500  0.500-
  49  0.750  0.250  0.250-
  50  0.500  0.000  0.250-
  51  0.500  0.250  0.000-
  52  0.750  0.000  0.000-
  53  0.750  0.250  0.750-
  54  0.500  0.000  0.750-
  55  0.500  0.250  0.500-
  56  0.750  0.000  0.500-
  57  0.750  0.750  0.250-
  58  0.500  0.500  0.250-
  59  0.500  0.750  0.000-
  60  0.750  0.500  0.000-
  61  0.750  0.750  0.750-
  62  0.500  0.500  0.750-
  63  0.500  0.750  0.500-
  64  0.750  0.500  0.500-
 
  LATTYP: Found a simple cubic cell.
 ALAT       =    11.2040023600
  
  Lattice vectors:
  
 A1 = (  11.2040023600,   0.0000000000,   0.0000000000)
 A2 = (   0.0000000000,  11.2040023600,   0.0000000000)
 A3 = (   0.0000000000,   0.0000000000,  11.2040023600)


Analysis of symmetry for initial positions (statically):
=====================================================================
 Subroutine PRICEL returns:
 Original cell was already a primitive cell.
 

 Routine SETGRP: Setting up the symmetry group for a 
 simple cubic supercell.


 Subroutine GETGRP returns: Found  2 space group operations
 (whereof  2 operations were pure point group operations)
 out of a pool of 48 trial point group operations.


The static configuration has the point symmetry C_1h.


Analysis of symmetry for dynamics (positions and initial velocities):
=====================================================================
 Subroutine PRICEL returns:
 Original cell was already a primitive cell.
 

 Routine SETGRP: Setting up the symmetry group for a 
 simple cubic supercell.


 Subroutine GETGRP returns: Found  2 space group operations
 (whereof  2 operations were pure point group operations)
 out of a pool of 48 trial point group operations.


The dynamic configuration has the point symmetry C_1h.


 Subroutine INISYM returns: Found  2 space group operations
 (whereof  2 operations are pure point group operations),
 and found     1 'primitive' translations


----------------------------------------------------------------------------------------

                                     Primitive cell                                     

  volume of cell :    1406.4347

  direct lattice vectors                    reciprocal lattice vectors
    11.204002360  0.000000000  0.000000000     0.089253819  0.000000000  0.000000000
     0.000000000 11.204002360  0.000000000     0.000000000  0.089253819  0.000000000
     0.000000000  0.000000000 11.204002360     0.000000000  0.000000000  0.089253819

  length of vectors
    11.204002360 11.204002360 11.204002360     0.089253819  0.089253819  0.089253819

  position of ions in fractional coordinates (direct lattice)
     0.002677615  0.000000000  0.000000000
     0.250000000  0.250000000  0.000000000
     0.250000000  0.000000000  0.250000000
     0.000000000  0.250000000  0.250000000
     0.000000000  0.000000000  0.500000000
     0.250000000  0.250000000  0.500000000
     0.250000000  0.000000000  0.750000000
     0.000000000  0.250000000  0.750000000
     0.000000000  0.500000000  0.000000000
     0.250000000  0.750000000  0.000000000
     0.250000000  0.500000000  0.250000000
     0.000000000  0.750000000  0.250000000
     0.000000000  0.500000000  0.500000000
     0.250000000  0.750000000  0.500000000
     0.250000000  0.500000000  0.750000000
     0.000000000  0.750000000  0.750000000
     0.500000000  0.000000000  0.000000000
     0.750000000  0.250000000  0.000000000
     0.750000000  0.000000000  0.250000000
     0.500000000  0.250000000  0.250000000
     0.500000000  0.000000000  0.500000000
     0.750000000  0.250000000  0.500000000
     0.750000000  0.000000000  0.750000000
     0.500000000  0.250000000  0.750000000
     0.500000000  0.500000000  0.000000000
     0.750000000  0.750000000  0.000000000
     0.750000000  0.500000000  0.250000000
     0.500000000  0.750000000  0.250000000
     0.500000000  0.500000000  0.500000000
     0.750000000  0.750000000  0.500000000
     0.750000000  0.500000000  0.750000000
     0.500000000  0.750000000  0.750000000
     0.250000000  0.250000000  0.250000000
     0.002677615  0.000000000  0.250000000
     0.000000000  0.250000000  0.000000000
     0.250000000  0.000000000  0.000000000
     0.250000000  0.250000000  0.750000000
     0.000000000  0.000000000  0.750000000
     0.000000000  0.250000000  0.500000000
     0.250000000  0.000000000  0.500000000
     0.250000000  0.750000000  0.250000000
     0.000000000  0.500000000  0.250000000
     0.000000000  0.750000000  0.000000000
     0.250000000  0.500000000  0.000000000
     0.250000000  0.750000000  0.750000000
     0.000000000  0.500000000  0.750000000
     0.000000000  0.750000000  0.500000000
     0.250000000  0.500000000  0.500000000
     0.750000000  0.250000000  0.250000000
     0.500000000  0.000000000  0.250000000
     0.500000000  0.250000000  0.000000000
     0.750000000  0.000000000  0.000000000
     0.750000000  0.250000000  0.750000000
     0.500000000  0.000000000  0.750000000
     0.500000000  0.250000000  0.500000000
     0.750000000  0.000000000  0.500000000
     0.750000000  0.750000000  0.250000000
     0.500000000  0.500000000  0.250000000
     0.500000000  0.750000000  0.000000000
     0.750000000  0.500000000  0.000000000
     0.750000000  0.750000000  0.750000000
     0.500000000  0.500000000  0.750000000
     0.500000000  0.750000000  0.500000000
     0.750000000  0.500000000  0.500000000

  ion indices of the primitive-cell ions
   primitive index   ion index
                 1           1
                 2           2
                 3           3
                 4           4
                 5           5
                 6           6
                 7           7
                 8           8
                 9           9
                10          10
                11          11
                12          12
                13          13
                14          14
                15          15
                16          16
                17          17
                18          18
                19          19
                20          20
                21          21
                22          22
                23          23
                24          24
                25          25
                26          26
                27          27
                28          28
                29          29
                30          30
                31          31
                32          32
                33          33
                34          34
                35          35
                36          36
                37          37
                38          38
                39          39
                40          40
                41          41
                42          42
                43          43
                44          44
                45          45
                46          46
                47          47
                48          48
                49          49
                50          50
                51          51
                52          52
                53          53
                54          54
                55          55
                56          56
                57          57
                58          58
                59          59
                60          60
                61          61
                62          62
                63          63
                64          64

----------------------------------------------------------------------------------------

 
 
 KPOINTS: KPOINTS created by Atomic Simulation Env

Automatic generation of k-mesh.
 Grid dimensions read from file:
 generate k-points for:    2    2    2

 Generating k-lattice:

  Cartesian coordinates                     Fractional coordinates (reciprocal lattice)
     0.044626910  0.000000000  0.000000000     0.500000000  0.000000000  0.000000000
     0.000000000  0.044626910  0.000000000     0.000000000  0.500000000  0.000000000
     0.000000000  0.000000000  0.044626910     0.000000000  0.000000000  0.500000000

  Length of vectors
     0.044626910  0.044626910  0.044626910

  Shift w.r.t. Gamma in fractional coordinates (k-lattice)
     0.000000000  0.000000000  0.000000000

 
 Subroutine IBZKPT returns following result:
 ===========================================
 
 Found      8 irreducible k-points:
 
 Following reciprocal coordinates:
            Coordinates               Weight
  0.000000  0.000000  0.000000      1.000000
  0.500000  0.000000  0.000000      1.000000
  0.000000  0.500000  0.000000      1.000000
  0.000000  0.000000  0.500000      1.000000
  0.500000  0.500000  0.000000      1.000000
  0.000000  0.500000  0.500000      1.000000
  0.500000  0.000000  0.500000      1.000000
  0.500000  0.500000  0.500000      1.000000
 
 Following cartesian coordinates:
            Coordinates               Weight
  0.000000  0.000000  0.000000      1.000000
  0.044627  0.000000  0.000000      1.000000
  0.000000  0.044627  0.000000      1.000000
  0.000000  0.000000  0.044627      1.000000
  0.044627  0.044627  0.000000      1.000000
  0.000000  0.044627  0.044627      1.000000
  0.044627  0.000000  0.044627      1.000000
  0.044627  0.044627  0.044627      1.000000
 


--------------------------------------------------------------------------------------------------------




 Dimension of arrays:
   k-points           NKPTS =      8   k-points in BZ     NKDIM =      8   number of bands    NBANDS=    288
   number of dos      NEDOS =    301   number of ions     NIONS =     64
   non local maximal  LDIM  =      4   non local SUM 2l+1 LMDIM =      8
   total plane-waves  NPLWV = 343000
   max r-space proj   IRMAX =      1   max aug-charges    IRDMAX=  56280
   dimension x,y,z NGX =    70 NGY =   70 NGZ =   70
   dimension x,y,z NGXF=   140 NGYF=  140 NGZF=  140
   support grid    NGXF=   280 NGYF=  280 NGZF=  280
   ions per type =              32  32
   NGX,Y,Z   is equivalent  to a cutoff of  10.39, 10.39, 10.39 a.u.
   NGXF,Y,Z  is equivalent  to a cutoff of  20.77, 20.77, 20.77 a.u.

 SYSTEM =  unknown system                          
 POSCAR =  Na Cl                                   

 Startparameter for this run:
   NWRITE =      2    write-flag & timer
   PREC   = accura    normal or accurate (medium, high low for compatibility)
   ISTART =      0    job   : 0-new  1-cont  2-samecut
   ICHARG =      2    charge: 1-file 2-atom 10-const
   ISPIN  =      1    spin polarized calculation?
   LNONCOLLINEAR =      F non collinear calculations
   LSORBIT =      F    spin-orbit coupling
   INIWAV =      1    electr: 0-lowe 1-rand  2-diag
   LASPH  =      F    aspherical Exc in radial PAW
 Electronic Relaxation 1
   ENCUT  =  341.2 eV  25.08 Ry    5.01 a.u.  16.87 16.87 16.87*2*pi/ulx,y,z
   ENINI  =  341.2     initial cutoff
   ENAUG  =  368.1 eV  augmentation charge cutoff
   NELM   =     60;   NELMIN=  5; NELMDL= -5     # of ELM steps 
   EDIFF  = 0.1E-07   stopping-criterion for ELM
   LREAL  =      F    real-space projection
   NLSPLINE    = F    spline interpolate recip. space projectors
   LCOMPAT=      F    compatible to vasp.4.4
   GGA_COMPAT  = T    GGA compatible to vasp.4.4-vasp.4.6
   LMAXPAW     = -100 max onsite density
   LMAXMIX     =    2 max onsite mixed and CHGCAR
   VOSKOWN=      0    Vosko Wilk Nusair interpolation
   ROPT   =    0.00000   0.00000
 Ionic relaxation
   EDIFFG = 0.1E-06   stopping-criterion for IOM
   NSW    =      0    number of steps for IOM
   NBLOCK =      1;   KBLOCK =      1    inner block; outer block 
   IBRION =     -1    ionic relax: 0-MD 1-quasi-New 2-CG
   NFREE  =      0    steps in history (QN), initial steepest desc. (CG)
   ISIF   =      2    stress and relaxation
   IWAVPR =     10    prediction:  0-non 1-charg 2-wave 3-comb
   ISYM   =      2    0-nonsym 1-usesym 2-fastsym
   LCORR  =      T    Harris-Foulkes like correction to forces

   POTIM  = 0.5000    time-step for ionic-motion
   TEIN   =    0.0    initial temperature
   TEBEG  =    0.0;   TEEND  =   0.0 temperature during run
   SMASS  =  -3.00    Nose mass-parameter (am)
   estimated Nose-frequenzy (Omega)   =  0.10E-29 period in steps = 0.13E+47 mass=  -0.287E-26a.u.
   SCALEE = 1.0000    scale energy and forces
   NPACO  =    256;   APACO  = 10.0  distance and # of slots for P.C.
   PSTRESS=    0.0 pullay stress

  Mass of Ions in am
   POMASS =  22.99 35.45
  Ionic Valenz
   ZVAL   =   7.00  7.00
  Atomic Wigner-Seitz radii
   RWIGS  =  -1.00 -1.00
  virtual crystal weights 
   VCA    =   1.00  1.00
   NELECT =     448.0000    total number of electrons
   NUPDOWN=      -1.0000    fix difference up-down

 DOS related values:
   EMIN   =  10.00;   EMAX   =-10.00  energy-range for DOS
   EFERMI =   0.00
   ISMEAR =     0;   SIGMA  =   0.02  broadening in eV -4-tet -1-fermi 0-gaus

 Electronic relaxation 2 (details)
   IALGO  =     38    algorithm
   LDIAG  =      T    sub-space diagonalisation (order eigenvalues)
   LSUBROT=      F    optimize rotation matrix (better conditioning)
   TURBO    =      0    0=normal 1=particle mesh
   IRESTART =      0    0=no restart 2=restart with 2 vectors
   NREBOOT  =      0    no. of reboots
   NMIN     =      0    reboot dimension
   EREF     =   0.00    reference energy to select bands
   IMIX   =      4    mixing-type and parameters
     AMIX     =   0.40;   BMIX     =  1.00
     AMIX_MAG =   1.60;   BMIX_MAG =  1.00
     AMIN     =   0.10
     WC   =   100.;   INIMIX=   1;  MIXPRE=   1;  MAXMIX= -45

 Intra band minimization:
   WEIMIN = 0.0000     energy-eigenvalue tresh-hold
   EBREAK =  0.87E-11  absolut break condition
   DEPER  =   0.30     relativ break condition  

   TIME   =   0.40     timestep for ELM

  volume/ion in A,a.u.               =      21.98       148.30
  Fermi-wavevector in a.u.,A,eV,Ry     =   1.118049  2.112807 17.007750  1.250034
  Thomas-Fermi vector in A             =   2.254677
 
 Write flags
   LWAVE        =      F    write WAVECAR
   LDOWNSAMPLE  =      F    k-point downsampling of WAVECAR
   LCHARG       =      F    write CHGCAR
   LVTOT        =      F    write LOCPOT, total local potential
   LVHAR        =      F    write LOCPOT, Hartree potential only
   LELF         =      F    write electronic localiz. function (ELF)
   LORBIT       =      0    0 simple, 1 ext, 2 COOP (PROOUT), +10 PAW based schemes


 Dipole corrections
   LMONO  =      F    monopole corrections only (constant potential shift)
   LDIPOL =      F    correct potential (dipole corrections)
   IDIPOL =      0    1-x, 2-y, 3-z, 4-all directions 
   EPSILON=  1.0000000 bulk dielectric constant

 Exchange correlation treatment:
   GGA     =    PS    GGA type
   LEXCH   =    14    internal setting for exchange type
   LIBXC   =     F    Libxc                    
   VOSKOWN =     0    Vosko Wilk Nusair interpolation
   LHFCALC =     F    Hartree Fock is set to
   LHFONE  =     F    Hartree Fock one center treatment
   AEXX    =    0.0000 exact exchange contribution

 Linear response parameters
   LEPSILON=     F    determine dielectric tensor
   LRPA    =     F    only Hartree local field effects (RPA)
   LNABLA  =     F    use nabla operator in PAW spheres
   LVEL    =     F    velocity operator in full k-point grid
   CSHIFT  =0.1000    complex shift for real part using Kramers Kronig
   OMEGAMAX=  -1.0    maximum frequency
   DEG_THRESHOLD= 0.2000000E-02 threshold for treating states as degnerate
   RTIME   =   -0.100 relaxation time in fs
  (WPLASMAI=    0.000 imaginary part of plasma frequency in eV, 0.658/RTIME)
   DFIELD  = 0.0000000 0.0000000 0.0000000 field for delta impulse in time
 
  Optional k-point grid parameters
   LKPOINTS_OPT  =     F    use optional k-point grid
   KPOINTS_OPT_MODE=     1    mode for optional k-point grid
 
 Orbital magnetization related:
   ORBITALMAG=     F  switch on orbital magnetization
   LCHIMAG   =     F  perturbation theory with respect to B field
   DQ        =  0.001000  dq finite difference perturbation B field
   LLRAUG    =     F  two centre corrections for induced B field



--------------------------------------------------------------------------------------------------------


 Static calculation
 charge density and potential will be updated during run
 non-spin polarized calculation
 Variant of blocked Davidson
 Davidson routine will perform the subspace rotation
 perform sub-space diagonalisation
    after iterative eigenvector-optimisation
 modified Broyden-mixing scheme, WC =      100.0
 initial mixing is a Kerker type mixing with AMIX =  0.4000 and BMIX =      1.0000
 Hartree-type preconditioning will be used
 using additional bands           64
 reciprocal scheme for non local part
 use partial core corrections
 calculate Harris-corrections to forces 
   (improved forces if not selfconsistent)
 use gradient corrections 
 use of overlap-Matrix (Vanderbilt PP)
 Gauss-broadening in eV      SIGMA  =   0.02


--------------------------------------------------------------------------------------------------------


  energy-cutoff  :      341.21
  volume of cell :     1406.43
      direct lattice vectors                 reciprocal lattice vectors
    11.204002360  0.000000000  0.000000000     0.089253819  0.000000000  0.000000000
     0.000000000 11.204002360  0.000000000     0.000000000  0.089253819  0.000000000
     0.000000000  0.000000000 11.204002360     0.000000000  0.000000000  0.089253819

  length of vectors
    11.204002360 11.204002360 11.204002360     0.089253819  0.089253819  0.089253819


 
 k-points in units of 2pi/SCALE and weight: KPOINTS created by Atomic Simulation Env
   0.00000000  0.00000000  0.00000000       0.125
   0.04462691  0.00000000  0.00000000       0.125
   0.00000000  0.04462691  0.00000000       0.125
   0.00000000  0.00000000  0.04462691       0.125
   0.04462691  0.04462691  0.00000000       0.125
   0.00000000  0.04462691  0.04462691       0.125
   0.04462691  0.00000000  0.04462691       0.125
   0.04462691  0.04462691  0.04462691       0.125
 
 k-points in reciprocal lattice and weights: KPOINTS created by Atomic Simulation Env
   0.00000000  0.00000000  0.00000000       0.125
   0.50000000  0.00000000  0.00000000       0.125
   0.00000000  0.50000000  0.00000000       0.125
   0.00000000  0.00000000  0.50000000       0.125
   0.50000000  0.50000000  0.00000000       0.125
   0.00000000  0.50000000  0.50000000       0.125
   0.50000000  0.00000000  0.50000000       0.125
   0.50000000  0.50000000  0.50000000       0.125
 
 position of ions in fractional coordinates (direct lattice) 
   0.00267761  0.00000000  0.00000000
   0.25000000  0.25000000  0.00000000
   0.25000000  0.00000000  0.25000000
   0.00000000  0.25000000  0.25000000
   0.00000000  0.00000000  0.50000000
   0.25000000  0.25000000  0.50000000
   0.25000000  0.00000000  0.75000000
   0.00000000  0.25000000  0.75000000
   0.00000000  0.50000000  0.00000000
   0.25000000  0.75000000  0.00000000
   0.25000000  0.50000000  0.25000000
   0.00000000  0.75000000  0.25000000
   0.00000000  0.50000000  0.50000000
   0.25000000  0.75000000  0.50000000
   0.25000000  0.50000000  0.75000000
   0.00000000  0.75000000  0.75000000
   0.50000000  0.00000000  0.00000000
   0.75000000  0.25000000  0.00000000
   0.75000000  0.00000000  0.25000000
   0.50000000  0.25000000  0.25000000
   0.50000000  0.00000000  0.50000000
   0.75000000  0.25000000  0.50000000
   0.75000000  0.00000000  0.75000000
   0.50000000  0.25000000  0.75000000
   0.50000000  0.50000000  0.00000000
   0.75000000  0.75000000  0.00000000
   0.75000000  0.50000000  0.25000000
   0.50000000  0.75000000  0.25000000
   0.50000000  0.50000000  0.50000000
   0.75000000  0.75000000  0.50000000
   0.75000000  0.50000000  0.75000000
   0.50000000  0.75000000  0.75000000
   0.25000000  0.25000000  0.25000000
   0.00267761  0.00000000  0.25000000
   0.00000000  0.25000000  0.00000000
   0.25000000  0.00000000  0.00000000
   0.25000000  0.25000000  0.75000000
   0.00000000  0.00000000  0.75000000
   0.00000000  0.25000000  0.50000000
   0.25000000  0.00000000  0.50000000
   0.25000000  0.75000000  0.25000000
   0.00000000  0.50000000  0.25000000
   0.00000000  0.75000000  0.00000000
   0.25000000  0.50000000  0.00000000
   0.25000000  0.75000000  0.75000000
   0.00000000  0.50000000  0.75000000
   0.00000000  0.75000000  0.50000000
   0.25000000  0.50000000  0.50000000
   0.75000000  0.25000000  0.25000000
   0.50000000  0.00000000  0.25000000
   0.50000000  0.25000000  0.00000000
   0.75000000  0.00000000  0.00000000
   0.75000000  0.25000000  0.75000000
   0.50000000  0.00000000  0.75000000
   0.50000000  0.25000000  0.50000000
   0.75000000  0.00000000  0.50000000
   0.75000000  0.75000000  0.25000000
   0.50000000  0.50000000  0.25000000
   0.50000000  0.75000000  0.00000000
   0.75000000  0.50000000  0.00000000
   0.75000000  0.75000000  0.75000000
   0.50000000  0.50000000  0.75000000
   0.50000000  0.75000000  0.50000000
   0.75000000  0.50000000  0.50000000
 
 position of ions in cartesian coordinates  (Angst):
   0.03000000  0.00000000  0.00000000
   2.80100059  2.80100059  0.00000000
   2.80100059  0.00000000  2.80100059
   0.00000000  2.80100059  2.80100059
   0.00000000  0.00000000  5.60200118
   2.80100059  2.80100059  5.60200118
   2.80100059  0.00000000  8.40300177
   0.00000000  2.80100059  8.40300177
   0.00000000  5.60200118  0.00000000
   2.80100059  8.40300177  0.00000000
   2.80100059  5.60200118  2.80100059
   0.00000000  8.40300177  2.80100059
   0.00000000  5.60200118  5.60200118
   2.80100059  8.40300177  5.60200118
   2.80100059  5.60200118  8.40300177
   0.00000000  8.40300177  8.40300177
   5.60200118  0.00000000  0.00000000
   8.40300177  2.80100059  0.00000000
   8.40300177  0.00000000  2.80100059
   5.60200118  2.80100059  2.80100059
   5.60200118  0.00000000  5.60200118
   8.40300177  2.80100059  5.60200118
   8.40300177  0.00000000  8.40300177
   5.60200118  2.80100059  8.40300177
   5.60200118  5.60200118  0.00000000
   8.40300177  8.40300177  0.00000000
   8.40300177  5.60200118  2.80100059
   5.60200118  8.40300177  2.80100059
   5.60200118  5.60200118  5.60200118
   8.40300177  8.40300177  5.60200118
   8.40300177  5.60200118  8.40300177
   5.60200118  8.40300177  8.40300177
   2.80100059  2.80100059  2.80100059
   0.03000000  0.00000000  2.80100059
   0.00000000  2.80100059  0.00000000
   2.80100059  0.00000000  0.00000000
   2.80100059  2.80100059  8.40300177
   0.00000000  0.00000000  8.40300177
   0.00000000  2.80100059  5.60200118
   2.80100059  0.00000000  5.60200118
   2.80100059  8.40300177  2.80100059
   0.00000000  5.60200118  2.80100059
   0.00000000  8.40300177  0.00000000
   2.80100059  5.60200118  0.00000000
   2.80100059  8.40300177  8.40300177
   0.00000000  5.60200118  8.40300177
   0.00000000  8.40300177  5.60200118
   2.80100059  5.60200118  5.60200118
   8.40300177  2.80100059  2.80100059
   5.60200118  0.00000000  2.80100059
   5.60200118  2.80100059  0.00000000
   8.40300177  0.00000000  0.00000000
   8.40300177  2.80100059  8.40300177
   5.60200118  0.00000000  8.40300177
   5.60200118  2.80100059  5.60200118
   8.40300177  0.00000000  5.60200118
   8.40300177  8.40300177  2.80100059
   5.60200118  5.60200118  2.80100059
   5.60200118  8.40300177  0.00000000
   8.40300177  5.60200118  0.00000000
   8.40300177  8.40300177  8.40300177
   5.60200118  5.60200118  8.40300177
   5.60200118  8.40300177  5.60200118
   8.40300177  5.60200118  5.60200118
 


--------------------------------------------------------------------------------------------------------


 k-point   1 :   0.0000 0.0000 0.0000  plane waves:   20005
 k-point   2 :   0.5000 0.0000 0.0000  plane waves:   20138
 k-point   3 :   0.0000 0.5000 0.0000  plane waves:   20138
 k-point   4 :   0.0000 0.0000 0.5000  plane waves:   20138
 k-point   5 :   0.5000 0.5000 0.0000  plane waves:   20160
 k-point   6 :   0.0000 0.5000 0.5000  plane waves:   20160
 k-point   7 :   0.5000 0.0000 0.5000  plane waves:   20160
 k-point   8 :   0.5000 0.5000 0.5000  plane waves:   20336

 maximum and minimum number of plane-waves per node :     20336    20005

 maximum number of plane-waves:     20336
 maximum index in each direction: 
   IXMAX=   16   IYMAX=   16   IZMAX=   16
   IXMIN=  -17   IYMIN=  -17   IZMIN=  -17


 serial   3D FFT for wavefunctions
 parallel 3D FFT for charge:
    minimum data exchange during FFTs selected (reduces bandwidth)


 total amount of memory used by VASP MPI-rank0   129658. kBytes
=======================================================================

   base      :      30000. kBytes
   nonl-proj :      41680. kBytes
   fftplans  :      14405. kBytes
   grid      :      19342. kBytes
   one-center:        196. kBytes
   wavefun   :      24035. kBytes
 
     INWAV:  cpu time      0.0000: real time      0.0000
 Broyden mixing: mesh for mixing (old mesh)
   NGX = 33   NGY = 33   NGZ = 33
  (NGX  =140   NGY  =140   NGZ  =140)
  gives a total of  35937 points

 initial charge density was supplied:
 charge density of overlapping atoms calculated
 number of electron     448.0000000 magnetization 
 keeping initial charge density in first step


--------------------------------------------------------------------------------------------------------


 Maximum index for augmentation-charges         1834 (set IRDMAX)


--------------------------------------------------------------------------------------------------------


 First call to EWALD:  gamma=   0.158
 Maximum number of real-space cells 3x 3x 3
 Maximum number of reciprocal cells 3x 3x 3

    FEWALD:  cpu time      0.0014: real time      0.0014


--------------------------------------- Iteration      1(   1)  ---------------------------------------


    POTLOK:  cpu time      0.0416: real time      0.0421
    SETDIJ:  cpu time      0.0321: real time      0.0322
     EDDAV:  cpu time      9.4311: real time      9.4823
       DOS:  cpu time      0.0012: real time      0.0012
    --------------------------------------------
      LOOP:  cpu time      9.5060: real time      9.5578

 eigenvalue-minimisations  :  4608
 total energy-change (2. order) : 0.4321910E+04  (-0.1716435E+05)
 number of electron     448.0000000 magnetization 
 augmentation part      448.0000000 magnetization 

 Free energy of the ion-electron system (eV)
  ---------------------------------------------------
  alpha Z        PSCENC =       751.52672365
  Ewald energy   TEWEN  =    -22871.31268379
  -Hartree energ DENC   =     -8992.27260898
  -exchange      EXHF   =         0.00000000
  -V(xc)+E(xc)   XCENC  =      1456.53433216
  PAW double counting   =     26466.43774078   -29286.08056155
  entropy T*S    EENTRO =        -0.00256483
  eigenvalues    EBANDS =      -735.10023515
  atomic energy  EATOM  =     37532.17946992
  Solvation  Ediel_sol  =         0.00000000
  ---------------------------------------------------
  free energy    TOTEN  =      4321.90961222 eV

  energy without entropy =     4321.91217705  energy(sigma->0) =     4321.91089463


--------------------------------------------------------------------------------------------------------




--------------------------------------- Iteration      1(   2)  ---------------------------------------


     EDDAV:  cpu time     10.2540: real time     10.3098
       DOS:  cpu time      0.0007: real time      0.0007
    --------------------------------------------
      LOOP:  cpu time     10.2547: real time     10.3105

 eigenvalue-minimisations  :  5120
 total energy-change (2. order) :-0.3958036E+04  (-0.3765853E+04)
 number of electron     448.0000000 magnetization 
 augmentation part      448.0000000 magnetization 

 Free energy of the ion-electron system (eV)
  ---------------------------------------------------
  alpha Z        PSCENC =       751.52672365
  Ewald energy   TEWEN  =    -22871.31268379
  -Hartree energ DENC   =     -8992.27260898
  -exchange      EXHF   =         0.00000000
  -V(xc)+E(xc)   XCENC  =      1456.53433216
  PAW double counting   =     26466.43774078   -29286.08056155
  entropy T*S    EENTRO =        -0.00000000
  eigenvalues    EBANDS =     -4693.13844825
  atomic energy  EATOM  =     37532.17946992
  Solvation  Ediel_sol  =         0.00000000
  ---------------------------------------------------
  free energy    TOTEN  =       363.87396395 eV

  energy without entropy =      363.87396395  energy(sigma->0) =      363.87396395


--------------------------------------------------------------------------------------------------------




--------------------------------------- Iteration      1(   3)  ---------------------------------------


     EDDAV:  cpu time     11.0399: real time     11.1034
       DOS:  cpu time      0.0006: real time      0.0006
    --------------------------------------------
      LOOP:  cpu time     11.0405: real time     11.1040

 eigenvalue-minimisations  :  5600
 total energy-change (2. order) :-0.5700505E+03  (-0.5657932E+03)
 number of electron     448.0000000 magnetization 
 augmentation part      448.0000000 magnetization 

 Free energy of the ion-electron system (eV)
  ---------------------------------------------------
  alpha Z        PSCENC =       751.52672365
  Ewald energy   TEWEN  =    -22871.31268379
  -Hartree energ DENC   =     -8992.27260898
  -exchange      EXHF   =         0.00000000
  -V(xc)+E(xc)   XCENC  =      1456.53433216
  PAW double counting   =     26466.43774078   -29286.08056155
  entropy T*S    EENTRO =        -0.00000000
  eigenvalues    EBANDS =     -5263.18894392
  atomic energy  EATOM  =     37532.17946992
  Solvation  Ediel_sol  =         0.00000000
  ---------------------------------------------------
  free energy    TOTEN  =      -206.17653172 eV

  energy without entropy =     -206.17653172  energy(sigma->0) =     -206.17653172


--------------------------------------------------------------------------------------------------------




--------------------------------------- Iteration      1(   4)  ---------------------------------------


     EDDAV:  cpu time     11.0108: real time     11.0709
       DOS:  cpu time      0.0006: real time      0.0006
    --------------------------------------------
      LOOP:  cpu time     11.0114: real time     11.0715

 eigenvalue-minimisations  :  5568
 total energy-change (2. order) :-0.2201559E+02  (-0.2191417E+02)
 number of electron     448.0000000 magnetization 
 augmentation part      448.0000000 magnetization 

 Free energy of the ion-electron system (eV)
  ---------------------------------------------------
  alpha Z        PSCENC =       751.52672365
  Ewald energy   TEWEN  =    -22871.31268379
  -Hartree energ DENC   =     -8992.27260898
  -exchange      EXHF   =         0.00000000
  -V(xc)+E(xc)   XCENC  =      1456.53433216
  PAW double counting   =     26466.43774078   -29286.08056155
  entropy T*S    EENTRO =        -0.00000000
  eigenvalues    EBANDS =     -5285.20453278
  atomic energy  EATOM  =     37532.17946992
  Solvation  Ediel_sol  =         0.00000000
  ---------------------------------------------------
  free energy    TOTEN  =      -228.19212058 eV

  energy without entropy =     -228.19212058  energy(sigma->0) =     -228.19212058


--------------------------------------------------------------------------------------------------------




--------------------------------------- Iteration      1(   5)  ---------------------------------------


     EDDAV:  cpu time     11.1981: real time     11.2596
       DOS:  cpu time      0.0006: real time      0.0006
    CHARGE:  cpu time      0.3388: real time      0.3407
    MIXING:  cpu time      0.0011: real time      0.0011
    --------------------------------------------
      LOOP:  cpu time     11.5386: real time     11.6019

 eigenvalue-minimisations  :  5696
 total energy-change (2. order) :-0.8114264E+00  (-0.8099792E+00)
 number of electron     448.0000022 magnetization 
 augmentation part      111.6450215 magnetization 

 Broyden mixing:
  rms(total) = 0.10608E+01    rms(broyden)= 0.10604E+01
  rms(prec ) = 0.14936E+01
  weight for this iteration     100.00

 Free energy of the ion-electron system (eV)
  ---------------------------------------------------
  alpha Z        PSCENC =       751.52672365
  Ewald energy   TEWEN  =    -22871.31268379
  -Hartree energ DENC   =     -8992.27260898
  -exchange      EXHF   =         0.00000000
  -V(xc)+E(xc)   XCENC  =      1456.53433216
  PAW double counting   =     26466.43774078   -29286.08056155
  entropy T*S    EENTRO =        -0.00000000
  eigenvalues    EBANDS =     -5286.01595918
  atomic energy  EATOM  =     37532.17946992
  Solvation  Ediel_sol  =         0.00000000
  ---------------------------------------------------
  free energy    TOTEN  =      -229.00354698 eV

  energy without entropy =     -229.00354698  energy(sigma->0) =     -229.00354698


--------------------------------------------------------------------------------------------------------




--------------------------------------- Iteration      1(   6)  ---------------------------------------


    POTLOK:  cpu time      0.0358: real time      0.0361
    SETDIJ:  cpu time      0.0297: real time      0.0298
     EDDAV:  cpu time     11.2770: real time     11.3383
       DOS:  cpu time      0.0006: real time      0.0006
    CHARGE:  cpu time      0.3415: real time      0.3431
    MIXING:  cpu time      0.0016: real time      0.0016
    --------------------------------------------
      LOOP:  cpu time     11.6860: real time     11.7494

 eigenvalue-minimisations  :  5728
 total energy-change (2. order) : 0.4864017E+01  (-0.9463006E+00)
 number of electron     448.0000022 magnetization 
 augmentation part      112.4571214 magnetization 

 Broyden mixing:
  rms(total) = 0.77547E+00    rms(broyden)= 0.77542E+00
  rms(prec ) = 0.89162E+00
  weight for this iteration     100.00

 eigenvalues of (default mixing * dielectric matrix)
  average eigenvalue GAMMA=   1.0777
  1.0777

 Free energy of the ion-electron system (eV)
  ---------------------------------------------------
  alpha Z        PSCENC =       751.52672365
  Ewald energy   TEWEN  =    -22871.31268379
  -Hartree energ DENC   =     -9061.80001535
  -exchange      EXHF   =         0.00000000
  -V(xc)+E(xc)   XCENC  =      1465.43007985
  PAW double counting   =     27291.58327554   -30103.58683075
  entropy T*S    EENTRO =        -0.00000000
  eigenvalues    EBANDS =     -5228.15954921
  atomic energy  EATOM  =     37532.17946992
  Solvation  Ediel_sol  =         0.00000000
  ---------------------------------------------------
  free energy    TOTEN  =      -224.13953014 eV

  energy without entropy =     -224.13953014  energy(sigma->0) =     -224.13953014


--------------------------------------------------------------------------------------------------------




--------------------------------------- Iteration      1(   7)  ---------------------------------------


    POTLOK:  cpu time      0.0369: real time      0.0379
    SETDIJ:  cpu time      0.0300: real time      0.0302
     EDDAV:  cpu time     12.2448: real time     12.3111
       DOS:  cpu time      0.0006: real time      0.0006
    CHARGE:  cpu time      0.3406: real time      0.3426
    MIXING:  cpu time      0.0011: real time      0.0011
    --------------------------------------------
      LOOP:  cpu time     12.6541: real time     12.7235

 eigenvalue-minimisations  :  6336
 total energy-change (2. order) : 0.3619492E+00  (-0.2074826E+00)
 number of electron     448.0000022 magnetization 
 augmentation part      112.8277391 magnetization 

 Broyden mixing:
  rms(total) = 0.53292E+00    rms(broyden)= 0.53289E+00
  rms(prec ) = 0.56285E+00
  weight for this iteration     100.00

 eigenvalues of (default mixing * dielectric matrix)
  average eigenvalue GAMMA=   2.1573
  1.4406  2.8739

 Free energy of the ion-electron system (eV)
  ---------------------------------------------------
  alpha Z        PSCENC =       751.52672365
  Ewald energy   TEWEN  =    -22871.31268379
  -Hartree energ DENC   =     -9085.89963065
  -exchange      EXHF   =         0.00000000
  -V(xc)+E(xc)   XCENC  =      1470.13229345
  PAW double counting   =     28331.01813189   -31143.74585190
  entropy T*S    EENTRO =        -0.00000000
  eigenvalues    EBANDS =     -5207.67603350
  atomic energy  EATOM  =     37532.17946992
  Solvation  Ediel_sol  =         0.00000000
  ---------------------------------------------------
  free energy    TOTEN  =      -223.77758092 eV

  energy without entropy =     -223.77758092  energy(sigma->0) =     -223.77758092


--------------------------------------------------------------------------------------------------------




--------------------------------------- Iteration      1(   8)  ---------------------------------------


    POTLOK:  cpu time      0.0361: real time      0.0370
    SETDIJ:  cpu time      0.0302: real time      0.0303
     EDDAV:  cpu time     10.6741: real time     10.7314
       DOS:  cpu time      0.0006: real time      0.0006
    CHARGE:  cpu time      0.3431: real time      0.3451
    MIXING:  cpu time      0.0013: real time      0.0013
    --------------------------------------------
      LOOP:  cpu time     11.0854: real time     11.1458

 eigenvalue-minimisations  :  5344
 total energy-change (2. order) :-0.1253461E+00  (-0.2670347E-01)
 number of electron     448.0000022 magnetization 
 augmentation part      112.8090194 magnetization 

 Broyden mixing:
  rms(total) = 0.14269E+00    rms(broyden)= 0.14269E+00
  rms(prec ) = 0.14562E+00
  weight for this iteration     100.00

 eigenvalues of (default mixing * dielectric matrix)
  average eigenvalue GAMMA=   1.5561
  2.5244  1.3870  0.7569

 Free energy of the ion-electron system (eV)
  ---------------------------------------------------
  alpha Z        PSCENC =       751.52672365
  Ewald energy   TEWEN  =    -22871.31268379
  -Hartree energ DENC   =     -9075.18564184
  -exchange      EXHF   =         0.00000000
  -V(xc)+E(xc)   XCENC  =      1472.33735851
  PAW double counting   =     29810.90522640   -32630.76355136
  entropy T*S    EENTRO =        -0.00000000
  eigenvalues    EBANDS =     -5213.58982851
  atomic energy  EATOM  =     37532.17946992
  Solvation  Ediel_sol  =         0.00000000
  ---------------------------------------------------
  free energy    TOTEN  =      -223.90292701 eV

  energy without entropy =     -223.90292701  energy(sigma->0) =     -223.90292701


--------------------------------------------------------------------------------------------------------




--------------------------------------- Iteration      1(   9)  ---------------------------------------


    POTLOK:  cpu time      0.0364: real time      0.0405
    SETDIJ:  cpu time      0.0305: real time      0.0306
     EDDAV:  cpu time     11.2444: real time     11.3048
       DOS:  cpu time      0.0006: real time      0.0006
    CHARGE:  cpu time      0.3394: real time      0.3411
    MIXING:  cpu time      0.0011: real time      0.0011
    --------------------------------------------
      LOOP:  cpu time     11.6524: real time     11.7188

 eigenvalue-minimisations  :  5696
 total energy-change (2. order) : 0.5665316E-02  (-0.1135270E-02)
 number of electron     448.0000022 magnetization 
 augmentation part      112.8312601 magnetization 

 Broyden mixing:
  rms(total) = 0.60496E-01    rms(broyden)= 0.60495E-01
  rms(prec ) = 0.62554E-01
  weight for this iteration     100.00

 eigenvalues of (default mixing * dielectric matrix)
  average eigenvalue GAMMA=   2.0147
  2.9521  2.7141  0.9990  1.3934

 Free energy of the ion-electron system (eV)
  ---------------------------------------------------
  alpha Z        PSCENC =       751.52672365
  Ewald energy   TEWEN  =    -22871.31268379
  -Hartree energ DENC   =     -9077.94978889
  -exchange      EXHF   =         0.00000000
  -V(xc)+E(xc)   XCENC  =      1472.35640885
  PAW double counting   =     29630.72111927   -32449.72727166
  entropy T*S    EENTRO =        -0.00000000
  eigenvalues    EBANDS =     -5211.69123905
  atomic energy  EATOM  =     37532.17946992
  Solvation  Ediel_sol  =         0.00000000
  ---------------------------------------------------
  free energy    TOTEN  =      -223.89726169 eV

  energy without entropy =     -223.89726169  energy(sigma->0) =     -223.89726169


--------------------------------------------------------------------------------------------------------




--------------------------------------- Iteration      1(  10)  ---------------------------------------


    POTLOK:  cpu time      0.0370: real time      0.0376
    SETDIJ:  cpu time      0.0299: real time      0.0300
     EDDAV:  cpu time     10.7202: real time     10.7772
       DOS:  cpu time      0.0006: real time      0.0006
    CHARGE:  cpu time      0.3384: real time      0.3403
    MIXING:  cpu time      0.0017: real time      0.0017
    --------------------------------------------
      LOOP:  cpu time     11.1278: real time     11.1875

 eigenvalue-minimisations  :  5376
 total energy-change (2. order) :-0.4314311E-02  (-0.1884049E-02)
 number of electron     448.0000022 magnetization 
 augmentation part      112.8612545 magnetization 

 Broyden mixing:
  rms(total) = 0.29350E-01    rms(broyden)= 0.29348E-01
  rms(prec ) = 0.31448E-01
  weight for this iteration     100.00

 eigenvalues of (default mixing * dielectric matrix)
  average eigenvalue GAMMA=   1.7107
  2.9397  2.5099  1.2947  1.0223  0.7869

 Free energy of the ion-electron system (eV)
  ---------------------------------------------------
  alpha Z        PSCENC =       751.52672365
  Ewald energy   TEWEN  =    -22871.31268379
  -Hartree energ DENC   =     -9079.49579951
  -exchange      EXHF   =         0.00000000
  -V(xc)+E(xc)   XCENC  =      1472.61030562
  PAW double counting   =     29454.63384847   -32273.87177137
  entropy T*S    EENTRO =        -0.00000000
  eigenvalues    EBANDS =     -5210.17166900
  atomic energy  EATOM  =     37532.17946992
  Solvation  Ediel_sol  =         0.00000000
  ---------------------------------------------------
  free energy    TOTEN  =      -223.90157600 eV

  energy without entropy =     -223.90157600  energy(sigma->0) =     -223.90157600


--------------------------------------------------------------------------------------------------------




--------------------------------------- Iteration      1(  11)  ---------------------------------------


    POTLOK:  cpu time      0.0360: real time      0.0368
    SETDIJ:  cpu time      0.0301: real time      0.0302
     EDDAV:  cpu time     11.2220: real time     11.2823
       DOS:  cpu time      0.0006: real time      0.0006
    CHARGE:  cpu time      0.3362: real time      0.3379
    MIXING:  cpu time      0.0012: real time      0.0012
    --------------------------------------------
      LOOP:  cpu time     11.6261: real time     11.6891

 eigenvalue-minimisations  :  5696
 total energy-change (2. order) : 0.7715320E-03  (-0.1727324E-03)
 number of electron     448.0000022 magnetization 
 augmentation part      112.8514485 magnetization 

 Broyden mixing:
  rms(total) = 0.83672E-02    rms(broyden)= 0.83671E-02
  rms(prec ) = 0.87777E-02
  weight for this iteration     100.00

 eigenvalues of (default mixing * dielectric matrix)
  average eigenvalue GAMMA=   1.5792
  2.9140  2.4425  1.3291  1.0085  0.8904  0.8904

 Free energy of the ion-electron system (eV)
  ---------------------------------------------------
  alpha Z        PSCENC =       751.52672365
  Ewald energy   TEWEN  =    -22871.31268379
  -Hartree energ DENC   =     -9078.35985352
  -exchange      EXHF   =         0.00000000
  -V(xc)+E(xc)   XCENC  =      1472.52902438
  PAW double counting   =     29487.79205661   -32307.17258516
  entropy T*S    EENTRO =        -0.00000000
  eigenvalues    EBANDS =     -5211.08295657
  atomic energy  EATOM  =     37532.17946992
  Solvation  Ediel_sol  =         0.00000000
  ---------------------------------------------------
  free energy    TOTEN  =      -223.90080447 eV

  energy without entropy =     -223.90080447  energy(sigma->0) =     -223.90080447


--------------------------------------------------------------------------------------------------------




--------------------------------------- Iteration      1(  12)  ---------------------------------------


    POTLOK:  cpu time      0.0356: real time      0.0359
    SETDIJ:  cpu time      0.0303: real time      0.0304
     EDDAV:  cpu time     12.0307: real time     12.0955
       DOS:  cpu time      0.0006: real time      0.0006
    CHARGE:  cpu time      0.3391: real time      0.3408
    MIXING:  cpu time      0.0017: real time      0.0017
    --------------------------------------------
      LOOP:  cpu time     12.4382: real time     12.5050

 eigenvalue-minimisations  :  6208
 total energy-change (2. order) : 0.3385093E-04  (-0.1428180E-04)
 number of electron     448.0000022 magnetization 
 augmentation part      112.8488439 magnetization 

 Broyden mixing:
  rms(total) = 0.13750E-02    rms(broyden)= 0.13741E-02
  rms(prec ) = 0.16490E-02
  weight for this iteration     100.00

 eigenvalues of (default mixing * dielectric matrix)
  average eigenvalue GAMMA=   1.6159
  2.8841  2.3832  1.8322  1.1983  1.1983  1.0377  0.7774

 Free energy of the ion-electron system (eV)
  ---------------------------------------------------
  alpha Z        PSCENC =       751.52672365
  Ewald energy   TEWEN  =    -22871.31268379
  -Hartree energ DENC   =     -9078.21489401
  -exchange      EXHF   =         0.00000000
  -V(xc)+E(xc)   XCENC  =      1472.51880742
  PAW double counting   =     29498.83034389   -32318.20428282
  entropy T*S    EENTRO =        -0.00000000
  eigenvalues    EBANDS =     -5211.22425489
  atomic energy  EATOM  =     37532.17946992
  Solvation  Ediel_sol  =         0.00000000
  ---------------------------------------------------
  free energy    TOTEN  =      -223.90077062 eV

  energy without entropy =     -223.90077062  energy(sigma->0) =     -223.90077062


--------------------------------------------------------------------------------------------------------




--------------------------------------- Iteration      1(  13)  ---------------------------------------


    POTLOK:  cpu time      0.0363: real time      0.0372
    SETDIJ:  cpu time      0.0304: real time      0.0306
     EDDAV:  cpu time     11.2384: real time     11.2986
       DOS:  cpu time      0.0007: real time      0.0007
    CHARGE:  cpu time      0.3390: real time      0.3410
    MIXING:  cpu time      0.0013: real time      0.0013
    --------------------------------------------
      LOOP:  cpu time     11.6461: real time     11.7093

 eigenvalue-minimisations  :  5696
 total energy-change (2. order) :-0.9082432E-06  (-0.2123413E-05)
 number of electron     448.0000022 magnetization 
 augmentation part      112.8478203 magnetization 

 Broyden mixing:
  rms(total) = 0.45673E-03    rms(broyden)= 0.45628E-03
  rms(prec ) = 0.49902E-03
  weight for this iteration     100.00

 eigenvalues of (default mixing * dielectric matrix)
  average eigenvalue GAMMA=   1.6353
  2.9751  2.3770  2.3770  1.2497  1.0432  0.9719  1.0443  1.0443

 Free energy of the ion-electron system (eV)
  ---------------------------------------------------
  alpha Z        PSCENC =       751.52672365
  Ewald energy   TEWEN  =    -22871.31268379
  -Hartree energ DENC   =     -9078.14030573
  -exchange      EXHF   =         0.00000000
  -V(xc)+E(xc)   XCENC  =      1472.51109912
  PAW double counting   =     29499.10439784   -32318.47542792
  entropy T*S    EENTRO =        -0.00000000
  eigenvalues    EBANDS =     -5211.29404463
  atomic energy  EATOM  =     37532.17946992
  Solvation  Ediel_sol  =         0.00000000
  ---------------------------------------------------
  free energy    TOTEN  =      -223.90077153 eV

  energy without entropy =     -223.90077153  energy(sigma->0) =     -223.90077153


--------------------------------------------------------------------------------------------------------




--------------------------------------- Iteration      1(  14)  ---------------------------------------


    POTLOK:  cpu time      0.0358: real time      0.0366
    SETDIJ:  cpu time      0.0303: real time      0.0304
     EDDAV:  cpu time     10.7270: real time     10.7846
       DOS:  cpu time      0.0007: real time      0.0007
    CHARGE:  cpu time      0.3376: real time      0.3395
    MIXING:  cpu time      0.0016: real time      0.0016
    --------------------------------------------
      LOOP:  cpu time     11.1331: real time     11.1935

 eigenvalue-minimisations  :  5376
 total energy-change (2. order) :-0.7185808E-06  (-0.1788778E-06)
 number of electron     448.0000022 magnetization 
 augmentation part      112.8476562 magnetization 

 Broyden mixing:
  rms(total) = 0.10433E-02    rms(broyden)= 0.10433E-02
  rms(prec ) = 0.10650E-02
  weight for this iteration     100.00

 eigenvalues of (default mixing * dielectric matrix)
  average eigenvalue GAMMA=   1.6593
  3.0018  2.6095  2.6095  1.4257  1.2544  1.2544  0.9937  0.9937  0.7911

 Free energy of the ion-electron system (eV)
  ---------------------------------------------------
  alpha Z        PSCENC =       751.52672365
  Ewald energy   TEWEN  =    -22871.31268379
  -Hartree energ DENC   =     -9078.14940866
  -exchange      EXHF   =         0.00000000
  -V(xc)+E(xc)   XCENC  =      1472.51238701
  PAW double counting   =     29500.44148003   -32319.81196848
  entropy T*S    EENTRO =        -0.00000000
  eigenvalues    EBANDS =     -5211.28677194
  atomic energy  EATOM  =     37532.17946992
  Solvation  Ediel_sol  =         0.00000000
  ---------------------------------------------------
  free energy    TOTEN  =      -223.90077225 eV

  energy without entropy =     -223.90077225  energy(sigma->0) =     -223.90077225


--------------------------------------------------------------------------------------------------------




--------------------------------------- Iteration      1(  15)  ---------------------------------------


    POTLOK:  cpu time      0.0364: real time      0.0401
    SETDIJ:  cpu time      0.0302: real time      0.0303
     EDDAV:  cpu time     10.6515: real time     10.7088
       DOS:  cpu time      0.0008: real time      0.0008
    CHARGE:  cpu time      0.3349: real time      0.3365
    MIXING:  cpu time      0.0012: real time      0.0012
    --------------------------------------------
      LOOP:  cpu time     11.0549: real time     11.1176

 eigenvalue-minimisations  :  5344
 total energy-change (2. order) :-0.1493951E-05  (-0.5127477E-07)
 number of electron     448.0000022 magnetization 
 augmentation part      112.8477634 magnetization 

 Broyden mixing:
  rms(total) = 0.36169E-03    rms(broyden)= 0.36167E-03
  rms(prec ) = 0.36930E-03
  weight for this iteration     100.00

 eigenvalues of (default mixing * dielectric matrix)
  average eigenvalue GAMMA=   1.6178
  3.0893  2.7553  2.3815  1.3862  1.3862  1.3205  1.0187  1.0187  0.9194  0.9024

 Free energy of the ion-electron system (eV)
  ---------------------------------------------------
  alpha Z        PSCENC =       751.52672365
  Ewald energy   TEWEN  =    -22871.31268379
  -Hartree energ DENC   =     -9078.17908255
  -exchange      EXHF   =         0.00000000
  -V(xc)+E(xc)   XCENC  =      1472.51323757
  PAW double counting   =     29499.06914047   -32318.43583202
  entropy T*S    EENTRO =        -0.00000000
  eigenvalues    EBANDS =     -5211.26174700
  atomic energy  EATOM  =     37532.17946992
  Solvation  Ediel_sol  =         0.00000000
  ---------------------------------------------------
  free energy    TOTEN  =      -223.90077374 eV

  energy without entropy =     -223.90077374  energy(sigma->0) =     -223.90077374


--------------------------------------------------------------------------------------------------------




--------------------------------------- Iteration      1(  16)  ---------------------------------------


    POTLOK:  cpu time      0.0357: real time      0.0359
    SETDIJ:  cpu time      0.0300: real time      0.0301
     EDDAV:  cpu time     10.0825: real time     10.1403
       DOS:  cpu time      0.0009: real time      0.0009
    CHARGE:  cpu time      0.3399: real time      0.3418
    MIXING:  cpu time      0.0018: real time      0.0018
    --------------------------------------------
      LOOP:  cpu time     10.4907: real time     10.5507

 eigenvalue-minimisations  :  4960
 total energy-change (2. order) :-0.5652837E-06  (-0.1060512E-07)
 number of electron     448.0000022 magnetization 
 augmentation part      112.8478485 magnetization 

 Broyden mixing:
  rms(total) = 0.55328E-04    rms(broyden)= 0.55178E-04
  rms(prec ) = 0.58092E-04
  weight for this iteration     100.00

 eigenvalues of (default mixing * dielectric matrix)
  average eigenvalue GAMMA=   1.6008
  3.1030  2.7237  2.4076  1.5450  1.5450  1.3230  1.1310  1.1310  0.9321  0.9321
  0.8349

 Free energy of the ion-electron system (eV)
  ---------------------------------------------------
  alpha Z        PSCENC =       751.52672365
  Ewald energy   TEWEN  =    -22871.31268379
  -Hartree energ DENC   =     -9078.18669175
  -exchange      EXHF   =         0.00000000
  -V(xc)+E(xc)   XCENC  =      1472.51345594
  PAW double counting   =     29498.40172803   -32317.76704566
  entropy T*S    EENTRO =        -0.00000000
  eigenvalues    EBANDS =     -5211.25573066
  atomic energy  EATOM  =     37532.17946992
  Solvation  Ediel_sol  =         0.00000000
  ---------------------------------------------------
  free energy    TOTEN  =      -223.90077431 eV

  energy without entropy =     -223.90077431  energy(sigma->0) =     -223.90077431


--------------------------------------------------------------------------------------------------------




--------------------------------------- Iteration      1(  17)  ---------------------------------------


    POTLOK:  cpu time      0.0361: real time      0.0368
    SETDIJ:  cpu time      0.0297: real time      0.0301
     EDDAV:  cpu time      7.7960: real time      7.8405
       DOS:  cpu time      0.0006: real time      0.0006
    --------------------------------------------
      LOOP:  cpu time      7.8624: real time      7.9080

 eigenvalue-minimisations  :  3488
 total energy-change (2. order) : 0.7377821E-08  (-0.8852427E-09)
 number of electron     448.0000022 magnetization 
 augmentation part      112.8478485 magnetization 

 Free energy of the ion-electron system (eV)
  ---------------------------------------------------
  alpha Z        PSCENC =       751.52672365
  Ewald energy   TEWEN  =    -22871.31268379
  -Hartree energ DENC   =     -9078.18797672
  -exchange      EXHF   =         0.00000000
  -V(xc)+E(xc)   XCENC  =      1472.51349381
  PAW double counting   =     29498.35265817   -32317.71781044
  entropy T*S    EENTRO =        -0.00000000
  eigenvalues    EBANDS =     -5211.25464891
  atomic energy  EATOM  =     37532.17946992
  Solvation  Ediel_sol  =         0.00000000
  ---------------------------------------------------
  free energy    TOTEN  =      -223.90077430 eV

  energy without entropy =     -223.90077430  energy(sigma->0) =     -223.90077430


--------------------------------------------------------------------------------------------------------




 average (electrostatic) potential at core
  the test charge radii are     0.9254  0.9406
  (the norm of the test charge is              1.0000)
       1 -46.9495       2 -46.9524       3 -46.9319       4 -46.9497       5 -46.9497
       6 -46.9479       7 -46.9521       8 -46.9496       9 -46.9496      10 -46.9524
      11 -46.9476      12 -46.9497      13 -46.9496      14 -46.9479      15 -46.9498
      16 -46.9496      17 -46.9496      18 -46.9469      19 -46.9670      20 -46.9496
      21 -46.9496      22 -46.9513      23 -46.9472      24 -46.9496      25 -46.9496
      26 -46.9469      27 -46.9516      28 -46.9496      29 -46.9496      30 -46.9513
      31 -46.9494      32 -46.9496      33 -93.5834      34 -93.5880      35 -93.5882
      36 -93.6040      37 -93.5895      38 -93.5881      39 -93.5883      40 -93.5815
      41 -93.5834      42 -93.5882      43 -93.5882      44 -93.5876      45 -93.5895
      46 -93.5882      47 -93.5883      48 -93.5877      49 -93.5930      50 -93.5882
      51 -93.5882      52 -93.5726      53 -93.5870      54 -93.5882      55 -93.5882
      56 -93.5949      57 -93.5930      58 -93.5882      59 -93.5882      60 -93.5888
      61 -93.5870      62 -93.5882      63 -93.5882      64 -93.5887
 
 
 
 E-fermi :  -0.5502     XC(G=0):  -8.4227     alpha+bet : -8.2520

 Fermi energy:        -0.5501651969

 k-point     1 :       0.0000    0.0000    0.0000
  band No.  band energies     occupation 
      1     -21.3057      2.00000
      2     -21.3056      2.00000
      3     -21.3054      2.00000
      4     -21.3036      2.00000
      5     -21.2988      2.00000
      6     -21.2986      2.00000
      7     -21.2984      2.00000
      8     -21.2942      2.00000
      9     -21.2936      2.00000
     10     -21.2933      2.00000
     11     -21.2931      2.00000
     12     -21.2931      2.00000
     13     -21.2931      2.00000
     14     -21.2929      2.00000
     15     -21.2929      2.00000
     16     -21.2922      2.00000
     17     -21.2915      2.00000
     18     -21.2914      2.00000
     19     -21.2914      2.00000
     20     -21.2893      2.00000
     21     -21.2886      2.00000
     22     -21.2881      2.00000
     23     -21.2863      2.00000
     24     -21.2862      2.00000
     25     -21.2857      2.00000
     26     -21.2857      2.00000
     27     -21.2856      2.00000
     28     -21.2856      2.00000
     29     -21.2856      2.00000
     30     -21.2856      2.00000
     31     -21.2849      2.00000
     32     -21.2845      2.00000
     33     -21.2838      2.00000
     34     -21.2837      2.00000
     35     -21.2836      2.00000
     36     -21.2835      2.00000
     37     -21.2830      2.00000
     38     -21.2824      2.00000
     39     -21.2822      2.00000
     40     -21.2819      2.00000
     41     -21.2813      2.00000
     42     -21.2812      2.00000
     43     -21.2811      2.00000
     44     -21.2810      2.00000
     45     -21.2802      2.00000
     46     -21.2800      2.00000
     47     -21.2800      2.00000
     48     -21.2800      2.00000
     49     -21.2799      2.00000
     50     -21.2799      2.00000
     51     -21.2798      2.00000
     52     -21.2798      2.00000
     53     -21.2798      2.00000
     54     -21.2796      2.00000
     55     -21.2792      2.00000
     56     -21.2788      2.00000
     57     -21.2787      2.00000
     58     -21.2782      2.00000
     59     -21.2778      2.00000
     60     -21.2776      2.00000
     61     -21.2768      2.00000
     62     -21.2761      2.00000
     63     -21.2757      2.00000
     64     -21.2753      2.00000
     65     -21.2746      2.00000
     66     -21.2746      2.00000
     67     -21.2742      2.00000
     68     -21.2741      2.00000
     69     -21.2740      2.00000
     70     -21.2740      2.00000
     71     -21.2739      2.00000
     72     -21.2738      2.00000
     73     -21.2728      2.00000
     74     -21.2724      2.00000
     75     -21.2722      2.00000
     76     -21.2721      2.00000
     77     -21.2720      2.00000
     78     -21.2718      2.00000
     79     -21.2718      2.00000
     80     -21.2718      2.00000
     81     -21.2718      2.00000
     82     -21.2717      2.00000
     83     -21.2717      2.00000
     84     -21.2716      2.00000
     85     -21.2716      2.00000
     86     -21.2715      2.00000
     87     -21.2715      2.00000
     88     -21.2711      2.00000
     89     -21.2711      2.00000
     90     -21.2708      2.00000
     91     -21.2695      2.00000
     92     -21.2695      2.00000
     93     -21.2694      2.00000
     94     -21.2610      2.00000
     95     -21.2607      2.00000
     96     -21.2603      2.00000
     97     -13.3580      2.00000
     98     -13.1417      2.00000
     99     -13.1374      2.00000
    100     -13.1373      2.00000
    101     -13.1373      2.00000
    102     -13.1373      2.00000
    103     -13.1336      2.00000
    104     -13.0187      2.00000
    105     -13.0142      2.00000
    106     -13.0124      2.00000
    107     -13.0114      2.00000
    108     -13.0112      2.00000
    109     -13.0112      2.00000
    110     -13.0112      2.00000
    111     -13.0111      2.00000
    112     -13.0111      2.00000
    113     -13.0101      2.00000
    114     -13.0083      2.00000
    115     -13.0045      2.00000
    116     -12.9904      2.00000
    117     -12.9900      2.00000
    118     -12.9900      2.00000
    119     -12.9899      2.00000
    120     -12.9408      2.00000
    121     -12.9407      2.00000
    122     -12.9398      2.00000
    123     -12.9249      2.00000
    124     -12.9215      2.00000
    125     -12.9214      2.00000
    126     -12.9213      2.00000
    127     -12.9212      2.00000
    128     -12.9171      2.00000
    129      -2.7000      2.00000
    130      -2.7000      2.00000
    131      -2.7000      2.00000
    132      -2.6999      2.00000
    133      -2.4240      2.00000
    134      -2.4240      2.00000
    135      -2.4240      2.00000
    136      -2.2074      2.00000
    137      -2.2071      2.00000
    138      -2.2057      2.00000
    139      -2.2050      2.00000
    140      -2.2043      2.00000
    141      -2.2042      2.00000
    142      -2.2042      2.00000
    143      -2.2042      2.00000
    144      -2.2036      2.00000
    145      -2.2028      2.00000
    146      -2.2015      2.00000
    147      -2.2012      2.00000
    148      -1.9283      2.00000
    149      -1.9282      2.00000
    150      -1.9264      2.00000
    151      -1.9251      2.00000
    152      -1.9247      2.00000
    153      -1.9246      2.00000
    154      -1.9246      2.00000
    155      -1.9246      2.00000
    156      -1.9242      2.00000
    157      -1.9229      2.00000
    158      -1.9211      2.00000
    159      -1.9211      2.00000
    160      -1.7978      2.00000
    161      -1.7967      2.00000
    162      -1.7966      2.00000
    163      -1.7966      2.00000
    164      -1.7966      2.00000
    165      -1.7955      2.00000
    166      -1.5090      2.00000
    167      -1.5087      2.00000
    168      -1.5060      2.00000
    169      -1.5058      2.00000
    170      -1.5057      2.00000
    171      -1.5053      2.00000
    172      -1.5053      2.00000
    173      -1.5053      2.00000
    174      -1.5052      2.00000
    175      -1.5046      2.00000
    176      -1.5021      2.00000
    177      -1.5020      2.00000
    178      -1.4651      2.00000
    179      -1.4629      2.00000
    180      -1.4626      2.00000
    181      -1.4624      2.00000
    182      -1.4622      2.00000
    183      -1.4603      2.00000
    184      -1.2948      2.00000
    185      -1.2948      2.00000
    186      -1.2947      2.00000
    187      -1.2947      2.00000
    188      -1.2947      2.00000
    189      -1.2946      2.00000
    190      -1.0048      2.00000
    191      -1.0025      2.00000
    192      -1.0021      2.00000
    193      -1.0019      2.00000
    194      -1.0014      2.00000
    195      -1.0007      2.00000
    196      -1.0007      2.00000
    197      -1.0007      2.00000
    198      -1.0000      2.00000
    199      -0.9995      2.00000
    200      -0.9995      2.00000
    201      -0.9969      2.00000
    202      -0.9509      2.00000
    203      -0.9507      2.00000
    204      -0.9483      2.00000
    205      -0.9480      2.00000
    206      -0.9479      2.00000
    207      -0.9478      2.00000
    208      -0.9477      2.00000
    209      -0.9477      2.00000
    210      -0.9473      2.00000
    211      -0.9473      2.00000
    212      -0.9465      2.00000
    213      -0.9463      2.00000
    214      -0.9459      2.00000
[...]
         0         1         2         3         4         5         6         7         8         9
 total charge-density along one line
 
 pseudopotential strength for first ion, spin component:           1
-25.387  -0.000  -0.000   2.510   0.000   0.000   0.000   0.000
 -0.000 -25.387   0.000   0.000   2.510  -0.000  -0.000  -0.000
 -0.000   0.000 -25.387   0.000  -0.000   2.510  -0.001  -0.002
  2.510   0.000   0.000   6.528   0.000   0.000  -0.000   0.000
  0.000   2.510  -0.000   0.000   6.528   0.000   0.000  -0.000
  0.000  -0.000   2.510   0.000   0.000   6.528   0.000   0.000
  0.000  -0.000  -0.001  -0.000   0.000   0.000   1.428   6.993
  0.000  -0.000  -0.002   0.000  -0.000   0.000   6.993  33.989
 total augmentation occupancy for first ion, spin component:           1
  2.002   0.000   0.000   0.002   0.000   0.000   0.000   0.000
  0.000   2.002  -0.000   0.000   0.002  -0.000   0.000  -0.000
  0.000  -0.000   2.002   0.000  -0.000   0.002   0.001  -0.000
  0.002   0.000   0.000   0.017   0.000   0.000   0.000   0.000
  0.000   0.002  -0.000   0.000   0.017   0.000   0.000  -0.000
  0.000  -0.000   0.002   0.000   0.000   0.017   0.003  -0.000
  0.000   0.000   0.001   0.000   0.000   0.003   0.403  -0.001
  0.000  -0.000  -0.000   0.000  -0.000  -0.000  -0.001   0.000


------------------------ aborting loop because EDIFF is reached ----------------------------------------


    CHARGE:  cpu time      0.3374: real time      0.3395
    FORLOC:  cpu time      0.0116: real time      0.0116
    FORNL :  cpu time      2.2100: real time      2.2223
    STRESS:  cpu time     12.1946: real time     12.2567
    FORCOR:  cpu time      0.0453: real time      0.0455
    FORHAR:  cpu time      0.0171: real time      0.0171
    MIXING:  cpu time      0.0012: real time      0.0012
    OFIELD:  cpu time      0.0000: real time      0.0000

  FORCE on cell =-STRESS in cart. coord.  units (eV):
  Direction    XX          YY          ZZ          XY          YZ          ZX
  --------------------------------------------------------------------------------------
  Alpha Z   751.52672   751.52672   751.52672
  Ewald   -7623.68539 -7623.92605 -7623.83857     0.00000     0.00000     0.00000
  Hartree  3026.08291  3026.02385  3026.08415    -0.00000    -0.00000    -0.00001
  E(xc)   -2014.34809 -2014.34819 -2014.34815     0.00000    -0.00000     0.00000
  Local   -2025.05597 -2024.76296 -2024.91032     0.00000    -0.00000     0.00001
  n-local  1887.63110  1887.62010  1887.62084    -0.00000    -0.00000     0.00000
  augment   687.00879   687.00920   687.00908    -0.00000    -0.00010    -0.00010
  Kinetic  5310.52864  5310.52587  5310.52486     0.00000     0.00000     0.00000
  Fock        0.00000     0.00000     0.00000     0.00000     0.00000     0.00000
  -------------------------------------------------------------------------------------
  Total      -0.31128    -0.33145    -0.33139     0.00000     0.00000    -0.00009
  in kB      -0.35460    -0.37758    -0.37751     0.00000     0.00000    -0.00011
  external pressure =       -0.37 kB  Pullay stress =        0.00 kB


 VOLUME and BASIS-vectors are now :
 -----------------------------------------------------------------------------
  energy-cutoff  :      341.21
  volume of cell :     1406.43
      direct lattice vectors                 reciprocal lattice vectors
    11.204002360  0.000000000  0.000000000     0.089253819  0.000000000  0.000000000
     0.000000000 11.204002360  0.000000000     0.000000000  0.089253819  0.000000000
     0.000000000  0.000000000 11.204002360     0.000000000  0.000000000  0.089253819

  length of vectors
    11.204002360 11.204002360 11.204002360     0.089253819  0.089253819  0.089253819


 FORCES acting on ions
    electron-ion (+dipol)            ewald-force                    non-local-force                 convergence-correction
 -----------------------------------------------------------------------------------------------
   0.499E+01 0.362E-13 0.161E-01   -.489E+01 -.310E-13 -.153E-01   -.153E+00 0.785E-24 -.891E-03   -.811E-04 -.177E-12 0.928E-06
   -.304E+00 -.613E+00 0.168E+00   0.308E+00 0.639E+00 -.161E+00   -.252E-02 -.212E-01 -.607E-02   -.338E-05 -.349E-05 -.920E-05
   -.242E+01 0.414E-13 -.446E+00   0.230E+01 0.228E-13 0.479E+00   0.141E+00 0.303E-23 -.272E-01   -.150E-04 -.116E-12 -.137E-04
   0.126E+01 0.186E-01 0.240E-02   -.123E+01 -.179E-01 -.259E-02   -.311E-01 -.850E-03 0.155E-03   -.125E-03 -.753E-06 0.257E-06
   0.112E+01 0.380E-13 0.164E-01   -.108E+01 0.377E-13 -.153E-01   -.379E-01 -.672E-24 -.117E-02   -.135E-03 -.144E-12 -.691E-06
   -.692E-01 -.208E+00 -.168E+00   0.685E-01 0.200E+00 0.161E+00   0.473E-03 0.649E-02 0.607E-02   -.268E-05 0.118E-04 0.109E-04
   -.257E+00 0.404E-13 0.445E+00   0.263E+00 -.387E-14 -.479E+00   -.386E-02 0.101E-23 0.273E-01   -.386E-05 -.789E-13 0.148E-04
   0.413E+00 0.287E-02 -.244E-02   -.417E+00 -.299E-02 0.259E-02   0.378E-02 0.106E-03 -.126E-03   -.102E-03 -.212E-05 -.522E-06
   0.276E+00 0.770E-12 -.390E-03   -.273E+00 0.356E-14 0.398E-03   -.300E-02 -.185E-24 -.101E-04   -.110E-03 0.999E-13 0.370E-05
   -.304E+00 0.613E+00 0.168E+00   0.308E+00 -.639E+00 -.161E+00   -.252E-02 0.212E-01 -.607E-02   -.338E-05 0.349E-05 -.920E-05
   -.223E-01 0.849E-12 -.397E-01   0.233E-01 0.178E-14 0.392E-01   -.844E-03 -.508E-25 0.433E-03   -.218E-05 0.584E-13 0.289E-06
   0.126E+01 -.186E-01 0.240E-02   -.123E+01 0.179E-01 -.259E-02   -.311E-01 0.850E-03 0.155E-03   -.125E-03 0.753E-06 0.257E-06
   0.178E+00 0.771E-12 0.386E-03   -.177E+00 0.196E-13 -.398E-03   -.662E-03 -.230E-26 0.118E-04   -.109E-03 0.602E-13 -.139E-05
   -.692E-01 0.208E+00 -.168E+00   0.685E-01 -.200E+00 0.161E+00   0.473E-03 -.649E-02 0.607E-02   -.268E-05 -.118E-04 0.109E-04
   -.880E-02 0.579E-12 0.397E-01   0.872E-02 -.520E-17 -.392E-01   0.674E-04 0.264E-24 -.433E-03   -.158E-05 0.192E-13 -.126E-05
   0.413E+00 -.287E-02 -.244E-02   -.417E+00 0.299E-02 0.259E-02   0.378E-02 -.106E-03 -.126E-03   -.102E-03 0.212E-05 -.522E-06
   -.751E+00 0.393E-13 0.160E-02   0.797E+00 0.159E-13 -.158E-02   -.404E-01 0.626E-24 -.170E-04   0.108E-03 -.992E-13 0.219E-05
   -.311E+00 0.604E+00 -.166E+00   0.315E+00 -.629E+00 0.159E+00   -.253E-02 0.208E-01 0.602E-02   0.293E-05 0.156E-05 0.140E-04
   -.236E+01 0.332E-13 0.437E+00   0.225E+01 0.198E-13 -.470E+00   0.136E+00 -.380E-24 0.269E-01   -.591E-05 -.216E-12 0.154E-04
   -.466E+00 -.235E-02 -.758E-03   0.454E+00 0.236E-02 0.777E-03   0.999E-02 -.588E-05 -.158E-04   0.128E-03 -.862E-06 0.835E-07
   -.426E+00 0.330E-13 -.160E-02   0.409E+00 0.289E-13 0.158E-02   0.143E-01 -.870E-24 0.165E-04   0.135E-03 -.921E-13 -.177E-05
   -.742E-01 0.206E+00 0.166E+00   0.734E-01 -.198E+00 -.159E+00   0.565E-03 -.644E-02 -.602E-02   0.329E-05 -.167E-04 -.163E-04
   -.263E+00 0.476E-13 -.437E+00   0.269E+00 -.629E-14 0.470E+00   -.388E-02 -.157E-23 -.268E-01   0.282E-05 -.110E-12 -.201E-04
   -.264E+00 -.104E-02 0.759E-03   0.267E+00 0.105E-02 -.777E-03   -.260E-02 -.628E-05 0.158E-04   0.102E-03 -.110E-05 -.108E-05
   -.224E+00 0.728E-12 0.289E-03   0.222E+00 0.574E-17 -.274E-03   0.170E-02 0.191E-24 -.148E-04   0.111E-03 0.499E-13 0.221E-05
   -.311E+00 -.604E+00 -.166E+00   0.315E+00 0.629E+00 0.159E+00   -.253E-02 -.208E-01 0.602E-02   0.293E-05 -.156E-05 0.140E-04
   -.263E-01 0.237E-11 0.395E-01   0.273E-01 -.180E-14 -.391E-01   -.811E-03 0.180E-24 -.401E-03   0.298E-05 0.162E-12 -.506E-06
   -.466E+00 0.235E-02 -.758E-03   0.454E+00 -.236E-02 0.777E-03   0.999E-02 0.588E-05 -.158E-04   0.128E-03 0.862E-06 0.835E-07
   -.158E+00 0.848E-12 -.289E-03   0.157E+00 0.142E-13 0.274E-03   0.890E-03 0.130E-24 0.143E-04   0.108E-03 0.373E-13 -.145E-05
   -.742E-01 -.206E+00 0.166E+00   0.734E-01 0.198E+00 -.159E+00   0.565E-03 0.644E-02 -.602E-02   0.329E-05 0.167E-04 -.163E-04
   -.116E-01 0.661E-11 -.395E-01   0.115E-01 -.352E-14 0.391E-01   0.579E-04 -.297E-24 0.399E-03   0.171E-05 0.637E-13 0.142E-05
   -.264E+00 0.104E-02 0.759E-03   0.267E+00 -.105E-02 -.777E-03   -.260E-02 0.628E-05 0.158E-04   0.102E-03 0.110E-05 -.108E-05
   -.313E+00 -.646E+00 -.159E+00   0.308E+00 0.639E+00 0.161E+00   0.876E-02 0.107E-01 -.328E-02   -.124E-05 -.374E-05 -.561E-05
   0.493E+01 -.772E-13 -.151E-01   -.489E+01 0.106E-13 0.153E-01   -.105E+00 -.214E-23 -.687E-04   -.834E-04 -.181E-12 0.124E-05
   0.122E+01 0.178E-01 -.263E-02   -.123E+01 -.179E-01 0.259E-02   0.107E-01 -.890E-04 0.652E-04   -.893E-04 0.794E-06 0.106E-05
   -.230E+01 -.859E-13 0.487E+00   0.230E+01 -.276E-13 -.479E+00   0.170E-01 -.171E-24 -.140E-01   -.124E-04 -.893E-13 0.114E-05
   -.681E-01 -.199E+00 0.159E+00   0.685E-01 0.200E+00 -.161E+00   -.668E-03 -.185E-02 0.329E-02   0.218E-07 0.201E-05 0.191E-05
   0.107E+01 -.793E-13 -.152E-01   -.108E+01 0.160E-14 0.153E-01   0.126E-01 0.154E-23 0.113E-04   -.941E-04 -.122E-12 -.210E-05
   0.420E+00 0.304E-02 0.265E-02   -.417E+00 -.299E-02 -.259E-02   -.434E-02 -.828E-04 -.997E-04   -.966E-04 -.787E-06 -.208E-05
   -.269E+00 -.846E-13 -.487E+00   0.263E+00 -.178E-13 0.479E+00   0.973E-02 0.798E-26 0.140E-01   -.217E-05 -.918E-13 -.184E-05
   -.313E+00 0.646E+00 -.159E+00   0.308E+00 -.639E+00 0.161E+00   0.876E-02 -.107E-01 -.328E-02   -.124E-05 0.374E-05 -.561E-05
   0.274E+00 -.384E-14 0.379E-03   -.273E+00 -.708E-14 -.398E-03   -.236E-02 -.132E-24 0.339E-04   -.959E-04 0.128E-12 -.104E-05
   0.122E+01 -.178E-01 -.263E-02   -.123E+01 0.179E-01 0.259E-02   0.107E-01 0.890E-04 0.652E-04   -.893E-04 -.794E-06 0.106E-05
   -.234E-01 0.690E-14 0.400E-01   0.233E-01 -.622E-14 -.392E-01   0.327E-03 0.809E-24 -.144E-02   -.191E-05 0.402E-13 0.543E-06
   -.681E-01 0.199E+00 0.159E+00   0.685E-01 -.200E+00 -.161E+00   -.668E-03 0.185E-02 0.329E-02   0.218E-07 -.201E-05 0.191E-05
   0.177E+00 -.100E-12 -.378E-03   -.177E+00 0.222E-13 0.398E-03   0.223E-03 0.740E-25 -.348E-04   -.856E-04 0.681E-13 -.295E-06
   0.420E+00 -.304E-02 0.265E-02   -.417E+00 0.299E-02 -.259E-02   -.434E-02 0.828E-04 -.997E-04   -.966E-04 0.787E-06 -.208E-05
   -.866E-02 0.220E-13 -.401E-01   0.872E-02 -.711E-14 0.392E-01   -.108E-03 0.382E-25 0.145E-02   -.482E-05 0.420E-13 0.207E-05
   -.320E+00 0.635E+00 0.157E+00   0.315E+00 -.629E+00 -.159E+00   0.862E-02 -.105E-01 0.326E-02   0.177E-05 0.208E-05 0.398E-05
   -.799E+00 -.801E-13 -.157E-02   0.797E+00 0.750E-14 0.158E-02   0.245E-02 -.165E-23 -.189E-04   0.916E-04 -.128E-12 -.821E-06
   -.453E+00 -.235E-02 0.780E-03   0.454E+00 0.236E-02 -.777E-03   -.321E-02 -.160E-04 -.992E-05   0.904E-04 -.111E-05 0.211E-05
   -.224E+01 -.746E-13 -.478E+00   0.225E+01 -.546E-13 0.470E+00   0.118E-01 -.841E-24 0.137E-01   -.309E-05 -.188E-12 0.699E-06
   -.730E-01 0.197E+00 -.157E+00   0.734E-01 -.198E+00 0.159E+00   -.679E-03 0.182E-02 -.325E-02   0.719E-06 -.408E-05 -.453E-05
   -.408E+00 -.795E-13 0.156E-02   0.409E+00 -.290E-15 -.158E-02   -.218E-02 0.599E-24 0.232E-04   0.911E-04 -.559E-13 0.155E-05
   -.268E+00 -.105E-02 -.780E-03   0.267E+00 0.105E-02 0.777E-03   0.222E-02 0.464E-05 0.912E-05   0.978E-04 -.151E-05 -.813E-06
   -.274E+00 -.743E-13 0.478E+00   0.269E+00 -.115E-13 -.470E+00   0.961E-02 0.513E-25 -.137E-01   0.266E-05 -.138E-12 -.983E-06
   -.320E+00 -.635E+00 0.157E+00   0.315E+00 0.629E+00 -.159E+00   0.862E-02 0.105E-01 0.326E-02   0.177E-05 -.208E-05 0.398E-05
   -.224E+00 0.620E-12 -.275E-03   0.222E+00 -.708E-14 0.274E-03   0.326E-02 0.731E-24 0.978E-07   0.950E-04 0.813E-13 0.260E-05
   -.453E+00 0.235E-02 0.780E-03   0.454E+00 -.236E-02 -.777E-03   -.321E-02 0.160E-04 -.992E-05   0.904E-04 0.111E-05 0.211E-05
   -.275E-01 0.107E-10 -.399E-01   0.273E-01 -.364E-13 0.391E-01   0.286E-03 -.147E-23 0.142E-02   -.635E-06 0.133E-12 0.754E-05
   -.730E-01 -.197E+00 -.157E+00   0.734E-01 0.198E+00 0.159E+00   -.679E-03 -.182E-02 -.325E-02   0.719E-06 0.408E-05 -.453E-05
   -.156E+00 0.145E-11 0.273E-03   0.157E+00 0.178E-13 -.274E-03   -.340E-03 -.404E-24 0.198E-06   0.844E-04 0.104E-13 -.169E-06
   -.268E+00 0.105E-02 -.780E-03   0.267E+00 -.105E-02 0.777E-03   0.222E-02 -.464E-05 0.912E-05   0.978E-04 0.151E-05 -.813E-06
   -.114E-01 0.343E-11 0.399E-01   0.115E-01 -.213E-13 -.391E-01   -.834E-04 0.627E-24 -.142E-02   0.175E-05 0.817E-13 -.807E-05
 -----------------------------------------------------------------------------------------------
   -.193E-04 -.384E-11 0.195E-02   0.119E-12 -.397E-13 0.129E-12   0.801E-03 0.699E-18 -.194E-02   0.299E-06 -.274E-12 -.956E-05
 
 
 POSITION                                       TOTAL-FORCE (eV/Angst)
 -----------------------------------------------------------------------------------
      0.03000      0.00000      0.00000        -0.057806      0.000000     -0.000044
      2.80100      2.80100      0.00000         0.001298      0.004624      0.001300
      2.80100      0.00000      2.80100         0.021791      0.000000      0.005906
      0.00000      2.80100      2.80100         0.003346     -0.000092     -0.000036
      0.00000      0.00000      5.60200         0.004961      0.000000     -0.000046
      2.80100      2.80100      5.60200        -0.000242     -0.001374     -0.001299
      2.80100      0.00000      8.40300         0.001681      0.000000     -0.005921
      0.00000      2.80100      8.40300        -0.001059     -0.000022      0.000026
      0.00000      5.60200      0.00000         0.000552      0.000000      0.000002
      2.80100      8.40300      0.00000         0.001298     -0.004624      0.001300
      2.80100      5.60200      2.80100         0.000135      0.000000     -0.000079
      0.00000      8.40300      2.80100         0.003346      0.000092     -0.000036
      0.00000      5.60200      5.60200         0.000152      0.000000     -0.000002
      2.80100      8.40300      5.60200        -0.000242      0.001374     -0.001299
      2.80100      5.60200      8.40300        -0.000027      0.000000      0.000079
      0.00000      8.40300      8.40300        -0.001059      0.000022      0.000026
      5.60200      0.00000      0.00000         0.006083      0.000000      0.000010
      8.40300      2.80100      0.00000         0.001275     -0.004515     -0.001290
      8.40300      0.00000      2.80100         0.017713      0.000000     -0.005823
      5.60200      2.80100      2.80100        -0.001670      0.000001      0.000003
      5.60200      0.00000      5.60200        -0.002524      0.000000     -0.000004
      8.40300      2.80100      5.60200        -0.000261      0.001366      0.001290
      8.40300      0.00000      8.40300         0.001660      0.000000      0.005810
      5.60200      2.80100      8.40300         0.000496      0.000001     -0.000003
      5.60200      5.60200      0.00000        -0.000358      0.000000      0.000003
      8.40300      8.40300      0.00000         0.001275      0.004515     -0.001290
      8.40300      5.60200      2.80100         0.000130      0.000000      0.000072
      5.60200      8.40300      2.80100        -0.001670     -0.000001      0.000003
      5.60200      5.60200      5.60200        -0.000225      0.000000     -0.000003
      8.40300      8.40300      5.60200        -0.000261     -0.001366      0.001290
      8.40300      5.60200      8.40300        -0.000025      0.000000     -0.000072
      5.60200      8.40300      8.40300         0.000496     -0.000001     -0.000003
      2.80100      2.80100      2.80100         0.003698      0.004586     -0.001297
      0.03000      0.00000      2.80100        -0.071038      0.000000      0.000065
      0.00000      2.80100      0.00000         0.002672     -0.000136      0.000026
      2.80100      0.00000      0.00000         0.024152      0.000000     -0.005898
      2.80100      2.80100      8.40300        -0.000271     -0.000728      0.001301
      0.00000      0.00000      8.40300         0.003458      0.000000      0.000107
      0.00000      2.80100      5.60200        -0.001730     -0.000035     -0.000042
      2.80100      0.00000      5.60200         0.004078      0.000000      0.005883
      2.80100      8.40300      2.80100         0.003698     -0.004586     -0.001297
      0.00000      5.60200      2.80100        -0.000941      0.000000      0.000013
      0.00000      8.40300      0.00000         0.002672      0.000136      0.000026
      2.80100      5.60200      0.00000         0.000118      0.000000     -0.000574
      2.80100      8.40300      8.40300        -0.000271      0.000728      0.001301
      0.00000      5.60200      8.40300         0.000088      0.000000     -0.000015
      0.00000      8.40300      5.60200        -0.001730      0.000035     -0.000042
      2.80100      5.60200      5.60200        -0.000058      0.000000      0.000576
      8.40300      2.80100      2.80100         0.003620     -0.004445      0.001290
      5.60200      0.00000      2.80100         0.000999      0.000000     -0.000007
      5.60200      2.80100      0.00000        -0.001297     -0.000008     -0.000005
      8.40300      0.00000      0.00000         0.020027      0.000000      0.005719
      8.40300      2.80100      8.40300        -0.000280      0.000715     -0.001287
      5.60200      0.00000      8.40300        -0.000885      0.000000      0.000010
      5.60200      2.80100      5.60200         0.000867      0.000001      0.000005
      8.40300      0.00000      5.60200         0.004009      0.000000     -0.005734
      8.40300      8.40300      2.80100         0.003620      0.004445      0.001290
      5.60200      5.60200      2.80100         0.001276      0.000000      0.000001
      5.60200      8.40300      0.00000        -0.001297      0.000008     -0.000005
      8.40300      5.60200      0.00000         0.000102      0.000000      0.000566
      8.40300      8.40300      8.40300        -0.000280     -0.000715     -0.001287
      5.60200      5.60200      8.40300        -0.000154      0.000000     -0.000001
      5.60200      8.40300      5.60200         0.000867     -0.000001      0.000005
      8.40300      5.60200      5.60200        -0.000047      0.000000     -0.000566
 -----------------------------------------------------------------------------------
    total drift:                                0.000782     -0.000000     -0.000002


--------------------------------------------------------------------------------------------------------



  FREE ENERGIE OF THE ION-ELECTRON SYSTEM (eV)
  ---------------------------------------------------
  free  energy   TOTEN  =      -223.90077430 eV

  energy  without entropy=     -223.90077430  energy(sigma->0) =     -223.90077430
 


--------------------------------------------------------------------------------------------------------


    POTLOK:  cpu time      0.0688: real time      0.0691


--------------------------------------------------------------------------------------------------------


     LOOP+:  cpu time    202.7336: real time    203.8541
    4ORBIT:  cpu time      0.0000: real time      0.0000

 total amount of memory used by VASP MPI-rank0   129658. kBytes
=======================================================================

   base      :      30000. kBytes
   nonl-proj :      41680. kBytes
   fftplans  :      14405. kBytes
   grid      :      19342. kBytes
   one-center:        196. kBytes
   wavefun   :      24035. kBytes
 
  
  
 General timing and accounting informations for this job:
 ========================================================
  
                  Total CPU time used (sec):      207.065
                            User time (sec):      206.567
                          System time (sec):        0.498
                         Elapsed time (sec):      208.618
  
                   Maximum memory used (kb):      314704.
                   Average memory used (kb):          N/A
  
                          Minor page faults:        96930
                          Major page faults:            0
                 Voluntary context switches:          879
