<?xml version="1.0" encoding="ISO-8859-1"?>
<modeling>
 <generator>
  <i name="program" type="string">vasp </i>
  <i name="version" type="string">6.3.2  </i>
  <i name="subversion" type="string">27Jun22 (build Oct 14 2022 12:13:54) complex                          parallel </i>
  <i name="platform" type="string">LinuxIFC </i>
  <i name="date" type="string">2025 08 28 </i>
  <i name="time" type="string">22:03:51 </i>
 </generator>
 <incar>
  <i type="string" name="PREC">Accurate</i>
  <i type="int" name="IALGO">    38</i>
  <i type="logical" name="ADDGRID"> T  </i>
  <i type="int" name="NELMIN">     5</i>
  <i type="int" name="IBRION">    -1</i>
  <i name="EDIFF">      0.00000001</i>
  <i name="ENCUT">    341.21360000</i>
  <i type="logical" name="LREAL"> F  </i>
  <i type="int" name="ISMEAR">     0</i>
  <i name="SIGMA">      0.02000000</i>
  <i type="logical" name="LWAVE"> F  </i>
  <i type="logical" name="LCHARG"> F  </i>
  <i type="string" name="GGA">PS</i>
 </incar>
 <primitive_cell>
  <structure name="primitive_cell" >
   <crystal>
    <varray name="basis" >
     <v>      11.20400236       0.00000000       0.00000000 </v>
     <v>       0.00000000      11.20400236       0.00000000 </v>
     <v>       0.00000000       0.00000000      11.20400236 </v>
    </varray>
    <i name="volume">   1406.43470641 </i>
    <varray name="rec_basis" >
     <v>       0.08925382       0.00000000       0.00000000 </v>
     <v>       0.00000000       0.08925382       0.00000000 </v>
     <v>       0.00000000       0.00000000       0.08925382 </v>
    </varray>
   </crystal>
   <varray name="positions" >
    <v>       0.00267761       0.00000000       0.00000000 </v>
    <v>       0.25000000       0.25000000       0.00000000 </v>
    <v>       0.25000000       0.00000000       0.25000000 </v>
    <v>       0.00000000       0.25000000       0.25000000 </v>
    <v>       0.00000000       0.00000000       0.50000000 </v>
    <v>       0.25000000       0.25000000       0.50000000 </v>
    <v>       0.25000000       0.00000000       0.75000000 </v>
    <v>       0.00000000       0.25000000       0.75000000 </v>
    <v>       0.00000000       0.50000000       0.00000000 </v>
    <v>       0.25000000       0.75000000       0.00000000 </v>
    <v>       0.25000000       0.50000000       0.25000000 </v>
    <v>       0.00000000       0.75000000       0.25000000 </v>
    <v>       0.00000000       0.50000000       0.50000000 </v>
    <v>       0.25000000       0.75000000       0.50000000 </v>
    <v>       0.25000000       0.50000000       0.75000000 </v>
    <v>       0.00000000       0.75000000       0.75000000 </v>
    <v>       0.50000000       0.00000000       0.00000000 </v>
    <v>       0.75000000       0.25000000       0.00000000 </v>
    <v>       0.75000000       0.00000000       0.25000000 </v>
    <v>       0.50000000       0.25000000       0.25000000 </v>
    <v>       0.50000000       0.00000000       0.50000000 </v>
    <v>       0.75000000       0.25000000       0.50000000 </v>
    <v>       0.75000000       0.00000000       0.75000000 </v>
    <v>       0.50000000       0.25000000       0.75000000 </v>
    <v>       0.50000000       0.50000000       0.00000000 </v>
    <v>       0.75000000       0.75000000       0.00000000 </v>
    <v>       0.75000000       0.50000000       0.25000000 </v>
    <v>       0.50000000       0.75000000       0.25000000 </v>
    <v>       0.50000000       0.50000000       0.50000000 </v>
    <v>       0.75000000       0.75000000       0.50000000 </v>
    <v>       0.75000000       0.50000000       0.75000000 </v>
    <v>       0.50000000       0.75000000       0.75000000 </v>
    <v>       0.25000000       0.25000000       0.25000000 </v>
    <v>       0.00267761       0.00000000       0.25000000 </v>
    <v>       0.00000000       0.25000000       0.00000000 </v>
    <v>       0.25000000       0.00000000       0.00000000 </v>
    <v>       0.25000000       0.25000000       0.75000000 </v>
    <v>       0.00000000       0.00000000       0.75000000 </v>
    <v>       0.00000000       0.25000000       0.50000000 </v>
    <v>       0.25000000       0.00000000       0.50000000 </v>
    <v>       0.25000000       0.75000000       0.25000000 </v>
    <v>       0.00000000       0.50000000       0.25000000 </v>
    <v>       0.00000000       0.75000000       0.00000000 </v>
    <v>       0.25000000       0.50000000       0.00000000 </v>
    <v>       0.25000000       0.75000000       0.75000000 </v>
    <v>       0.00000000       0.50000000       0.75000000 </v>
    <v>       0.00000000       0.75000000       0.50000000 </v>
    <v>       0.25000000       0.50000000       0.50000000 </v>
    <v>       0.75000000       0.25000000       0.25000000 </v>
    <v>       0.50000000       0.00000000       0.25000000 </v>
    <v>       0.50000000       0.25000000       0.00000000 </v>
    <v>       0.75000000       0.00000000       0.00000000 </v>
    <v>       0.75000000       0.25000000       0.75000000 </v>
    <v>       0.50000000       0.00000000       0.75000000 </v>
    <v>       0.50000000       0.25000000       0.50000000 </v>
    <v>       0.75000000       0.00000000       0.50000000 </v>
    <v>       0.75000000       0.75000000       0.25000000 </v>
    <v>       0.50000000       0.50000000       0.25000000 </v>
    <v>       0.50000000       0.75000000       0.00000000 </v>
    <v>       0.75000000       0.50000000       0.00000000 </v>
    <v>       0.75000000       0.75000000       0.75000000 </v>
    <v>       0.50000000       0.50000000       0.75000000 </v>
    <v>       0.50000000       0.75000000       0.50000000 </v>
    <v>       0.75000000       0.50000000       0.50000000 </v>
   </varray>
  </structure>
  <varray name="primitive_index" >
   <v type="int" >        1 </v>
   <v type="int" >        2 </v>
   <v type="int" >        3 </v>
   <v type="int" >        4 </v>
   <v type="int" >        5 </v>
   <v type="int" >        6 </v>
   <v type="int" >        7 </v>
   <v type="int" >        8 </v>
   <v type="int" >        9 </v>
   <v type="int" >       10 </v>
   <v type="int" >       11 </v>
   <v type="int" >       12 </v>
   <v type="int" >       13 </v>
   <v type="int" >       14 </v>
   <v type="int" >       15 </v>
   <v type="int" >       16 </v>
   <v type="int" >       17 </v>
   <v type="int" >       18 </v>
   <v type="int" >       19 </v>
   <v type="int" >       20 </v>
   <v type="int" >       21 </v>
   <v type="int" >       22 </v>
   <v type="int" >       23 </v>
   <v type="int" >       24 </v>
   <v type="int" >       25 </v>
   <v type="int" >       26 </v>
   <v type="int" >       27 </v>
   <v type="int" >       28 </v>
   <v type="int" >       29 </v>
   <v type="int" >       30 </v>
   <v type="int" >       31 </v>
   <v type="int" >       32 </v>
   <v type="int" >       33 </v>
   <v type="int" >       34 </v>
   <v type="int" >       35 </v>
   <v type="int" >       36 </v>
   <v type="int" >       37 </v>
   <v type="int" >       38 </v>
   <v type="int" >       39 </v>
   <v type="int" >       40 </v>
   <v type="int" >       41 </v>
   <v type="int" >       42 </v>
   <v type="int" >       43 </v>
   <v type="int" >       44 </v>
   <v type="int" >       45 </v>
   <v type="int" >       46 </v>
   <v type="int" >       47 </v>
   <v type="int" >       48 </v>
   <v type="int" >       49 </v>
   <v type="int" >       50 </v>
   <v type="int" >       51 </v>
   <v type="int" >       52 </v>
   <v type="int" >       53 </v>
   <v type="int" >       54 </v>
   <v type="int" >       55 </v>
   <v type="int" >       56 </v>
   <v type="int" >       57 </v>
   <v type="int" >       58 </v>
   <v type="int" >       59 </v>
   <v type="int" >       60 </v>
   <v type="int" >       61 </v>
   <v type="int" >       62 </v>
   <v type="int" >       63 </v>
   <v type="int" >       64 </v>
  </varray>
 </primitive_cell>
 <kpoints>
  <generation param="Gamma">
   <v type="int" name="divisions">       2        2        2 </v>
   <v name="usershift">      0.00000000       0.00000000       0.00000000 </v>
   <v name="genvec1">      0.50000000       0.00000000       0.00000000 </v>
   <v name="genvec2">      0.00000000       0.50000000       0.00000000 </v>
   <v name="genvec3">      0.00000000       0.00000000       0.50000000 </v>
   <v name="shift">      0.00000000       0.00000000       0.00000000 </v>
  </generation>
  <varray name="kpointlist" >
   <v>       0.00000000       0.00000000       0.00000000 </v>
   <v>       0.50000000       0.00000000       0.00000000 </v>
   <v>       0.00000000       0.50000000       0.00000000 </v>
   <v>       0.00000000       0.00000000       0.50000000 </v>
   <v>       0.50000000       0.50000000       0.00000000 </v>
   <v>       0.00000000       0.50000000       0.50000000 </v>
   <v>       0.50000000       0.00000000       0.50000000 </v>
   <v>       0.50000000       0.50000000       0.50000000 </v>
  </varray>
  <varray name="weights" >
   <v>       0.12500000 </v>
   <v>       0.12500000 </v>
   <v>       0.12500000 </v>
   <v>       0.12500000 </v>
   <v>       0.12500000 </v>
   <v>       0.12500000 </v>
   <v>       0.12500000 </v>
   <v>       0.12500000 </v>
  </varray>
 </kpoints>
 <parameters>
  <separator name="general" >
   <i type="string" name="SYSTEM">unknown system</i>
   <i type="logical" name="LCOMPAT"> F  </i>
  </separator>
  <separator name="electronic" >
   <i type="string" name="PREC">accura</i>
   <i name="ENMAX">    341.21360000</i>
   <i name="ENAUG">    368.05600000</i>
   <i name="EDIFF">      0.00000001</i>
   <i type="int" name="IALGO">    38</i>
   <i type="int" name="IWAVPR">    10</i>
   <i type="int" name="NBANDS">   288</i>
   <i type="int" name="NBANDSLOW">    -1</i>
   <i type="int" name="NBANDSHIGH">    -1</i>
   <i name="NELECT">    448.00000000</i>
   <i type="int" name="TURBO">     0</i>
   <i type="int" name="IRESTART">     0</i>
   <i type="int" name="NREBOOT">     0</i>
   <i type="int" name="NMIN">     0</i>
   <i name="EREF">      0.00000000</i>
   <separator name="electronic smearing" >
    <i type="int" name="ISMEAR">     0</i>
    <i name="SIGMA">      0.02000000</i>
    <i name="KSPACING">      0.50000000</i>
    <i type="logical" name="KGAMMA"> T  </i>
    <i type="logical" name="KBLOWUP"> T  </i>
   </separator>
   <separator name="electronic projectors" >
    <i type="logical" name="LREAL"> F  </i>
    <v name="ROPT">      0.00000000      0.00000000</v>
    <i type="int" name="LMAXPAW">  -100</i>
    <i type="int" name="LMAXMIX">     2</i>
    <i type="logical" name="NLSPLINE"> F  </i>
   </separator>
   <separator name="electronic startup" >
    <i type="int" name="ISTART">     0</i>
    <i type="int" name="ICHARG">     2</i>
    <i type="int" name="INIWAV">     1</i>
   </separator>
   <separator name="electronic spin" >
    <i type="int" name="ISPIN">     1</i>
    <i type="logical" name="LNONCOLLINEAR"> F  </i>
    <v name="MAGMOM">      1.00000000      1.00000000      1.00000000      1.00000000      1.00000000      1.00000000      1.00000000      1.00000000      1.00000000      1.00000000      1.00000000      1.00000000      1.00000000      1.00000000      1.00000000      1.00000000      1.00000000      1.00000000      1.00000000      1.00000000
      1.00000000      1.00000000      1.00000000      1.00000000      1.00000000      1.00000000      1.00000000      1.00000000      1.00000000      1.00000000      1.00000000      1.00000000      1.00000000      1.00000000      1.00000000      1.00000000      1.00000000      1.00000000      1.00000000      1.00000000
      1.00000000      1.00000000      1.00000000      1.00000000      1.00000000      1.00000000      1.00000000      1.00000000      1.00000000      1.00000000      1.00000000      1.00000000      1.00000000      1.00000000      1.00000000      1.00000000      1.00000000      1.00000000      1.00000000      1.00000000
      1.00000000      1.00000000      1.00000000      1.00000000</v>
    <i name="NUPDOWN">     -1.00000000</i>
    <i type="logical" name="LSORBIT"> F  </i>
    <v name="SAXIS">      0.00000000      0.00000000      1.00000000</v>
    <i type="logical" name="LSPIRAL"> F  </i>
    <v name="QSPIRAL">      0.00000000      0.00000000      0.00000000</v>
    <i type="logical" name="LZEROZ"> F  </i>
   </separator>
   <separator name="electronic exchange-correlation" >
    <i type="logical" name="LASPH"> F  </i>
    <i type="logical" name="LMETAGGA"> F  </i>
   </separator>
   <separator name="electronic convergence" >
    <i type="int" name="NELM">    60</i>
    <i type="int" name="NELMDL">    -5</i>
    <i type="int" name="NELMIN">     5</i>
    <i name="ENINI">    341.21360000</i>
    <separator name="electronic convergence detail" >
     <i type="logical" name="LDIAG"> T  </i>
     <i type="logical" name="LSUBROT"> F  </i>
     <i name="WEIMIN">      0.00000000</i>
     <i name="EBREAK">      0.00000000</i>
     <i name="DEPER">      0.30000000</i>
     <i type="int" name="NRMM">     4</i>
     <i name="TIME">      0.40000000</i>
    </separator>
   </separator>
   <separator name="electronic mixer" >
    <i name="AMIX">      0.40000000</i>
    <i name="BMIX">      1.00000000</i>
    <i name="AMIN">      0.10000000</i>
    <i name="AMIX_MAG">      1.60000000</i>
    <i name="BMIX_MAG">      1.00000000</i>
    <separator name="electronic mixer details" >
     <i type="int" name="IMIX">     4</i>
     <i type="logical" name="MIXFIRST"> F  </i>
     <i type="int" name="MAXMIX">   -45</i>
     <i name="WC">    100.00000000</i>
     <i type="int" name="INIMIX">     1</i>
     <i type="int" name="MIXPRE">     1</i>
     <i type="int" name="MREMOVE">     5</i>
    </separator>
   </separator>
   <separator name="electronic dipolcorrection" >
    <i type="logical" name="LDIPOL"> F  </i>
    <i type="logical" name="LMONO"> F  </i>
    <i type="int" name="IDIPOL">     0</i>
    <i name="EPSILON">      1.00000000</i>
    <v name="DIPOL">   -100.00000000   -100.00000000   -100.00000000</v>
    <i name="EFIELD">      0.00000000</i>
   </separator>
  </separator>
  <separator name="grids" >
   <i type="int" name="NGX">    70</i>
   <i type="int" name="NGY">    70</i>
   <i type="int" name="NGZ">    70</i>
   <i type="int" name="NGXF">   140</i>
   <i type="int" name="NGYF">   140</i>
   <i type="int" name="NGZF">   140</i>
   <i type="logical" name="ADDGRID"> T  </i>
  </separator>
  <separator name="ionic" >
   <i type="int" name="NSW">     0</i>
   <i type="int" name="IBRION">    -1</i>
   <i type="int" name="MDALGO">     0</i>
   <i type="int" name="ISIF">     2</i>
   <i name="PSTRESS">      0.00000000</i>
   <i name="EDIFFG">      0.00000010</i>
   <i type="int" name="NFREE">     0</i>
   <i name="POTIM">      0.50000000</i>
   <i name="SMASS">     -3.00000000</i>
   <i name="SCALEE">      1.00000000</i>
  </separator>
  <separator name="ionic md" >
   <i name="TEBEG">      0.00010000</i>
   <i name="TEEND">      0.00010000</i>
   <i type="int" name="NBLOCK">     1</i>
   <i type="int" name="KBLOCK">     1</i>
   <i type="int" name="NPACO">   256</i>
   <i name="APACO">     10.00000000</i>
  </separator>
  <separator name="symmetry" >
   <i type="int" name="ISYM">     2</i>
   <i name="SYMPREC">      0.00001000</i>
  </separator>
  <separator name="dos" >
   <i type="int" name="LORBIT">     0</i>
   <v name="RWIGS">     -1.00000000     -1.00000000</v>
   <i type="int" name="NEDOS">   301</i>
   <i name="EMIN">     10.00000000</i>
   <i name="EMAX">    -10.00000000</i>
   <i name="EFERMI">      0.00000000</i>
  </separator>
  <separator name="writing" >
   <i type="int" name="NWRITE">     2</i>
   <i type="logical" name="LWAVE"> F  </i>
   <i type="logical" name="LDOWNSAMPLE"> F  </i>
   <i type="logical" name="LCHARG"> F  </i>
   <i type="logical" name="LPARD"> F  </i>
   <i type="logical" name="LVTOT"> F  </i>
   <i type="logical" name="LVHAR"> F  </i>
   <i type="logical" name="LELF"> F  </i>
   <i type="logical" name="LOPTICS"> F  </i>
   <v name="STM">      0.00000000      0.00000000      0.00000000      0.00000000      0.00000000      0.00000000      0.00000000</v>
  </separator>
  <separator name="performance" >
   <i type="int" name="NPAR">    32</i>
   <i type="int" name="NSIM">     4</i>
   <i type="int" name="NBLK">    -1</i>
   <i type="logical" name="LPLANE"> T  </i>
   <i type="logical" name="LSCALAPACK"> T  </i>
   <i type="logical" name="LSCAAWARE"> F  </i>
   <i type="logical" name="LSCALU"> F  </i>
   <i type="logical" name="LASYNC"> F  </i>
   <i type="logical" name="LORBITALREAL"> F  </i>
  </separator>
  <separator name="miscellaneous" >
   <i type="int" name="IDIOT">     3</i>
   <i type="int" name="PHON_NSTRUCT">    -1</i>
   <i type="logical" name="LMUSIC"> F  </i>
   <v name="POMASS">     22.99000000     35.45300000</v>
   <v name="DARWINR">      0.00000000      0.00000000</v>
   <v name="DARWINV">      1.00000000      1.00000000</v>
   <i type="logical" name="LCORR"> T  </i>
  </separator>
  <i type="logical" name="GGA_COMPAT"> T  </i>
  <i type="logical" name="LBERRY"> F  </i>
  <i type="int" name="ICORELEVEL">     0</i>
  <i type="logical" name="LDAU"> F  </i>
  <i type="int" name="I_CONSTRAINED_M">     0</i>
  <separator name="electronic exchange-correlation" >
   <i type="string" name="GGA">PS</i>
   <i type="int" name="VOSKOWN">     0</i>
   <i type="logical" name="LHFCALC"> F  </i>
   <i type="string" name="PRECFOCK"></i>
   <i type="logical" name="LSYMGRAD"> F  </i>
   <i type="logical" name="LHFONE"> F  </i>
   <i type="logical" name="LRHFCALC"> F  </i>
   <i type="logical" name="LTHOMAS"> F  </i>
   <i type="logical" name="LMODELHF"> F  </i>
   <i type="logical" name="LFOCKACE"> F  </i>
   <i name="ENCUT4O">     -1.00000000</i>
   <i type="int" name="EXXOEP">     0</i>
   <i type="int" name="FOURORBIT">     0</i>
   <i name="AEXX">      0.00000000</i>
   <i name="HFALPHA">      0.00000000</i>
   <i name="MCALPHA">      0.00000000</i>
   <i name="ALDAX">      1.00000000</i>
   <i name="AGGAX">      1.00000000</i>
   <i name="ALDAC">      1.00000000</i>
   <i name="AGGAC">      1.00000000</i>
   <i type="int" name="NKREDX">     1</i>
   <i type="int" name="NKREDY">     1</i>
   <i type="int" name="NKREDZ">     1</i>
   <i type="logical" name="SHIFTRED"> F  </i>
   <i type="logical" name="ODDONLY"> F  </i>
   <i type="logical" name="EVENONLY"> F  </i>
   <i type="int" name="LMAXFOCK">     0</i>
   <i type="int" name="NMAXFOCKAE">     0</i>
   <i type="logical" name="LFOCKAEDFT"> F  </i>
   <i name="HFSCREEN">      0.00000000</i>
   <i name="HFSCREENC">      0.00000000</i>
   <i type="int" name="NBANDSGWLOW">     0</i>
  </separator>
  <separator name="vdW DFT" >
   <i type="logical" name="LUSE_VDW"> F  </i>
   <i name="Zab_VDW">     -0.84910000</i>
   <i name="PARAM1">      0.12340000</i>
   <i name="PARAM2">      1.00000000</i>
   <i name="PARAM3">      0.00000000</i>
  </separator>
  <separator name="model GW" >
   <i type="int" name="MODEL_GW">     0</i>
   <i name="MODEL_EPS0">     13.18532537</i>
   <i name="MODEL_ALPHA">      1.00000000</i>
  </separator>
  <separator name="linear response parameters" >
   <i type="logical" name="LEPSILON"> F  </i>
   <i type="logical" name="LRPA"> F  </i>
   <i type="logical" name="LNABLA"> F  </i>
   <i type="logical" name="LVEL"> F  </i>
   <i name="CSHIFT">      0.10000000</i>
   <i name="OMEGAMAX">     -1.00000000</i>
   <i name="DEG_THRESHOLD">      0.00200000</i>
   <i name="RTIME">     -0.10000000</i>
   <i name="WPLASMAI">      0.00000000</i>
   <v name="DFIELD">      0.00000000      0.00000000      0.00000000</v>
   <v name="WPLASMA">      0.00000000      0.00000000      0.00000000      0.00000000      0.00000000      0.00000000      0.00000000      0.00000000      0.00000000</v>
  </separator>
  <separator name="orbital magnetization" >
   <i type="logical" name="NUCIND"> F  </i>
   <v name="MAGPOS">      0.00000000      0.00000000      0.00000000</v>
   <i type="logical" name="LNICSALL"> T  </i>
   <i type="logical" name="ORBITALMAG"> F  </i>
   <i type="logical" name="LMAGBLOCH"> F  </i>
   <i type="logical" name="LCHIMAG"> F  </i>
   <i type="logical" name="LGAUGE"> T  </i>
   <i type="int" name="MAGATOM">     0</i>
   <v name="MAGDIPOL">      0.00000000      0.00000000      0.00000000</v>
   <v name="AVECCONST">      0.00000000      0.00000000      0.00000000</v>
  </separator>
  <separator name="response functions" >
   <i type="logical" name="LFINITE_TEMPERATURE"> F  </i>
   <i type="logical" name="LADDER"> F  </i>
   <i type="logical" name="LRPAFORCE"> F  </i>
   <i type="logical" name="LFXC"> F  </i>
   <i type="logical" name="LHARTREE"> T  </i>
   <i type="int" name="IBSE">     0</i>
   <v type="int" name="KPOINT">    -1     0     0     0</v>
   <i type="logical" name="LTCTC"> F  </i>
   <i type="logical" name="LTCTE"> F  </i>
   <i type="logical" name="LTETE"> F  </i>
   <i type="logical" name="LTRIPLET"> F  </i>
   <i type="logical" name="LFXCEPS"> F  </i>
   <i type="logical" name="LFXHEG"> F  </i>
   <i type="int" name="NATURALO">     2</i>
   <i type="logical" name="LHOLEGF"> F  </i>
   <i type="logical" name="L2ORDER"> F  </i>
   <i type="logical" name="LDMP1"> F  </i>
   <i type="logical" name="LMP2LT"> F  </i>
   <i type="logical" name="LSMP2LT"> F  </i>
   <i type="logical" name="LGWLF"> F  </i>
   <i name="ENCUTGW">     -2.00000000</i>
   <i name="ENCUTGWSOFT">     -2.00000000</i>
   <i name="ENCUTLF">     -1.00000000</i>
   <i type="logical" name="LESF_SPLINES"> F  </i>
   <i type="int" name="LMAXMP2">    -1</i>
   <i name="SCISSOR">      0.00000000</i>
   <i type="int" name="NOMEGA">     0</i>
   <i type="int" name="NOMEGAR">     0</i>
   <i type="int" name="NBANDSGW">    -1</i>
   <i type="int" name="NBANDSO">    -1</i>
   <i type="int" name="NBANDSV">    -1</i>
   <i type="int" name="NELMGW">     1</i>
   <i type="int" name="NELMHF">     1</i>
   <i type="int" name="DIM">     3</i>
   <i type="int" name="IESPILON">     4</i>
   <i type="int" name="ANTIRES">     0</i>
   <i name="OMEGAMAX">    -30.00000000</i>
   <i name="OMEGAMIN">    -30.00000000</i>
   <i name="OMEGATL">   -200.00000000</i>
   <i type="int" name="OMEGAGRID">     0</i>
   <i name="CSHIFT">     -0.10000000</i>
   <i type="logical" name="LSELFENERGY"> F  </i>
   <i type="logical" name="LSPECTRAL"> F  </i>
   <i type="logical" name="LSPECTRALGW"> F  </i>
   <i type="logical" name="LSINGLES"> F  </i>
   <i type="logical" name="LFERMIGW"> F  </i>
   <i type="logical" name="ODDONLYGW"> F  </i>
   <i type="logical" name="EVENONLYGW"> F  </i>
   <i type="int" name="NKREDLFX">     1</i>
   <i type="int" name="NKREDLFY">     1</i>
   <i type="int" name="NKREDLFZ">     1</i>
   <i type="int" name="MAXMEM">  2800</i>
   <i type="int" name="TELESCOPE">     0</i>
   <i type="int" name="NTAUPAR">    -1</i>
   <i type="int" name="NOMEGAPAR">    -1</i>
   <i name="DAMP_NEWTON">      0.80000001</i>
   <i name="LAMBDA">      1.00000000</i>
  </separator>
  <separator name="External order field" >
   <i name="OFIELD_KAPPA">      0.00000000</i>
   <v name="OFIELD_K">      0.00000000      0.00000000      0.00000000</v>
   <i name="OFIELD_Q6_NEAR">      0.00000000</i>
   <i name="OFIELD_Q6_FAR">      0.00000000</i>
   <i name="OFIELD_A">      0.00000000</i>
  </separator>
  <separator name="optional k-points parameters" >
   <i type="int" name="KPOINTS_OPT_MODE">     1</i>
   <i type="logical" name="LKPOINTS_OPT"> F  </i>
  </separator>
 </parameters>
 <atominfo>
  <atoms>      64 </atoms>
  <types>       2 </types>
  <array name="atoms" >
   <dimension dim="1">ion</dimension>
   <field type="string">element</field>
   <field type="int">atomtype</field>
   <set>
    <rc><c>Na</c><c>   1</c></rc>
    <rc><c>Na</c><c>   1</c></rc>
    <rc><c>Na</c><c>   1</c></rc>
    <rc><c>Na</c><c>   1</c></rc>
    <rc><c>Na</c><c>   1</c></rc>
    <rc><c>Na</c><c>   1</c></rc>
    <rc><c>Na</c><c>   1</c></rc>
    <rc><c>Na</c><c>   1</c></rc>
    <rc><c>Na</c><c>   1</c></rc>
    <rc><c>Na</c><c>   1</c></rc>
    <rc><c>Na</c><c>   1</c></rc>
    <rc><c>Na</c><c>   1</c></rc>
    <rc><c>Na</c><c>   1</c></rc>
    <rc><c>Na</c><c>   1</c></rc>
    <rc><c>Na</c><c>   1</c></rc>
    <rc><c>Na</c><c>   1</c></rc>
    <rc><c>Na</c><c>   1</c></rc>
    <rc><c>Na</c><c>   1</c></rc>
    <rc><c>Na</c><c>   1</c></rc>
    <rc><c>Na</c><c>   1</c></rc>
    <rc><c>Na</c><c>   1</c></rc>
    <rc><c>Na</c><c>   1</c></rc>
    <rc><c>Na</c><c>   1</c></rc>
    <rc><c>Na</c><c>   1</c></rc>
    <rc><c>Na</c><c>   1</c></rc>
    <rc><c>Na</c><c>   1</c></rc>
    <rc><c>Na</c><c>   1</c></rc>
    <rc><c>Na</c><c>   1</c></rc>
    <rc><c>Na</c><c>   1</c></rc>
    <rc><c>Na</c><c>   1</c></rc>
    <rc><c>Na</c><c>   1</c></rc>
    <rc><c>Na</c><c>   1</c></rc>
    <rc><c>Cl</c><c>   2</c></rc>
    <rc><c>Cl</c><c>   2</c></rc>
    <rc><c>Cl</c><c>   2</c></rc>
    <rc><c>Cl</c><c>   2</c></rc>
    <rc><c>Cl</c><c>   2</c></rc>
    <rc><c>Cl</c><c>   2</c></rc>
    <rc><c>Cl</c><c>   2</c></rc>
    <rc><c>Cl</c><c>   2</c></rc>
    <rc><c>Cl</c><c>   2</c></rc>
    <rc><c>Cl</c><c>   2</c></rc>
    <rc><c>Cl</c><c>   2</c></rc>
    <rc><c>Cl</c><c>   2</c></rc>
    <rc><c>Cl</c><c>   2</c></rc>
    <rc><c>Cl</c><c>   2</c></rc>
    <rc><c>Cl</c><c>   2</c></rc>
    <rc><c>Cl</c><c>   2</c></rc>
    <rc><c>Cl</c><c>   2</c></rc>
    <rc><c>Cl</c><c>   2</c></rc>
    <rc><c>Cl</c><c>   2</c></rc>
    <rc><c>Cl</c><c>   2</c></rc>
    <rc><c>Cl</c><c>   2</c></rc>
    <rc><c>Cl</c><c>   2</c></rc>
    <rc><c>Cl</c><c>   2</c></rc>
    <rc><c>Cl</c><c>   2</c></rc>
    <rc><c>Cl</c><c>   2</c></rc>
    <rc><c>Cl</c><c>   2</c></rc>
    <rc><c>Cl</c><c>   2</c></rc>
    <rc><c>Cl</c><c>   2</c></rc>
    <rc><c>Cl</c><c>   2</c></rc>
    <rc><c>Cl</c><c>   2</c></rc>
    <rc><c>Cl</c><c>   2</c></rc>
    <rc><c>Cl</c><c>   2</c></rc>
   </set>
  </array>
  <array name="atomtypes" >
   <dimension dim="1">type</dimension>
   <field type="int">atomspertype</field>
   <field type="string">element</field>
   <field>mass</field>
   <field>valence</field>
   <field type="string">pseudopotential</field>
   <set>
    <rc><c>  32</c><c>Na</c><c>     22.99000000</c><c>      7.00000000</c><c>  PAW_PBE Na_pv 19Sep2006               </c></rc>
    <rc><c>  32</c><c>Cl</c><c>     35.45300000</c><c>      7.00000000</c><c>  PAW_PBE Cl 06Sep2000                  </c></rc>
   </set>
  </array>
 </atominfo>
 <structure name="initialpos" >
  <crystal>
   <varray name="basis" >
    <v>      11.20400236       0.00000000       0.00000000 </v>
    <v>       0.00000000      11.20400236       0.00000000 </v>
    <v>       0.00000000       0.00000000      11.20400236 </v>
   </varray>
   <i name="volume">   1406.43470641 </i>
   <varray name="rec_basis" >
    <v>       0.08925382       0.00000000       0.00000000 </v>
    <v>       0.00000000       0.08925382       0.00000000 </v>
    <v>       0.00000000       0.00000000       0.08925382 </v>
   </varray>
  </crystal>
  <varray name="positions" >
   <v>       0.00267761       0.00000000       0.00000000 </v>
   <v>       0.25000000       0.25000000       0.00000000 </v>
   <v>       0.25000000       0.00000000       0.25000000 </v>
   <v>       0.00000000       0.25000000       0.25000000 </v>
   <v>       0.00000000       0.00000000       0.50000000 </v>
   <v>       0.25000000       0.25000000       0.50000000 </v>
   <v>       0.25000000       0.00000000       0.75000000 </v>
   <v>       0.00000000       0.25000000       0.75000000 </v>
   <v>       0.00000000       0.50000000       0.00000000 </v>
   <v>       0.25000000       0.75000000       0.00000000 </v>
   <v>       0.25000000       0.50000000       0.25000000 </v>
   <v>       0.00000000       0.75000000       0.25000000 </v>
   <v>       0.00000000       0.50000000       0.50000000 </v>
   <v>       0.25000000       0.75000000       0.50000000 </v>
   <v>       0.25000000       0.50000000       0.75000000 </v>
   <v>       0.00000000       0.75000000       0.75000000 </v>
   <v>       0.50000000       0.00000000       0.00000000 </v>
   <v>       0.75000000       0.25000000       0.00000000 </v>
   <v>       0.75000000       0.00000000       0.25000000 </v>
   <v>       0.50000000       0.25000000       0.25000000 </v>
   <v>       0.50000000       0.00000000       0.50000000 </v>
   <v>       0.75000000       0.25000000       0.50000000 </v>
   <v>       0.75000000       0.00000000       0.75000000 </v>
   <v>       0.50000000       0.25000000       0.75000000 </v>
   <v>       0.50000000       0.50000000       0.00000000 </v>
   <v>       0.75000000       0.75000000       0.00000000 </v>
   <v>       0.75000000       0.50000000       0.25000000 </v>
   <v>       0.50000000       0.75000000       0.25000000 </v>
   <v>       0.50000000       0.50000000       0.50000000 </v>
   <v>       0.75000000       0.75000000       0.50000000 </v>
   <v>       0.75000000       0.50000000       0.75000000 </v>
   <v>       0.50000000       0.75000000       0.75000000 </v>
   <v>       0.25000000       0.25000000       0.25000000 </v>
   <v>       0.00267761       0.00000000       0.25000000 </v>
   <v>       0.00000000       0.25000000       0.00000000 </v>
   <v>       0.25000000       0.00000000       0.00000000 </v>
   <v>       0.25000000       0.25000000       0.75000000 </v>
   <v>       0.00000000       0.00000000       0.75000000 </v>
   <v>       0.00000000       0.25000000       0.50000000 </v>
   <v>       0.25000000       0.00000000       0.50000000 </v>
   <v>       0.25000000       0.75000000       0.25000000 </v>
   <v>       0.00000000       0.50000000       0.25000000 </v>
   <v>       0.00000000       0.75000000       0.00000000 </v>
   <v>       0.25000000       0.50000000       0.00000000 </v>
   <v>       0.25000000       0.75000000       0.75000000 </v>
   <v>       0.00000000       0.50000000       0.75000000 </v>
   <v>       0.00000000       0.75000000       0.50000000 </v>
   <v>       0.25000000       0.50000000       0.50000000 </v>
   <v>       0.75000000       0.25000000       0.25000000 </v>
   <v>       0.50000000       0.00000000       0.25000000 </v>
   <v>       0.50000000       0.25000000       0.00000000 </v>
   <v>       0.75000000       0.00000000       0.00000000 </v>
   <v>       0.75000000       0.25000000       0.75000000 </v>
   <v>       0.50000000       0.00000000       0.75000000 </v>
   <v>       0.50000000       0.25000000       0.50000000 </v>
   <v>       0.75000000       0.00000000       0.50000000 </v>
   <v>       0.75000000       0.75000000       0.25000000 </v>
   <v>       0.50000000       0.50000000       0.25000000 </v>
   <v>       0.50000000       0.75000000       0.00000000 </v>
   <v>       0.75000000       0.50000000       0.00000000 </v>
   <v>       0.75000000       0.75000000       0.75000000 </v>
   <v>       0.50000000       0.50000000       0.75000000 </v>
   <v>       0.50000000       0.75000000       0.50000000 </v>
   <v>       0.75000000       0.50000000       0.50000000 </v>
  </varray>
 </structure>
 <calculation>
  <scstep>
   <time name="dav">    9.43    9.48</time>
   <time name="total">    9.51    9.56</time>
   <energy>
    <i name="alphaZ">    751.52672365 </i>
    <i name="ewald"> -22871.31268379 </i>
    <i name="hartreedc">  -8992.27260898 </i>
    <i name="XCdc">   1456.53433216 </i>
    <i name="pawpsdc">  26466.43774078 </i>
    <i name="pawaedc"> -29286.08056155 </i>
    <i name="eentropy">     -0.00256483 </i>
    <i name="bandstr">   -735.10023515 </i>
    <i name="atom">  37532.17946992 </i>
    <i name="e_fr_energy">   4321.90961222 </i>
    <i name="e_wo_entrp">   4321.91217705 </i>
    <i name="e_0_energy">   4321.91089463 </i>
   </energy>
  </scstep>
  <scstep>
   <time name="dav">   10.25   10.31</time>
   <time name="total">   10.25   10.31</time>
   <energy>
    <i name="e_fr_energy">    363.87396395 </i>
    <i name="e_wo_entrp">    363.87396395 </i>
    <i name="e_0_energy">    363.87396395 </i>
   </energy>
  </scstep>
  <scstep>
   <time name="dav">   11.04   11.10</time>
   <time name="total">   11.04   11.10</time>
   <energy>
    <i name="e_fr_energy">   -206.17653172 </i>
    <i name="e_wo_entrp">   -206.17653172 </i>
    <i name="e_0_energy">   -206.17653172 </i>
   </energy>
  </scstep>
  <scstep>
   <time name="dav">   11.01   11.07</time>
   <time name="total">   11.01   11.07</time>
   <energy>
    <i name="e_fr_energy">   -228.19212058 </i>
    <i name="e_wo_entrp">   -228.19212058 </i>
    <i name="e_0_energy">   -228.19212058 </i>
   </energy>
  </scstep>
  <scstep>
   <time name="dav">   11.20   11.26</time>
   <time name="total">   11.54   11.60</time>
   <energy>
    <i name="e_fr_energy">   -229.00354698 </i>
    <i name="e_wo_entrp">   -229.00354698 </i>
    <i name="e_0_energy">   -229.00354698 </i>
   </energy>
  </scstep>
  <scstep>
   <time name="dav">   11.28   11.34</time>
   <time name="total">   11.69   11.75</time>
   <energy>
    <i name="e_fr_energy">   -224.13953014 </i>
    <i name="e_wo_entrp">   -224.13953014 </i>
    <i name="e_0_energy">   -224.13953014 </i>
   </energy>
  </scstep>
  <scstep>
   <time name="dav">   12.24   12.31</time>
   <time name="total">   12.65   12.72</time>
   <energy>
    <i name="e_fr_energy">   -223.77758092 </i>
    <i name="e_wo_entrp">   -223.77758092 </i>
    <i name="e_0_energy">   -223.77758092 </i>
   </energy>
  </scstep>
  <scstep>
   <time name="dav">   10.67   10.73</time>
   <time name="total">   11.09   11.15</time>
   <energy>
    <i name="e_fr_energy">   -223.90292701 </i>
    <i name="e_wo_entrp">   -223.90292701 </i>
    <i name="e_0_energy">   -223.90292701 </i>
   </energy>
  </scstep>
  <scstep>
   <time name="dav">   11.24   11.30</time>
   <time name="total">   11.65   11.72</time>
   <energy>
    <i name="e_fr_energy">   -223.89726169 </i>
    <i name="e_wo_entrp">   -223.89726169 </i>
    <i name="e_0_energy">   -223.89726169 </i>
   </energy>
  </scstep>
  <scstep>
   <time name="dav">   10.72   10.78</time>
   <time name="total">   11.13   11.19</time>
   <energy>
    <i name="e_fr_energy">   -223.90157600 </i>
    <i name="e_wo_entrp">   -223.90157600 </i>
    <i name="e_0_energy">   -223.90157600 </i>
   </energy>
  </scstep>
  <scstep>
   <time name="dav">   11.22   11.28</time>
   <time name="total">   11.63   11.69</time>
   <energy>
    <i name="e_fr_energy">   -223.90080447 </i>
    <i name="e_wo_entrp">   -223.90080447 </i>
    <i name="e_0_energy">   -223.90080447 </i>
   </energy>
  </scstep>
  <scstep>
   <time name="dav">   12.03   12.10</time>
   <time name="total">   12.44   12.50</time>
   <energy>
    <i name="e_fr_energy">   -223.90077062 </i>
    <i name="e_wo_entrp">   -223.90077062 </i>
    <i name="e_0_energy">   -223.90077062 </i>
   </energy>
  </scstep>
  <scstep>
   <time name="dav">   11.24   11.30</time>
   <time name="total">   11.65   11.71</time>
   <energy>
    <i name="e_fr_energy">   -223.90077153 </i>
    <i name="e_wo_entrp">   -223.90077153 </i>
    <i name="e_0_energy">   -223.90077153 </i>
   </energy>
  </scstep>
  <scstep>
   <time name="dav">   10.73   10.78</time>
   <time name="total">   11.13   11.19</time>
   <energy>
    <i name="e_fr_energy">   -223.90077225 </i>
    <i name="e_wo_entrp">   -223.90077225 </i>
    <i name="e_0_energy">   -223.90077225 </i>
   </energy>
  </scstep>
  <scstep>
   <time name="dav">   10.65   10.71</time>
   <time name="total">   11.05   11.12</time>
   <energy>
    <i name="e_fr_energy">   -223.90077374 </i>
    <i name="e_wo_entrp">   -223.90077374 </i>
    <i name="e_0_energy">   -223.90077374 </i>
   </energy>
  </scstep>
  <scstep>
   <time name="dav">   10.08   10.14</time>
   <time name="total">   10.49   10.55</time>
   <energy>
    <i name="e_fr_energy">   -223.90077431 </i>
    <i name="e_wo_entrp">   -223.90077431 </i>
    <i name="e_0_energy">   -223.90077431 </i>
   </energy>
  </scstep>
  <scstep>
   <time name="dav">    7.80    7.84</time>
   <time name="total">    7.86    7.91</time>
   <energy>
    <i name="alphaZ">    751.52672365 </i>
    <i name="ewald"> -22871.31268379 </i>
    <i name="hartreedc">  -9078.18797672 </i>
    <i name="XCdc">   1472.51349381 </i>
    <i name="pawpsdc">  29498.35265817 </i>
    <i name="pawaedc"> -32317.71781044 </i>
    <i name="eentropy">     -0.00000000 </i>
    <i name="bandstr">  -5211.25464891 </i>
    <i name="atom">  37532.17946992 </i>
    <i name="e_fr_energy">   -223.90077430 </i>
    <i name="e_wo_entrp">   -223.90077430 </i>
    <i name="e_0_energy">   -223.90077430 </i>
   </energy>
  </scstep>
  <structure>
   <crystal>
    <varray name="basis" >
     <v>      11.20400236       0.00000000       0.00000000 </v>
     <v>       0.00000000      11.20400236       0.00000000 </v>
     <v>       0.00000000       0.00000000      11.20400236 </v>
    </varray>
    <i name="volume">   1406.43470641 </i>
    <varray name="rec_basis" >
     <v>       0.08925382       0.00000000       0.00000000 </v>
     <v>       0.00000000       0.08925382       0.00000000 </v>
     <v>       0.00000000       0.00000000       0.08925382 </v>
    </varray>
   </crystal>
   <varray name="positions" >
    <v>       0.00267761       0.00000000       0.00000000 </v>
    <v>       0.25000000       0.25000000       0.00000000 </v>
    <v>       0.25000000       0.00000000       0.25000000 </v>
    <v>       0.00000000       0.25000000       0.25000000 </v>
    <v>       0.00000000       0.00000000       0.50000000 </v>
    <v>       0.25000000       0.25000000       0.50000000 </v>
    <v>       0.25000000       0.00000000       0.75000000 </v>
    <v>       0.00000000       0.25000000       0.75000000 </v>
    <v>       0.00000000       0.50000000       0.00000000 </v>
    <v>       0.25000000       0.75000000       0.00000000 </v>
    <v>       0.25000000       0.50000000       0.25000000 </v>
    <v>       0.00000000       0.75000000       0.25000000 </v>
    <v>       0.00000000       0.50000000       0.50000000 </v>
    <v>       0.25000000       0.75000000       0.50000000 </v>
    <v>       0.25000000       0.50000000       0.75000000 </v>
    <v>       0.00000000       0.75000000       0.75000000 </v>
    <v>       0.50000000       0.00000000       0.00000000 </v>
    <v>       0.75000000       0.25000000       0.00000000 </v>
    <v>       0.75000000       0.00000000       0.25000000 </v>
    <v>       0.50000000       0.25000000       0.25000000 </v>
    <v>       0.50000000       0.00000000       0.50000000 </v>
    <v>       0.75000000       0.25000000       0.50000000 </v>
    <v>       0.75000000       0.00000000       0.75000000 </v>
    <v>       0.50000000       0.25000000       0.75000000 </v>
    <v>       0.50000000       0.50000000       0.00000000 </v>
    <v>       0.75000000       0.75000000       0.00000000 </v>
    <v>       0.75000000       0.50000000       0.25000000 </v>
    <v>       0.50000000       0.75000000       0.25000000 </v>
    <v>       0.50000000       0.50000000       0.50000000 </v>
    <v>       0.75000000       0.75000000       0.50000000 </v>
    <v>       0.75000000       0.50000000       0.75000000 </v>
    <v>       0.50000000       0.75000000       0.75000000 </v>
    <v>       0.25000000       0.25000000       0.25000000 </v>
    <v>       0.00267761       0.00000000       0.25000000 </v>
    <v>       0.00000000       0.25000000       0.00000000 </v>
    <v>       0.25000000       0.00000000       0.00000000 </v>
    <v>       0.25000000       0.25000000       0.75000000 </v>
    <v>       0.00000000       0.00000000       0.75000000 </v>
    <v>       0.00000000       0.25000000       0.50000000 </v>
    <v>       0.25000000       0.00000000       0.50000000 </v>
    <v>       0.25000000       0.75000000       0.25000000 </v>
    <v>       0.00000000       0.50000000       0.25000000 </v>
    <v>       0.00000000       0.75000000       0.00000000 </v>
    <v>       0.25000000       0.50000000       0.00000000 </v>
    <v>       0.25000000       0.75000000       0.75000000 </v>
    <v>       0.00000000       0.50000000       0.75000000 </v>
    <v>       0.00000000       0.75000000       0.50000000 </v>
    <v>       0.25000000       0.50000000       0.50000000 </v>
    <v>       0.75000000       0.25000000       0.25000000 </v>
    <v>       0.50000000       0.00000000       0.25000000 </v>
    <v>       0.50000000       0.25000000       0.00000000 </v>
    <v>       0.75000000       0.00000000       0.00000000 </v>
    <v>       0.75000000       0.25000000       0.75000000 </v>
    <v>       0.50000000       0.00000000       0.75000000 </v>
    <v>       0.50000000       0.25000000       0.50000000 </v>
    <v>       0.75000000       0.00000000       0.50000000 </v>
    <v>       0.75000000       0.75000000       0.25000000 </v>
    <v>       0.50000000       0.50000000       0.25000000 </v>
    <v>       0.50000000       0.75000000       0.00000000 </v>
    <v>       0.75000000       0.50000000       0.00000000 </v>
    <v>       0.75000000       0.75000000       0.75000000 </v>
    <v>       0.50000000       0.50000000       0.75000000 </v>
    <v>       0.50000000       0.75000000       0.50000000 </v>
    <v>       0.75000000       0.50000000       0.50000000 </v>
   </varray>
  </structure>
  <varray name="forces" >
   <v>      -0.05780647       0.00000000      -0.00004377 </v>
   <v>       0.00129821       0.00462400       0.00129999 </v>
   <v>       0.02179146       0.00000000       0.00590635 </v>
   <v>       0.00334619      -0.00009150      -0.00003626 </v>
   <v>       0.00496131       0.00000000      -0.00004568 </v>
   <v>      -0.00024229      -0.00137447      -0.00129884 </v>
   <v>       0.00168119       0.00000000      -0.00592057 </v>
   <v>      -0.00105928      -0.00002226       0.00002634 </v>
   <v>       0.00055188       0.00000000       0.00000173 </v>
   <v>       0.00129821      -0.00462400       0.00129999 </v>
   <v>       0.00013496       0.00000000      -0.00007909 </v>
   <v>       0.00334619       0.00009150      -0.00003626 </v>
   <v>       0.00015163       0.00000000      -0.00000210 </v>
   <v>      -0.00024229       0.00137447      -0.00129884 </v>
   <v>      -0.00002729       0.00000000       0.00007908 </v>
   <v>      -0.00105928       0.00002226       0.00002634 </v>
   <v>       0.00608297       0.00000000       0.00001010 </v>
   <v>       0.00127469      -0.00451531      -0.00128954 </v>
   <v>       0.01771261       0.00000000      -0.00582309 </v>
   <v>      -0.00166967       0.00000071       0.00000315 </v>
   <v>      -0.00252376       0.00000000      -0.00000386 </v>
   <v>      -0.00026095       0.00136554       0.00129024 </v>
   <v>       0.00165981       0.00000000       0.00580963 </v>
   <v>       0.00049622       0.00000138      -0.00000315 </v>
   <v>      -0.00035828       0.00000000       0.00000298 </v>
   <v>       0.00127469       0.00451531      -0.00128954 </v>
   <v>       0.00012967       0.00000000       0.00007214 </v>
   <v>      -0.00166967      -0.00000071       0.00000315 </v>
   <v>      -0.00022544       0.00000000      -0.00000301 </v>
   <v>      -0.00026095      -0.00136554       0.00129024 </v>
   <v>      -0.00002513       0.00000000      -0.00007205 </v>
   <v>       0.00049622      -0.00000138      -0.00000315 </v>
   <v>       0.00369793       0.00458648      -0.00129684 </v>
   <v>      -0.07103763       0.00000000       0.00006511 </v>
   <v>       0.00267195      -0.00013650       0.00002629 </v>
   <v>       0.02415210       0.00000000      -0.00589783 </v>
   <v>      -0.00027067      -0.00072826       0.00130095 </v>
   <v>       0.00345802       0.00000000       0.00010659 </v>
   <v>      -0.00172957      -0.00003455      -0.00004223 </v>
   <v>       0.00407823       0.00000000       0.00588328 </v>
   <v>       0.00369793      -0.00458648      -0.00129684 </v>
   <v>      -0.00094057       0.00000000       0.00001327 </v>
   <v>       0.00267195       0.00013650       0.00002629 </v>
   <v>       0.00011781       0.00000000      -0.00057396 </v>
   <v>      -0.00027067       0.00072826       0.00130095 </v>
   <v>       0.00008841       0.00000000      -0.00001504 </v>
   <v>      -0.00172957       0.00003455      -0.00004223 </v>
   <v>      -0.00005816       0.00000000       0.00057560 </v>
   <v>       0.00361970      -0.00444500       0.00128966 </v>
   <v>       0.00099929       0.00000000      -0.00000712 </v>
   <v>      -0.00129737      -0.00000810      -0.00000474 </v>
   <v>       0.02002736       0.00000000       0.00571866 </v>
   <v>      -0.00027999       0.00071513      -0.00128715 </v>
   <v>      -0.00088467       0.00000000       0.00000959 </v>
   <v>       0.00086660       0.00000111       0.00000526 </v>
   <v>       0.00400875       0.00000000      -0.00573419 </v>
   <v>       0.00361970       0.00444500       0.00128966 </v>
   <v>       0.00127631       0.00000000       0.00000123 </v>
   <v>      -0.00129737       0.00000810      -0.00000474 </v>
   <v>       0.00010159       0.00000000       0.00056617 </v>
   <v>      -0.00027999      -0.00071513      -0.00128715 </v>
   <v>      -0.00015441       0.00000000      -0.00000065 </v>
   <v>       0.00086660      -0.00000111       0.00000526 </v>
   <v>      -0.00004695       0.00000000      -0.00056582 </v>
  </varray>
  <varray name="stress" >
   <v>      -0.35460093       0.00000000      -0.00010569 </v>
   <v>       0.00000000      -0.37758224       0.00000000 </v>
   <v>      -0.00010571       0.00000000      -0.37751002 </v>
  </varray>
  <energy>
   <i name="e_fr_energy">   -223.90077430 </i>
   <i name="e_wo_entrp">   -223.90077430 </i>
   <i name="e_0_energy">   -223.90077430 </i>
  </energy>
  <time name="totalsc">  202.73  203.85</time>
  <eigenvalues>
   <array>
    <dimension dim="1">band</dimension>
    <dimension dim="2">kpoint</dimension>
    <dimension dim="3">spin</dimension>
    <field>eigene</field>
    <field>occ</field>
    <set>
     <set comment="spin 1">
      <set comment="kpoint 1">
       <r>  -21.3057    1.0000 </r>
       <r>  -21.3056    1.0000 </r>
       <r>  -21.3054    1.0000 </r>
       <r>  -21.3036    1.0000 </r>
       <r>  -21.2988    1.0000 </r>
       <r>  -21.2986    1.0000 </r>
       <r>  -21.2984    1.0000 </r>
       <r>  -21.2942    1.0000 </r>
       <r>  -21.2936    1.0000 </r>
       <r>  -21.2933    1.0000 </r>
       <r>  -21.2931    1.0000 </r>
       <r>  -21.2931    1.0000 </r>
       <r>  -21.2931    1.0000 </r>
       <r>  -21.2929    1.0000 </r>
       <r>  -21.2929    1.0000 </r>
       <r>  -21.2922    1.0000 </r>
       <r>  -21.2915    1.0000 </r>
       <r>  -21.2914    1.0000 </r>
       <r>  -21.2914    1.0000 </r>
       <r>  -21.2893    1.0000 </r>
       <r>  -21.2886    1.0000 </r>
       <r>  -21.2881    1.0000 </r>
       <r>  -21.2863    1.0000 </r>
       <r>  -21.2862    1.0000 </r>
       <r>  -21.2857    1.0000 </r>
       <r>  -21.2857    1.0000 </r>
       <r>  -21.2856    1.0000 </r>
       <r>  -21.2856    1.0000 </r>
       <r>  -21.2856    1.0000 </r>
       <r>  -21.2856    1.0000 </r>
       <r>  -21.2849    1.0000 </r>
       <r>  -21.2845    1.0000 </r>
       <r>  -21.2838    1.0000 </r>
       <r>  -21.2837    1.0000 </r>
       <r>  -21.2836    1.0000 </r>
       <r>  -21.2835    1.0000 </r>
       <r>  -21.2830    1.0000 </r>
       <r>  -21.2824    1.0000 </r>
       <r>  -21.2822    1.0000 </r>
       <r>  -21.2819    1.0000 </r>
       <r>  -21.2813    1.0000 </r>
       <r>  -21.2812    1.0000 </r>
       <r>  -21.2811    1.0000 </r>
       <r>  -21.2810    1.0000 </r>
       <r>  -21.2802    1.0000 </r>
       <r>  -21.2800    1.0000 </r>
       <r>  -21.2800    1.0000 </r>
       <r>  -21.2800    1.0000 </r>
       <r>  -21.2799    1.0000 </r>
       <r>  -21.2799    1.0000 </r>
       <r>  -21.2798    1.0000 </r>
       <r>  -21.2798    1.0000 </r>
       <r>  -21.2798    1.0000 </r>
       <r>  -21.2796    1.0000 </r>
       <r>  -21.2792    1.0000 </r>
       <r>  -21.2788    1.0000 </r>
       <r>  -21.2787    1.0000 </r>
       <r>  -21.2782    1.0000 </r>
       <r>  -21.2778    1.0000 </r>
       <r>  -21.2776    1.0000 </r>
       <r>  -21.2768    1.0000 </r>
       <r>  -21.2761    1.0000 </r>
       <r>  -21.2757    1.0000 </r>
       <r>  -21.2753    1.0000 </r>
       <r>  -21.2746    1.0000 </r>
       <r>  -21.2746    1.0000 </r>
       <r>  -21.2742    1.0000 </r>
       <r>  -21.2741    1.0000 </r>
       <r>  -21.2740    1.0000 </r>
       <r>  -21.2740    1.0000 </r>
       <r>  -21.2739    1.0000 </r>
       <r>  -21.2738    1.0000 </r>
       <r>  -21.2728    1.0000 </r>
       <r>  -21.2724    1.0000 </r>
       <r>  -21.2722    1.0000 </r>
       <r>  -21.2721    1.0000 </r>
       <r>  -21.2720    1.0000 </r>
       <r>  -21.2718    1.0000 </r>
       <r>  -21.2718    1.0000 </r>
       <r>  -21.2718    1.0000 </r>
       <r>  -21.2718    1.0000 </r>
       <r>  -21.2717    1.0000 </r>
       <r>  -21.2717    1.0000 </r>
       <r>  -21.2716    1.0000 </r>
       <r>  -21.2716    1.0000 </r>
       <r>  -21.2715    1.0000 </r>
       <r>  -21.2715    1.0000 </r>
       <r>  -21.2711    1.0000 </r>
       <r>  -21.2711    1.0000 </r>
       <r>  -21.2708    1.0000 </r>
       <r>  -21.2695    1.0000 </r>
       <r>  -21.2695    1.0000 </r>
       <r>  -21.2694    1.0000 </r>
       <r>  -21.2610    1.0000 </r>
       <r>  -21.2607    1.0000 </r>
       <r>  -21.2603    1.0000 </r>
       <r>  -13.3580    1.0000 </r>
       <r>  -13.1417    1.0000 </r>
       <r>  -13.1374    1.0000 </r>
       <r>  -13.1373    1.0000 </r>
       <r>  -13.1373    1.0000 </r>
       <r>  -13.1373    1.0000 </r>
       <r>  -13.1336    1.0000 </r>
       <r>  -13.0187    1.0000 </r>
       <r>  -13.0142    1.0000 </r>
       <r>  -13.0124    1.0000 </r>
       <r>  -13.0114    1.0000 </r>
       <r>  -13.0112    1.0000 </r>
       <r>  -13.0112    1.0000 </r>
       <r>  -13.0112    1.0000 </r>
       <r>  -13.0111    1.0000 </r>
       <r>  -13.0111    1.0000 </r>
       <r>  -13.0101    1.0000 </r>
       <r>  -13.0083    1.0000 </r>
       <r>  -13.0045    1.0000 </r>
       <r>  -12.9904    1.0000 </r>
       <r>  -12.9900    1.0000 </r>
       <r>  -12.9900    1.0000 </r>
       <r>  -12.9899    1.0000 </r>
       <r>  -12.9408    1.0000 </r>
       <r>  -12.9407    1.0000 </r>
       <r>  -12.9398    1.0000 </r>
       <r>  -12.9249    1.0000 </r>
       <r>  -12.9215    1.0000 </r>
       <r>  -12.9214    1.0000 </r>
       <r>  -12.9213    1.0000 </r>
       <r>  -12.9212    1.0000 </r>
       <r>  -12.9171    1.0000 </r>
       <r>   -2.7000    1.0000 </r>
       <r>   -2.7000    1.0000 </r>
       <r>   -2.7000    1.0000 </r>
       <r>   -2.6999    1.0000 </r>
       <r>   -2.4240    1.0000 </r>
       <r>   -2.4240    1.0000 </r>
       <r>   -2.4240    1.0000 </r>
       <r>   -2.2074    1.0000 </r>
       <r>   -2.2071    1.0000 </r>
       <r>   -2.2057    1.0000 </r>
       <r>   -2.2050    1.0000 </r>
       <r>   -2.2043    1.0000 </r>
       <r>   -2.2042    1.0000 </r>
       <r>   -2.2042    1.0000 </r>
       <r>   -2.2042    1.0000 </r>
       <r>   -2.2036    1.0000 </r>
       <r>   -2.2028    1.0000 </r>
       <r>   -2.2015    1.0000 </r>
       <r>   -2.2012    1.0000 </r>
       <r>   -1.9283    1.0000 </r>
       <r>   -1.9282    1.0000 </r>
       <r>   -1.9264    1.0000 </r>
       <r>   -1.9251    1.0000 </r>
       <r>   -1.9247    1.0000 </r>
       <r>   -1.9246    1.0000 </r>
       <r>   -1.9246    1.0000 </r>
       <r>   -1.9246    1.0000 </r>
       <r>   -1.9242    1.0000 </r>
       <r>   -1.9229    1.0000 </r>
       <r>   -1.9211    1.0000 </r>
       <r>   -1.9211    1.0000 </r>
       <r>   -1.7978    1.0000 </r>
       <r>   -1.7967    1.0000 </r>
       <r>   -1.7966    1.0000 </r>
       <r>   -1.7966    1.0000 </r>
       <r>   -1.7966    1.0000 </r>
       <r>   -1.7955    1.0000 </r>
       <r>   -1.5090    1.0000 </r>
       <r>   -1.5087    1.0000 </r>
       <r>   -1.5060    1.0000 </r>
       <r>   -1.5058    1.0000 </r>
       <r>   -1.5057    1.0000 </r>
       <r>   -1.5053    1.0000 </r>
       <r>   -1.5053    1.0000 </r>
       <r>   -1.5053    1.0000 </r>
       <r>   -1.5052    1.0000 </r>
       <r>   -1.5046    1.0000 </r>
       <r>   -1.5021    1.0000 </r>
       <r>   -1.5020    1.0000 </r>
       <r>   -1.4651    1.0000 </r>
       <r>   -1.4629    1.0000 </r>
       <r>   -1.4626    1.0000 </r>
       <r>   -1.4624    1.0000 </r>
       <r>   -1.4622    1.0000 </r>
       <r>   -1.4603    1.0000 </r>
       <r>   -1.2948    1.0000 </r>
       <r>   -1.2948    1.0000 </r>
       <r>   -1.2947    1.0000 </r>
       <r>   -1.2947    1.0000 </r>
       <r>   -1.2947    1.0000 </r>
       <r>   -1.2946    1.0000 </r>
       <r>   -1.0048    1.0000 </r>
       <r>   -1.0025    1.0000 </r>
       <r>   -1.0021    1.0000 </r>
       <r>   -1.0019    1.0000 </r>
       <r>   -1.0014    1.0000 </r>
       <r>   -1.0007    1.0000 </r>
       <r>   -1.0007    1.0000 </r>
       <r>   -1.0007    1.0000 </r>
       <r>   -1.0000    1.0000 </r>
       <r>   -0.9995    1.0000 </r>
       <r>   -0.9995    1.0000 </r>
       <r>   -0.9969    1.0000 </r>
       <r>   -0.9509    1.0000 </r>
       <r>   -0.9507    1.0000 </r>
       <r>   -0.9483    1.0000 </r>
       <r>   -0.9480    1.0000 </r>
       <r>   -0.9479    1.0000 </r>
       <r>   -0.9478    1.0000 </r>
       <r>   -0.9477    1.0000 </r>
       <r>   -0.9477    1.0000 </r>
       <r>   -0.9473    1.0000 </r>
       <r>   -0.9473    1.0000 </r>
       <r>   -0.9465    1.0000 </r>
       <r>   -0.9463    1.0000 </r>
       <r>   -0.9459    1.0000 </r>
       <r>   -0.9458    1.0000 </r>
       <r>   -0.9457    1.0000 </r>
       <r>   -0.9456    1.0000 </r>
       <r>   -0.9456    1.0000 </r>
       <r>   -0.9451    1.0000 </r>
       <r>   -0.9442    1.0000 </r>
       <r>   -0.9436    1.0000 </r>
       <r>   -0.6649    1.0000 </r>
       <r>   -0.6649    1.0000 </r>
       <r>   -0.6649    1.0000 </r>
       <r>    4.3403    0.0000 </r>
       <r>    6.3619    0.0000 </r>
       <r>    6.3680    0.0000 </r>
       <r>    6.3681    0.0000 </r>
       <r>    6.3682    0.0000 </r>
       <r>    6.3682    0.0000 </r>
       <r>    6.3740    0.0000 </r>
       <r>    6.4446    0.0000 </r>
       <r>    6.4447    0.0000 </r>
       <r>    6.4447    0.0000 </r>
       <r>    6.4448    0.0000 </r>
       <r>    6.8279    0.0000 </r>
       <r>    6.8280    0.0000 </r>
       <r>    6.8280    0.0000 </r>
       <r>    7.2068    0.0000 </r>
       <r>    7.2069    0.0000 </r>
       <r>    7.2069    0.0000 </r>
       <r>    7.4549    0.0000 </r>
       <r>    7.4591    0.0000 </r>
       <r>    7.4603    0.0000 </r>
       <r>    7.4628    0.0000 </r>
       <r>    7.4641    0.0000 </r>
       <r>    7.4642    0.0000 </r>
       <r>    7.4642    0.0000 </r>
       <r>    7.4642    0.0000 </r>
       <r>    7.4656    0.0000 </r>
       <r>    7.4680    0.0000 </r>
       <r>    7.4692    0.0000 </r>
       <r>    7.4730    0.0000 </r>
       <r>    8.1635    0.0000 </r>
       <r>    8.1682    0.0000 </r>
       <r>    8.1682    0.0000 </r>
       <r>    8.1684    0.0000 </r>
       <r>    8.1684    0.0000 </r>
       <r>    8.1734    0.0000 </r>
       <r>    8.2755    0.0000 </r>
       <r>    8.2796    0.0000 </r>
       <r>    8.2796    0.0000 </r>
       <r>    8.2797    0.0000 </r>
       <r>    8.2798    0.0000 </r>
       <r>    8.2836    0.0000 </r>
       <r>    8.8917    0.0000 </r>
       <r>    8.8935    0.0000 </r>
       <r>    8.8957    0.0000 </r>
       <r>    8.8982    0.0000 </r>
       <r>    8.9006    0.0000 </r>
       <r>    8.9010    0.0000 </r>
       <r>    8.9011    0.0000 </r>
       <r>    8.9018    0.0000 </r>
       <r>    8.9031    0.0000 </r>
       <r>    8.9044    0.0000 </r>
       <r>    8.9055    0.0000 </r>
       <r>    8.9066    0.0000 </r>
       <r>    8.9124    0.0000 </r>
       <r>    8.9129    0.0000 </r>
       <r>    8.9154    0.0000 </r>
       <r>    8.9163    0.0000 </r>
       <r>    8.9166    0.0000 </r>
       <r>    8.9172    0.0000 </r>
       <r>    8.9176    0.0000 </r>
       <r>    8.9181    0.0000 </r>
       <r>    8.9185    0.0000 </r>
       <r>    8.9248    0.0000 </r>
       <r>    8.9255    0.0000 </r>
      </set>
      <set comment="kpoint 2">
       <r>  -21.3040    1.0000 </r>
       <r>  -21.3037    1.0000 </r>
       <r>  -21.3035    1.0000 </r>
       <r>  -21.2994    1.0000 </r>
       <r>  -21.2991    1.0000 </r>
       <r>  -21.2990    1.0000 </r>
       <r>  -21.2988    1.0000 </r>
       <r>  -21.2988    1.0000 </r>
       <r>  -21.2963    1.0000 </r>
       <r>  -21.2951    1.0000 </r>
       <r>  -21.2946    1.0000 </r>
       <r>  -21.2917    1.0000 </r>
       <r>  -21.2916    1.0000 </r>
       <r>  -21.2914    1.0000 </r>
       <r>  -21.2913    1.0000 </r>
       <r>  -21.2912    1.0000 </r>
       <r>  -21.2911    1.0000 </r>
       <r>  -21.2908    1.0000 </r>
       <r>  -21.2905    1.0000 </r>
       <r>  -21.2904    1.0000 </r>
       <r>  -21.2896    1.0000 </r>
       <r>  -21.2895    1.0000 </r>
       <r>  -21.2894    1.0000 </r>
       <r>  -21.2892    1.0000 </r>
       <r>  -21.2891    1.0000 </r>
       <r>  -21.2884    1.0000 </r>
       <r>  -21.2880    1.0000 </r>
       <r>  -21.2875    1.0000 </r>
       <r>  -21.2875    1.0000 </r>
       <r>  -21.2869    1.0000 </r>
       <r>  -21.2860    1.0000 </r>
       <r>  -21.2855    1.0000 </r>
       <r>  -21.2846    1.0000 </r>
       <r>  -21.2843    1.0000 </r>
       <r>  -21.2839    1.0000 </r>
       <r>  -21.2839    1.0000 </r>
       <r>  -21.2832    1.0000 </r>
       <r>  -21.2829    1.0000 </r>
       <r>  -21.2828    1.0000 </r>
       <r>  -21.2818    1.0000 </r>
       <r>  -21.2814    1.0000 </r>
       <r>  -21.2805    1.0000 </r>
       <r>  -21.2803    1.0000 </r>
       <r>  -21.2801    1.0000 </r>
       <r>  -21.2800    1.0000 </r>
       <r>  -21.2797    1.0000 </r>
       <r>  -21.2788    1.0000 </r>
       <r>  -21.2788    1.0000 </r>
       <r>  -21.2781    1.0000 </r>
       <r>  -21.2776    1.0000 </r>
       <r>  -21.2774    1.0000 </r>
       <r>  -21.2771    1.0000 </r>
       <r>  -21.2771    1.0000 </r>
       <r>  -21.2764    1.0000 </r>
       <r>  -21.2762    1.0000 </r>
       <r>  -21.2761    1.0000 </r>
       <r>  -21.2761    1.0000 </r>
       <r>  -21.2760    1.0000 </r>
       <r>  -21.2760    1.0000 </r>
       <r>  -21.2759    1.0000 </r>
       <r>  -21.2758    1.0000 </r>
       <r>  -21.2757    1.0000 </r>
       <r>  -21.2756    1.0000 </r>
       <r>  -21.2755    1.0000 </r>
       <r>  -21.2752    1.0000 </r>
       <r>  -21.2751    1.0000 </r>
       <r>  -21.2750    1.0000 </r>
       <r>  -21.2748    1.0000 </r>
       <r>  -21.2748    1.0000 </r>
       <r>  -21.2747    1.0000 </r>
       <r>  -21.2744    1.0000 </r>
       <r>  -21.2743    1.0000 </r>
       <r>  -21.2742    1.0000 </r>
       <r>  -21.2735    1.0000 </r>
       <r>  -21.2733    1.0000 </r>
       <r>  -21.2731    1.0000 </r>
       <r>  -21.2727    1.0000 </r>
       <r>  -21.2724    1.0000 </r>
       <r>  -21.2723    1.0000 </r>
       <r>  -21.2719    1.0000 </r>
       <r>  -21.2718    1.0000 </r>
       <r>  -21.2718    1.0000 </r>
       <r>  -21.2718    1.0000 </r>
       <r>  -21.2718    1.0000 </r>
       <r>  -21.2717    1.0000 </r>
       <r>  -21.2717    1.0000 </r>
       <r>  -21.2714    1.0000 </r>
       <r>  -21.2714    1.0000 </r>
       <r>  -21.2713    1.0000 </r>
       <r>  -21.2708    1.0000 </r>
       <r>  -21.2708    1.0000 </r>
       <r>  -21.2704    1.0000 </r>
       <r>  -21.2702    1.0000 </r>
       <r>  -21.2611    1.0000 </r>
       <r>  -21.2608    1.0000 </r>
       <r>  -21.2606    1.0000 </r>
       <r>  -13.2920    1.0000 </r>
       <r>  -13.2905    1.0000 </r>
       <r>  -13.1022    1.0000 </r>
       <r>  -13.0985    1.0000 </r>
       <r>  -13.0977    1.0000 </r>
       <r>  -13.0972    1.0000 </r>
       <r>  -13.0966    1.0000 </r>
       <r>  -13.0960    1.0000 </r>
       <r>  -13.0953    1.0000 </r>
       <r>  -13.0925    1.0000 </r>
       <r>  -13.0049    1.0000 </r>
       <r>  -13.0023    1.0000 </r>
       <r>  -13.0009    1.0000 </r>
       <r>  -13.0006    1.0000 </r>
       <r>  -13.0006    1.0000 </r>
       <r>  -13.0005    1.0000 </r>
       <r>  -13.0001    1.0000 </r>
       <r>  -12.9989    1.0000 </r>
       <r>  -12.9943    1.0000 </r>
       <r>  -12.9938    1.0000 </r>
       <r>  -12.9480    1.0000 </r>
       <r>  -12.9457    1.0000 </r>
       <r>  -12.9451    1.0000 </r>
       <r>  -12.9446    1.0000 </r>
       <r>  -12.9429    1.0000 </r>
       <r>  -12.9428    1.0000 </r>
       <r>  -12.9416    1.0000 </r>
       <r>  -12.9402    1.0000 </r>
       <r>  -12.9312    1.0000 </r>
       <r>  -12.9311    1.0000 </r>
       <r>  -12.9305    1.0000 </r>
       <r>  -12.9286    1.0000 </r>
       <r>   -2.5061    1.0000 </r>
       <r>   -2.5057    1.0000 </r>
       <r>   -2.5049    1.0000 </r>
       <r>   -2.5047    1.0000 </r>
       <r>   -2.5039    1.0000 </r>
       <r>   -2.5038    1.0000 </r>
       <r>   -2.5031    1.0000 </r>
       <r>   -2.5026    1.0000 </r>
       <r>   -2.2888    1.0000 </r>
       <r>   -2.2888    1.0000 </r>
       <r>   -2.2866    1.0000 </r>
       <r>   -2.2866    1.0000 </r>
       <r>   -2.2748    1.0000 </r>
       <r>   -2.2735    1.0000 </r>
       <r>   -2.1411    1.0000 </r>
       <r>   -2.1389    1.0000 </r>
       <r>   -2.1372    1.0000 </r>
       <r>   -2.1366    1.0000 </r>
       <r>   -2.1363    1.0000 </r>
       <r>   -2.1356    1.0000 </r>
       <r>   -2.1339    1.0000 </r>
       <r>   -2.1317    1.0000 </r>
       <r>   -1.9866    1.0000 </r>
       <r>   -1.9866    1.0000 </r>
       <r>   -1.9865    1.0000 </r>
       <r>   -1.9861    1.0000 </r>
       <r>   -1.9848    1.0000 </r>
       <r>   -1.9844    1.0000 </r>
       <r>   -1.9843    1.0000 </r>
       <r>   -1.9843    1.0000 </r>
       <r>   -1.8113    1.0000 </r>
       <r>   -1.8100    1.0000 </r>
       <r>   -1.8095    1.0000 </r>
       <r>   -1.8094    1.0000 </r>
       <r>   -1.8081    1.0000 </r>
       <r>   -1.8081    1.0000 </r>
       <r>   -1.8074    1.0000 </r>
       <r>   -1.8062    1.0000 </r>
       <r>   -1.4987    1.0000 </r>
       <r>   -1.4987    1.0000 </r>
       <r>   -1.4967    1.0000 </r>
       <r>   -1.4967    1.0000 </r>
       <r>   -1.3819    1.0000 </r>
       <r>   -1.3809    1.0000 </r>
       <r>   -1.3800    1.0000 </r>
       <r>   -1.3792    1.0000 </r>
       <r>   -1.2134    1.0000 </r>
       <r>   -1.2133    1.0000 </r>
       <r>   -1.2117    1.0000 </r>
       <r>   -1.2117    1.0000 </r>
       <r>   -1.1948    1.0000 </r>
       <r>   -1.1932    1.0000 </r>
       <r>   -1.1915    1.0000 </r>
       <r>   -1.1914    1.0000 </r>
       <r>   -1.1907    1.0000 </r>
       <r>   -1.1906    1.0000 </r>
       <r>   -1.1895    1.0000 </r>
       <r>   -1.1885    1.0000 </r>
       <r>   -1.1765    1.0000 </r>
       <r>   -1.1762    1.0000 </r>
       <r>   -1.1753    1.0000 </r>
       <r>   -1.1743    1.0000 </r>
       <r>   -1.1743    1.0000 </r>
       <r>   -1.1726    1.0000 </r>
       <r>   -1.1720    1.0000 </r>
       <r>   -1.1719    1.0000 </r>
       <r>   -1.1622    1.0000 </r>
       <r>   -1.1606    1.0000 </r>
       <r>   -1.1604    1.0000 </r>
       <r>   -1.1598    1.0000 </r>
       <r>   -1.1590    1.0000 </r>
       <r>   -1.1582    1.0000 </r>
       <r>   -1.1581    1.0000 </r>
       <r>   -1.1565    1.0000 </r>
       <r>   -1.0832    1.0000 </r>
       <r>   -1.0831    1.0000 </r>
       <r>   -0.9476    1.0000 </r>
       <r>   -0.9471    1.0000 </r>
       <r>   -0.9470    1.0000 </r>
       <r>   -0.9469    1.0000 </r>
       <r>   -0.9469    1.0000 </r>
       <r>   -0.9469    1.0000 </r>
       <r>   -0.9467    1.0000 </r>
       <r>   -0.9463    1.0000 </r>
       <r>   -0.9370    1.0000 </r>
       <r>   -0.9344    1.0000 </r>
       <r>   -0.9338    1.0000 </r>
       <r>   -0.9337    1.0000 </r>
       <r>   -0.9313    1.0000 </r>
       <r>   -0.9308    1.0000 </r>
       <r>   -0.9302    1.0000 </r>
       <r>   -0.9276    1.0000 </r>
       <r>   -0.7688    1.0000 </r>
       <r>   -0.7688    1.0000 </r>
       <r>   -0.7678    1.0000 </r>
       <r>   -0.7678    1.0000 </r>
       <r>    5.0206    0.0000 </r>
       <r>    5.0241    0.0000 </r>
       <r>    6.7115    0.0000 </r>
       <r>    6.7162    0.0000 </r>
       <r>    6.7163    0.0000 </r>
       <r>    6.7177    0.0000 </r>
       <r>    6.7190    0.0000 </r>
       <r>    6.7201    0.0000 </r>
       <r>    6.7204    0.0000 </r>
       <r>    6.7245    0.0000 </r>
       <r>    6.8414    0.0000 </r>
       <r>    6.8415    0.0000 </r>
       <r>    6.8416    0.0000 </r>
       <r>    6.8422    0.0000 </r>
       <r>    6.8442    0.0000 </r>
       <r>    6.8447    0.0000 </r>
       <r>    6.8452    0.0000 </r>
       <r>    6.8452    0.0000 </r>
       <r>    6.9698    0.0000 </r>
       <r>    6.9726    0.0000 </r>
       <r>    7.3596    0.0000 </r>
       <r>    7.3624    0.0000 </r>
       <r>    7.3628    0.0000 </r>
       <r>    7.3655    0.0000 </r>
       <r>    7.4788    0.0000 </r>
       <r>    7.4817    0.0000 </r>
       <r>    7.7140    0.0000 </r>
       <r>    7.7140    0.0000 </r>
       <r>    7.7152    0.0000 </r>
       <r>    7.7153    0.0000 </r>
       <r>    8.2575    0.0000 </r>
       <r>    8.2644    0.0000 </r>
       <r>    8.2648    0.0000 </r>
       <r>    8.2656    0.0000 </r>
       <r>    8.2659    0.0000 </r>
       <r>    8.2669    0.0000 </r>
       <r>    8.2673    0.0000 </r>
       <r>    8.2734    0.0000 </r>
       <r>    8.5294    0.0000 </r>
       <r>    8.5301    0.0000 </r>
       <r>    8.5330    0.0000 </r>
       <r>    8.5354    0.0000 </r>
       <r>    8.5376    0.0000 </r>
       <r>    8.5379    0.0000 </r>
       <r>    8.5383    0.0000 </r>
       <r>    8.5383    0.0000 </r>
       <r>    8.5387    0.0000 </r>
       <r>    8.5387    0.0000 </r>
       <r>    8.5388    0.0000 </r>
       <r>    8.5398    0.0000 </r>
       <r>    8.5420    0.0000 </r>
       <r>    8.5444    0.0000 </r>
       <r>    8.5472    0.0000 </r>
       <r>    8.5477    0.0000 </r>
       <r>    8.9478    0.0000 </r>
       <r>    8.9485    0.0000 </r>
       <r>    8.9491    0.0000 </r>
       <r>    8.9498    0.0000 </r>
       <r>    8.9521    0.0000 </r>
       <r>    8.9529    0.0000 </r>
       <r>    8.9535    0.0000 </r>
       <r>    8.9540    0.0000 </r>
       <r>    9.4932    0.0000 </r>
       <r>    9.5013    0.0000 </r>
      </set>
      <set comment="kpoint 3">
       <r>  -21.3038    1.0000 </r>
       <r>  -21.3035    1.0000 </r>
       <r>  -21.3034    1.0000 </r>
       <r>  -21.2993    1.0000 </r>
       <r>  -21.2993    1.0000 </r>
       <r>  -21.2993    1.0000 </r>
       <r>  -21.2992    1.0000 </r>
       <r>  -21.2992    1.0000 </r>
       <r>  -21.2962    1.0000 </r>
       <r>  -21.2947    1.0000 </r>
       <r>  -21.2943    1.0000 </r>
       <r>  -21.2918    1.0000 </r>
       <r>  -21.2917    1.0000 </r>
       <r>  -21.2914    1.0000 </r>
       <r>  -21.2911    1.0000 </r>
       <r>  -21.2909    1.0000 </r>
       <r>  -21.2906    1.0000 </r>
       <r>  -21.2906    1.0000 </r>
       <r>  -21.2905    1.0000 </r>
       <r>  -21.2904    1.0000 </r>
       <r>  -21.2903    1.0000 </r>
       <r>  -21.2897    1.0000 </r>
       <r>  -21.2897    1.0000 </r>
       <r>  -21.2896    1.0000 </r>
       <r>  -21.2889    1.0000 </r>
       <r>  -21.2886    1.0000 </r>
       <r>  -21.2885    1.0000 </r>
       <r>  -21.2881    1.0000 </r>
       <r>  -21.2881    1.0000 </r>
       <r>  -21.2870    1.0000 </r>
       <r>  -21.2842    1.0000 </r>
       <r>  -21.2840    1.0000 </r>
       <r>  -21.2840    1.0000 </r>
       <r>  -21.2840    1.0000 </r>
       <r>  -21.2840    1.0000 </r>
       <r>  -21.2839    1.0000 </r>
       <r>  -21.2838    1.0000 </r>
       <r>  -21.2830    1.0000 </r>
       <r>  -21.2830    1.0000 </r>
       <r>  -21.2818    1.0000 </r>
       <r>  -21.2812    1.0000 </r>
       <r>  -21.2808    1.0000 </r>
       <r>  -21.2807    1.0000 </r>
       <r>  -21.2804    1.0000 </r>
       <r>  -21.2802    1.0000 </r>
       <r>  -21.2801    1.0000 </r>
       <r>  -21.2792    1.0000 </r>
       <r>  -21.2790    1.0000 </r>
       <r>  -21.2778    1.0000 </r>
       <r>  -21.2775    1.0000 </r>
       <r>  -21.2774    1.0000 </r>
       <r>  -21.2773    1.0000 </r>
       <r>  -21.2773    1.0000 </r>
       <r>  -21.2766    1.0000 </r>
       <r>  -21.2762    1.0000 </r>
       <r>  -21.2760    1.0000 </r>
       <r>  -21.2759    1.0000 </r>
       <r>  -21.2758    1.0000 </r>
       <r>  -21.2758    1.0000 </r>
       <r>  -21.2758    1.0000 </r>
       <r>  -21.2758    1.0000 </r>
       <r>  -21.2756    1.0000 </r>
       <r>  -21.2755    1.0000 </r>
       <r>  -21.2752    1.0000 </r>
       <r>  -21.2750    1.0000 </r>
       <r>  -21.2750    1.0000 </r>
       <r>  -21.2748    1.0000 </r>
       <r>  -21.2748    1.0000 </r>
       <r>  -21.2748    1.0000 </r>
       <r>  -21.2747    1.0000 </r>
       <r>  -21.2747    1.0000 </r>
       <r>  -21.2741    1.0000 </r>
       <r>  -21.2737    1.0000 </r>
       <r>  -21.2735    1.0000 </r>
       <r>  -21.2734    1.0000 </r>
       <r>  -21.2731    1.0000 </r>
       <r>  -21.2730    1.0000 </r>
       <r>  -21.2727    1.0000 </r>
       <r>  -21.2725    1.0000 </r>
       <r>  -21.2722    1.0000 </r>
       <r>  -21.2722    1.0000 </r>
       <r>  -21.2722    1.0000 </r>
       <r>  -21.2719    1.0000 </r>
       <r>  -21.2718    1.0000 </r>
       <r>  -21.2717    1.0000 </r>
       <r>  -21.2716    1.0000 </r>
       <r>  -21.2716    1.0000 </r>
       <r>  -21.2712    1.0000 </r>
       <r>  -21.2712    1.0000 </r>
       <r>  -21.2707    1.0000 </r>
       <r>  -21.2705    1.0000 </r>
       <r>  -21.2702    1.0000 </r>
       <r>  -21.2702    1.0000 </r>
       <r>  -21.2611    1.0000 </r>
       <r>  -21.2609    1.0000 </r>
       <r>  -21.2604    1.0000 </r>
       <r>  -13.2914    1.0000 </r>
       <r>  -13.2911    1.0000 </r>
       <r>  -13.1037    1.0000 </r>
       <r>  -13.0983    1.0000 </r>
       <r>  -13.0969    1.0000 </r>
       <r>  -13.0969    1.0000 </r>
       <r>  -13.0968    1.0000 </r>
       <r>  -13.0968    1.0000 </r>
       <r>  -13.0954    1.0000 </r>
       <r>  -13.0909    1.0000 </r>
       <r>  -13.0058    1.0000 </r>
       <r>  -13.0015    1.0000 </r>
       <r>  -13.0011    1.0000 </r>
       <r>  -13.0006    1.0000 </r>
       <r>  -13.0006    1.0000 </r>
       <r>  -13.0006    1.0000 </r>
       <r>  -13.0006    1.0000 </r>
       <r>  -12.9998    1.0000 </r>
       <r>  -12.9951    1.0000 </r>
       <r>  -12.9913    1.0000 </r>
       <r>  -12.9499    1.0000 </r>
       <r>  -12.9453    1.0000 </r>
       <r>  -12.9438    1.0000 </r>
       <r>  -12.9438    1.0000 </r>
       <r>  -12.9437    1.0000 </r>
       <r>  -12.9436    1.0000 </r>
       <r>  -12.9423    1.0000 </r>
       <r>  -12.9377    1.0000 </r>
       <r>  -12.9312    1.0000 </r>
       <r>  -12.9311    1.0000 </r>
       <r>  -12.9310    1.0000 </r>
       <r>  -12.9291    1.0000 </r>
       <r>   -2.5052    1.0000 </r>
       <r>   -2.5049    1.0000 </r>
       <r>   -2.5049    1.0000 </r>
       <r>   -2.5046    1.0000 </r>
       <r>   -2.5042    1.0000 </r>
       <r>   -2.5039    1.0000 </r>
       <r>   -2.5037    1.0000 </r>
       <r>   -2.5036    1.0000 </r>
       <r>   -2.2877    1.0000 </r>
       <r>   -2.2876    1.0000 </r>
       <r>   -2.2876    1.0000 </r>
       <r>   -2.2875    1.0000 </r>
       <r>   -2.2741    1.0000 </r>
       <r>   -2.2741    1.0000 </r>
       <r>   -2.1411    1.0000 </r>
       <r>   -2.1368    1.0000 </r>
       <r>   -2.1365    1.0000 </r>
       <r>   -2.1364    1.0000 </r>
       <r>   -2.1364    1.0000 </r>
       <r>   -2.1364    1.0000 </r>
       <r>   -2.1360    1.0000 </r>
       <r>   -2.1318    1.0000 </r>
       <r>   -1.9868    1.0000 </r>
       <r>   -1.9868    1.0000 </r>
       <r>   -1.9857    1.0000 </r>
       <r>   -1.9856    1.0000 </r>
       <r>   -1.9854    1.0000 </r>
       <r>   -1.9854    1.0000 </r>
       <r>   -1.9841    1.0000 </r>
       <r>   -1.9840    1.0000 </r>
       <r>   -1.8125    1.0000 </r>
       <r>   -1.8089    1.0000 </r>
       <r>   -1.8088    1.0000 </r>
       <r>   -1.8087    1.0000 </r>
       <r>   -1.8087    1.0000 </r>
       <r>   -1.8086    1.0000 </r>
       <r>   -1.8085    1.0000 </r>
       <r>   -1.8048    1.0000 </r>
       <r>   -1.4978    1.0000 </r>
       <r>   -1.4978    1.0000 </r>
       <r>   -1.4977    1.0000 </r>
       <r>   -1.4977    1.0000 </r>
       <r>   -1.3806    1.0000 </r>
       <r>   -1.3805    1.0000 </r>
       <r>   -1.3804    1.0000 </r>
       <r>   -1.3804    1.0000 </r>
       <r>   -1.2127    1.0000 </r>
       <r>   -1.2124    1.0000 </r>
       <r>   -1.2124    1.0000 </r>
       <r>   -1.2122    1.0000 </r>
       <r>   -1.1928    1.0000 </r>
       <r>   -1.1927    1.0000 </r>
       <r>   -1.1918    1.0000 </r>
       <r>   -1.1912    1.0000 </r>
       <r>   -1.1911    1.0000 </r>
       <r>   -1.1909    1.0000 </r>
       <r>   -1.1898    1.0000 </r>
       <r>   -1.1894    1.0000 </r>
       <r>   -1.1771    1.0000 </r>
       <r>   -1.1750    1.0000 </r>
       <r>   -1.1743    1.0000 </r>
       <r>   -1.1742    1.0000 </r>
       <r>   -1.1742    1.0000 </r>
       <r>   -1.1742    1.0000 </r>
       <r>   -1.1740    1.0000 </r>
       <r>   -1.1716    1.0000 </r>
       <r>   -1.1619    1.0000 </r>
       <r>   -1.1599    1.0000 </r>
       <r>   -1.1597    1.0000 </r>
       <r>   -1.1597    1.0000 </r>
       <r>   -1.1596    1.0000 </r>
       <r>   -1.1591    1.0000 </r>
       <r>   -1.1582    1.0000 </r>
       <r>   -1.1559    1.0000 </r>
       <r>   -1.0833    1.0000 </r>
       <r>   -1.0829    1.0000 </r>
       <r>   -0.9484    1.0000 </r>
       <r>   -0.9469    1.0000 </r>
       <r>   -0.9469    1.0000 </r>
       <r>   -0.9469    1.0000 </r>
       <r>   -0.9469    1.0000 </r>
       <r>   -0.9468    1.0000 </r>
       <r>   -0.9467    1.0000 </r>
       <r>   -0.9458    1.0000 </r>
       <r>   -0.9376    1.0000 </r>
       <r>   -0.9339    1.0000 </r>
       <r>   -0.9325    1.0000 </r>
       <r>   -0.9325    1.0000 </r>
       <r>   -0.9323    1.0000 </r>
       <r>   -0.9323    1.0000 </r>
       <r>   -0.9307    1.0000 </r>
       <r>   -0.9273    1.0000 </r>
       <r>   -0.7684    1.0000 </r>
       <r>   -0.7684    1.0000 </r>
       <r>   -0.7682    1.0000 </r>
       <r>   -0.7681    1.0000 </r>
       <r>    5.0223    0.0000 </r>
       <r>    5.0224    0.0000 </r>
       <r>    6.7089    0.0000 </r>
       <r>    6.7164    0.0000 </r>
       <r>    6.7182    0.0000 </r>
       <r>    6.7183    0.0000 </r>
       <r>    6.7184    0.0000 </r>
       <r>    6.7184    0.0000 </r>
       <r>    6.7203    0.0000 </r>
       <r>    6.7268    0.0000 </r>
       <r>    6.8401    0.0000 </r>
       <r>    6.8402    0.0000 </r>
       <r>    6.8423    0.0000 </r>
       <r>    6.8424    0.0000 </r>
       <r>    6.8440    0.0000 </r>
       <r>    6.8442    0.0000 </r>
       <r>    6.8463    0.0000 </r>
       <r>    6.8464    0.0000 </r>
       <r>    6.9711    0.0000 </r>
       <r>    6.9712    0.0000 </r>
       <r>    7.3625    0.0000 </r>
       <r>    7.3625    0.0000 </r>
       <r>    7.3626    0.0000 </r>
       <r>    7.3627    0.0000 </r>
       <r>    7.4802    0.0000 </r>
       <r>    7.4804    0.0000 </r>
       <r>    7.7146    0.0000 </r>
       <r>    7.7146    0.0000 </r>
       <r>    7.7146    0.0000 </r>
       <r>    7.7147    0.0000 </r>
       <r>    8.2595    0.0000 </r>
       <r>    8.2642    0.0000 </r>
       <r>    8.2657    0.0000 </r>
       <r>    8.2658    0.0000 </r>
       <r>    8.2659    0.0000 </r>
       <r>    8.2660    0.0000 </r>
       <r>    8.2675    0.0000 </r>
       <r>    8.2722    0.0000 </r>
       <r>    8.5283    0.0000 </r>
       <r>    8.5312    0.0000 </r>
       <r>    8.5332    0.0000 </r>
       <r>    8.5346    0.0000 </r>
       <r>    8.5371    0.0000 </r>
       <r>    8.5374    0.0000 </r>
       <r>    8.5382    0.0000 </r>
       <r>    8.5382    0.0000 </r>
       <r>    8.5387    0.0000 </r>
       <r>    8.5388    0.0000 </r>
       <r>    8.5397    0.0000 </r>
       <r>    8.5397    0.0000 </r>
       <r>    8.5429    0.0000 </r>
       <r>    8.5435    0.0000 </r>
       <r>    8.5461    0.0000 </r>
       <r>    8.5484    0.0000 </r>
       <r>    8.9414    0.0000 </r>
       <r>    8.9500    0.0000 </r>
       <r>    8.9509    0.0000 </r>
       <r>    8.9509    0.0000 </r>
       <r>    8.9509    0.0000 </r>
       <r>    8.9509    0.0000 </r>
       <r>    8.9518    0.0000 </r>
       <r>    8.9606    0.0000 </r>
       <r>    9.4975    0.0000 </r>
       <r>    9.5232    0.0000 </r>
      </set>
      <set comment="kpoint 4">
       <r>  -21.3039    1.0000 </r>
       <r>  -21.3038    1.0000 </r>
       <r>  -21.3031    1.0000 </r>
       <r>  -21.2994    1.0000 </r>
       <r>  -21.2993    1.0000 </r>
       <r>  -21.2993    1.0000 </r>
       <r>  -21.2992    1.0000 </r>
       <r>  -21.2992    1.0000 </r>
       <r>  -21.2959    1.0000 </r>
       <r>  -21.2949    1.0000 </r>
       <r>  -21.2936    1.0000 </r>
       <r>  -21.2920    1.0000 </r>
       <r>  -21.2915    1.0000 </r>
       <r>  -21.2912    1.0000 </r>
       <r>  -21.2912    1.0000 </r>
       <r>  -21.2912    1.0000 </r>
       <r>  -21.2911    1.0000 </r>
       <r>  -21.2910    1.0000 </r>
       <r>  -21.2909    1.0000 </r>
       <r>  -21.2904    1.0000 </r>
       <r>  -21.2900    1.0000 </r>
       <r>  -21.2896    1.0000 </r>
       <r>  -21.2893    1.0000 </r>
       <r>  -21.2891    1.0000 </r>
       <r>  -21.2887    1.0000 </r>
       <r>  -21.2884    1.0000 </r>
       <r>  -21.2883    1.0000 </r>
       <r>  -21.2881    1.0000 </r>
       <r>  -21.2879    1.0000 </r>
       <r>  -21.2872    1.0000 </r>
       <r>  -21.2854    1.0000 </r>
       <r>  -21.2841    1.0000 </r>
       <r>  -21.2841    1.0000 </r>
       <r>  -21.2840    1.0000 </r>
       <r>  -21.2840    1.0000 </r>
       <r>  -21.2840    1.0000 </r>
       <r>  -21.2839    1.0000 </r>
       <r>  -21.2839    1.0000 </r>
       <r>  -21.2823    1.0000 </r>
       <r>  -21.2815    1.0000 </r>
       <r>  -21.2815    1.0000 </r>
       <r>  -21.2808    1.0000 </r>
       <r>  -21.2802    1.0000 </r>
       <r>  -21.2802    1.0000 </r>
       <r>  -21.2801    1.0000 </r>
       <r>  -21.2800    1.0000 </r>
       <r>  -21.2791    1.0000 </r>
       <r>  -21.2790    1.0000 </r>
       <r>  -21.2776    1.0000 </r>
       <r>  -21.2776    1.0000 </r>
       <r>  -21.2771    1.0000 </r>
       <r>  -21.2771    1.0000 </r>
       <r>  -21.2770    1.0000 </r>
       <r>  -21.2765    1.0000 </r>
       <r>  -21.2764    1.0000 </r>
       <r>  -21.2764    1.0000 </r>
       <r>  -21.2761    1.0000 </r>
       <r>  -21.2761    1.0000 </r>
       <r>  -21.2760    1.0000 </r>
       <r>  -21.2758    1.0000 </r>
       <r>  -21.2758    1.0000 </r>
       <r>  -21.2757    1.0000 </r>
       <r>  -21.2754    1.0000 </r>
       <r>  -21.2754    1.0000 </r>
       <r>  -21.2751    1.0000 </r>
       <r>  -21.2748    1.0000 </r>
       <r>  -21.2748    1.0000 </r>
       <r>  -21.2748    1.0000 </r>
       <r>  -21.2747    1.0000 </r>
       <r>  -21.2747    1.0000 </r>
[...]
      </set>
     </set>
    </set>
   </array>
  </eigenvalues>
  <separator name="orbital magnetization" >
   <v name="MAGDIPOLOUT">      0.00000000      0.00000000      0.00000000</v>
  </separator>
  <dos>
   <i name="efermi">     -0.55016520 </i>
   <total>
    <array>
     <dimension dim="1">gridpoints</dimension>
     <dimension dim="2">spin</dimension>
     <field>energy</field>
     <field>total</field>
     <field>integrated</field>
     <set>
      <set comment="spin 1">
       <r>   -22.8471     0.0000     0.0000 </r>
       <r>   -22.7341     0.0000     0.0000 </r>
       <r>   -22.6210     0.0000     0.0000 </r>
       <r>   -22.5080     0.0000     0.0000 </r>
       <r>   -22.3950     0.0000     0.0000 </r>
       <r>   -22.2819     0.0000     0.0000 </r>
       <r>   -22.1689     0.0000     0.0000 </r>
       <r>   -22.0558     0.0000     0.0000 </r>
       <r>   -21.9428     0.0000     0.0000 </r>
       <r>   -21.8298     0.0000     0.0000 </r>
       <r>   -21.7167     0.0000     0.0000 </r>
       <r>   -21.6037     0.0000     0.0000 </r>
       <r>   -21.4906     0.0000     0.0000 </r>
       <r>   -21.3776     0.0000     0.0000 </r>
       <r>   -21.2646  1414.7278   159.9195 </r>
       <r>   -21.1515   283.8006   192.0000 </r>
       <r>   -21.0385     0.0000   192.0000 </r>
       <r>   -20.9254     0.0000   192.0000 </r>
       <r>   -20.8124     0.0000   192.0000 </r>
       <r>   -20.6994     0.0000   192.0000 </r>
       <r>   -20.5863     0.0000   192.0000 </r>
       <r>   -20.4733     0.0000   192.0000 </r>
       <r>   -20.3603     0.0000   192.0000 </r>
       <r>   -20.2472     0.0000   192.0000 </r>
       <r>   -20.1342     0.0000   192.0000 </r>
       <r>   -20.0211     0.0000   192.0000 </r>
       <r>   -19.9081     0.0000   192.0000 </r>
       <r>   -19.7951     0.0000   192.0000 </r>
       <r>   -19.6820     0.0000   192.0000 </r>
       <r>   -19.5690     0.0000   192.0000 </r>
       <r>   -19.4559     0.0000   192.0000 </r>
       <r>   -19.3429     0.0000   192.0000 </r>
       <r>   -19.2299     0.0000   192.0000 </r>
       <r>   -19.1168     0.0000   192.0000 </r>
       <r>   -19.0038     0.0000   192.0000 </r>
       <r>   -18.8907     0.0000   192.0000 </r>
       <r>   -18.7777     0.0000   192.0000 </r>
       <r>   -18.6647     0.0000   192.0000 </r>
       <r>   -18.5516     0.0000   192.0000 </r>
       <r>   -18.4386     0.0000   192.0000 </r>
       <r>   -18.3256     0.0000   192.0000 </r>
       <r>   -18.2125     0.0000   192.0000 </r>
       <r>   -18.0995     0.0000   192.0000 </r>
       <r>   -17.9864     0.0000   192.0000 </r>
       <r>   -17.8734     0.0000   192.0000 </r>
       <r>   -17.7604     0.0000   192.0000 </r>
       <r>   -17.6473     0.0000   192.0000 </r>
       <r>   -17.5343     0.0000   192.0000 </r>
       <r>   -17.4212     0.0000   192.0000 </r>
       <r>   -17.3082     0.0000   192.0000 </r>
       <r>   -17.1952     0.0000   192.0000 </r>
       <r>   -17.0821     0.0000   192.0000 </r>
       <r>   -16.9691     0.0000   192.0000 </r>
       <r>   -16.8560     0.0000   192.0000 </r>
       <r>   -16.7430     0.0000   192.0000 </r>
       <r>   -16.6300     0.0000   192.0000 </r>
       <r>   -16.5169     0.0000   192.0000 </r>
       <r>   -16.4039     0.0000   192.0000 </r>
       <r>   -16.2908     0.0000   192.0000 </r>
       <r>   -16.1778     0.0000   192.0000 </r>
       <r>   -16.0648     0.0000   192.0000 </r>
       <r>   -15.9517     0.0000   192.0000 </r>
       <r>   -15.8387     0.0000   192.0000 </r>
       <r>   -15.7257     0.0000   192.0000 </r>
       <r>   -15.6126     0.0000   192.0000 </r>
       <r>   -15.4996     0.0000   192.0000 </r>
       <r>   -15.3865     0.0000   192.0000 </r>
       <r>   -15.2735     0.0000   192.0000 </r>
       <r>   -15.1605     0.0000   192.0000 </r>
       <r>   -15.0474     0.0000   192.0000 </r>
       <r>   -14.9344     0.0000   192.0000 </r>
       <r>   -14.8213     0.0000   192.0000 </r>
       <r>   -14.7083     0.0000   192.0000 </r>
       <r>   -14.5953     0.0000   192.0000 </r>
       <r>   -14.4822     0.0000   192.0000 </r>
       <r>   -14.3692     0.0000   192.0000 </r>
       <r>   -14.2561     0.0000   192.0000 </r>
       <r>   -14.1431     0.0000   192.0000 </r>
       <r>   -14.0301     0.0000   192.0000 </r>
       <r>   -13.9170     0.0000   192.0000 </r>
       <r>   -13.8040     0.0000   192.0000 </r>
       <r>   -13.6910     0.0000   192.0000 </r>
       <r>   -13.5779     0.0000   192.0000 </r>
       <r>   -13.4649     0.0000   192.0000 </r>
       <r>   -13.3518     1.4779   192.1671 </r>
       <r>   -13.2388    22.2088   194.6775 </r>
       <r>   -13.1258    47.7790   200.0786 </r>
       <r>   -13.0127   133.0023   215.1132 </r>
       <r>   -12.8997   359.9243   255.7994 </r>
       <r>   -12.7866     1.7701   256.0000 </r>
       <r>   -12.6736     0.0000   256.0000 </r>
       <r>   -12.5606     0.0000   256.0000 </r>
       <r>   -12.4475     0.0000   256.0000 </r>
       <r>   -12.3345     0.0000   256.0000 </r>
       <r>   -12.2214     0.0000   256.0000 </r>
       <r>   -12.1084     0.0000   256.0000 </r>
       <r>   -11.9954     0.0000   256.0000 </r>
       <r>   -11.8823     0.0000   256.0000 </r>
       <r>   -11.7693     0.0000   256.0000 </r>
       <r>   -11.6562     0.0000   256.0000 </r>
       <r>   -11.5432     0.0000   256.0000 </r>
       <r>   -11.4302     0.0000   256.0000 </r>
       <r>   -11.3171     0.0000   256.0000 </r>
       <r>   -11.2041     0.0000   256.0000 </r>
       <r>   -11.0911     0.0000   256.0000 </r>
       <r>   -10.9780     0.0000   256.0000 </r>
       <r>   -10.8650     0.0000   256.0000 </r>
       <r>   -10.7519     0.0000   256.0000 </r>
       <r>   -10.6389     0.0000   256.0000 </r>
       <r>   -10.5259     0.0000   256.0000 </r>
       <r>   -10.4128     0.0000   256.0000 </r>
       <r>   -10.2998     0.0000   256.0000 </r>
       <r>   -10.1867     0.0000   256.0000 </r>
       <r>   -10.0737     0.0000   256.0000 </r>
       <r>    -9.9607     0.0000   256.0000 </r>
       <r>    -9.8476     0.0000   256.0000 </r>
       <r>    -9.7346     0.0000   256.0000 </r>
       <r>    -9.6215     0.0000   256.0000 </r>
       <r>    -9.5085     0.0000   256.0000 </r>
       <r>    -9.3955     0.0000   256.0000 </r>
       <r>    -9.2824     0.0000   256.0000 </r>
       <r>    -9.1694     0.0000   256.0000 </r>
       <r>    -9.0564     0.0000   256.0000 </r>
       <r>    -8.9433     0.0000   256.0000 </r>
       <r>    -8.8303     0.0000   256.0000 </r>
       <r>    -8.7172     0.0000   256.0000 </r>
       <r>    -8.6042     0.0000   256.0000 </r>
       <r>    -8.4912     0.0000   256.0000 </r>
       <r>    -8.3781     0.0000   256.0000 </r>
       <r>    -8.2651     0.0000   256.0000 </r>
       <r>    -8.1520     0.0000   256.0000 </r>
       <r>    -8.0390     0.0000   256.0000 </r>
       <r>    -7.9260     0.0000   256.0000 </r>
       <r>    -7.8129     0.0000   256.0000 </r>
       <r>    -7.6999     0.0000   256.0000 </r>
       <r>    -7.5868     0.0000   256.0000 </r>
       <r>    -7.4738     0.0000   256.0000 </r>
       <r>    -7.3608     0.0000   256.0000 </r>
       <r>    -7.2477     0.0000   256.0000 </r>
       <r>    -7.1347     0.0000   256.0000 </r>
       <r>    -7.0216     0.0000   256.0000 </r>
       <r>    -6.9086     0.0000   256.0000 </r>
       <r>    -6.7956     0.0000   256.0000 </r>
       <r>    -6.6825     0.0000   256.0000 </r>
       <r>    -6.5695     0.0000   256.0000 </r>
       <r>    -6.4565     0.0000   256.0000 </r>
       <r>    -6.3434     0.0000   256.0000 </r>
       <r>    -6.2304     0.0000   256.0000 </r>
       <r>    -6.1173     0.0000   256.0000 </r>
       <r>    -6.0043     0.0000   256.0000 </r>
       <r>    -5.8913     0.0000   256.0000 </r>
       <r>    -5.7782     0.0000   256.0000 </r>
       <r>    -5.6652     0.0000   256.0000 </r>
       <r>    -5.5521     0.0000   256.0000 </r>
       <r>    -5.4391     0.0000   256.0000 </r>
       <r>    -5.3261     0.0000   256.0000 </r>
       <r>    -5.2130     0.0000   256.0000 </r>
       <r>    -5.1000     0.0000   256.0000 </r>
       <r>    -4.9869     0.0000   256.0000 </r>
       <r>    -4.8739     0.0000   256.0000 </r>
       <r>    -4.7609     0.0000   256.0000 </r>
       <r>    -4.6478     0.0000   256.0000 </r>
       <r>    -4.5348     0.0000   256.0000 </r>
       <r>    -4.4218     0.0000   256.0000 </r>
       <r>    -4.3087     0.0000   256.0000 </r>
       <r>    -4.1957     0.0000   256.0000 </r>
       <r>    -4.0826     0.0000   256.0000 </r>
       <r>    -3.9696     0.0000   256.0000 </r>
       <r>    -3.8566     0.0000   256.0000 </r>
       <r>    -3.7435     0.0000   256.0000 </r>
       <r>    -3.6305     0.0000   256.0000 </r>
       <r>    -3.5174     0.0000   256.0000 </r>
       <r>    -3.4044     0.0000   256.0000 </r>
       <r>    -3.2914     0.0000   256.0000 </r>
       <r>    -3.1783     0.0000   256.0000 </r>
       <r>    -3.0653     0.0000   256.0000 </r>
       <r>    -2.9522     0.0000   256.0000 </r>
       <r>    -2.8392     0.0000   256.0000 </r>
       <r>    -2.7262     0.2836   256.0321 </r>
       <r>    -2.6131     8.5629   257.0000 </r>
       <r>    -2.5001    32.8322   260.7113 </r>
       <r>    -2.3870    78.1005   269.5397 </r>
       <r>    -2.2740    87.2233   279.3994 </r>
       <r>    -2.1610   152.3773   296.6245 </r>
       <r>    -2.0479    67.4593   304.2500 </r>
       <r>    -1.9349    59.3714   310.9613 </r>
       <r>    -1.8219    67.9011   318.6379 </r>
       <r>    -1.7088    62.9174   325.7500 </r>
       <r>    -1.5958     0.0000   325.7500 </r>
       <r>    -1.4827    92.4619   336.2018 </r>
       <r>    -1.3697   179.7659   356.5224 </r>
       <r>    -1.2567    20.6213   358.8534 </r>
       <r>    -1.1436   263.5032   388.6395 </r>
       <r>    -1.0306   130.9290   403.4412 </r>
       <r>    -0.9175   263.2964   433.2041 </r>
       <r>    -0.8045    58.8112   439.8524 </r>
       <r>    -0.6915    65.6329   447.2714 </r>
       <r>    -0.5784     6.4394   448.0000 </r>
       <r>    -0.4654     0.0000   448.0000 </r>
       <r>    -0.3523     0.0000   448.0000 </r>
       <r>    -0.2393     0.0000   448.0000 </r>
       <r>    -0.1263     0.0000   448.0000 </r>
       <r>    -0.0132     0.0000   448.0000 </r>
       <r>     0.0998     0.0000   448.0000 </r>
       <r>     0.2128     0.0000   448.0000 </r>
       <r>     0.3259     0.0000   448.0000 </r>
       <r>     0.4389     0.0000   448.0000 </r>
       <r>     0.5520     0.0000   448.0000 </r>
       <r>     0.6650     0.0000   448.0000 </r>
       <r>     0.7780     0.0000   448.0000 </r>
       <r>     0.8911     0.0000   448.0000 </r>
       <r>     1.0041     0.0000   448.0000 </r>
       <r>     1.1172     0.0000   448.0000 </r>
       <r>     1.2302     0.0000   448.0000 </r>
       <r>     1.3432     0.0000   448.0000 </r>
       <r>     1.4563     0.0000   448.0000 </r>
       <r>     1.5693     0.0000   448.0000 </r>
       <r>     1.6824     0.0000   448.0000 </r>
       <r>     1.7954     0.0000   448.0000 </r>
       <r>     1.9084     0.0000   448.0000 </r>
       <r>     2.0215     0.0000   448.0000 </r>
       <r>     2.1345     0.0000   448.0000 </r>
       <r>     2.2476     0.0000   448.0000 </r>
       <r>     2.3606     0.0000   448.0000 </r>
       <r>     2.4736     0.0000   448.0000 </r>
       <r>     2.5867     0.0000   448.0000 </r>
       <r>     2.6997     0.0000   448.0000 </r>
       <r>     2.8127     0.0000   448.0000 </r>
       <r>     2.9258     0.0000   448.0000 </r>
       <r>     3.0388     0.0000   448.0000 </r>
       <r>     3.1519     0.0000   448.0000 </r>
       <r>     3.2649     0.0000   448.0000 </r>
       <r>     3.3779     0.0000   448.0000 </r>
       <r>     3.4910     0.0000   448.0000 </r>
       <r>     3.6040     0.0000   448.0000 </r>
       <r>     3.7171     0.0000   448.0000 </r>
       <r>     3.8301     0.0000   448.0000 </r>
       <r>     3.9431     0.0000   448.0000 </r>
       <r>     4.0562     0.0000   448.0000 </r>
       <r>     4.1692     0.0000   448.0000 </r>
       <r>     4.2823     0.0000   448.0000 </r>
       <r>     4.3953     2.2115   448.2500 </r>
       <r>     4.5083     0.0000   448.2500 </r>
       <r>     4.6214     0.0000   448.2500 </r>
       <r>     4.7344     0.0000   448.2500 </r>
       <r>     4.8474     0.0000   448.2500 </r>
       <r>     4.9605     0.0001   448.2500 </r>
       <r>     5.0735    13.2676   449.7498 </r>
       <r>     5.1866     0.0000   449.7500 </r>
       <r>     5.2996     0.0000   449.7500 </r>
       <r>     5.4126     0.0000   449.7500 </r>
       <r>     5.5257     4.4571   450.2538 </r>
       <r>     5.6387    22.0824   452.7500 </r>
       <r>     5.7518     0.0000   452.7500 </r>
       <r>     5.8648    17.5026   454.7285 </r>
       <r>     5.9778     0.1905   454.7500 </r>
       <r>     6.0909     0.0000   454.7500 </r>
       <r>     6.2039     0.0000   454.7500 </r>
       <r>     6.3170     0.0030   454.7503 </r>
       <r>     6.4300    14.5851   456.3990 </r>
       <r>     6.5430     7.5280   457.2500 </r>
       <r>     6.6561    46.7853   462.5386 </r>
       <r>     6.7691    59.3590   469.2485 </r>
       <r>     6.8822    59.5460   475.9803 </r>
       <r>     6.9952    12.8469   477.4325 </r>
       <r>     7.1082     0.5971   477.5000 </r>
       <r>     7.2213     5.6118   478.1344 </r>
       <r>     7.3343     1.6401   478.3198 </r>
       <r>     7.4473    83.3979   487.7470 </r>
       <r>     7.5604   166.8880   506.6128 </r>
       <r>     7.6734     1.2614   506.7554 </r>
       <r>     7.7865    26.4920   509.7500 </r>
       <r>     7.8995     0.4274   509.7983 </r>
       <r>     8.0125    52.6516   515.7500 </r>
       <r>     8.1256     0.0201   515.7523 </r>
       <r>     8.2386    14.9066   517.4373 </r>
       <r>     8.3517    91.2290   527.7497 </r>
       <r>     8.4647     0.0000   527.7500 </r>
       <r>     8.5777   153.5977   545.1125 </r>
       <r>     8.6908     5.6367   545.7500 </r>
       <r>     8.8038     0.0000   545.7500 </r>
       <r>     8.9169    88.0931   555.7080 </r>
       <r>     9.0299   120.0858   569.2823 </r>
       <r>     9.1429     1.9256   569.5000 </r>
       <r>     9.2560    26.4006   572.4843 </r>
       <r>     9.3690    15.6800   574.2568 </r>
       <r>     9.4820     3.9460   574.7028 </r>
       <r>     9.5951    11.4756   576.0000 </r>
       <r>     9.7081     0.0000   576.0000 </r>
       <r>     9.8212     0.0000   576.0000 </r>
       <r>     9.9342     0.0000   576.0000 </r>
       <r>    10.0472     0.0000   576.0000 </r>
       <r>    10.1603     0.0000   576.0000 </r>
       <r>    10.2733     0.0000   576.0000 </r>
       <r>    10.3864     0.0000   576.0000 </r>
       <r>    10.4994     0.0000   576.0000 </r>
       <r>    10.6124     0.0000   576.0000 </r>
       <r>    10.7255     0.0000   576.0000 </r>
       <r>    10.8385     0.0000   576.0000 </r>
       <r>    10.9516     0.0000   576.0000 </r>
       <r>    11.0646     0.0000   576.0000 </r>
      </set>
     </set>
    </array>
   </total>
  </dos>
 </calculation>
 <structure name="finalpos" >
  <crystal>
   <varray name="basis" >
    <v>      11.20400236       0.00000000       0.00000000 </v>
    <v>       0.00000000      11.20400236       0.00000000 </v>
    <v>       0.00000000       0.00000000      11.20400236 </v>
   </varray>
   <i name="volume">   1406.43470641 </i>
   <varray name="rec_basis" >
    <v>       0.08925382       0.00000000       0.00000000 </v>
    <v>       0.00000000       0.08925382       0.00000000 </v>
    <v>       0.00000000       0.00000000       0.08925382 </v>
   </varray>
  </crystal>
  <varray name="positions" >
   <v>       0.00267761       0.00000000       0.00000000 </v>
   <v>       0.25000000       0.25000000       0.00000000 </v>
   <v>       0.25000000       0.00000000       0.25000000 </v>
   <v>       0.00000000       0.25000000       0.25000000 </v>
   <v>       0.00000000       0.00000000       0.50000000 </v>
   <v>       0.25000000       0.25000000       0.50000000 </v>
   <v>       0.25000000       0.00000000       0.75000000 </v>
   <v>       0.00000000       0.25000000       0.75000000 </v>
   <v>       0.00000000       0.50000000       0.00000000 </v>
   <v>       0.25000000       0.75000000       0.00000000 </v>
   <v>       0.25000000       0.50000000       0.25000000 </v>
   <v>       0.00000000       0.75000000       0.25000000 </v>
   <v>       0.00000000       0.50000000       0.50000000 </v>
   <v>       0.25000000       0.75000000       0.50000000 </v>
   <v>       0.25000000       0.50000000       0.75000000 </v>
   <v>       0.00000000       0.75000000       0.75000000 </v>
   <v>       0.50000000       0.00000000       0.00000000 </v>
   <v>       0.75000000       0.25000000       0.00000000 </v>
   <v>       0.75000000       0.00000000       0.25000000 </v>
   <v>       0.50000000       0.25000000       0.25000000 </v>
   <v>       0.50000000       0.00000000       0.50000000 </v>
   <v>       0.75000000       0.25000000       0.50000000 </v>
   <v>       0.75000000       0.00000000       0.75000000 </v>
   <v>       0.50000000       0.25000000       0.75000000 </v>
   <v>       0.50000000       0.50000000       0.00000000 </v>
   <v>       0.75000000       0.75000000       0.00000000 </v>
   <v>       0.75000000       0.50000000       0.25000000 </v>
   <v>       0.50000000       0.75000000       0.25000000 </v>
   <v>       0.50000000       0.50000000       0.50000000 </v>
   <v>       0.75000000       0.75000000       0.50000000 </v>
   <v>       0.75000000       0.50000000       0.75000000 </v>
   <v>       0.50000000       0.75000000       0.75000000 </v>
   <v>       0.25000000       0.25000000       0.25000000 </v>
   <v>       0.00267761       0.00000000       0.25000000 </v>
   <v>       0.00000000       0.25000000       0.00000000 </v>
   <v>       0.25000000       0.00000000       0.00000000 </v>
   <v>       0.25000000       0.25000000       0.75000000 </v>
   <v>       0.00000000       0.00000000       0.75000000 </v>
   <v>       0.00000000       0.25000000       0.50000000 </v>
   <v>       0.25000000       0.00000000       0.50000000 </v>
   <v>       0.25000000       0.75000000       0.25000000 </v>
   <v>       0.00000000       0.50000000       0.25000000 </v>
   <v>       0.00000000       0.75000000       0.00000000 </v>
   <v>       0.25000000       0.50000000       0.00000000 </v>
   <v>       0.25000000       0.75000000       0.75000000 </v>
   <v>       0.00000000       0.50000000       0.75000000 </v>
   <v>       0.00000000       0.75000000       0.50000000 </v>
   <v>       0.25000000       0.50000000       0.50000000 </v>
   <v>       0.75000000       0.25000000       0.25000000 </v>
   <v>       0.50000000       0.00000000       0.25000000 </v>
   <v>       0.50000000       0.25000000       0.00000000 </v>
   <v>       0.75000000       0.00000000       0.00000000 </v>
   <v>       0.75000000       0.25000000       0.75000000 </v>
   <v>       0.50000000       0.00000000       0.75000000 </v>
   <v>       0.50000000       0.25000000       0.50000000 </v>
   <v>       0.75000000       0.00000000       0.50000000 </v>
   <v>       0.75000000       0.75000000       0.25000000 </v>
   <v>       0.50000000       0.50000000       0.25000000 </v>
   <v>       0.50000000       0.75000000       0.00000000 </v>
   <v>       0.75000000       0.50000000       0.00000000 </v>
   <v>       0.75000000       0.75000000       0.75000000 </v>
   <v>       0.50000000       0.50000000       0.75000000 </v>
   <v>       0.50000000       0.75000000       0.50000000 </v>
   <v>       0.75000000       0.50000000       0.50000000 </v>
  </varray>
 </structure>
</modeling>
