  64  64   0   0
  0.2197554E+02  0.1120400E-08  0.1120400E-08  0.1120400E-08  0.5000000E-15
  1.000000000000000E-004
  CAR 
 unknown system                          
     11.06498897    -22.85528466  301     -0.55270475      1.00000000
    -22.855  0.0000E+00  0.0000E+00
    -22.742  0.0000E+00  0.0000E+00
    -22.629  0.0000E+00  0.0000E+00
    -22.516  0.0000E+00  0.0000E+00
    -22.403  0.0000E+00  0.0000E+00
    -22.290  0.0000E+00  0.0000E+00
    -22.177  0.0000E+00  0.0000E+00
    -22.064  0.0000E+00  0.0000E+00
    -21.951  0.0000E+00  0.0000E+00
    -21.838  0.0000E+00  0.0000E+00
    -21.725  0.0000E+00  0.0000E+00
    -21.612  0.0000E+00  0.0000E+00
    -21.498  0.0000E+00  0.0000E+00
    -21.385  0.7318E-05  0.8274E-06
    -21.272  0.1160E+04  0.1312E+03
    -21.159  0.5381E+03  0.1920E+03
    -21.046  0.0000E+00  0.1920E+03
    -20.933  0.0000E+00  0.1920E+03
    -20.820  0.0000E+00  0.1920E+03
    -20.707  0.0000E+00  0.1920E+03
    -20.594  0.0000E+00  0.1920E+03
    -20.481  0.0000E+00  0.1920E+03
    -20.368  0.0000E+00  0.1920E+03
    -20.255  0.0000E+00  0.1920E+03
    -20.142  0.0000E+00  0.1920E+03
    -20.029  0.0000E+00  0.1920E+03
    -19.916  0.0000E+00  0.1920E+03
    -19.802  0.0000E+00  0.1920E+03
    -19.689  0.0000E+00  0.1920E+03
    -19.576  0.0000E+00  0.1920E+03
    -19.463  0.0000E+00  0.1920E+03
    -19.350  0.0000E+00  0.1920E+03
    -19.237  0.0000E+00  0.1920E+03
    -19.124  0.0000E+00  0.1920E+03
    -19.011  0.0000E+00  0.1920E+03
    -18.898  0.0000E+00  0.1920E+03
    -18.785  0.0000E+00  0.1920E+03
    -18.672  0.0000E+00  0.1920E+03
    -18.559  0.0000E+00  0.1920E+03
    -18.446  0.0000E+00  0.1920E+03
    -18.333  0.0000E+00  0.1920E+03
    -18.220  0.0000E+00  0.1920E+03
    -18.106  0.0000E+00  0.1920E+03
    -17.993  0.0000E+00  0.1920E+03
    -17.880  0.0000E+00  0.1920E+03
    -17.767  0.0000E+00  0.1920E+03
    -17.654  0.0000E+00  0.1920E+03
    -17.541  0.0000E+00  0.1920E+03
    -17.428  0.0000E+00  0.1920E+03
    -17.315  0.0000E+00  0.1920E+03
    -17.202  0.0000E+00  0.1920E+03
    -17.089  0.0000E+00  0.1920E+03
    -16.976  0.0000E+00  0.1920E+03
    -16.863  0.0000E+00  0.1920E+03
    -16.750  0.0000E+00  0.1920E+03
    -16.637  0.0000E+00  0.1920E+03
    -16.524  0.0000E+00  0.1920E+03
    -16.410  0.0000E+00  0.1920E+03
    -16.297  0.0000E+00  0.1920E+03
    -16.184  0.0000E+00  0.1920E+03
    -16.071  0.0000E+00  0.1920E+03
    -15.958  0.0000E+00  0.1920E+03
    -15.845  0.0000E+00  0.1920E+03
    -15.732  0.0000E+00  0.1920E+03
    -15.619  0.0000E+00  0.1920E+03
    -15.506  0.0000E+00  0.1920E+03
    -15.393  0.0000E+00  0.1920E+03
    -15.280  0.0000E+00  0.1920E+03
    -15.167  0.0000E+00  0.1920E+03
    -15.054  0.0000E+00  0.1920E+03
    -14.941  0.0000E+00  0.1920E+03
    -14.827  0.0000E+00  0.1920E+03
    -14.714  0.0000E+00  0.1920E+03
    -14.601  0.0000E+00  0.1920E+03
    -14.488  0.0000E+00  0.1920E+03
    -14.375  0.0000E+00  0.1920E+03
    -14.262  0.0000E+00  0.1920E+03
    -14.149  0.0000E+00  0.1920E+03
    -14.036  0.0000E+00  0.1920E+03
    -13.923  0.0000E+00  0.1920E+03
    -13.810  0.0000E+00  0.1920E+03
    -13.697  0.0000E+00  0.1920E+03
    -13.584  0.0000E+00  0.1920E+03
    -13.471  0.1841E-14  0.1920E+03
    -13.358  0.1135E+01  0.1921E+03
    -13.245  0.1935E+02  0.1943E+03
    -13.131  0.4852E+02  0.1998E+03
    -13.018  0.1259E+03  0.2140E+03
    -12.905  0.3665E+03  0.2555E+03
    -12.792  0.4694E+01  0.2560E+03
    -12.679  0.0000E+00  0.2560E+03
    -12.566  0.0000E+00  0.2560E+03
    -12.453  0.0000E+00  0.2560E+03
    -12.340  0.0000E+00  0.2560E+03
    -12.227  0.0000E+00  0.2560E+03
    -12.114  0.0000E+00  0.2560E+03
    -12.001  0.0000E+00  0.2560E+03
    -11.888  0.0000E+00  0.2560E+03
    -11.775  0.0000E+00  0.2560E+03
    -11.662  0.0000E+00  0.2560E+03
    -11.549  0.0000E+00  0.2560E+03
    -11.435  0.0000E+00  0.2560E+03
    -11.322  0.0000E+00  0.2560E+03
    -11.209  0.0000E+00  0.2560E+03
    -11.096  0.0000E+00  0.2560E+03
    -10.983  0.0000E+00  0.2560E+03
    -10.870  0.0000E+00  0.2560E+03
    -10.757  0.0000E+00  0.2560E+03
    -10.644  0.0000E+00  0.2560E+03
    -10.531  0.0000E+00  0.2560E+03
    -10.418  0.0000E+00  0.2560E+03
    -10.305  0.0000E+00  0.2560E+03
    -10.192  0.0000E+00  0.2560E+03
    -10.079  0.0000E+00  0.2560E+03
     -9.966  0.0000E+00  0.2560E+03
     -9.853  0.0000E+00  0.2560E+03
     -9.739  0.0000E+00  0.2560E+03
     -9.626  0.0000E+00  0.2560E+03
     -9.513  0.0000E+00  0.2560E+03
     -9.400  0.0000E+00  0.2560E+03
     -9.287  0.0000E+00  0.2560E+03
     -9.174  0.0000E+00  0.2560E+03
     -9.061  0.0000E+00  0.2560E+03
     -8.948  0.0000E+00  0.2560E+03
     -8.835  0.0000E+00  0.2560E+03
     -8.722  0.0000E+00  0.2560E+03
     -8.609  0.0000E+00  0.2560E+03
     -8.496  0.0000E+00  0.2560E+03
     -8.383  0.0000E+00  0.2560E+03
     -8.270  0.0000E+00  0.2560E+03
     -8.156  0.0000E+00  0.2560E+03
     -8.043  0.0000E+00  0.2560E+03
     -7.930  0.0000E+00  0.2560E+03
     -7.817  0.0000E+00  0.2560E+03
     -7.704  0.0000E+00  0.2560E+03
     -7.591  0.0000E+00  0.2560E+03
     -7.478  0.0000E+00  0.2560E+03
     -7.365  0.0000E+00  0.2560E+03
     -7.252  0.0000E+00  0.2560E+03
     -7.139  0.0000E+00  0.2560E+03
     -7.026  0.0000E+00  0.2560E+03
     -6.913  0.0000E+00  0.2560E+03
     -6.800  0.0000E+00  0.2560E+03
     -6.687  0.0000E+00  0.2560E+03
     -6.574  0.0000E+00  0.2560E+03
     -6.460  0.0000E+00  0.2560E+03
     -6.347  0.0000E+00  0.2560E+03
     -6.234  0.0000E+00  0.2560E+03
     -6.121  0.0000E+00  0.2560E+03
     -6.008  0.0000E+00  0.2560E+03
     -5.895  0.0000E+00  0.2560E+03
     -5.782  0.0000E+00  0.2560E+03
     -5.669  0.0000E+00  0.2560E+03
     -5.556  0.0000E+00  0.2560E+03
     -5.443  0.0000E+00  0.2560E+03
     -5.330  0.0000E+00  0.2560E+03
     -5.217  0.0000E+00  0.2560E+03
     -5.104  0.0000E+00  0.2560E+03
     -4.991  0.0000E+00  0.2560E+03
     -4.878  0.0000E+00  0.2560E+03
     -4.764  0.0000E+00  0.2560E+03
     -4.651  0.0000E+00  0.2560E+03
     -4.538  0.0000E+00  0.2560E+03
     -4.425  0.0000E+00  0.2560E+03
     -4.312  0.0000E+00  0.2560E+03
     -4.199  0.0000E+00  0.2560E+03
     -4.086  0.0000E+00  0.2560E+03
     -3.973  0.0000E+00  0.2560E+03
     -3.860  0.0000E+00  0.2560E+03
     -3.747  0.0000E+00  0.2560E+03
     -3.634  0.0000E+00  0.2560E+03
     -3.521  0.0000E+00  0.2560E+03
     -3.408  0.0000E+00  0.2560E+03
     -3.295  0.0000E+00  0.2560E+03
     -3.182  0.0000E+00  0.2560E+03
     -3.068  0.0000E+00  0.2560E+03
     -2.955  0.0000E+00  0.2560E+03
     -2.842  0.0000E+00  0.2560E+03
     -2.729  0.1709E+00  0.2560E+03
     -2.616  0.8673E+01  0.2570E+03
     -2.503  0.2840E+02  0.2602E+03
     -2.390  0.8145E+02  0.2694E+03
     -2.277  0.8439E+02  0.2790E+03
     -2.164  0.1534E+03  0.2963E+03
     -2.051  0.7028E+02  0.3043E+03
     -1.938  0.5782E+02  0.3108E+03
     -1.825  0.6491E+02  0.3181E+03
     -1.712  0.6741E+02  0.3257E+03
     -1.599  0.1043E-08  0.3258E+03
     -1.486  0.8172E+02  0.3350E+03
     -1.372  0.1883E+03  0.3563E+03
     -1.259  0.2240E+02  0.3588E+03
     -1.146  0.2588E+03  0.3881E+03
     -1.033  0.1334E+03  0.4032E+03
     -0.920  0.2616E+03  0.4327E+03
     -0.807  0.6039E+02  0.4396E+03
     -0.694  0.6816E+02  0.4473E+03
     -0.581  0.6524E+01  0.4480E+03
     -0.468  0.0000E+00  0.4480E+03
     -0.355  0.0000E+00  0.4480E+03
     -0.242  0.0000E+00  0.4480E+03
     -0.129  0.0000E+00  0.4480E+03
     -0.016  0.0000E+00  0.4480E+03
      0.097  0.0000E+00  0.4480E+03
      0.211  0.0000E+00  0.4480E+03
      0.324  0.0000E+00  0.4480E+03
      0.437  0.0000E+00  0.4480E+03
      0.550  0.0000E+00  0.4480E+03
      0.663  0.0000E+00  0.4480E+03
      0.776  0.0000E+00  0.4480E+03
      0.889  0.0000E+00  0.4480E+03
      1.002  0.0000E+00  0.4480E+03
      1.115  0.0000E+00  0.4480E+03
      1.228  0.0000E+00  0.4480E+03
      1.341  0.0000E+00  0.4480E+03
      1.454  0.0000E+00  0.4480E+03
      1.567  0.0000E+00  0.4480E+03
      1.680  0.0000E+00  0.4480E+03
      1.793  0.0000E+00  0.4480E+03
      1.907  0.0000E+00  0.4480E+03
      2.020  0.0000E+00  0.4480E+03
      2.133  0.0000E+00  0.4480E+03
      2.246  0.0000E+00  0.4480E+03
      2.359  0.0000E+00  0.4480E+03
      2.472  0.0000E+00  0.4480E+03
      2.585  0.0000E+00  0.4480E+03
      2.698  0.0000E+00  0.4480E+03
      2.811  0.0000E+00  0.4480E+03
      2.924  0.0000E+00  0.4480E+03
      3.037  0.0000E+00  0.4480E+03
      3.150  0.0000E+00  0.4480E+03
      3.263  0.0000E+00  0.4480E+03
      3.376  0.0000E+00  0.4480E+03
      3.489  0.0000E+00  0.4480E+03
      3.603  0.0000E+00  0.4480E+03
      3.716  0.0000E+00  0.4480E+03
      3.829  0.0000E+00  0.4480E+03
      3.942  0.0000E+00  0.4480E+03
      4.055  0.0000E+00  0.4480E+03
      4.168  0.0000E+00  0.4480E+03
      4.281  0.3004E-04  0.4480E+03
      4.394  0.2211E+01  0.4482E+03
      4.507  0.0000E+00  0.4482E+03
      4.620  0.0000E+00  0.4482E+03
      4.733  0.0000E+00  0.4482E+03
      4.846  0.0000E+00  0.4482E+03
      4.959  0.7333E-04  0.4483E+03
      5.072  0.1326E+02  0.4497E+03
      5.185  0.1118E-02  0.4498E+03
      5.299  0.0000E+00  0.4498E+03
      5.412  0.0000E+00  0.4498E+03
      5.525  0.4187E+01  0.4502E+03
      5.638  0.2235E+02  0.4527E+03
      5.751  0.1102E-05  0.4528E+03
      5.864  0.1743E+02  0.4547E+03
      5.977  0.2627E+00  0.4548E+03
      6.090  0.0000E+00  0.4548E+03
      6.203  0.0000E+00  0.4548E+03
      6.316  0.3369E-02  0.4548E+03
      6.429  0.1447E+02  0.4564E+03
      6.542  0.7638E+01  0.4573E+03
      6.655  0.4604E+02  0.4625E+03
      6.768  0.6007E+02  0.4692E+03
      6.881  0.5949E+02  0.4760E+03
      6.995  0.1282E+02  0.4774E+03
      7.108  0.6712E+00  0.4775E+03
      7.221  0.5551E+01  0.4781E+03
      7.334  0.1695E+01  0.4783E+03
      7.447  0.8332E+02  0.4877E+03
      7.560  0.1668E+03  0.5066E+03
      7.673  0.1413E+01  0.5068E+03
      7.786  0.2648E+02  0.5097E+03
      7.899  0.4896E+00  0.5098E+03
      8.012  0.5258E+02  0.5157E+03
      8.125  0.2055E-01  0.5158E+03
      8.238  0.1501E+02  0.5174E+03
      8.351  0.9110E+02  0.5277E+03
      8.464  0.5378E-04  0.5278E+03
      8.578  0.1532E+03  0.5451E+03
      8.691  0.6036E+01  0.5458E+03
      8.804  0.8723E-05  0.5458E+03
      8.917  0.8765E+02  0.5557E+03
      9.030  0.1204E+03  0.5693E+03
      9.143  0.2043E+01  0.5695E+03
      9.256  0.2910E+02  0.5728E+03
      9.369  0.1512E+02  0.5745E+03
      9.482  0.3313E+01  0.5749E+03
      9.595  0.9953E+01  0.5760E+03
      9.708  0.0000E+00  0.5760E+03
      9.821  0.0000E+00  0.5760E+03
      9.934  0.0000E+00  0.5760E+03
     10.047  0.0000E+00  0.5760E+03
     10.160  0.0000E+00  0.5760E+03
     10.274  0.0000E+00  0.5760E+03
     10.387  0.0000E+00  0.5760E+03
     10.500  0.0000E+00  0.5760E+03
     10.613  0.0000E+00  0.5760E+03
     10.726  0.0000E+00  0.5760E+03
     10.839  0.0000E+00  0.5760E+03
     10.952  0.0000E+00  0.5760E+03
     11.065  0.0000E+00  0.5760E+03
