       N       E                     dE             d eps       ncg     rms          rms(c)
DAV:   1     0.432192833351E+04    0.43219E+04   -0.17164E+05  4608   0.125E+03
DAV:   2     0.363888751950E+03   -0.39580E+04   -0.37660E+04  5120   0.368E+02
DAV:   3    -0.206175263768E+03   -0.57006E+03   -0.56581E+03  5600   0.156E+02
DAV:   4    -0.228191997041E+03   -0.22017E+02   -0.21915E+02  5568   0.331E+01
DAV:   5    -0.229005508191E+03   -0.81351E+00   -0.81215E+00  5760   0.616E+00    0.106E+01
DAV:   6    -0.224138008142E+03    0.48675E+01   -0.94996E+00  5728   0.530E+00    0.776E+00
DAV:   7    -0.223777315267E+03    0.36069E+00   -0.20603E+00  6272   0.234E+00    0.533E+00
DAV:   8    -0.223902482463E+03   -0.12517E+00   -0.26643E-01  5376   0.124E+00    0.141E+00
DAV:   9    -0.223897047548E+03    0.54349E-02   -0.11293E-02  5728   0.259E-01    0.597E-01
DAV:  10    -0.223901356019E+03   -0.43085E-02   -0.17864E-02  5344   0.226E-01    0.281E-01
DAV:  11    -0.223900662139E+03    0.69388E-03   -0.15014E-03  5696   0.803E-02    0.867E-02
DAV:  12    -0.223900625514E+03    0.36625E-04   -0.13872E-04  6112   0.235E-02    0.180E-02
DAV:  13    -0.223900623744E+03    0.17699E-05   -0.24737E-05  5696   0.837E-03    0.372E-03
DAV:  14    -0.223900625170E+03   -0.14254E-05   -0.23403E-06  5632   0.371E-03    0.885E-03
DAV:  15    -0.223900626439E+03   -0.12692E-05   -0.41971E-07  5696   0.169E-03    0.373E-03
DAV:  16    -0.223900626956E+03   -0.51681E-06   -0.15222E-07  5600   0.869E-04    0.843E-04
DAV:  17    -0.223900626993E+03   -0.37420E-07   -0.88208E-09  3808   0.598E-04    0.289E-04
DAV:  18    -0.223900627122E+03   -0.12858E-06   -0.13770E-08  3936   0.429E-04    0.467E-04
DAV:  19    -0.223900627102E+03    0.20169E-07   -0.59038E-09  3072   0.264E-04    0.393E-04
DAV:  20    -0.223900627058E+03    0.43503E-07   -0.19681E-09  3136   0.361E-04    0.264E-04
DAV:  21    -0.223900627005E+03    0.53398E-07   -0.25228E-09  3296   0.177E-04    0.113E-04
DAV:  22    -0.223900627009E+03   -0.40382E-08   -0.10982E-09  2976   0.143E-04
   1 F= -.22390063E+03 E0= -.22390063E+03  d E =-.949473E-16
