<?xml version="1.0" encoding="ISO-8859-1"?>
<modeling>
 <generator>
  <i name="program" type="string">vasp </i>
  <i name="version" type="string">6.3.2  </i>
  <i name="subversion" type="string">27Jun22 (build Oct 14 2022 12:13:54) complex                          parallel </i>
  <i name="platform" type="string">LinuxIFC </i>
  <i name="date" type="string">2025 08 28 </i>
  <i name="time" type="string">22:07:56 </i>
 </generator>
 <incar>
  <i type="string" name="PREC">Accurate</i>
  <i type="int" name="IALGO">    38</i>
  <i type="logical" name="ADDGRID"> T  </i>
  <i type="int" name="NELMIN">     5</i>
  <i type="int" name="IBRION">    -1</i>
  <i name="EDIFF">      0.00000001</i>
  <i name="ENCUT">    341.21360000</i>
  <i type="logical" name="LREAL"> F  </i>
  <i type="int" name="ISMEAR">     0</i>
  <i name="SIGMA">      0.02000000</i>
  <i type="logical" name="LWAVE"> F  </i>
  <i type="logical" name="LCHARG"> F  </i>
  <i type="string" name="GGA">PS</i>
 </incar>
 <primitive_cell>
  <structure name="primitive_cell" >
   <crystal>
    <varray name="basis" >
     <v>      11.20400236       0.00000000       0.00000000 </v>
     <v>       0.00000000      11.20400236       0.00000000 </v>
     <v>       0.00000000       0.00000000      11.20400236 </v>
    </varray>
    <i name="volume">   1406.43470641 </i>
    <varray name="rec_basis" >
     <v>       0.08925382       0.00000000       0.00000000 </v>
     <v>       0.00000000       0.08925382       0.00000000 </v>
     <v>       0.00000000       0.00000000       0.08925382 </v>
    </varray>
   </crystal>
   <varray name="positions" >
    <v>       0.00267761       0.00000000       0.00000000 </v>
    <v>       0.25000000       0.25000000       0.00000000 </v>
    <v>       0.25000000       0.00000000       0.25000000 </v>
    <v>       0.00000000       0.25000000       0.25000000 </v>
    <v>       0.00000000       0.00000000       0.50000000 </v>
    <v>       0.25000000       0.25000000       0.50000000 </v>
    <v>       0.25000000       0.00000000       0.75000000 </v>
    <v>       0.00000000       0.25000000       0.75000000 </v>
    <v>       0.00000000       0.50000000       0.00000000 </v>
    <v>       0.25000000       0.75000000       0.00000000 </v>
    <v>       0.25000000       0.50000000       0.25000000 </v>
    <v>       0.00000000       0.75000000       0.25000000 </v>
    <v>       0.00000000       0.50000000       0.50000000 </v>
    <v>       0.25000000       0.75000000       0.50000000 </v>
    <v>       0.25000000       0.50000000       0.75000000 </v>
    <v>       0.00000000       0.75000000       0.75000000 </v>
    <v>       0.50000000       0.00000000       0.00000000 </v>
    <v>       0.75000000       0.25000000       0.00000000 </v>
    <v>       0.75000000       0.00000000       0.25000000 </v>
    <v>       0.50000000       0.25000000       0.25000000 </v>
    <v>       0.50000000       0.00000000       0.50000000 </v>
    <v>       0.75000000       0.25000000       0.50000000 </v>
    <v>       0.75000000       0.00000000       0.75000000 </v>
    <v>       0.50000000       0.25000000       0.75000000 </v>
    <v>       0.50000000       0.50000000       0.00000000 </v>
    <v>       0.75000000       0.75000000       0.00000000 </v>
    <v>       0.75000000       0.50000000       0.25000000 </v>
    <v>       0.50000000       0.75000000       0.25000000 </v>
    <v>       0.50000000       0.50000000       0.50000000 </v>
    <v>       0.75000000       0.75000000       0.50000000 </v>
    <v>       0.75000000       0.50000000       0.75000000 </v>
    <v>       0.50000000       0.75000000       0.75000000 </v>
    <v>       0.25000000       0.25000000       0.25000000 </v>
    <v>       0.00000000       0.00000000       0.25000000 </v>
    <v>       0.00000000       0.25000000       0.00000000 </v>
    <v>       0.25000000       0.00267761       0.00000000 </v>
    <v>       0.25000000       0.25000000       0.75000000 </v>
    <v>       0.00000000       0.00000000       0.75000000 </v>
    <v>       0.00000000       0.25000000       0.50000000 </v>
    <v>       0.25000000       0.00000000       0.50000000 </v>
    <v>       0.25000000       0.75000000       0.25000000 </v>
    <v>       0.00000000       0.50000000       0.25000000 </v>
    <v>       0.00000000       0.75000000       0.00000000 </v>
    <v>       0.25000000       0.50000000       0.00000000 </v>
    <v>       0.25000000       0.75000000       0.75000000 </v>
    <v>       0.00000000       0.50000000       0.75000000 </v>
    <v>       0.00000000       0.75000000       0.50000000 </v>
    <v>       0.25000000       0.50000000       0.50000000 </v>
    <v>       0.75000000       0.25000000       0.25000000 </v>
    <v>       0.50000000       0.00000000       0.25000000 </v>
    <v>       0.50000000       0.25000000       0.00000000 </v>
    <v>       0.75000000       0.00000000       0.00000000 </v>
    <v>       0.75000000       0.25000000       0.75000000 </v>
    <v>       0.50000000       0.00000000       0.75000000 </v>
    <v>       0.50000000       0.25000000       0.50000000 </v>
    <v>       0.75000000       0.00000000       0.50000000 </v>
    <v>       0.75000000       0.75000000       0.25000000 </v>
    <v>       0.50000000       0.50000000       0.25000000 </v>
    <v>       0.50000000       0.75000000       0.00000000 </v>
    <v>       0.75000000       0.50000000       0.00000000 </v>
    <v>       0.75000000       0.75000000       0.75000000 </v>
    <v>       0.50000000       0.50000000       0.75000000 </v>
    <v>       0.50000000       0.75000000       0.50000000 </v>
    <v>       0.75000000       0.50000000       0.50000000 </v>
   </varray>
  </structure>
  <varray name="primitive_index" >
   <v type="int" >        1 </v>
   <v type="int" >        2 </v>
   <v type="int" >        3 </v>
   <v type="int" >        4 </v>
   <v type="int" >        5 </v>
   <v type="int" >        6 </v>
   <v type="int" >        7 </v>
   <v type="int" >        8 </v>
   <v type="int" >        9 </v>
   <v type="int" >       10 </v>
   <v type="int" >       11 </v>
   <v type="int" >       12 </v>
   <v type="int" >       13 </v>
   <v type="int" >       14 </v>
   <v type="int" >       15 </v>
   <v type="int" >       16 </v>
   <v type="int" >       17 </v>
   <v type="int" >       18 </v>
   <v type="int" >       19 </v>
   <v type="int" >       20 </v>
   <v type="int" >       21 </v>
   <v type="int" >       22 </v>
   <v type="int" >       23 </v>
   <v type="int" >       24 </v>
   <v type="int" >       25 </v>
   <v type="int" >       26 </v>
   <v type="int" >       27 </v>
   <v type="int" >       28 </v>
   <v type="int" >       29 </v>
   <v type="int" >       30 </v>
   <v type="int" >       31 </v>
   <v type="int" >       32 </v>
   <v type="int" >       33 </v>
   <v type="int" >       34 </v>
   <v type="int" >       35 </v>
   <v type="int" >       36 </v>
   <v type="int" >       37 </v>
   <v type="int" >       38 </v>
   <v type="int" >       39 </v>
   <v type="int" >       40 </v>
   <v type="int" >       41 </v>
   <v type="int" >       42 </v>
   <v type="int" >       43 </v>
   <v type="int" >       44 </v>
   <v type="int" >       45 </v>
   <v type="int" >       46 </v>
   <v type="int" >       47 </v>
   <v type="int" >       48 </v>
   <v type="int" >       49 </v>
   <v type="int" >       50 </v>
   <v type="int" >       51 </v>
   <v type="int" >       52 </v>
   <v type="int" >       53 </v>
   <v type="int" >       54 </v>
   <v type="int" >       55 </v>
   <v type="int" >       56 </v>
   <v type="int" >       57 </v>
   <v type="int" >       58 </v>
   <v type="int" >       59 </v>
   <v type="int" >       60 </v>
   <v type="int" >       61 </v>
   <v type="int" >       62 </v>
   <v type="int" >       63 </v>
   <v type="int" >       64 </v>
  </varray>
 </primitive_cell>
 <kpoints>
  <generation param="Gamma">
   <v type="int" name="divisions">       2        2        2 </v>
   <v name="usershift">      0.00000000       0.00000000       0.00000000 </v>
   <v name="genvec1">      0.50000000       0.00000000       0.00000000 </v>
   <v name="genvec2">      0.00000000       0.50000000       0.00000000 </v>
   <v name="genvec3">      0.00000000       0.00000000       0.50000000 </v>
   <v name="shift">      0.00000000       0.00000000       0.00000000 </v>
  </generation>
  <varray name="kpointlist" >
   <v>       0.00000000       0.00000000       0.00000000 </v>
   <v>       0.50000000       0.00000000       0.00000000 </v>
   <v>       0.00000000       0.50000000       0.00000000 </v>
   <v>       0.00000000       0.00000000       0.50000000 </v>
   <v>       0.50000000       0.50000000       0.00000000 </v>
   <v>       0.00000000       0.50000000       0.50000000 </v>
   <v>       0.50000000       0.00000000       0.50000000 </v>
   <v>       0.50000000       0.50000000       0.50000000 </v>
  </varray>
  <varray name="weights" >
   <v>       0.12500000 </v>
   <v>       0.12500000 </v>
   <v>       0.12500000 </v>
   <v>       0.12500000 </v>
   <v>       0.12500000 </v>
   <v>       0.12500000 </v>
   <v>       0.12500000 </v>
   <v>       0.12500000 </v>
  </varray>
 </kpoints>
 <parameters>
  <separator name="general" >
   <i type="string" name="SYSTEM">unknown system</i>
   <i type="logical" name="LCOMPAT"> F  </i>
  </separator>
  <separator name="electronic" >
   <i type="string" name="PREC">accura</i>
   <i name="ENMAX">    341.21360000</i>
   <i name="ENAUG">    368.05600000</i>
   <i name="EDIFF">      0.00000001</i>
   <i type="int" name="IALGO">    38</i>
   <i type="int" name="IWAVPR">    10</i>
   <i type="int" name="NBANDS">   288</i>
   <i type="int" name="NBANDSLOW">    -1</i>
   <i type="int" name="NBANDSHIGH">    -1</i>
   <i name="NELECT">    448.00000000</i>
   <i type="int" name="TURBO">     0</i>
   <i type="int" name="IRESTART">     0</i>
   <i type="int" name="NREBOOT">     0</i>
   <i type="int" name="NMIN">     0</i>
   <i name="EREF">      0.00000000</i>
   <separator name="electronic smearing" >
    <i type="int" name="ISMEAR">     0</i>
    <i name="SIGMA">      0.02000000</i>
    <i name="KSPACING">      0.50000000</i>
    <i type="logical" name="KGAMMA"> T  </i>
    <i type="logical" name="KBLOWUP"> T  </i>
   </separator>
   <separator name="electronic projectors" >
    <i type="logical" name="LREAL"> F  </i>
    <v name="ROPT">      0.00000000      0.00000000</v>
    <i type="int" name="LMAXPAW">  -100</i>
    <i type="int" name="LMAXMIX">     2</i>
    <i type="logical" name="NLSPLINE"> F  </i>
   </separator>
   <separator name="electronic startup" >
    <i type="int" name="ISTART">     0</i>
    <i type="int" name="ICHARG">     2</i>
    <i type="int" name="INIWAV">     1</i>
   </separator>
   <separator name="electronic spin" >
    <i type="int" name="ISPIN">     1</i>
    <i type="logical" name="LNONCOLLINEAR"> F  </i>
    <v name="MAGMOM">      1.00000000      1.00000000      1.00000000      1.00000000      1.00000000      1.00000000      1.00000000      1.00000000      1.00000000      1.00000000      1.00000000      1.00000000      1.00000000      1.00000000      1.00000000      1.00000000      1.00000000      1.00000000      1.00000000      1.00000000
      1.00000000      1.00000000      1.00000000      1.00000000      1.00000000      1.00000000      1.00000000      1.00000000      1.00000000      1.00000000      1.00000000      1.00000000      1.00000000      1.00000000      1.00000000      1.00000000      1.00000000      1.00000000      1.00000000      1.00000000
      1.00000000      1.00000000      1.00000000      1.00000000      1.00000000      1.00000000      1.00000000      1.00000000      1.00000000      1.00000000      1.00000000      1.00000000      1.00000000      1.00000000      1.00000000      1.00000000      1.00000000      1.00000000      1.00000000      1.00000000
      1.00000000      1.00000000      1.00000000      1.00000000</v>
    <i name="NUPDOWN">     -1.00000000</i>
    <i type="logical" name="LSORBIT"> F  </i>
    <v name="SAXIS">      0.00000000      0.00000000      1.00000000</v>
    <i type="logical" name="LSPIRAL"> F  </i>
    <v name="QSPIRAL">      0.00000000      0.00000000      0.00000000</v>
    <i type="logical" name="LZEROZ"> F  </i>
   </separator>
   <separator name="electronic exchange-correlation" >
    <i type="logical" name="LASPH"> F  </i>
    <i type="logical" name="LMETAGGA"> F  </i>
   </separator>
   <separator name="electronic convergence" >
    <i type="int" name="NELM">    60</i>
    <i type="int" name="NELMDL">    -5</i>
    <i type="int" name="NELMIN">     5</i>
    <i name="ENINI">    341.21360000</i>
    <separator name="electronic convergence detail" >
     <i type="logical" name="LDIAG"> T  </i>
     <i type="logical" name="LSUBROT"> F  </i>
     <i name="WEIMIN">      0.00000000</i>
     <i name="EBREAK">      0.00000000</i>
     <i name="DEPER">      0.30000000</i>
     <i type="int" name="NRMM">     4</i>
     <i name="TIME">      0.40000000</i>
    </separator>
   </separator>
   <separator name="electronic mixer" >
    <i name="AMIX">      0.40000000</i>
    <i name="BMIX">      1.00000000</i>
    <i name="AMIN">      0.10000000</i>
    <i name="AMIX_MAG">      1.60000000</i>
    <i name="BMIX_MAG">      1.00000000</i>
    <separator name="electronic mixer details" >
     <i type="int" name="IMIX">     4</i>
     <i type="logical" name="MIXFIRST"> F  </i>
     <i type="int" name="MAXMIX">   -45</i>
     <i name="WC">    100.00000000</i>
     <i type="int" name="INIMIX">     1</i>
     <i type="int" name="MIXPRE">     1</i>
     <i type="int" name="MREMOVE">     5</i>
    </separator>
   </separator>
   <separator name="electronic dipolcorrection" >
    <i type="logical" name="LDIPOL"> F  </i>
    <i type="logical" name="LMONO"> F  </i>
    <i type="int" name="IDIPOL">     0</i>
    <i name="EPSILON">      1.00000000</i>
    <v name="DIPOL">   -100.00000000   -100.00000000   -100.00000000</v>
    <i name="EFIELD">      0.00000000</i>
   </separator>
  </separator>
  <separator name="grids" >
   <i type="int" name="NGX">    70</i>
   <i type="int" name="NGY">    70</i>
   <i type="int" name="NGZ">    70</i>
   <i type="int" name="NGXF">   140</i>
   <i type="int" name="NGYF">   140</i>
   <i type="int" name="NGZF">   140</i>
   <i type="logical" name="ADDGRID"> T  </i>
  </separator>
  <separator name="ionic" >
   <i type="int" name="NSW">     0</i>
   <i type="int" name="IBRION">    -1</i>
   <i type="int" name="MDALGO">     0</i>
   <i type="int" name="ISIF">     2</i>
   <i name="PSTRESS">      0.00000000</i>
   <i name="EDIFFG">      0.00000010</i>
   <i type="int" name="NFREE">     0</i>
   <i name="POTIM">      0.50000000</i>
   <i name="SMASS">     -3.00000000</i>
   <i name="SCALEE">      1.00000000</i>
  </separator>
  <separator name="ionic md" >
   <i name="TEBEG">      0.00010000</i>
   <i name="TEEND">      0.00010000</i>
   <i type="int" name="NBLOCK">     1</i>
   <i type="int" name="KBLOCK">     1</i>
   <i type="int" name="NPACO">   256</i>
   <i name="APACO">     10.00000000</i>
  </separator>
  <separator name="symmetry" >
   <i type="int" name="ISYM">     2</i>
   <i name="SYMPREC">      0.00001000</i>
  </separator>
  <separator name="dos" >
   <i type="int" name="LORBIT">     0</i>
   <v name="RWIGS">     -1.00000000     -1.00000000</v>
   <i type="int" name="NEDOS">   301</i>
   <i name="EMIN">     10.00000000</i>
   <i name="EMAX">    -10.00000000</i>
   <i name="EFERMI">      0.00000000</i>
  </separator>
  <separator name="writing" >
   <i type="int" name="NWRITE">     2</i>
   <i type="logical" name="LWAVE"> F  </i>
   <i type="logical" name="LDOWNSAMPLE"> F  </i>
   <i type="logical" name="LCHARG"> F  </i>
   <i type="logical" name="LPARD"> F  </i>
   <i type="logical" name="LVTOT"> F  </i>
   <i type="logical" name="LVHAR"> F  </i>
   <i type="logical" name="LELF"> F  </i>
   <i type="logical" name="LOPTICS"> F  </i>
   <v name="STM">      0.00000000      0.00000000      0.00000000      0.00000000      0.00000000      0.00000000      0.00000000</v>
  </separator>
  <separator name="performance" >
   <i type="int" name="NPAR">    32</i>
   <i type="int" name="NSIM">     4</i>
   <i type="int" name="NBLK">    -1</i>
   <i type="logical" name="LPLANE"> T  </i>
   <i type="logical" name="LSCALAPACK"> T  </i>
   <i type="logical" name="LSCAAWARE"> F  </i>
   <i type="logical" name="LSCALU"> F  </i>
   <i type="logical" name="LASYNC"> F  </i>
   <i type="logical" name="LORBITALREAL"> F  </i>
  </separator>
  <separator name="miscellaneous" >
   <i type="int" name="IDIOT">     3</i>
   <i type="int" name="PHON_NSTRUCT">    -1</i>
   <i type="logical" name="LMUSIC"> F  </i>
   <v name="POMASS">     22.99000000     35.45300000</v>
   <v name="DARWINR">      0.00000000      0.00000000</v>
   <v name="DARWINV">      1.00000000      1.00000000</v>
   <i type="logical" name="LCORR"> T  </i>
  </separator>
  <i type="logical" name="GGA_COMPAT"> T  </i>
  <i type="logical" name="LBERRY"> F  </i>
  <i type="int" name="ICORELEVEL">     0</i>
  <i type="logical" name="LDAU"> F  </i>
  <i type="int" name="I_CONSTRAINED_M">     0</i>
  <separator name="electronic exchange-correlation" >
   <i type="string" name="GGA">PS</i>
   <i type="int" name="VOSKOWN">     0</i>
   <i type="logical" name="LHFCALC"> F  </i>
   <i type="string" name="PRECFOCK"></i>
   <i type="logical" name="LSYMGRAD"> F  </i>
   <i type="logical" name="LHFONE"> F  </i>
   <i type="logical" name="LRHFCALC"> F  </i>
   <i type="logical" name="LTHOMAS"> F  </i>
   <i type="logical" name="LMODELHF"> F  </i>
   <i type="logical" name="LFOCKACE"> F  </i>
   <i name="ENCUT4O">     -1.00000000</i>
   <i type="int" name="EXXOEP">     0</i>
   <i type="int" name="FOURORBIT">     0</i>
   <i name="AEXX">      0.00000000</i>
   <i name="HFALPHA">      0.00000000</i>
   <i name="MCALPHA">      0.00000000</i>
   <i name="ALDAX">      1.00000000</i>
   <i name="AGGAX">      1.00000000</i>
   <i name="ALDAC">      1.00000000</i>
   <i name="AGGAC">      1.00000000</i>
   <i type="int" name="NKREDX">     1</i>
   <i type="int" name="NKREDY">     1</i>
   <i type="int" name="NKREDZ">     1</i>
   <i type="logical" name="SHIFTRED"> F  </i>
   <i type="logical" name="ODDONLY"> F  </i>
   <i type="logical" name="EVENONLY"> F  </i>
   <i type="int" name="LMAXFOCK">     0</i>
   <i type="int" name="NMAXFOCKAE">     0</i>
   <i type="logical" name="LFOCKAEDFT"> F  </i>
   <i name="HFSCREEN">      0.00000000</i>
   <i name="HFSCREENC">      0.00000000</i>
   <i type="int" name="NBANDSGWLOW">     0</i>
  </separator>
  <separator name="vdW DFT" >
   <i type="logical" name="LUSE_VDW"> F  </i>
   <i name="Zab_VDW">     -0.84910000</i>
   <i name="PARAM1">      0.12340000</i>
   <i name="PARAM2">      1.00000000</i>
   <i name="PARAM3">      0.00000000</i>
  </separator>
  <separator name="model GW" >
   <i type="int" name="MODEL_GW">     0</i>
   <i name="MODEL_EPS0">     13.18532537</i>
   <i name="MODEL_ALPHA">      1.00000000</i>
  </separator>
  <separator name="linear response parameters" >
   <i type="logical" name="LEPSILON"> F  </i>
   <i type="logical" name="LRPA"> F  </i>
   <i type="logical" name="LNABLA"> F  </i>
   <i type="logical" name="LVEL"> F  </i>
   <i name="CSHIFT">      0.10000000</i>
   <i name="OMEGAMAX">     -1.00000000</i>
   <i name="DEG_THRESHOLD">      0.00200000</i>
   <i name="RTIME">     -0.10000000</i>
   <i name="WPLASMAI">      0.00000000</i>
   <v name="DFIELD">      0.00000000      0.00000000      0.00000000</v>
   <v name="WPLASMA">      0.00000000      0.00000000      0.00000000      0.00000000      0.00000000      0.00000000      0.00000000      0.00000000      0.00000000</v>
  </separator>
  <separator name="orbital magnetization" >
   <i type="logical" name="NUCIND"> F  </i>
   <v name="MAGPOS">      0.00000000      0.00000000      0.00000000</v>
   <i type="logical" name="LNICSALL"> T  </i>
   <i type="logical" name="ORBITALMAG"> F  </i>
   <i type="logical" name="LMAGBLOCH"> F  </i>
   <i type="logical" name="LCHIMAG"> F  </i>
   <i type="logical" name="LGAUGE"> T  </i>
   <i type="int" name="MAGATOM">     0</i>
   <v name="MAGDIPOL">      0.00000000      0.00000000      0.00000000</v>
   <v name="AVECCONST">      0.00000000      0.00000000      0.00000000</v>
  </separator>
  <separator name="response functions" >
   <i type="logical" name="LFINITE_TEMPERATURE"> F  </i>
   <i type="logical" name="LADDER"> F  </i>
   <i type="logical" name="LRPAFORCE"> F  </i>
   <i type="logical" name="LFXC"> F  </i>
   <i type="logical" name="LHARTREE"> T  </i>
   <i type="int" name="IBSE">     0</i>
   <v type="int" name="KPOINT">    -1     0     0     0</v>
   <i type="logical" name="LTCTC"> F  </i>
   <i type="logical" name="LTCTE"> F  </i>
   <i type="logical" name="LTETE"> F  </i>
   <i type="logical" name="LTRIPLET"> F  </i>
   <i type="logical" name="LFXCEPS"> F  </i>
   <i type="logical" name="LFXHEG"> F  </i>
   <i type="int" name="NATURALO">     2</i>
   <i type="logical" name="LHOLEGF"> F  </i>
   <i type="logical" name="L2ORDER"> F  </i>
   <i type="logical" name="LDMP1"> F  </i>
   <i type="logical" name="LMP2LT"> F  </i>
   <i type="logical" name="LSMP2LT"> F  </i>
   <i type="logical" name="LGWLF"> F  </i>
   <i name="ENCUTGW">     -2.00000000</i>
   <i name="ENCUTGWSOFT">     -2.00000000</i>
   <i name="ENCUTLF">     -1.00000000</i>
   <i type="logical" name="LESF_SPLINES"> F  </i>
   <i type="int" name="LMAXMP2">    -1</i>
   <i name="SCISSOR">      0.00000000</i>
   <i type="int" name="NOMEGA">     0</i>
   <i type="int" name="NOMEGAR">     0</i>
   <i type="int" name="NBANDSGW">    -1</i>
   <i type="int" name="NBANDSO">    -1</i>
   <i type="int" name="NBANDSV">    -1</i>
   <i type="int" name="NELMGW">     1</i>
   <i type="int" name="NELMHF">     1</i>
   <i type="int" name="DIM">     3</i>
   <i type="int" name="IESPILON">     4</i>
   <i type="int" name="ANTIRES">     0</i>
   <i name="OMEGAMAX">    -30.00000000</i>
   <i name="OMEGAMIN">    -30.00000000</i>
   <i name="OMEGATL">   -200.00000000</i>
   <i type="int" name="OMEGAGRID">     0</i>
   <i name="CSHIFT">     -0.10000000</i>
   <i type="logical" name="LSELFENERGY"> F  </i>
   <i type="logical" name="LSPECTRAL"> F  </i>
   <i type="logical" name="LSPECTRALGW"> F  </i>
   <i type="logical" name="LSINGLES"> F  </i>
   <i type="logical" name="LFERMIGW"> F  </i>
   <i type="logical" name="ODDONLYGW"> F  </i>
   <i type="logical" name="EVENONLYGW"> F  </i>
   <i type="int" name="NKREDLFX">     1</i>
   <i type="int" name="NKREDLFY">     1</i>
   <i type="int" name="NKREDLFZ">     1</i>
   <i type="int" name="MAXMEM">  2800</i>
   <i type="int" name="TELESCOPE">     0</i>
   <i type="int" name="NTAUPAR">    -1</i>
   <i type="int" name="NOMEGAPAR">    -1</i>
   <i name="DAMP_NEWTON">      0.80000001</i>
   <i name="LAMBDA">      1.00000000</i>
  </separator>
  <separator name="External order field" >
   <i name="OFIELD_KAPPA">      0.00000000</i>
   <v name="OFIELD_K">      0.00000000      0.00000000      0.00000000</v>
   <i name="OFIELD_Q6_NEAR">      0.00000000</i>
   <i name="OFIELD_Q6_FAR">      0.00000000</i>
   <i name="OFIELD_A">      0.00000000</i>
  </separator>
  <separator name="optional k-points parameters" >
   <i type="int" name="KPOINTS_OPT_MODE">     1</i>
   <i type="logical" name="LKPOINTS_OPT"> F  </i>
  </separator>
 </parameters>
 <atominfo>
  <atoms>      64 </atoms>
  <types>       2 </types>
  <array name="atoms" >
   <dimension dim="1">ion</dimension>
   <field type="string">element</field>
   <field type="int">atomtype</field>
   <set>
    <rc><c>Na</c><c>   1</c></rc>
    <rc><c>Na</c><c>   1</c></rc>
    <rc><c>Na</c><c>   1</c></rc>
    <rc><c>Na</c><c>   1</c></rc>
    <rc><c>Na</c><c>   1</c></rc>
    <rc><c>Na</c><c>   1</c></rc>
    <rc><c>Na</c><c>   1</c></rc>
    <rc><c>Na</c><c>   1</c></rc>
    <rc><c>Na</c><c>   1</c></rc>
    <rc><c>Na</c><c>   1</c></rc>
    <rc><c>Na</c><c>   1</c></rc>
    <rc><c>Na</c><c>   1</c></rc>
    <rc><c>Na</c><c>   1</c></rc>
    <rc><c>Na</c><c>   1</c></rc>
    <rc><c>Na</c><c>   1</c></rc>
    <rc><c>Na</c><c>   1</c></rc>
    <rc><c>Na</c><c>   1</c></rc>
    <rc><c>Na</c><c>   1</c></rc>
    <rc><c>Na</c><c>   1</c></rc>
    <rc><c>Na</c><c>   1</c></rc>
    <rc><c>Na</c><c>   1</c></rc>
    <rc><c>Na</c><c>   1</c></rc>
    <rc><c>Na</c><c>   1</c></rc>
    <rc><c>Na</c><c>   1</c></rc>
    <rc><c>Na</c><c>   1</c></rc>
    <rc><c>Na</c><c>   1</c></rc>
    <rc><c>Na</c><c>   1</c></rc>
    <rc><c>Na</c><c>   1</c></rc>
    <rc><c>Na</c><c>   1</c></rc>
    <rc><c>Na</c><c>   1</c></rc>
    <rc><c>Na</c><c>   1</c></rc>
    <rc><c>Na</c><c>   1</c></rc>
    <rc><c>Cl</c><c>   2</c></rc>
    <rc><c>Cl</c><c>   2</c></rc>
    <rc><c>Cl</c><c>   2</c></rc>
    <rc><c>Cl</c><c>   2</c></rc>
    <rc><c>Cl</c><c>   2</c></rc>
    <rc><c>Cl</c><c>   2</c></rc>
    <rc><c>Cl</c><c>   2</c></rc>
    <rc><c>Cl</c><c>   2</c></rc>
    <rc><c>Cl</c><c>   2</c></rc>
    <rc><c>Cl</c><c>   2</c></rc>
    <rc><c>Cl</c><c>   2</c></rc>
    <rc><c>Cl</c><c>   2</c></rc>
    <rc><c>Cl</c><c>   2</c></rc>
    <rc><c>Cl</c><c>   2</c></rc>
    <rc><c>Cl</c><c>   2</c></rc>
    <rc><c>Cl</c><c>   2</c></rc>
    <rc><c>Cl</c><c>   2</c></rc>
    <rc><c>Cl</c><c>   2</c></rc>
    <rc><c>Cl</c><c>   2</c></rc>
    <rc><c>Cl</c><c>   2</c></rc>
    <rc><c>Cl</c><c>   2</c></rc>
    <rc><c>Cl</c><c>   2</c></rc>
    <rc><c>Cl</c><c>   2</c></rc>
    <rc><c>Cl</c><c>   2</c></rc>
    <rc><c>Cl</c><c>   2</c></rc>
    <rc><c>Cl</c><c>   2</c></rc>
    <rc><c>Cl</c><c>   2</c></rc>
    <rc><c>Cl</c><c>   2</c></rc>
    <rc><c>Cl</c><c>   2</c></rc>
    <rc><c>Cl</c><c>   2</c></rc>
    <rc><c>Cl</c><c>   2</c></rc>
    <rc><c>Cl</c><c>   2</c></rc>
   </set>
  </array>
  <array name="atomtypes" >
   <dimension dim="1">type</dimension>
   <field type="int">atomspertype</field>
   <field type="string">element</field>
   <field>mass</field>
   <field>valence</field>
   <field type="string">pseudopotential</field>
   <set>
    <rc><c>  32</c><c>Na</c><c>     22.99000000</c><c>      7.00000000</c><c>  PAW_PBE Na_pv 19Sep2006               </c></rc>
    <rc><c>  32</c><c>Cl</c><c>     35.45300000</c><c>      7.00000000</c><c>  PAW_PBE Cl 06Sep2000                  </c></rc>
   </set>
  </array>
 </atominfo>
 <structure name="initialpos" >
  <crystal>
   <varray name="basis" >
    <v>      11.20400236       0.00000000       0.00000000 </v>
    <v>       0.00000000      11.20400236       0.00000000 </v>
    <v>       0.00000000       0.00000000      11.20400236 </v>
   </varray>
   <i name="volume">   1406.43470641 </i>
   <varray name="rec_basis" >
    <v>       0.08925382       0.00000000       0.00000000 </v>
    <v>       0.00000000       0.08925382       0.00000000 </v>
    <v>       0.00000000       0.00000000       0.08925382 </v>
   </varray>
  </crystal>
  <varray name="positions" >
   <v>       0.00267761       0.00000000       0.00000000 </v>
   <v>       0.25000000       0.25000000       0.00000000 </v>
   <v>       0.25000000       0.00000000       0.25000000 </v>
   <v>       0.00000000       0.25000000       0.25000000 </v>
   <v>       0.00000000       0.00000000       0.50000000 </v>
   <v>       0.25000000       0.25000000       0.50000000 </v>
   <v>       0.25000000       0.00000000       0.75000000 </v>
   <v>       0.00000000       0.25000000       0.75000000 </v>
   <v>       0.00000000       0.50000000       0.00000000 </v>
   <v>       0.25000000       0.75000000       0.00000000 </v>
   <v>       0.25000000       0.50000000       0.25000000 </v>
   <v>       0.00000000       0.75000000       0.25000000 </v>
   <v>       0.00000000       0.50000000       0.50000000 </v>
   <v>       0.25000000       0.75000000       0.50000000 </v>
   <v>       0.25000000       0.50000000       0.75000000 </v>
   <v>       0.00000000       0.75000000       0.75000000 </v>
   <v>       0.50000000       0.00000000       0.00000000 </v>
   <v>       0.75000000       0.25000000       0.00000000 </v>
   <v>       0.75000000       0.00000000       0.25000000 </v>
   <v>       0.50000000       0.25000000       0.25000000 </v>
   <v>       0.50000000       0.00000000       0.50000000 </v>
   <v>       0.75000000       0.25000000       0.50000000 </v>
   <v>       0.75000000       0.00000000       0.75000000 </v>
   <v>       0.50000000       0.25000000       0.75000000 </v>
   <v>       0.50000000       0.50000000       0.00000000 </v>
   <v>       0.75000000       0.75000000       0.00000000 </v>
   <v>       0.75000000       0.50000000       0.25000000 </v>
   <v>       0.50000000       0.75000000       0.25000000 </v>
   <v>       0.50000000       0.50000000       0.50000000 </v>
   <v>       0.75000000       0.75000000       0.50000000 </v>
   <v>       0.75000000       0.50000000       0.75000000 </v>
   <v>       0.50000000       0.75000000       0.75000000 </v>
   <v>       0.25000000       0.25000000       0.25000000 </v>
   <v>       0.00000000       0.00000000       0.25000000 </v>
   <v>       0.00000000       0.25000000       0.00000000 </v>
   <v>       0.25000000       0.00267761       0.00000000 </v>
   <v>       0.25000000       0.25000000       0.75000000 </v>
   <v>       0.00000000       0.00000000       0.75000000 </v>
   <v>       0.00000000       0.25000000       0.50000000 </v>
   <v>       0.25000000       0.00000000       0.50000000 </v>
   <v>       0.25000000       0.75000000       0.25000000 </v>
   <v>       0.00000000       0.50000000       0.25000000 </v>
   <v>       0.00000000       0.75000000       0.00000000 </v>
   <v>       0.25000000       0.50000000       0.00000000 </v>
   <v>       0.25000000       0.75000000       0.75000000 </v>
   <v>       0.00000000       0.50000000       0.75000000 </v>
   <v>       0.00000000       0.75000000       0.50000000 </v>
   <v>       0.25000000       0.50000000       0.50000000 </v>
   <v>       0.75000000       0.25000000       0.25000000 </v>
   <v>       0.50000000       0.00000000       0.25000000 </v>
   <v>       0.50000000       0.25000000       0.00000000 </v>
   <v>       0.75000000       0.00000000       0.00000000 </v>
   <v>       0.75000000       0.25000000       0.75000000 </v>
   <v>       0.50000000       0.00000000       0.75000000 </v>
   <v>       0.50000000       0.25000000       0.50000000 </v>
   <v>       0.75000000       0.00000000       0.50000000 </v>
   <v>       0.75000000       0.75000000       0.25000000 </v>
   <v>       0.50000000       0.50000000       0.25000000 </v>
   <v>       0.50000000       0.75000000       0.00000000 </v>
   <v>       0.75000000       0.50000000       0.00000000 </v>
   <v>       0.75000000       0.75000000       0.75000000 </v>
   <v>       0.50000000       0.50000000       0.75000000 </v>
   <v>       0.50000000       0.75000000       0.50000000 </v>
   <v>       0.75000000       0.50000000       0.50000000 </v>
  </varray>
 </structure>
 <calculation>
  <scstep>
   <time name="dav">    9.75    9.80</time>
   <time name="total">    9.83    9.88</time>
   <energy>
    <i name="alphaZ">    751.52672365 </i>
    <i name="ewald"> -22871.34070708 </i>
    <i name="hartreedc">  -8992.24595008 </i>
    <i name="XCdc">   1456.53426152 </i>
    <i name="pawpsdc">  26466.43774078 </i>
    <i name="pawaedc"> -29286.08056155 </i>
    <i name="eentropy">     -0.00307387 </i>
    <i name="bandstr">   -735.07956979 </i>
    <i name="atom">  37532.17946992 </i>
    <i name="e_fr_energy">   4321.92833351 </i>
    <i name="e_wo_entrp">   4321.93140738 </i>
    <i name="e_0_energy">   4321.92987045 </i>
   </energy>
  </scstep>
  <scstep>
   <time name="dav">   10.58   10.64</time>
   <time name="total">   10.58   10.64</time>
   <energy>
    <i name="e_fr_energy">    363.88875195 </i>
    <i name="e_wo_entrp">    363.88875195 </i>
    <i name="e_0_energy">    363.88875195 </i>
   </energy>
  </scstep>
  <scstep>
   <time name="dav">   11.40   11.46</time>
   <time name="total">   11.40   11.46</time>
   <energy>
    <i name="e_fr_energy">   -206.17526377 </i>
    <i name="e_wo_entrp">   -206.17526377 </i>
    <i name="e_0_energy">   -206.17526377 </i>
   </energy>
  </scstep>
  <scstep>
   <time name="dav">   11.35   11.41</time>
   <time name="total">   11.35   11.41</time>
   <energy>
    <i name="e_fr_energy">   -228.19199704 </i>
    <i name="e_wo_entrp">   -228.19199704 </i>
    <i name="e_0_energy">   -228.19199704 </i>
   </energy>
  </scstep>
  <scstep>
   <time name="dav">   11.66   11.72</time>
   <time name="total">   12.00   12.07</time>
   <energy>
    <i name="e_fr_energy">   -229.00550819 </i>
    <i name="e_wo_entrp">   -229.00550819 </i>
    <i name="e_0_energy">   -229.00550819 </i>
   </energy>
  </scstep>
  <scstep>
   <time name="dav">   11.62   11.68</time>
   <time name="total">   12.03   12.10</time>
   <energy>
    <i name="e_fr_energy">   -224.13800814 </i>
    <i name="e_wo_entrp">   -224.13800814 </i>
    <i name="e_0_energy">   -224.13800814 </i>
   </energy>
  </scstep>
  <scstep>
   <time name="dav">   12.50   12.56</time>
   <time name="total">   12.91   12.98</time>
   <energy>
    <i name="e_fr_energy">   -223.77731527 </i>
    <i name="e_wo_entrp">   -223.77731527 </i>
    <i name="e_0_energy">   -223.77731527 </i>
   </energy>
  </scstep>
  <scstep>
   <time name="dav">   11.04   11.10</time>
   <time name="total">   11.46   11.52</time>
   <energy>
    <i name="e_fr_energy">   -223.90248246 </i>
    <i name="e_wo_entrp">   -223.90248246 </i>
    <i name="e_0_energy">   -223.90248246 </i>
   </energy>
  </scstep>
  <scstep>
   <time name="dav">   11.62   11.68</time>
   <time name="total">   12.04   12.10</time>
   <energy>
    <i name="e_fr_energy">   -223.89704755 </i>
    <i name="e_wo_entrp">   -223.89704755 </i>
    <i name="e_0_energy">   -223.89704755 </i>
   </energy>
  </scstep>
  <scstep>
   <time name="dav">   11.01   11.07</time>
   <time name="total">   11.42   11.48</time>
   <energy>
    <i name="e_fr_energy">   -223.90135602 </i>
    <i name="e_wo_entrp">   -223.90135602 </i>
    <i name="e_0_energy">   -223.90135602 </i>
   </energy>
  </scstep>
  <scstep>
   <time name="dav">   11.55   11.61</time>
   <time name="total">   11.96   12.02</time>
   <energy>
    <i name="e_fr_energy">   -223.90066214 </i>
    <i name="e_wo_entrp">   -223.90066214 </i>
    <i name="e_0_energy">   -223.90066214 </i>
   </energy>
  </scstep>
  <scstep>
   <time name="dav">   12.25   12.31</time>
   <time name="total">   12.66   12.73</time>
   <energy>
    <i name="e_fr_energy">   -223.90062551 </i>
    <i name="e_wo_entrp">   -223.90062551 </i>
    <i name="e_0_energy">   -223.90062551 </i>
   </energy>
  </scstep>
  <scstep>
   <time name="dav">   11.55   11.61</time>
   <time name="total">   11.96   12.03</time>
   <energy>
    <i name="e_fr_energy">   -223.90062374 </i>
    <i name="e_wo_entrp">   -223.90062374 </i>
    <i name="e_0_energy">   -223.90062374 </i>
   </energy>
  </scstep>
  <scstep>
   <time name="dav">   11.45   11.51</time>
   <time name="total">   11.86   11.93</time>
   <energy>
    <i name="e_fr_energy">   -223.90062517 </i>
    <i name="e_wo_entrp">   -223.90062517 </i>
    <i name="e_0_energy">   -223.90062517 </i>
   </energy>
  </scstep>
  <scstep>
   <time name="dav">   11.56   11.62</time>
   <time name="total">   11.97   12.03</time>
   <energy>
    <i name="e_fr_energy">   -223.90062644 </i>
    <i name="e_wo_entrp">   -223.90062644 </i>
    <i name="e_0_energy">   -223.90062644 </i>
   </energy>
  </scstep>
  <scstep>
   <time name="dav">   11.41   11.47</time>
   <time name="total">   11.82   11.88</time>
   <energy>
    <i name="e_fr_energy">   -223.90062696 </i>
    <i name="e_wo_entrp">   -223.90062696 </i>
    <i name="e_0_energy">   -223.90062696 </i>
   </energy>
  </scstep>
  <scstep>
   <time name="dav">    8.57    8.62</time>
   <time name="total">    8.98    9.03</time>
   <energy>
    <i name="e_fr_energy">   -223.90062699 </i>
    <i name="e_wo_entrp">   -223.90062699 </i>
    <i name="e_0_energy">   -223.90062699 </i>
   </energy>
  </scstep>
  <scstep>
   <time name="dav">    8.76    8.81</time>
   <time name="total">    9.17    9.22</time>
   <energy>
    <i name="e_fr_energy">   -223.90062712 </i>
    <i name="e_wo_entrp">   -223.90062712 </i>
    <i name="e_0_energy">   -223.90062712 </i>
   </energy>
  </scstep>
  <scstep>
   <time name="dav">    7.40    7.44</time>
   <time name="total">    7.82    7.86</time>
   <energy>
    <i name="e_fr_energy">   -223.90062710 </i>
    <i name="e_wo_entrp">   -223.90062710 </i>
    <i name="e_0_energy">   -223.90062710 </i>
   </energy>
  </scstep>
  <scstep>
   <time name="dav">    7.49    7.53</time>
   <time name="total">    7.91    7.95</time>
   <energy>
    <i name="e_fr_energy">   -223.90062706 </i>
    <i name="e_wo_entrp">   -223.90062706 </i>
    <i name="e_0_energy">   -223.90062706 </i>
   </energy>
  </scstep>
  <scstep>
   <time name="dav">    7.77    7.81</time>
   <time name="total">    8.19    8.23</time>
   <energy>
    <i name="e_fr_energy">   -223.90062700 </i>
    <i name="e_wo_entrp">   -223.90062700 </i>
    <i name="e_0_energy">   -223.90062700 </i>
   </energy>
  </scstep>
  <scstep>
   <time name="dav">    7.22    7.26</time>
   <time name="total">    7.29    7.33</time>
   <energy>
    <i name="alphaZ">    751.52672365 </i>
    <i name="ewald"> -22871.34070708 </i>
    <i name="hartreedc">  -9078.16154703 </i>
    <i name="XCdc">   1472.51342796 </i>
    <i name="pawpsdc">  29498.29446205 </i>
    <i name="pawaedc"> -32317.65913172 </i>
    <i name="eentropy">     -0.00000000 </i>
    <i name="bandstr">  -5211.25332477 </i>
    <i name="atom">  37532.17946992 </i>
    <i name="e_fr_energy">   -223.90062701 </i>
    <i name="e_wo_entrp">   -223.90062701 </i>
    <i name="e_0_energy">   -223.90062701 </i>
   </energy>
  </scstep>
  <structure>
   <crystal>
    <varray name="basis" >
     <v>      11.20400236       0.00000000       0.00000000 </v>
     <v>       0.00000000      11.20400236       0.00000000 </v>
     <v>       0.00000000       0.00000000      11.20400236 </v>
    </varray>
    <i name="volume">   1406.43470641 </i>
    <varray name="rec_basis" >
     <v>       0.08925382       0.00000000       0.00000000 </v>
     <v>       0.00000000       0.08925382       0.00000000 </v>
     <v>       0.00000000       0.00000000       0.08925382 </v>
    </varray>
   </crystal>
   <varray name="positions" >
    <v>       0.00267761       0.00000000       0.00000000 </v>
    <v>       0.25000000       0.25000000       0.00000000 </v>
    <v>       0.25000000       0.00000000       0.25000000 </v>
    <v>       0.00000000       0.25000000       0.25000000 </v>
    <v>       0.00000000       0.00000000       0.50000000 </v>
    <v>       0.25000000       0.25000000       0.50000000 </v>
    <v>       0.25000000       0.00000000       0.75000000 </v>
    <v>       0.00000000       0.25000000       0.75000000 </v>
    <v>       0.00000000       0.50000000       0.00000000 </v>
    <v>       0.25000000       0.75000000       0.00000000 </v>
    <v>       0.25000000       0.50000000       0.25000000 </v>
    <v>       0.00000000       0.75000000       0.25000000 </v>
    <v>       0.00000000       0.50000000       0.50000000 </v>
    <v>       0.25000000       0.75000000       0.50000000 </v>
    <v>       0.25000000       0.50000000       0.75000000 </v>
    <v>       0.00000000       0.75000000       0.75000000 </v>
    <v>       0.50000000       0.00000000       0.00000000 </v>
    <v>       0.75000000       0.25000000       0.00000000 </v>
    <v>       0.75000000       0.00000000       0.25000000 </v>
    <v>       0.50000000       0.25000000       0.25000000 </v>
    <v>       0.50000000       0.00000000       0.50000000 </v>
    <v>       0.75000000       0.25000000       0.50000000 </v>
    <v>       0.75000000       0.00000000       0.75000000 </v>
    <v>       0.50000000       0.25000000       0.75000000 </v>
    <v>       0.50000000       0.50000000       0.00000000 </v>
    <v>       0.75000000       0.75000000       0.00000000 </v>
    <v>       0.75000000       0.50000000       0.25000000 </v>
    <v>       0.50000000       0.75000000       0.25000000 </v>
    <v>       0.50000000       0.50000000       0.50000000 </v>
    <v>       0.75000000       0.75000000       0.50000000 </v>
    <v>       0.75000000       0.50000000       0.75000000 </v>
    <v>       0.50000000       0.75000000       0.75000000 </v>
    <v>       0.25000000       0.25000000       0.25000000 </v>
    <v>       0.00000000       0.00000000       0.25000000 </v>
    <v>       0.00000000       0.25000000       0.00000000 </v>
    <v>       0.25000000       0.00267761       0.00000000 </v>
    <v>       0.25000000       0.25000000       0.75000000 </v>
    <v>       0.00000000       0.00000000       0.75000000 </v>
    <v>       0.00000000       0.25000000       0.50000000 </v>
    <v>       0.25000000       0.00000000       0.50000000 </v>
    <v>       0.25000000       0.75000000       0.25000000 </v>
    <v>       0.00000000       0.50000000       0.25000000 </v>
    <v>       0.00000000       0.75000000       0.00000000 </v>
    <v>       0.25000000       0.50000000       0.00000000 </v>
    <v>       0.25000000       0.75000000       0.75000000 </v>
    <v>       0.00000000       0.50000000       0.75000000 </v>
    <v>       0.00000000       0.75000000       0.50000000 </v>
    <v>       0.25000000       0.50000000       0.50000000 </v>
    <v>       0.75000000       0.25000000       0.25000000 </v>
    <v>       0.50000000       0.00000000       0.25000000 </v>
    <v>       0.50000000       0.25000000       0.00000000 </v>
    <v>       0.75000000       0.00000000       0.00000000 </v>
    <v>       0.75000000       0.25000000       0.75000000 </v>
    <v>       0.50000000       0.00000000       0.75000000 </v>
    <v>       0.50000000       0.25000000       0.50000000 </v>
    <v>       0.75000000       0.00000000       0.50000000 </v>
    <v>       0.75000000       0.75000000       0.25000000 </v>
    <v>       0.50000000       0.50000000       0.25000000 </v>
    <v>       0.50000000       0.75000000       0.00000000 </v>
    <v>       0.75000000       0.50000000       0.00000000 </v>
    <v>       0.75000000       0.75000000       0.75000000 </v>
    <v>       0.50000000       0.50000000       0.75000000 </v>
    <v>       0.50000000       0.75000000       0.50000000 </v>
    <v>       0.75000000       0.50000000       0.50000000 </v>
   </varray>
  </structure>
  <varray name="forces" >
   <v>      -0.06270289       0.00486331       0.00000000 </v>
   <v>       0.00147803       0.02620720       0.00000000 </v>
   <v>       0.00151385       0.00499332       0.00583409 </v>
   <v>      -0.00036939      -0.00023226      -0.00132042 </v>
   <v>      -0.00004851       0.00060652       0.00000000 </v>
   <v>      -0.00003309       0.00008961       0.00000000 </v>
   <v>       0.00151385       0.00499332      -0.00583409 </v>
   <v>      -0.00036939      -0.00023226       0.00132042 </v>
   <v>      -0.00005148      -0.00284076       0.00000000 </v>
   <v>       0.00154891       0.01028745       0.00000000 </v>
   <v>      -0.00003348      -0.00282993      -0.00008031 </v>
   <v>      -0.00295244      -0.00021542       0.00127297 </v>
   <v>      -0.00045157      -0.00066910       0.00000000 </v>
   <v>      -0.00003380       0.00022878       0.00000000 </v>
   <v>      -0.00003348      -0.00282993       0.00008031 </v>
   <v>      -0.00295244      -0.00021542      -0.00127297 </v>
   <v>       0.00882308       0.00496614       0.00000000 </v>
   <v>       0.00151714      -0.00563351       0.00000000 </v>
   <v>       0.00150812       0.00060690      -0.00580297 </v>
   <v>      -0.00012962      -0.00020689      -0.00128627 </v>
   <v>       0.00030833       0.00060725       0.00000000 </v>
   <v>      -0.00002101       0.00007889       0.00000000 </v>
   <v>       0.00150812       0.00060690       0.00580297 </v>
   <v>      -0.00012962      -0.00020689       0.00128627 </v>
   <v>       0.00030737      -0.00282312       0.00000000 </v>
   <v>       0.00149914       0.00595328       0.00000000 </v>
   <v>      -0.00002076      -0.00066958       0.00007045 </v>
   <v>       0.00245027      -0.00023782       0.00128690 </v>
   <v>       0.00043948      -0.00066940       0.00000000 </v>
   <v>      -0.00002058      -0.00007704       0.00000000 </v>
   <v>      -0.00002076      -0.00066958      -0.00007045 </v>
   <v>       0.00245027      -0.00023782      -0.00128690 </v>
   <v>      -0.00021316       0.00260793       0.00456862 </v>
   <v>       0.00503116      -0.00234003      -0.00015355 </v>
   <v>      -0.00089937       0.00381778       0.00000000 </v>
   <v>       0.02020277      -0.07584274      -0.00000000 </v>
   <v>      -0.00021316       0.00260793      -0.00456862 </v>
   <v>       0.00503116      -0.00234003       0.00015355 </v>
   <v>       0.00002413      -0.00004326       0.00000000 </v>
   <v>       0.00016998      -0.00154489       0.00000000 </v>
   <v>      -0.00022509       0.00516201      -0.00703195 </v>
   <v>       0.00059513       0.00154549       0.00001295 </v>
   <v>       0.01075200       0.00400716       0.00000000 </v>
   <v>       0.00017004       0.00383344      -0.00000000 </v>
   <v>      -0.00022509       0.00516201       0.00703195 </v>
   <v>       0.00059513       0.00154549      -0.00001295 </v>
   <v>       0.00116420      -0.00004712       0.00000000 </v>
   <v>      -0.00000129       0.00195527       0.00000000 </v>
   <v>      -0.00024250       0.00122986       0.00185705 </v>
   <v>      -0.00286612      -0.00232691      -0.00004198 </v>
   <v>       0.00302444       0.00389079       0.00000000 </v>
   <v>       0.01617665      -0.00154863       0.00000000 </v>
   <v>      -0.00024250       0.00122986      -0.00185705 </v>
   <v>      -0.00286612      -0.00232691       0.00004198 </v>
   <v>      -0.00009763      -0.00005392       0.00000000 </v>
   <v>       0.00014014      -0.00051815       0.00000000 </v>
   <v>      -0.00023894      -0.00132092       0.00071687 </v>
   <v>      -0.00066938       0.00154159       0.00000245 </v>
   <v>      -0.00854940       0.00385772       0.00000000 </v>
   <v>       0.00013991       0.00195592       0.00000000 </v>
   <v>      -0.00023894      -0.00132092      -0.00071687 </v>
   <v>      -0.00066938       0.00154159      -0.00000245 </v>
   <v>      -0.00123898      -0.00003644       0.00000000 </v>
   <v>      -0.00001141       0.00052687       0.00000000 </v>
  </varray>
  <varray name="stress" >
   <v>      -0.36697976       0.00033522       0.00000000 </v>
   <v>       0.00033514      -0.36666814       0.00000000 </v>
   <v>       0.00000000       0.00000000      -0.37850102 </v>
  </varray>
  <energy>
   <i name="e_fr_energy">   -223.90062701 </i>
   <i name="e_wo_entrp">   -223.90062701 </i>
   <i name="e_0_energy">   -223.90062701 </i>
  </energy>
  <time name="totalsc">  251.86  253.22</time>
  <eigenvalues>
   <array>
    <dimension dim="1">band</dimension>
    <dimension dim="2">kpoint</dimension>
    <dimension dim="3">spin</dimension>
    <field>eigene</field>
    <field>occ</field>
    <set>
     <set comment="spin 1">
      <set comment="kpoint 1">
       <r>  -21.3135    1.0000 </r>
       <r>  -21.3132    1.0000 </r>
       <r>  -21.3128    1.0000 </r>
       <r>  -21.3039    1.0000 </r>
       <r>  -21.3009    1.0000 </r>
       <r>  -21.3007    1.0000 </r>
       <r>  -21.3000    1.0000 </r>
       <r>  -21.2944    1.0000 </r>
       <r>  -21.2943    1.0000 </r>
       <r>  -21.2942    1.0000 </r>
       <r>  -21.2937    1.0000 </r>
       <r>  -21.2933    1.0000 </r>
       <r>  -21.2933    1.0000 </r>
       <r>  -21.2931    1.0000 </r>
       <r>  -21.2924    1.0000 </r>
       <r>  -21.2922    1.0000 </r>
       <r>  -21.2918    1.0000 </r>
       <r>  -21.2915    1.0000 </r>
       <r>  -21.2910    1.0000 </r>
       <r>  -21.2894    1.0000 </r>
       <r>  -21.2888    1.0000 </r>
       <r>  -21.2881    1.0000 </r>
       <r>  -21.2875    1.0000 </r>
       <r>  -21.2865    1.0000 </r>
       <r>  -21.2864    1.0000 </r>
       <r>  -21.2863    1.0000 </r>
       <r>  -21.2862    1.0000 </r>
       <r>  -21.2859    1.0000 </r>
       <r>  -21.2853    1.0000 </r>
       <r>  -21.2850    1.0000 </r>
       <r>  -21.2846    1.0000 </r>
       <r>  -21.2841    1.0000 </r>
       <r>  -21.2837    1.0000 </r>
       <r>  -21.2836    1.0000 </r>
       <r>  -21.2833    1.0000 </r>
       <r>  -21.2832    1.0000 </r>
       <r>  -21.2830    1.0000 </r>
       <r>  -21.2829    1.0000 </r>
       <r>  -21.2828    1.0000 </r>
       <r>  -21.2819    1.0000 </r>
       <r>  -21.2815    1.0000 </r>
       <r>  -21.2813    1.0000 </r>
       <r>  -21.2810    1.0000 </r>
       <r>  -21.2807    1.0000 </r>
       <r>  -21.2807    1.0000 </r>
       <r>  -21.2803    1.0000 </r>
       <r>  -21.2800    1.0000 </r>
       <r>  -21.2800    1.0000 </r>
       <r>  -21.2799    1.0000 </r>
       <r>  -21.2799    1.0000 </r>
       <r>  -21.2799    1.0000 </r>
       <r>  -21.2798    1.0000 </r>
       <r>  -21.2798    1.0000 </r>
       <r>  -21.2797    1.0000 </r>
       <r>  -21.2792    1.0000 </r>
       <r>  -21.2785    1.0000 </r>
       <r>  -21.2781    1.0000 </r>
       <r>  -21.2780    1.0000 </r>
       <r>  -21.2767    1.0000 </r>
       <r>  -21.2767    1.0000 </r>
       <r>  -21.2758    1.0000 </r>
       <r>  -21.2753    1.0000 </r>
       <r>  -21.2751    1.0000 </r>
       <r>  -21.2750    1.0000 </r>
       <r>  -21.2743    1.0000 </r>
       <r>  -21.2742    1.0000 </r>
       <r>  -21.2742    1.0000 </r>
       <r>  -21.2738    1.0000 </r>
       <r>  -21.2736    1.0000 </r>
       <r>  -21.2735    1.0000 </r>
       <r>  -21.2734    1.0000 </r>
       <r>  -21.2733    1.0000 </r>
       <r>  -21.2730    1.0000 </r>
       <r>  -21.2724    1.0000 </r>
       <r>  -21.2717    1.0000 </r>
       <r>  -21.2717    1.0000 </r>
       <r>  -21.2716    1.0000 </r>
       <r>  -21.2715    1.0000 </r>
       <r>  -21.2713    1.0000 </r>
       <r>  -21.2712    1.0000 </r>
       <r>  -21.2712    1.0000 </r>
       <r>  -21.2711    1.0000 </r>
       <r>  -21.2710    1.0000 </r>
       <r>  -21.2707    1.0000 </r>
       <r>  -21.2706    1.0000 </r>
       <r>  -21.2701    1.0000 </r>
       <r>  -21.2696    1.0000 </r>
       <r>  -21.2696    1.0000 </r>
       <r>  -21.2683    1.0000 </r>
       <r>  -21.2682    1.0000 </r>
       <r>  -21.2666    1.0000 </r>
       <r>  -21.2663    1.0000 </r>
       <r>  -21.2661    1.0000 </r>
       <r>  -21.2610    1.0000 </r>
       <r>  -21.2606    1.0000 </r>
       <r>  -21.2604    1.0000 </r>
       <r>  -13.3581    1.0000 </r>
       <r>  -13.1426    1.0000 </r>
       <r>  -13.1384    1.0000 </r>
       <r>  -13.1374    1.0000 </r>
       <r>  -13.1374    1.0000 </r>
       <r>  -13.1364    1.0000 </r>
       <r>  -13.1335    1.0000 </r>
       <r>  -13.0217    1.0000 </r>
       <r>  -13.0152    1.0000 </r>
       <r>  -13.0145    1.0000 </r>
       <r>  -13.0113    1.0000 </r>
       <r>  -13.0112    1.0000 </r>
       <r>  -13.0111    1.0000 </r>
       <r>  -13.0111    1.0000 </r>
       <r>  -13.0111    1.0000 </r>
       <r>  -13.0110    1.0000 </r>
       <r>  -13.0087    1.0000 </r>
       <r>  -13.0083    1.0000 </r>
       <r>  -13.0044    1.0000 </r>
       <r>  -12.9900    1.0000 </r>
       <r>  -12.9891    1.0000 </r>
       <r>  -12.9889    1.0000 </r>
       <r>  -12.9885    1.0000 </r>
       <r>  -12.9418    1.0000 </r>
       <r>  -12.9407    1.0000 </r>
       <r>  -12.9404    1.0000 </r>
       <r>  -12.9243    1.0000 </r>
       <r>  -12.9222    1.0000 </r>
       <r>  -12.9213    1.0000 </r>
       <r>  -12.9213    1.0000 </r>
       <r>  -12.9201    1.0000 </r>
       <r>  -12.9147    1.0000 </r>
       <r>   -2.7001    1.0000 </r>
       <r>   -2.7000    1.0000 </r>
       <r>   -2.7000    1.0000 </r>
       <r>   -2.7000    1.0000 </r>
       <r>   -2.4240    1.0000 </r>
       <r>   -2.4240    1.0000 </r>
       <r>   -2.4240    1.0000 </r>
       <r>   -2.2077    1.0000 </r>
       <r>   -2.2075    1.0000 </r>
       <r>   -2.2053    1.0000 </r>
       <r>   -2.2047    1.0000 </r>
       <r>   -2.2045    1.0000 </r>
       <r>   -2.2042    1.0000 </r>
       <r>   -2.2041    1.0000 </r>
       <r>   -2.2039    1.0000 </r>
       <r>   -2.2037    1.0000 </r>
       <r>   -2.2032    1.0000 </r>
       <r>   -2.2013    1.0000 </r>
       <r>   -2.2013    1.0000 </r>
       <r>   -1.9287    1.0000 </r>
       <r>   -1.9277    1.0000 </r>
       <r>   -1.9270    1.0000 </r>
       <r>   -1.9254    1.0000 </r>
       <r>   -1.9252    1.0000 </r>
       <r>   -1.9250    1.0000 </r>
       <r>   -1.9241    1.0000 </r>
       <r>   -1.9238    1.0000 </r>
       <r>   -1.9235    1.0000 </r>
       <r>   -1.9229    1.0000 </r>
       <r>   -1.9217    1.0000 </r>
       <r>   -1.9214    1.0000 </r>
       <r>   -1.7978    1.0000 </r>
       <r>   -1.7968    1.0000 </r>
       <r>   -1.7966    1.0000 </r>
       <r>   -1.7966    1.0000 </r>
       <r>   -1.7964    1.0000 </r>
       <r>   -1.7956    1.0000 </r>
       <r>   -1.5096    1.0000 </r>
       <r>   -1.5090    1.0000 </r>
       <r>   -1.5062    1.0000 </r>
       <r>   -1.5059    1.0000 </r>
       <r>   -1.5054    1.0000 </r>
       <r>   -1.5053    1.0000 </r>
       <r>   -1.5052    1.0000 </r>
       <r>   -1.5050    1.0000 </r>
       <r>   -1.5044    1.0000 </r>
       <r>   -1.5044    1.0000 </r>
       <r>   -1.5026    1.0000 </r>
       <r>   -1.5021    1.0000 </r>
       <r>   -1.4647    1.0000 </r>
       <r>   -1.4631    1.0000 </r>
       <r>   -1.4624    1.0000 </r>
       <r>   -1.4623    1.0000 </r>
       <r>   -1.4622    1.0000 </r>
       <r>   -1.4612    1.0000 </r>
       <r>   -1.2947    1.0000 </r>
       <r>   -1.2947    1.0000 </r>
       <r>   -1.2947    1.0000 </r>
       <r>   -1.2946    1.0000 </r>
       <r>   -1.2946    1.0000 </r>
       <r>   -1.2946    1.0000 </r>
       <r>   -1.0055    1.0000 </r>
       <r>   -1.0052    1.0000 </r>
       <r>   -1.0041    1.0000 </r>
       <r>   -1.0012    1.0000 </r>
       <r>   -1.0011    1.0000 </r>
       <r>   -1.0009    1.0000 </r>
       <r>   -1.0003    1.0000 </r>
       <r>   -1.0002    1.0000 </r>
       <r>   -0.9996    1.0000 </r>
       <r>   -0.9984    1.0000 </r>
       <r>   -0.9981    1.0000 </r>
       <r>   -0.9975    1.0000 </r>
       <r>   -0.9537    1.0000 </r>
       <r>   -0.9521    1.0000 </r>
       <r>   -0.9519    1.0000 </r>
       <r>   -0.9511    1.0000 </r>
       <r>   -0.9480    1.0000 </r>
       <r>   -0.9479    1.0000 </r>
       <r>   -0.9478    1.0000 </r>
       <r>   -0.9473    1.0000 </r>
       <r>   -0.9473    1.0000 </r>
       <r>   -0.9472    1.0000 </r>
       <r>   -0.9470    1.0000 </r>
       <r>   -0.9469    1.0000 </r>
       <r>   -0.9458    1.0000 </r>
       <r>   -0.9458    1.0000 </r>
       <r>   -0.9457    1.0000 </r>
       <r>   -0.9440    1.0000 </r>
       <r>   -0.9425    1.0000 </r>
       <r>   -0.9419    1.0000 </r>
       <r>   -0.9410    1.0000 </r>
       <r>   -0.9408    1.0000 </r>
       <r>   -0.6649    1.0000 </r>
       <r>   -0.6648    1.0000 </r>
       <r>   -0.6648    1.0000 </r>
       <r>    4.3403    0.0000 </r>
       <r>    6.3596    0.0000 </r>
       <r>    6.3678    0.0000 </r>
       <r>    6.3679    0.0000 </r>
       <r>    6.3680    0.0000 </r>
       <r>    6.3707    0.0000 </r>
       <r>    6.3741    0.0000 </r>
       <r>    6.4446    0.0000 </r>
       <r>    6.4447    0.0000 </r>
       <r>    6.4448    0.0000 </r>
       <r>    6.4448    0.0000 </r>
       <r>    6.8279    0.0000 </r>
       <r>    6.8280    0.0000 </r>
       <r>    6.8281    0.0000 </r>
       <r>    7.2068    0.0000 </r>
       <r>    7.2068    0.0000 </r>
       <r>    7.2069    0.0000 </r>
       <r>    7.4517    0.0000 </r>
       <r>    7.4581    0.0000 </r>
       <r>    7.4590    0.0000 </r>
       <r>    7.4639    0.0000 </r>
       <r>    7.4641    0.0000 </r>
       <r>    7.4645    0.0000 </r>
       <r>    7.4658    0.0000 </r>
       <r>    7.4659    0.0000 </r>
       <r>    7.4668    0.0000 </r>
       <r>    7.4687    0.0000 </r>
       <r>    7.4694    0.0000 </r>
       <r>    7.4719    0.0000 </r>
       <r>    8.1621    0.0000 </r>
       <r>    8.1680    0.0000 </r>
       <r>    8.1681    0.0000 </r>
       <r>    8.1681    0.0000 </r>
       <r>    8.1701    0.0000 </r>
       <r>    8.1735    0.0000 </r>
       <r>    8.2760    0.0000 </r>
       <r>    8.2793    0.0000 </r>
       <r>    8.2796    0.0000 </r>
       <r>    8.2796    0.0000 </r>
       <r>    8.2808    0.0000 </r>
       <r>    8.2822    0.0000 </r>
       <r>    8.8869    0.0000 </r>
       <r>    8.8881    0.0000 </r>
       <r>    8.8957    0.0000 </r>
       <r>    8.8998    0.0000 </r>
       <r>    8.9004    0.0000 </r>
       <r>    8.9009    0.0000 </r>
       <r>    8.9014    0.0000 </r>
       <r>    8.9029    0.0000 </r>
       <r>    8.9036    0.0000 </r>
       <r>    8.9039    0.0000 </r>
       <r>    8.9052    0.0000 </r>
       <r>    8.9074    0.0000 </r>
       <r>    8.9121    0.0000 </r>
       <r>    8.9144    0.0000 </r>
       <r>    8.9150    0.0000 </r>
       <r>    8.9162    0.0000 </r>
       <r>    8.9166    0.0000 </r>
       <r>    8.9176    0.0000 </r>
       <r>    8.9184    0.0000 </r>
       <r>    8.9198    0.0000 </r>
       <r>    8.9219    0.0000 </r>
       <r>    8.9243    0.0000 </r>
       <r>    8.9246    0.0000 </r>
      </set>
      <set comment="kpoint 2">
       <r>  -21.3132    1.0000 </r>
       <r>  -21.3128    1.0000 </r>
       <r>  -21.3123    1.0000 </r>
       <r>  -21.3004    1.0000 </r>
       <r>  -21.2988    1.0000 </r>
       <r>  -21.2986    1.0000 </r>
       <r>  -21.2980    1.0000 </r>
       <r>  -21.2974    1.0000 </r>
       <r>  -21.2973    1.0000 </r>
       <r>  -21.2968    1.0000 </r>
       <r>  -21.2968    1.0000 </r>
       <r>  -21.2932    1.0000 </r>
       <r>  -21.2930    1.0000 </r>
       <r>  -21.2923    1.0000 </r>
       <r>  -21.2921    1.0000 </r>
       <r>  -21.2915    1.0000 </r>
       <r>  -21.2912    1.0000 </r>
       <r>  -21.2908    1.0000 </r>
       <r>  -21.2898    1.0000 </r>
       <r>  -21.2898    1.0000 </r>
       <r>  -21.2896    1.0000 </r>
       <r>  -21.2888    1.0000 </r>
       <r>  -21.2886    1.0000 </r>
       <r>  -21.2886    1.0000 </r>
       <r>  -21.2880    1.0000 </r>
       <r>  -21.2879    1.0000 </r>
       <r>  -21.2873    1.0000 </r>
       <r>  -21.2871    1.0000 </r>
       <r>  -21.2868    1.0000 </r>
       <r>  -21.2867    1.0000 </r>
       <r>  -21.2866    1.0000 </r>
       <r>  -21.2861    1.0000 </r>
       <r>  -21.2853    1.0000 </r>
       <r>  -21.2850    1.0000 </r>
       <r>  -21.2844    1.0000 </r>
       <r>  -21.2831    1.0000 </r>
       <r>  -21.2829    1.0000 </r>
       <r>  -21.2829    1.0000 </r>
       <r>  -21.2828    1.0000 </r>
       <r>  -21.2826    1.0000 </r>
       <r>  -21.2824    1.0000 </r>
       <r>  -21.2810    1.0000 </r>
       <r>  -21.2802    1.0000 </r>
       <r>  -21.2801    1.0000 </r>
       <r>  -21.2801    1.0000 </r>
       <r>  -21.2798    1.0000 </r>
       <r>  -21.2793    1.0000 </r>
       <r>  -21.2790    1.0000 </r>
       <r>  -21.2781    1.0000 </r>
       <r>  -21.2779    1.0000 </r>
       <r>  -21.2778    1.0000 </r>
       <r>  -21.2777    1.0000 </r>
       <r>  -21.2775    1.0000 </r>
       <r>  -21.2772    1.0000 </r>
       <r>  -21.2770    1.0000 </r>
       <r>  -21.2767    1.0000 </r>
       <r>  -21.2765    1.0000 </r>
       <r>  -21.2762    1.0000 </r>
       <r>  -21.2758    1.0000 </r>
       <r>  -21.2756    1.0000 </r>
       <r>  -21.2754    1.0000 </r>
       <r>  -21.2753    1.0000 </r>
       <r>  -21.2749    1.0000 </r>
       <r>  -21.2748    1.0000 </r>
       <r>  -21.2747    1.0000 </r>
       <r>  -21.2745    1.0000 </r>
       <r>  -21.2745    1.0000 </r>
       <r>  -21.2741    1.0000 </r>
       <r>  -21.2740    1.0000 </r>
       <r>  -21.2740    1.0000 </r>
       <r>  -21.2738    1.0000 </r>
       <r>  -21.2732    1.0000 </r>
       <r>  -21.2732    1.0000 </r>
       <r>  -21.2731    1.0000 </r>
       <r>  -21.2729    1.0000 </r>
       <r>  -21.2725    1.0000 </r>
       <r>  -21.2723    1.0000 </r>
       <r>  -21.2720    1.0000 </r>
       <r>  -21.2716    1.0000 </r>
       <r>  -21.2715    1.0000 </r>
       <r>  -21.2715    1.0000 </r>
       <r>  -21.2712    1.0000 </r>
       <r>  -21.2711    1.0000 </r>
       <r>  -21.2707    1.0000 </r>
       <r>  -21.2707    1.0000 </r>
       <r>  -21.2704    1.0000 </r>
       <r>  -21.2699    1.0000 </r>
       <r>  -21.2697    1.0000 </r>
       <r>  -21.2685    1.0000 </r>
       <r>  -21.2684    1.0000 </r>
       <r>  -21.2673    1.0000 </r>
       <r>  -21.2664    1.0000 </r>
       <r>  -21.2663    1.0000 </r>
       <r>  -21.2611    1.0000 </r>
       <r>  -21.2608    1.0000 </r>
       <r>  -21.2607    1.0000 </r>
       <r>  -13.2939    1.0000 </r>
       <r>  -13.2888    1.0000 </r>
       <r>  -13.1047    1.0000 </r>
       <r>  -13.0990    1.0000 </r>
       <r>  -13.0985    1.0000 </r>
       <r>  -13.0972    1.0000 </r>
       <r>  -13.0967    1.0000 </r>
       <r>  -13.0955    1.0000 </r>
       <r>  -13.0950    1.0000 </r>
       <r>  -13.0907    1.0000 </r>
       <r>  -13.0095    1.0000 </r>
       <r>  -13.0035    1.0000 </r>
       <r>  -13.0011    1.0000 </r>
       <r>  -13.0010    1.0000 </r>
       <r>  -13.0006    1.0000 </r>
       <r>  -13.0006    1.0000 </r>
       <r>  -12.9979    1.0000 </r>
       <r>  -12.9966    1.0000 </r>
       <r>  -12.9962    1.0000 </r>
       <r>  -12.9908    1.0000 </r>
       <r>  -12.9501    1.0000 </r>
       <r>  -12.9467    1.0000 </r>
       <r>  -12.9446    1.0000 </r>
       <r>  -12.9441    1.0000 </r>
       <r>  -12.9437    1.0000 </r>
       <r>  -12.9424    1.0000 </r>
       <r>  -12.9422    1.0000 </r>
       <r>  -12.9376    1.0000 </r>
       <r>  -12.9335    1.0000 </r>
       <r>  -12.9306    1.0000 </r>
       <r>  -12.9305    1.0000 </r>
       <r>  -12.9236    1.0000 </r>
       <r>   -2.5082    1.0000 </r>
       <r>   -2.5081    1.0000 </r>
       <r>   -2.5065    1.0000 </r>
       <r>   -2.5050    1.0000 </r>
       <r>   -2.5035    1.0000 </r>
       <r>   -2.5023    1.0000 </r>
       <r>   -2.5007    1.0000 </r>
       <r>   -2.5007    1.0000 </r>
       <r>   -2.2902    1.0000 </r>
       <r>   -2.2901    1.0000 </r>
       <r>   -2.2853    1.0000 </r>
       <r>   -2.2852    1.0000 </r>
       <r>   -2.2768    1.0000 </r>
       <r>   -2.2716    1.0000 </r>
       <r>   -2.1420    1.0000 </r>
       <r>   -2.1370    1.0000 </r>
       <r>   -2.1366    1.0000 </r>
       <r>   -2.1365    1.0000 </r>
       <r>   -2.1365    1.0000 </r>
       <r>   -2.1363    1.0000 </r>
       <r>   -2.1352    1.0000 </r>
       <r>   -2.1314    1.0000 </r>
       <r>   -1.9878    1.0000 </r>
       <r>   -1.9878    1.0000 </r>
       <r>   -1.9859    1.0000 </r>
       <r>   -1.9854    1.0000 </r>
       <r>   -1.9853    1.0000 </r>
       <r>   -1.9850    1.0000 </r>
       <r>   -1.9832    1.0000 </r>
       <r>   -1.9830    1.0000 </r>
       <r>   -1.8150    1.0000 </r>
       <r>   -1.8121    1.0000 </r>
       <r>   -1.8100    1.0000 </r>
       <r>   -1.8077    1.0000 </r>
       <r>   -1.8075    1.0000 </r>
       <r>   -1.8070    1.0000 </r>
       <r>   -1.8054    1.0000 </r>
       <r>   -1.8053    1.0000 </r>
       <r>   -1.5000    1.0000 </r>
       <r>   -1.5000    1.0000 </r>
       <r>   -1.4955    1.0000 </r>
       <r>   -1.4955    1.0000 </r>
       <r>   -1.3859    1.0000 </r>
       <r>   -1.3806    1.0000 </r>
       <r>   -1.3803    1.0000 </r>
       <r>   -1.3752    1.0000 </r>
       <r>   -1.2155    1.0000 </r>
       <r>   -1.2150    1.0000 </r>
       <r>   -1.2104    1.0000 </r>
       <r>   -1.2100    1.0000 </r>
       <r>   -1.1932    1.0000 </r>
       <r>   -1.1932    1.0000 </r>
       <r>   -1.1931    1.0000 </r>
       <r>   -1.1913    1.0000 </r>
       <r>   -1.1908    1.0000 </r>
       <r>   -1.1900    1.0000 </r>
       <r>   -1.1900    1.0000 </r>
       <r>   -1.1889    1.0000 </r>
       <r>   -1.1806    1.0000 </r>
       <r>   -1.1756    1.0000 </r>
       <r>   -1.1753    1.0000 </r>
       <r>   -1.1752    1.0000 </r>
       <r>   -1.1734    1.0000 </r>
       <r>   -1.1723    1.0000 </r>
       <r>   -1.1721    1.0000 </r>
       <r>   -1.1678    1.0000 </r>
       <r>   -1.1643    1.0000 </r>
       <r>   -1.1622    1.0000 </r>
       <r>   -1.1608    1.0000 </r>
       <r>   -1.1592    1.0000 </r>
       <r>   -1.1585    1.0000 </r>
       <r>   -1.1582    1.0000 </r>
       <r>   -1.1560    1.0000 </r>
       <r>   -1.1556    1.0000 </r>
       <r>   -1.0856    1.0000 </r>
       <r>   -1.0807    1.0000 </r>
       <r>   -0.9520    1.0000 </r>
       <r>   -0.9514    1.0000 </r>
       <r>   -0.9469    1.0000 </r>
       <r>   -0.9469    1.0000 </r>
       <r>   -0.9468    1.0000 </r>
       <r>   -0.9465    1.0000 </r>
       <r>   -0.9423    1.0000 </r>
       <r>   -0.9422    1.0000 </r>
       <r>   -0.9387    1.0000 </r>
       <r>   -0.9341    1.0000 </r>
       <r>   -0.9325    1.0000 </r>
       <r>   -0.9322    1.0000 </r>
       <r>   -0.9322    1.0000 </r>
       <r>   -0.9310    1.0000 </r>
       <r>   -0.9310    1.0000 </r>
       <r>   -0.9257    1.0000 </r>
       <r>   -0.7706    1.0000 </r>
       <r>   -0.7705    1.0000 </r>
       <r>   -0.7659    1.0000 </r>
       <r>   -0.7659    1.0000 </r>
       <r>    5.0204    0.0000 </r>
       <r>    5.0242    0.0000 </r>
       <r>    6.7068    0.0000 </r>
       <r>    6.7159    0.0000 </r>
       <r>    6.7174    0.0000 </r>
       <r>    6.7184    0.0000 </r>
       <r>    6.7191    0.0000 </r>
       <r>    6.7202    0.0000 </r>
       <r>    6.7225    0.0000 </r>
       <r>    6.7245    0.0000 </r>
       <r>    6.8383    0.0000 </r>
       <r>    6.8387    0.0000 </r>
       <r>    6.8415    0.0000 </r>
       <r>    6.8418    0.0000 </r>
       <r>    6.8461    0.0000 </r>
       <r>    6.8465    0.0000 </r>
       <r>    6.8467    0.0000 </r>
       <r>    6.8469    0.0000 </r>
       <r>    6.9697    0.0000 </r>
       <r>    6.9726    0.0000 </r>
       <r>    7.3592    0.0000 </r>
       <r>    7.3623    0.0000 </r>
       <r>    7.3628    0.0000 </r>
       <r>    7.3659    0.0000 </r>
       <r>    7.4775    0.0000 </r>
       <r>    7.4830    0.0000 </r>
       <r>    7.7116    0.0000 </r>
       <r>    7.7116    0.0000 </r>
       <r>    7.7176    0.0000 </r>
       <r>    7.7176    0.0000 </r>
       <r>    8.2566    0.0000 </r>
       <r>    8.2637    0.0000 </r>
       <r>    8.2656    0.0000 </r>
       <r>    8.2660    0.0000 </r>
       <r>    8.2674    0.0000 </r>
       <r>    8.2682    0.0000 </r>
       <r>    8.2694    0.0000 </r>
       <r>    8.2702    0.0000 </r>
       <r>    8.5273    0.0000 </r>
       <r>    8.5302    0.0000 </r>
       <r>    8.5325    0.0000 </r>
       <r>    8.5339    0.0000 </r>
       <r>    8.5370    0.0000 </r>
       <r>    8.5379    0.0000 </r>
       <r>    8.5386    0.0000 </r>
       <r>    8.5395    0.0000 </r>
       <r>    8.5395    0.0000 </r>
       <r>    8.5401    0.0000 </r>
       <r>    8.5403    0.0000 </r>
       <r>    8.5407    0.0000 </r>
       <r>    8.5412    0.0000 </r>
       <r>    8.5442    0.0000 </r>
       <r>    8.5447    0.0000 </r>
       <r>    8.5483    0.0000 </r>
       <r>    8.9380    0.0000 </r>
       <r>    8.9485    0.0000 </r>
       <r>    8.9501    0.0000 </r>
       <r>    8.9515    0.0000 </r>
       <r>    8.9533    0.0000 </r>
       <r>    8.9535    0.0000 </r>
       <r>    8.9558    0.0000 </r>
       <r>    8.9566    0.0000 </r>
       <r>    9.4861    0.0000 </r>
       <r>    9.4935    0.0000 </r>
      </set>
      <set comment="kpoint 3">
       <r>  -21.3131    1.0000 </r>
       <r>  -21.3128    1.0000 </r>
       <r>  -21.3125    1.0000 </r>
       <r>  -21.3003    1.0000 </r>
       <r>  -21.2988    1.0000 </r>
       <r>  -21.2987    1.0000 </r>
       <r>  -21.2980    1.0000 </r>
       <r>  -21.2978    1.0000 </r>
       <r>  -21.2975    1.0000 </r>
       <r>  -21.2965    1.0000 </r>
       <r>  -21.2961    1.0000 </r>
       <r>  -21.2931    1.0000 </r>
       <r>  -21.2928    1.0000 </r>
       <r>  -21.2920    1.0000 </r>
       <r>  -21.2916    1.0000 </r>
       <r>  -21.2915    1.0000 </r>
       <r>  -21.2914    1.0000 </r>
       <r>  -21.2913    1.0000 </r>
       <r>  -21.2901    1.0000 </r>
       <r>  -21.2899    1.0000 </r>
       <r>  -21.2893    1.0000 </r>
       <r>  -21.2892    1.0000 </r>
       <r>  -21.2890    1.0000 </r>
       <r>  -21.2881    1.0000 </r>
       <r>  -21.2880    1.0000 </r>
       <r>  -21.2874    1.0000 </r>
       <r>  -21.2873    1.0000 </r>
       <r>  -21.2871    1.0000 </r>
       <r>  -21.2869    1.0000 </r>
       <r>  -21.2868    1.0000 </r>
       <r>  -21.2864    1.0000 </r>
       <r>  -21.2861    1.0000 </r>
       <r>  -21.2859    1.0000 </r>
       <r>  -21.2857    1.0000 </r>
       <r>  -21.2849    1.0000 </r>
       <r>  -21.2846    1.0000 </r>
       <r>  -21.2832    1.0000 </r>
       <r>  -21.2829    1.0000 </r>
       <r>  -21.2828    1.0000 </r>
       <r>  -21.2822    1.0000 </r>
       <r>  -21.2821    1.0000 </r>
       <r>  -21.2807    1.0000 </r>
       <r>  -21.2805    1.0000 </r>
       <r>  -21.2804    1.0000 </r>
       <r>  -21.2803    1.0000 </r>
       <r>  -21.2800    1.0000 </r>
       <r>  -21.2784    1.0000 </r>
       <r>  -21.2783    1.0000 </r>
       <r>  -21.2781    1.0000 </r>
       <r>  -21.2780    1.0000 </r>
       <r>  -21.2779    1.0000 </r>
       <r>  -21.2771    1.0000 </r>
       <r>  -21.2770    1.0000 </r>
       <r>  -21.2770    1.0000 </r>
       <r>  -21.2769    1.0000 </r>
       <r>  -21.2766    1.0000 </r>
       <r>  -21.2766    1.0000 </r>
       <r>  -21.2757    1.0000 </r>
       <r>  -21.2756    1.0000 </r>
       <r>  -21.2755    1.0000 </r>
       <r>  -21.2754    1.0000 </r>
       <r>  -21.2753    1.0000 </r>
       <r>  -21.2750    1.0000 </r>
       <r>  -21.2749    1.0000 </r>
       <r>  -21.2749    1.0000 </r>
       <r>  -21.2744    1.0000 </r>
       <r>  -21.2743    1.0000 </r>
       <r>  -21.2743    1.0000 </r>
       <r>  -21.2741    1.0000 </r>
       <r>  -21.2740    1.0000 </r>
       <r>  -21.2738    1.0000 </r>
       <r>  -21.2733    1.0000 </r>
       <r>  -21.2733    1.0000 </r>
       <r>  -21.2730    1.0000 </r>
       <r>  -21.2727    1.0000 </r>
       <r>  -21.2724    1.0000 </r>
       <r>  -21.2721    1.0000 </r>
       <r>  -21.2719    1.0000 </r>
       <r>  -21.2718    1.0000 </r>
       <r>  -21.2717    1.0000 </r>
       <r>  -21.2716    1.0000 </r>
       <r>  -21.2713    1.0000 </r>
       <r>  -21.2709    1.0000 </r>
       <r>  -21.2707    1.0000 </r>
       <r>  -21.2706    1.0000 </r>
       <r>  -21.2701    1.0000 </r>
       <r>  -21.2698    1.0000 </r>
       <r>  -21.2696    1.0000 </r>
       <r>  -21.2694    1.0000 </r>
       <r>  -21.2691    1.0000 </r>
       <r>  -21.2669    1.0000 </r>
       <r>  -21.2667    1.0000 </r>
       <r>  -21.2664    1.0000 </r>
       <r>  -21.2612    1.0000 </r>
       <r>  -21.2607    1.0000 </r>
       <r>  -21.2605    1.0000 </r>
       <r>  -13.2931    1.0000 </r>
       <r>  -13.2896    1.0000 </r>
       <r>  -13.1042    1.0000 </r>
       <r>  -13.0993    1.0000 </r>
       <r>  -13.0991    1.0000 </r>
       <r>  -13.0977    1.0000 </r>
       <r>  -13.0968    1.0000 </r>
       <r>  -13.0947    1.0000 </r>
       <r>  -13.0946    1.0000 </r>
       <r>  -13.0906    1.0000 </r>
       <r>  -13.0065    1.0000 </r>
       <r>  -13.0051    1.0000 </r>
       <r>  -13.0050    1.0000 </r>
       <r>  -13.0006    1.0000 </r>
       <r>  -13.0006    1.0000 </r>
       <r>  -13.0006    1.0000 </r>
       <r>  -12.9962    1.0000 </r>
       <r>  -12.9962    1.0000 </r>
       <r>  -12.9958    1.0000 </r>
       <r>  -12.9914    1.0000 </r>
       <r>  -12.9506    1.0000 </r>
       <r>  -12.9459    1.0000 </r>
       <r>  -12.9457    1.0000 </r>
       <r>  -12.9451    1.0000 </r>
       <r>  -12.9426    1.0000 </r>
       <r>  -12.9415    1.0000 </r>
       <r>  -12.9414    1.0000 </r>
       <r>  -12.9387    1.0000 </r>
       <r>  -12.9347    1.0000 </r>
       <r>  -12.9311    1.0000 </r>
       <r>  -12.9266    1.0000 </r>
       <r>  -12.9258    1.0000 </r>
       <r>   -2.5074    1.0000 </r>
       <r>   -2.5068    1.0000 </r>
       <r>   -2.5047    1.0000 </r>
       <r>   -2.5046    1.0000 </r>
       <r>   -2.5042    1.0000 </r>
       <r>   -2.5042    1.0000 </r>
       <r>   -2.5021    1.0000 </r>
       <r>   -2.5012    1.0000 </r>
       <r>   -2.2891    1.0000 </r>
       <r>   -2.2890    1.0000 </r>
       <r>   -2.2863    1.0000 </r>
       <r>   -2.2863    1.0000 </r>
       <r>   -2.2762    1.0000 </r>
       <r>   -2.2721    1.0000 </r>
       <r>   -2.1420    1.0000 </r>
       <r>   -2.1368    1.0000 </r>
       <r>   -2.1367    1.0000 </r>
       <r>   -2.1364    1.0000 </r>
       <r>   -2.1361    1.0000 </r>
       <r>   -2.1361    1.0000 </r>
       <r>   -2.1351    1.0000 </r>
       <r>   -2.1320    1.0000 </r>
       <r>   -1.9878    1.0000 </r>
       <r>   -1.9867    1.0000 </r>
       <r>   -1.9866    1.0000 </r>
       <r>   -1.9856    1.0000 </r>
       <r>   -1.9854    1.0000 </r>
       <r>   -1.9844    1.0000 </r>
       <r>   -1.9844    1.0000 </r>
       <r>   -1.9828    1.0000 </r>
       <r>   -1.8115    1.0000 </r>
       <r>   -1.8104    1.0000 </r>
       <r>   -1.8096    1.0000 </r>
       <r>   -1.8096    1.0000 </r>
       <r>   -1.8079    1.0000 </r>
       <r>   -1.8078    1.0000 </r>
       <r>   -1.8071    1.0000 </r>
       <r>   -1.8061    1.0000 </r>
       <r>   -1.5011    1.0000 </r>
       <r>   -1.5010    1.0000 </r>
       <r>   -1.4945    1.0000 </r>
       <r>   -1.4944    1.0000 </r>
       <r>   -1.3844    1.0000 </r>
       <r>   -1.3810    1.0000 </r>
       <r>   -1.3801    1.0000 </r>
       <r>   -1.3763    1.0000 </r>
       <r>   -1.2148    1.0000 </r>
       <r>   -1.2140    1.0000 </r>
       <r>   -1.2116    1.0000 </r>
       <r>   -1.2111    1.0000 </r>
       <r>   -1.1975    1.0000 </r>
       <r>   -1.1934    1.0000 </r>
       <r>   -1.1916    1.0000 </r>
       <r>   -1.1909    1.0000 </r>
       <r>   -1.1909    1.0000 </r>
       <r>   -1.1908    1.0000 </r>
       <r>   -1.1891    1.0000 </r>
       <r>   -1.1887    1.0000 </r>
       <r>   -1.1786    1.0000 </r>
       <r>   -1.1766    1.0000 </r>
       <r>   -1.1754    1.0000 </r>
       <r>   -1.1752    1.0000 </r>
       <r>   -1.1733    1.0000 </r>
       <r>   -1.1710    1.0000 </r>
       <r>   -1.1704    1.0000 </r>
       <r>   -1.1702    1.0000 </r>
       <r>   -1.1628    1.0000 </r>
       <r>   -1.1621    1.0000 </r>
       <r>   -1.1618    1.0000 </r>
       <r>   -1.1613    1.0000 </r>
       <r>   -1.1580    1.0000 </r>
       <r>   -1.1572    1.0000 </r>
       <r>   -1.1551    1.0000 </r>
       <r>   -1.1548    1.0000 </r>
       <r>   -1.0857    1.0000 </r>
       <r>   -1.0807    1.0000 </r>
       <r>   -0.9516    1.0000 </r>
       <r>   -0.9510    1.0000 </r>
       <r>   -0.9475    1.0000 </r>
       <r>   -0.9468    1.0000 </r>
       <r>   -0.9468    1.0000 </r>
       <r>   -0.9466    1.0000 </r>
       <r>   -0.9426    1.0000 </r>
       <r>   -0.9422    1.0000 </r>
       <r>   -0.9372    1.0000 </r>
       <r>   -0.9340    1.0000 </r>
       <r>   -0.9334    1.0000 </r>
       <r>   -0.9326    1.0000 </r>
       <r>   -0.9317    1.0000 </r>
       <r>   -0.9308    1.0000 </r>
       <r>   -0.9307    1.0000 </r>
       <r>   -0.9275    1.0000 </r>
       <r>   -0.7711    1.0000 </r>
       <r>   -0.7710    1.0000 </r>
       <r>   -0.7654    1.0000 </r>
       <r>   -0.7653    1.0000 </r>
       <r>    5.0187    0.0000 </r>
       <r>    5.0259    0.0000 </r>
       <r>    6.7076    0.0000 </r>
       <r>    6.7143    0.0000 </r>
       <r>    6.7144    0.0000 </r>
       <r>    6.7183    0.0000 </r>
       <r>    6.7217    0.0000 </r>
       <r>    6.7220    0.0000 </r>
       <r>    6.7223    0.0000 </r>
       <r>    6.7245    0.0000 </r>
       <r>    6.8384    0.0000 </r>
       <r>    6.8386    0.0000 </r>
       <r>    6.8403    0.0000 </r>
       <r>    6.8428    0.0000 </r>
       <r>    6.8435    0.0000 </r>
       <r>    6.8460    0.0000 </r>
       <r>    6.8481    0.0000 </r>
       <r>    6.8482    0.0000 </r>
       <r>    6.9683    0.0000 </r>
       <r>    6.9741    0.0000 </r>
       <r>    7.3562    0.0000 </r>
       <r>    7.3626    0.0000 </r>
       <r>    7.3626    0.0000 </r>
       <r>    7.3689    0.0000 </r>
       <r>    7.4789    0.0000 </r>
       <r>    7.4816    0.0000 </r>
       <r>    7.7109    0.0000 </r>
       <r>    7.7109    0.0000 </r>
       <r>    7.7182    0.0000 </r>
       <r>    7.7183    0.0000 </r>
       <r>    8.2538    0.0000 </r>
       <r>    8.2634    0.0000 </r>
       <r>    8.2636    0.0000 </r>
       <r>    8.2667    0.0000 </r>
       <r>    8.2676    0.0000 </r>
       <r>    8.2680    0.0000 </r>
       <r>    8.2695    0.0000 </r>
       <r>    8.2734    0.0000 </r>
       <r>    8.5279    0.0000 </r>
       <r>    8.5283    0.0000 </r>
       <r>    8.5304    0.0000 </r>
       <r>    8.5357    0.0000 </r>
       <r>    8.5372    0.0000 </r>
       <r>    8.5378    0.0000 </r>
       <r>    8.5380    0.0000 </r>
       <r>    8.5381    0.0000 </r>
       <r>    8.5388    0.0000 </r>
       <r>    8.5394    0.0000 </r>
       <r>    8.5401    0.0000 </r>
       <r>    8.5414    0.0000 </r>
       <r>    8.5421    0.0000 </r>
       <r>    8.5447    0.0000 </r>
       <r>    8.5482    0.0000 </r>
       <r>    8.5485    0.0000 </r>
       <r>    8.9444    0.0000 </r>
       <r>    8.9467    0.0000 </r>
       <r>    8.9473    0.0000 </r>
       <r>    8.9504    0.0000 </r>
       <r>    8.9509    0.0000 </r>
       <r>    8.9548    0.0000 </r>
       <r>    8.9553    0.0000 </r>
       <r>    8.9579    0.0000 </r>
       <r>    9.4920    0.0000 </r>
       <r>    9.5232    0.0000 </r>
      </set>
      <set comment="kpoint 4">
       <r>  -21.3131    1.0000 </r>
       <r>  -21.3125    1.0000 </r>
       <r>  -21.3124    1.0000 </r>
       <r>  -21.3002    1.0000 </r>
       <r>  -21.2998    1.0000 </r>
       <r>  -21.2997    1.0000 </r>
       <r>  -21.2997    1.0000 </r>
       <r>  -21.2996    1.0000 </r>
       <r>  -21.2957    1.0000 </r>
       <r>  -21.2942    1.0000 </r>
       <r>  -21.2939    1.0000 </r>
       <r>  -21.2930    1.0000 </r>
       <r>  -21.2921    1.0000 </r>
       <r>  -21.2920    1.0000 </r>
       <r>  -21.2917    1.0000 </r>
       <r>  -21.2916    1.0000 </r>
       <r>  -21.2914    1.0000 </r>
       <r>  -21.2909    1.0000 </r>
       <r>  -21.2909    1.0000 </r>
       <r>  -21.2901    1.0000 </r>
       <r>  -21.2899    1.0000 </r>
       <r>  -21.2892    1.0000 </r>
       <r>  -21.2887    1.0000 </r>
       <r>  -21.2883    1.0000 </r>
       <r>  -21.2882    1.0000 </r>
       <r>  -21.2881    1.0000 </r>
       <r>  -21.2880    1.0000 </r>
       <r>  -21.2876    1.0000 </r>
       <r>  -21.2875    1.0000 </r>
       <r>  -21.2871    1.0000 </r>
       <r>  -21.2855    1.0000 </r>
       <r>  -21.2849    1.0000 </r>
[...]
      </set>
     </set>
    </set>
   </array>
  </eigenvalues>
  <separator name="orbital magnetization" >
   <v name="MAGDIPOLOUT">      0.00000000      0.00000000      0.00000000</v>
  </separator>
  <dos>
   <i name="efermi">     -0.55270475 </i>
   <total>
    <array>
     <dimension dim="1">gridpoints</dimension>
     <dimension dim="2">spin</dimension>
     <field>energy</field>
     <field>total</field>
     <field>integrated</field>
     <set>
      <set comment="spin 1">
       <r>   -22.8553     0.0000     0.0000 </r>
       <r>   -22.7422     0.0000     0.0000 </r>
       <r>   -22.6291     0.0000     0.0000 </r>
       <r>   -22.5161     0.0000     0.0000 </r>
       <r>   -22.4030     0.0000     0.0000 </r>
       <r>   -22.2899     0.0000     0.0000 </r>
       <r>   -22.1769     0.0000     0.0000 </r>
       <r>   -22.0638     0.0000     0.0000 </r>
       <r>   -21.9507     0.0000     0.0000 </r>
       <r>   -21.8377     0.0000     0.0000 </r>
       <r>   -21.7246     0.0000     0.0000 </r>
       <r>   -21.6115     0.0000     0.0000 </r>
       <r>   -21.4985     0.0000     0.0000 </r>
       <r>   -21.3854     0.0000     0.0000 </r>
       <r>   -21.2723  1160.0256   131.1613 </r>
       <r>   -21.1593   538.0739   192.0000 </r>
       <r>   -21.0462     0.0000   192.0000 </r>
       <r>   -20.9331     0.0000   192.0000 </r>
       <r>   -20.8201     0.0000   192.0000 </r>
       <r>   -20.7070     0.0000   192.0000 </r>
       <r>   -20.5939     0.0000   192.0000 </r>
       <r>   -20.4809     0.0000   192.0000 </r>
       <r>   -20.3678     0.0000   192.0000 </r>
       <r>   -20.2547     0.0000   192.0000 </r>
       <r>   -20.1417     0.0000   192.0000 </r>
       <r>   -20.0286     0.0000   192.0000 </r>
       <r>   -19.9155     0.0000   192.0000 </r>
       <r>   -19.8025     0.0000   192.0000 </r>
       <r>   -19.6894     0.0000   192.0000 </r>
       <r>   -19.5763     0.0000   192.0000 </r>
       <r>   -19.4633     0.0000   192.0000 </r>
       <r>   -19.3502     0.0000   192.0000 </r>
       <r>   -19.2371     0.0000   192.0000 </r>
       <r>   -19.1241     0.0000   192.0000 </r>
       <r>   -19.0110     0.0000   192.0000 </r>
       <r>   -18.8979     0.0000   192.0000 </r>
       <r>   -18.7849     0.0000   192.0000 </r>
       <r>   -18.6718     0.0000   192.0000 </r>
       <r>   -18.5587     0.0000   192.0000 </r>
       <r>   -18.4456     0.0000   192.0000 </r>
       <r>   -18.3326     0.0000   192.0000 </r>
       <r>   -18.2195     0.0000   192.0000 </r>
       <r>   -18.1064     0.0000   192.0000 </r>
       <r>   -17.9934     0.0000   192.0000 </r>
       <r>   -17.8803     0.0000   192.0000 </r>
       <r>   -17.7672     0.0000   192.0000 </r>
       <r>   -17.6542     0.0000   192.0000 </r>
       <r>   -17.5411     0.0000   192.0000 </r>
       <r>   -17.4280     0.0000   192.0000 </r>
       <r>   -17.3150     0.0000   192.0000 </r>
       <r>   -17.2019     0.0000   192.0000 </r>
       <r>   -17.0888     0.0000   192.0000 </r>
       <r>   -16.9758     0.0000   192.0000 </r>
       <r>   -16.8627     0.0000   192.0000 </r>
       <r>   -16.7496     0.0000   192.0000 </r>
       <r>   -16.6366     0.0000   192.0000 </r>
       <r>   -16.5235     0.0000   192.0000 </r>
       <r>   -16.4104     0.0000   192.0000 </r>
       <r>   -16.2974     0.0000   192.0000 </r>
       <r>   -16.1843     0.0000   192.0000 </r>
       <r>   -16.0712     0.0000   192.0000 </r>
       <r>   -15.9582     0.0000   192.0000 </r>
       <r>   -15.8451     0.0000   192.0000 </r>
       <r>   -15.7320     0.0000   192.0000 </r>
       <r>   -15.6190     0.0000   192.0000 </r>
       <r>   -15.5059     0.0000   192.0000 </r>
       <r>   -15.3928     0.0000   192.0000 </r>
       <r>   -15.2798     0.0000   192.0000 </r>
       <r>   -15.1667     0.0000   192.0000 </r>
       <r>   -15.0536     0.0000   192.0000 </r>
       <r>   -14.9406     0.0000   192.0000 </r>
       <r>   -14.8275     0.0000   192.0000 </r>
       <r>   -14.7144     0.0000   192.0000 </r>
       <r>   -14.6014     0.0000   192.0000 </r>
       <r>   -14.4883     0.0000   192.0000 </r>
       <r>   -14.3752     0.0000   192.0000 </r>
       <r>   -14.2621     0.0000   192.0000 </r>
       <r>   -14.1491     0.0000   192.0000 </r>
       <r>   -14.0360     0.0000   192.0000 </r>
       <r>   -13.9229     0.0000   192.0000 </r>
       <r>   -13.8099     0.0000   192.0000 </r>
       <r>   -13.6968     0.0000   192.0000 </r>
       <r>   -13.5837     0.0000   192.0000 </r>
       <r>   -13.4707     0.0000   192.0000 </r>
       <r>   -13.3576     1.1353   192.1284 </r>
       <r>   -13.2445    19.3496   194.3162 </r>
       <r>   -13.1315    48.5225   199.8028 </r>
       <r>   -13.0184   125.8605   214.0338 </r>
       <r>   -12.9053   366.4522   255.4682 </r>
       <r>   -12.7923     4.6941   256.0000 </r>
       <r>   -12.6792     0.0000   256.0000 </r>
       <r>   -12.5661     0.0000   256.0000 </r>
       <r>   -12.4531     0.0000   256.0000 </r>
       <r>   -12.3400     0.0000   256.0000 </r>
       <r>   -12.2269     0.0000   256.0000 </r>
       <r>   -12.1139     0.0000   256.0000 </r>
       <r>   -12.0008     0.0000   256.0000 </r>
       <r>   -11.8877     0.0000   256.0000 </r>
       <r>   -11.7747     0.0000   256.0000 </r>
       <r>   -11.6616     0.0000   256.0000 </r>
       <r>   -11.5485     0.0000   256.0000 </r>
       <r>   -11.4355     0.0000   256.0000 </r>
       <r>   -11.3224     0.0000   256.0000 </r>
       <r>   -11.2093     0.0000   256.0000 </r>
       <r>   -11.0963     0.0000   256.0000 </r>
       <r>   -10.9832     0.0000   256.0000 </r>
       <r>   -10.8701     0.0000   256.0000 </r>
       <r>   -10.7571     0.0000   256.0000 </r>
       <r>   -10.6440     0.0000   256.0000 </r>
       <r>   -10.5309     0.0000   256.0000 </r>
       <r>   -10.4179     0.0000   256.0000 </r>
       <r>   -10.3048     0.0000   256.0000 </r>
       <r>   -10.1917     0.0000   256.0000 </r>
       <r>   -10.0786     0.0000   256.0000 </r>
       <r>    -9.9656     0.0000   256.0000 </r>
       <r>    -9.8525     0.0000   256.0000 </r>
       <r>    -9.7394     0.0000   256.0000 </r>
       <r>    -9.6264     0.0000   256.0000 </r>
       <r>    -9.5133     0.0000   256.0000 </r>
       <r>    -9.4002     0.0000   256.0000 </r>
       <r>    -9.2872     0.0000   256.0000 </r>
       <r>    -9.1741     0.0000   256.0000 </r>
       <r>    -9.0610     0.0000   256.0000 </r>
       <r>    -8.9480     0.0000   256.0000 </r>
       <r>    -8.8349     0.0000   256.0000 </r>
       <r>    -8.7218     0.0000   256.0000 </r>
       <r>    -8.6088     0.0000   256.0000 </r>
       <r>    -8.4957     0.0000   256.0000 </r>
       <r>    -8.3826     0.0000   256.0000 </r>
       <r>    -8.2696     0.0000   256.0000 </r>
       <r>    -8.1565     0.0000   256.0000 </r>
       <r>    -8.0434     0.0000   256.0000 </r>
       <r>    -7.9304     0.0000   256.0000 </r>
       <r>    -7.8173     0.0000   256.0000 </r>
       <r>    -7.7042     0.0000   256.0000 </r>
       <r>    -7.5912     0.0000   256.0000 </r>
       <r>    -7.4781     0.0000   256.0000 </r>
       <r>    -7.3650     0.0000   256.0000 </r>
       <r>    -7.2520     0.0000   256.0000 </r>
       <r>    -7.1389     0.0000   256.0000 </r>
       <r>    -7.0258     0.0000   256.0000 </r>
       <r>    -6.9128     0.0000   256.0000 </r>
       <r>    -6.7997     0.0000   256.0000 </r>
       <r>    -6.6866     0.0000   256.0000 </r>
       <r>    -6.5736     0.0000   256.0000 </r>
       <r>    -6.4605     0.0000   256.0000 </r>
       <r>    -6.3474     0.0000   256.0000 </r>
       <r>    -6.2344     0.0000   256.0000 </r>
       <r>    -6.1213     0.0000   256.0000 </r>
       <r>    -6.0082     0.0000   256.0000 </r>
       <r>    -5.8951     0.0000   256.0000 </r>
       <r>    -5.7821     0.0000   256.0000 </r>
       <r>    -5.6690     0.0000   256.0000 </r>
       <r>    -5.5559     0.0000   256.0000 </r>
       <r>    -5.4429     0.0000   256.0000 </r>
       <r>    -5.3298     0.0000   256.0000 </r>
       <r>    -5.2167     0.0000   256.0000 </r>
       <r>    -5.1037     0.0000   256.0000 </r>
       <r>    -4.9906     0.0000   256.0000 </r>
       <r>    -4.8775     0.0000   256.0000 </r>
       <r>    -4.7645     0.0000   256.0000 </r>
       <r>    -4.6514     0.0000   256.0000 </r>
       <r>    -4.5383     0.0000   256.0000 </r>
       <r>    -4.4253     0.0000   256.0000 </r>
       <r>    -4.3122     0.0000   256.0000 </r>
       <r>    -4.1991     0.0000   256.0000 </r>
       <r>    -4.0861     0.0000   256.0000 </r>
       <r>    -3.9730     0.0000   256.0000 </r>
       <r>    -3.8599     0.0000   256.0000 </r>
       <r>    -3.7469     0.0000   256.0000 </r>
       <r>    -3.6338     0.0000   256.0000 </r>
       <r>    -3.5207     0.0000   256.0000 </r>
       <r>    -3.4077     0.0000   256.0000 </r>
       <r>    -3.2946     0.0000   256.0000 </r>
       <r>    -3.1815     0.0000   256.0000 </r>
       <r>    -3.0685     0.0000   256.0000 </r>
       <r>    -2.9554     0.0000   256.0000 </r>
       <r>    -2.8423     0.0000   256.0000 </r>
       <r>    -2.7293     0.1709   256.0193 </r>
       <r>    -2.6162     8.6734   257.0000 </r>
       <r>    -2.5031    28.4045   260.2116 </r>
       <r>    -2.3901    81.4494   269.4209 </r>
       <r>    -2.2770    84.3885   278.9625 </r>
       <r>    -2.1639   153.3647   296.3040 </r>
       <r>    -2.0509    70.2766   304.2500 </r>
       <r>    -1.9378    57.8192   310.7875 </r>
       <r>    -1.8247    64.9102   318.1281 </r>
       <r>    -1.7116    67.4103   325.7500 </r>
       <r>    -1.5986     0.0000   325.7500 </r>
       <r>    -1.4855    81.7171   334.9896 </r>
       <r>    -1.3724   188.3128   356.2816 </r>
       <r>    -1.2594    22.3968   358.8140 </r>
       <r>    -1.1463   258.7542   388.0707 </r>
       <r>    -1.0332   133.3737   403.1513 </r>
       <r>    -0.9202   261.5672   432.7264 </r>
       <r>    -0.8071    60.3918   439.5554 </r>
       <r>    -0.6940    68.1601   447.2621 </r>
       <r>    -0.5810     6.5240   448.0000 </r>
       <r>    -0.4679     0.0000   448.0000 </r>
       <r>    -0.3548     0.0000   448.0000 </r>
       <r>    -0.2418     0.0000   448.0000 </r>
       <r>    -0.1287     0.0000   448.0000 </r>
       <r>    -0.0156     0.0000   448.0000 </r>
       <r>     0.0974     0.0000   448.0000 </r>
       <r>     0.2105     0.0000   448.0000 </r>
       <r>     0.3236     0.0000   448.0000 </r>
       <r>     0.4366     0.0000   448.0000 </r>
       <r>     0.5497     0.0000   448.0000 </r>
       <r>     0.6628     0.0000   448.0000 </r>
       <r>     0.7758     0.0000   448.0000 </r>
       <r>     0.8889     0.0000   448.0000 </r>
       <r>     1.0020     0.0000   448.0000 </r>
       <r>     1.1150     0.0000   448.0000 </r>
       <r>     1.2281     0.0000   448.0000 </r>
       <r>     1.3412     0.0000   448.0000 </r>
       <r>     1.4542     0.0000   448.0000 </r>
       <r>     1.5673     0.0000   448.0000 </r>
       <r>     1.6804     0.0000   448.0000 </r>
       <r>     1.7934     0.0000   448.0000 </r>
       <r>     1.9065     0.0000   448.0000 </r>
       <r>     2.0196     0.0000   448.0000 </r>
       <r>     2.1327     0.0000   448.0000 </r>
       <r>     2.2457     0.0000   448.0000 </r>
       <r>     2.3588     0.0000   448.0000 </r>
       <r>     2.4719     0.0000   448.0000 </r>
       <r>     2.5849     0.0000   448.0000 </r>
       <r>     2.6980     0.0000   448.0000 </r>
       <r>     2.8111     0.0000   448.0000 </r>
       <r>     2.9241     0.0000   448.0000 </r>
       <r>     3.0372     0.0000   448.0000 </r>
       <r>     3.1503     0.0000   448.0000 </r>
       <r>     3.2633     0.0000   448.0000 </r>
       <r>     3.3764     0.0000   448.0000 </r>
       <r>     3.4895     0.0000   448.0000 </r>
       <r>     3.6025     0.0000   448.0000 </r>
       <r>     3.7156     0.0000   448.0000 </r>
       <r>     3.8287     0.0000   448.0000 </r>
       <r>     3.9417     0.0000   448.0000 </r>
       <r>     4.0548     0.0000   448.0000 </r>
       <r>     4.1679     0.0000   448.0000 </r>
       <r>     4.2809     0.0000   448.0000 </r>
       <r>     4.3940     2.2109   448.2500 </r>
       <r>     4.5071     0.0000   448.2500 </r>
       <r>     4.6201     0.0000   448.2500 </r>
       <r>     4.7332     0.0000   448.2500 </r>
       <r>     4.8463     0.0000   448.2500 </r>
       <r>     4.9593     0.0001   448.2500 </r>
       <r>     5.0724    13.2632   449.7496 </r>
       <r>     5.1855     0.0011   449.7500 </r>
       <r>     5.2985     0.0000   449.7500 </r>
       <r>     5.4116     0.0000   449.7500 </r>
       <r>     5.5247     4.1874   450.2235 </r>
       <r>     5.6377    22.3454   452.7500 </r>
       <r>     5.7508     0.0000   452.7500 </r>
       <r>     5.8639    17.4258   454.7203 </r>
       <r>     5.9769     0.2627   454.7500 </r>
       <r>     6.0900     0.0000   454.7500 </r>
       <r>     6.2031     0.0000   454.7500 </r>
       <r>     6.3162     0.0034   454.7504 </r>
       <r>     6.4292    14.4694   456.3864 </r>
       <r>     6.5423     7.6377   457.2500 </r>
       <r>     6.6554    46.0401   462.4556 </r>
       <r>     6.7684    60.0733   469.2480 </r>
       <r>     6.8815    59.4850   475.9745 </r>
       <r>     6.9946    12.8203   477.4241 </r>
       <r>     7.1076     0.6712   477.5000 </r>
       <r>     7.2207     5.5512   478.1277 </r>
       <r>     7.3338     1.6950   478.3193 </r>
       <r>     7.4468    83.3169   487.7397 </r>
       <r>     7.5599   166.7619   506.5960 </r>
       <r>     7.6730     1.4133   506.7557 </r>
       <r>     7.7860    26.4819   509.7500 </r>
       <r>     7.8991     0.4896   509.8054 </r>
       <r>     8.0122    52.5760   515.7500 </r>
       <r>     8.1252     0.0206   515.7523 </r>
       <r>     8.2383    15.0095   517.4494 </r>
       <r>     8.3514    91.0983   527.7497 </r>
       <r>     8.4644     0.0001   527.7500 </r>
       <r>     8.5775   153.1574   545.0671 </r>
       <r>     8.6906     6.0356   545.7500 </r>
       <r>     8.8036     0.0000   545.7500 </r>
       <r>     8.9167    87.6507   555.6605 </r>
       <r>     9.0298   120.3577   569.2690 </r>
       <r>     9.1428     2.0429   569.5000 </r>
       <r>     9.2559    29.1043   572.7908 </r>
       <r>     9.3690    15.1170   574.5000 </r>
       <r>     9.4820     3.3134   574.8746 </r>
       <r>     9.5951     9.9530   576.0000 </r>
       <r>     9.7082     0.0000   576.0000 </r>
       <r>     9.8212     0.0000   576.0000 </r>
       <r>     9.9343     0.0000   576.0000 </r>
       <r>    10.0474     0.0000   576.0000 </r>
       <r>    10.1604     0.0000   576.0000 </r>
       <r>    10.2735     0.0000   576.0000 </r>
       <r>    10.3866     0.0000   576.0000 </r>
       <r>    10.4997     0.0000   576.0000 </r>
       <r>    10.6127     0.0000   576.0000 </r>
       <r>    10.7258     0.0000   576.0000 </r>
       <r>    10.8389     0.0000   576.0000 </r>
       <r>    10.9519     0.0000   576.0000 </r>
       <r>    11.0650     0.0000   576.0000 </r>
      </set>
     </set>
    </array>
   </total>
  </dos>
 </calculation>
 <structure name="finalpos" >
  <crystal>
   <varray name="basis" >
    <v>      11.20400236       0.00000000       0.00000000 </v>
    <v>       0.00000000      11.20400236       0.00000000 </v>
    <v>       0.00000000       0.00000000      11.20400236 </v>
   </varray>
   <i name="volume">   1406.43470641 </i>
   <varray name="rec_basis" >
    <v>       0.08925382       0.00000000       0.00000000 </v>
    <v>       0.00000000       0.08925382       0.00000000 </v>
    <v>       0.00000000       0.00000000       0.08925382 </v>
   </varray>
  </crystal>
  <varray name="positions" >
   <v>       0.00267761       0.00000000       0.00000000 </v>
   <v>       0.25000000       0.25000000       0.00000000 </v>
   <v>       0.25000000       0.00000000       0.25000000 </v>
   <v>       0.00000000       0.25000000       0.25000000 </v>
   <v>       0.00000000       0.00000000       0.50000000 </v>
   <v>       0.25000000       0.25000000       0.50000000 </v>
   <v>       0.25000000       0.00000000       0.75000000 </v>
   <v>       0.00000000       0.25000000       0.75000000 </v>
   <v>       0.00000000       0.50000000       0.00000000 </v>
   <v>       0.25000000       0.75000000       0.00000000 </v>
   <v>       0.25000000       0.50000000       0.25000000 </v>
   <v>       0.00000000       0.75000000       0.25000000 </v>
   <v>       0.00000000       0.50000000       0.50000000 </v>
   <v>       0.25000000       0.75000000       0.50000000 </v>
   <v>       0.25000000       0.50000000       0.75000000 </v>
   <v>       0.00000000       0.75000000       0.75000000 </v>
   <v>       0.50000000       0.00000000       0.00000000 </v>
   <v>       0.75000000       0.25000000       0.00000000 </v>
   <v>       0.75000000       0.00000000       0.25000000 </v>
   <v>       0.50000000       0.25000000       0.25000000 </v>
   <v>       0.50000000       0.00000000       0.50000000 </v>
   <v>       0.75000000       0.25000000       0.50000000 </v>
   <v>       0.75000000       0.00000000       0.75000000 </v>
   <v>       0.50000000       0.25000000       0.75000000 </v>
   <v>       0.50000000       0.50000000       0.00000000 </v>
   <v>       0.75000000       0.75000000       0.00000000 </v>
   <v>       0.75000000       0.50000000       0.25000000 </v>
   <v>       0.50000000       0.75000000       0.25000000 </v>
   <v>       0.50000000       0.50000000       0.50000000 </v>
   <v>       0.75000000       0.75000000       0.50000000 </v>
   <v>       0.75000000       0.50000000       0.75000000 </v>
   <v>       0.50000000       0.75000000       0.75000000 </v>
   <v>       0.25000000       0.25000000       0.25000000 </v>
   <v>       0.00000000       0.00000000       0.25000000 </v>
   <v>       0.00000000       0.25000000       0.00000000 </v>
   <v>       0.25000000       0.00267761       0.00000000 </v>
   <v>       0.25000000       0.25000000       0.75000000 </v>
   <v>       0.00000000       0.00000000       0.75000000 </v>
   <v>       0.00000000       0.25000000       0.50000000 </v>
   <v>       0.25000000       0.00000000       0.50000000 </v>
   <v>       0.25000000       0.75000000       0.25000000 </v>
   <v>       0.00000000       0.50000000       0.25000000 </v>
   <v>       0.00000000       0.75000000       0.00000000 </v>
   <v>       0.25000000       0.50000000       0.00000000 </v>
   <v>       0.25000000       0.75000000       0.75000000 </v>
   <v>       0.00000000       0.50000000       0.75000000 </v>
   <v>       0.00000000       0.75000000       0.50000000 </v>
   <v>       0.25000000       0.50000000       0.50000000 </v>
   <v>       0.75000000       0.25000000       0.25000000 </v>
   <v>       0.50000000       0.00000000       0.25000000 </v>
   <v>       0.50000000       0.25000000       0.00000000 </v>
   <v>       0.75000000       0.00000000       0.00000000 </v>
   <v>       0.75000000       0.25000000       0.75000000 </v>
   <v>       0.50000000       0.00000000       0.75000000 </v>
   <v>       0.50000000       0.25000000       0.50000000 </v>
   <v>       0.75000000       0.00000000       0.50000000 </v>
   <v>       0.75000000       0.75000000       0.25000000 </v>
   <v>       0.50000000       0.50000000       0.25000000 </v>
   <v>       0.50000000       0.75000000       0.00000000 </v>
   <v>       0.75000000       0.50000000       0.00000000 </v>
   <v>       0.75000000       0.75000000       0.75000000 </v>
   <v>       0.50000000       0.50000000       0.75000000 </v>
   <v>       0.50000000       0.75000000       0.50000000 </v>
   <v>       0.75000000       0.50000000       0.50000000 </v>
  </varray>
 </structure>
</modeling>
