  64  64   0   0
  0.2197554E+02  0.1120400E-08  0.1120400E-08  0.1120400E-08  0.5000000E-15
  1.000000000000000E-004
  CAR 
 unknown system                          
     11.04765544    -22.84973561  301     -0.56220099      1.00000000
    -22.850  0.0000E+00  0.0000E+00
    -22.737  0.0000E+00  0.0000E+00
    -22.624  0.0000E+00  0.0000E+00
    -22.511  0.0000E+00  0.0000E+00
    -22.398  0.0000E+00  0.0000E+00
    -22.285  0.0000E+00  0.0000E+00
    -22.172  0.0000E+00  0.0000E+00
    -22.059  0.0000E+00  0.0000E+00
    -21.946  0.0000E+00  0.0000E+00
    -21.833  0.0000E+00  0.0000E+00
    -21.720  0.0000E+00  0.0000E+00
    -21.607  0.0000E+00  0.0000E+00
    -21.494  0.0000E+00  0.0000E+00
    -21.381  0.6903E-05  0.7800E-06
    -21.268  0.1310E+04  0.1481E+03
    -21.155  0.3888E+03  0.1920E+03
    -21.042  0.0000E+00  0.1920E+03
    -20.929  0.0000E+00  0.1920E+03
    -20.816  0.0000E+00  0.1920E+03
    -20.703  0.0000E+00  0.1920E+03
    -20.590  0.0000E+00  0.1920E+03
    -20.477  0.0000E+00  0.1920E+03
    -20.364  0.0000E+00  0.1920E+03
    -20.251  0.0000E+00  0.1920E+03
    -20.138  0.0000E+00  0.1920E+03
    -20.025  0.0000E+00  0.1920E+03
    -19.912  0.0000E+00  0.1920E+03
    -19.799  0.0000E+00  0.1920E+03
    -19.686  0.0000E+00  0.1920E+03
    -19.573  0.0000E+00  0.1920E+03
    -19.460  0.0000E+00  0.1920E+03
    -19.347  0.0000E+00  0.1920E+03
    -19.234  0.0000E+00  0.1920E+03
    -19.121  0.0000E+00  0.1920E+03
    -19.008  0.0000E+00  0.1920E+03
    -18.895  0.0000E+00  0.1920E+03
    -18.782  0.0000E+00  0.1920E+03
    -18.669  0.0000E+00  0.1920E+03
    -18.556  0.0000E+00  0.1920E+03
    -18.443  0.0000E+00  0.1920E+03
    -18.330  0.0000E+00  0.1920E+03
    -18.217  0.0000E+00  0.1920E+03
    -18.104  0.0000E+00  0.1920E+03
    -17.991  0.0000E+00  0.1920E+03
    -17.878  0.0000E+00  0.1920E+03
    -17.765  0.0000E+00  0.1920E+03
    -17.652  0.0000E+00  0.1920E+03
    -17.539  0.0000E+00  0.1920E+03
    -17.426  0.0000E+00  0.1920E+03
    -17.313  0.0000E+00  0.1920E+03
    -17.200  0.0000E+00  0.1920E+03
    -17.087  0.0000E+00  0.1920E+03
    -16.974  0.0000E+00  0.1920E+03
    -16.861  0.0000E+00  0.1920E+03
    -16.748  0.0000E+00  0.1920E+03
    -16.635  0.0000E+00  0.1920E+03
    -16.522  0.0000E+00  0.1920E+03
    -16.409  0.0000E+00  0.1920E+03
    -16.296  0.0000E+00  0.1920E+03
    -16.183  0.0000E+00  0.1920E+03
    -16.070  0.0000E+00  0.1920E+03
    -15.957  0.0000E+00  0.1920E+03
    -15.844  0.0000E+00  0.1920E+03
    -15.731  0.0000E+00  0.1920E+03
    -15.618  0.0000E+00  0.1920E+03
    -15.505  0.0000E+00  0.1920E+03
    -15.392  0.0000E+00  0.1920E+03
    -15.279  0.0000E+00  0.1920E+03
    -15.166  0.0000E+00  0.1920E+03
    -15.053  0.0000E+00  0.1920E+03
    -14.940  0.0000E+00  0.1920E+03
    -14.827  0.0000E+00  0.1920E+03
    -14.714  0.0000E+00  0.1920E+03
    -14.601  0.0000E+00  0.1920E+03
    -14.488  0.0000E+00  0.1920E+03
    -14.375  0.0000E+00  0.1920E+03
    -14.262  0.0000E+00  0.1920E+03
    -14.149  0.0000E+00  0.1920E+03
    -14.036  0.0000E+00  0.1920E+03
    -13.923  0.0000E+00  0.1920E+03
    -13.810  0.0000E+00  0.1920E+03
    -13.697  0.0000E+00  0.1920E+03
    -13.584  0.0000E+00  0.1920E+03
    -13.471  0.1228E-14  0.1920E+03
    -13.358  0.1083E+01  0.1921E+03
    -13.245  0.1897E+02  0.1943E+03
    -13.132  0.4857E+02  0.1998E+03
    -13.019  0.1248E+03  0.2138E+03
    -12.907  0.3675E+03  0.2554E+03
    -12.794  0.5506E+01  0.2560E+03
    -12.681  0.0000E+00  0.2560E+03
    -12.568  0.0000E+00  0.2560E+03
    -12.455  0.0000E+00  0.2560E+03
    -12.342  0.0000E+00  0.2560E+03
    -12.229  0.0000E+00  0.2560E+03
    -12.116  0.0000E+00  0.2560E+03
    -12.003  0.0000E+00  0.2560E+03
    -11.890  0.0000E+00  0.2560E+03
    -11.777  0.0000E+00  0.2560E+03
    -11.664  0.0000E+00  0.2560E+03
    -11.551  0.0000E+00  0.2560E+03
    -11.438  0.0000E+00  0.2560E+03
    -11.325  0.0000E+00  0.2560E+03
    -11.212  0.0000E+00  0.2560E+03
    -11.099  0.0000E+00  0.2560E+03
    -10.986  0.0000E+00  0.2560E+03
    -10.873  0.0000E+00  0.2560E+03
    -10.760  0.0000E+00  0.2560E+03
    -10.647  0.0000E+00  0.2560E+03
    -10.534  0.0000E+00  0.2560E+03
    -10.421  0.0000E+00  0.2560E+03
    -10.308  0.0000E+00  0.2560E+03
    -10.195  0.0000E+00  0.2560E+03
    -10.082  0.0000E+00  0.2560E+03
     -9.969  0.0000E+00  0.2560E+03
     -9.856  0.0000E+00  0.2560E+03
     -9.743  0.0000E+00  0.2560E+03
     -9.630  0.0000E+00  0.2560E+03
     -9.517  0.0000E+00  0.2560E+03
     -9.404  0.0000E+00  0.2560E+03
     -9.291  0.0000E+00  0.2560E+03
     -9.178  0.0000E+00  0.2560E+03
     -9.065  0.0000E+00  0.2560E+03
     -8.952  0.0000E+00  0.2560E+03
     -8.839  0.0000E+00  0.2560E+03
     -8.726  0.0000E+00  0.2560E+03
     -8.613  0.0000E+00  0.2560E+03
     -8.500  0.0000E+00  0.2560E+03
     -8.387  0.0000E+00  0.2560E+03
     -8.274  0.0000E+00  0.2560E+03
     -8.161  0.0000E+00  0.2560E+03
     -8.048  0.0000E+00  0.2560E+03
     -7.935  0.0000E+00  0.2560E+03
     -7.822  0.0000E+00  0.2560E+03
     -7.709  0.0000E+00  0.2560E+03
     -7.596  0.0000E+00  0.2560E+03
     -7.483  0.0000E+00  0.2560E+03
     -7.370  0.0000E+00  0.2560E+03
     -7.257  0.0000E+00  0.2560E+03
     -7.144  0.0000E+00  0.2560E+03
     -7.031  0.0000E+00  0.2560E+03
     -6.918  0.0000E+00  0.2560E+03
     -6.805  0.0000E+00  0.2560E+03
     -6.692  0.0000E+00  0.2560E+03
     -6.579  0.0000E+00  0.2560E+03
     -6.466  0.0000E+00  0.2560E+03
     -6.353  0.0000E+00  0.2560E+03
     -6.240  0.0000E+00  0.2560E+03
     -6.127  0.0000E+00  0.2560E+03
     -6.014  0.0000E+00  0.2560E+03
     -5.901  0.0000E+00  0.2560E+03
     -5.788  0.0000E+00  0.2560E+03
     -5.675  0.0000E+00  0.2560E+03
     -5.562  0.0000E+00  0.2560E+03
     -5.449  0.0000E+00  0.2560E+03
     -5.336  0.0000E+00  0.2560E+03
     -5.223  0.0000E+00  0.2560E+03
     -5.110  0.0000E+00  0.2560E+03
     -4.997  0.0000E+00  0.2560E+03
     -4.884  0.0000E+00  0.2560E+03
     -4.771  0.0000E+00  0.2560E+03
     -4.658  0.0000E+00  0.2560E+03
     -4.545  0.0000E+00  0.2560E+03
     -4.432  0.0000E+00  0.2560E+03
     -4.319  0.0000E+00  0.2560E+03
     -4.206  0.0000E+00  0.2560E+03
     -4.093  0.0000E+00  0.2560E+03
     -3.980  0.0000E+00  0.2560E+03
     -3.867  0.0000E+00  0.2560E+03
     -3.754  0.0000E+00  0.2560E+03
     -3.641  0.0000E+00  0.2560E+03
     -3.528  0.0000E+00  0.2560E+03
     -3.415  0.0000E+00  0.2560E+03
     -3.302  0.0000E+00  0.2560E+03
     -3.189  0.0000E+00  0.2560E+03
     -3.076  0.0000E+00  0.2560E+03
     -2.963  0.0000E+00  0.2560E+03
     -2.850  0.0000E+00  0.2560E+03
     -2.737  0.3718E-01  0.2560E+03
     -2.624  0.8813E+01  0.2570E+03
     -2.511  0.1669E+02  0.2589E+03
     -2.398  0.8788E+02  0.2688E+03
     -2.285  0.7968E+02  0.2778E+03
     -2.172  0.1578E+03  0.2956E+03
     -2.059  0.7614E+02  0.3043E+03
     -1.946  0.5467E+02  0.3104E+03
     -1.833  0.5603E+02  0.3168E+03
     -1.720  0.7958E+02  0.3257E+03
     -1.607  0.1133E-10  0.3258E+03
     -1.494  0.5157E+02  0.3316E+03
     -1.381  0.2097E+03  0.3553E+03
     -1.268  0.3044E+02  0.3587E+03
     -1.155  0.2405E+03  0.3859E+03
     -1.042  0.1471E+03  0.4025E+03
     -0.929  0.2472E+03  0.4304E+03
     -0.816  0.7181E+02  0.4386E+03
     -0.703  0.7674E+02  0.4472E+03
     -0.590  0.6787E+01  0.4480E+03
     -0.477  0.0000E+00  0.4480E+03
     -0.364  0.0000E+00  0.4480E+03
     -0.251  0.0000E+00  0.4480E+03
     -0.138  0.0000E+00  0.4480E+03
     -0.025  0.0000E+00  0.4480E+03
      0.087  0.0000E+00  0.4480E+03
      0.200  0.0000E+00  0.4480E+03
      0.313  0.0000E+00  0.4480E+03
      0.426  0.0000E+00  0.4480E+03
      0.539  0.0000E+00  0.4480E+03
      0.652  0.0000E+00  0.4480E+03
      0.765  0.0000E+00  0.4480E+03
      0.878  0.0000E+00  0.4480E+03
      0.991  0.0000E+00  0.4480E+03
      1.104  0.0000E+00  0.4480E+03
      1.217  0.0000E+00  0.4480E+03
      1.330  0.0000E+00  0.4480E+03
      1.443  0.0000E+00  0.4480E+03
      1.556  0.0000E+00  0.4480E+03
      1.669  0.0000E+00  0.4480E+03
      1.782  0.0000E+00  0.4480E+03
      1.895  0.0000E+00  0.4480E+03
      2.008  0.0000E+00  0.4480E+03
      2.121  0.0000E+00  0.4480E+03
      2.234  0.0000E+00  0.4480E+03
      2.347  0.0000E+00  0.4480E+03
      2.460  0.0000E+00  0.4480E+03
      2.573  0.0000E+00  0.4480E+03
      2.686  0.0000E+00  0.4480E+03
      2.799  0.0000E+00  0.4480E+03
      2.912  0.0000E+00  0.4480E+03
      3.025  0.0000E+00  0.4480E+03
      3.138  0.0000E+00  0.4480E+03
      3.251  0.0000E+00  0.4480E+03
      3.364  0.0000E+00  0.4480E+03
      3.477  0.0000E+00  0.4480E+03
      3.590  0.0000E+00  0.4480E+03
      3.703  0.0000E+00  0.4480E+03
      3.816  0.0000E+00  0.4480E+03
      3.929  0.0000E+00  0.4480E+03
      4.042  0.0000E+00  0.4480E+03
      4.155  0.0000E+00  0.4480E+03
      4.268  0.3774E-06  0.4480E+03
      4.381  0.2208E+01  0.4482E+03
      4.494  0.4255E-02  0.4482E+03
      4.607  0.0000E+00  0.4482E+03
      4.720  0.0000E+00  0.4482E+03
      4.833  0.0000E+00  0.4482E+03
      4.946  0.6929E-06  0.4483E+03
      5.059  0.1321E+02  0.4497E+03
      5.172  0.6806E-01  0.4498E+03
      5.285  0.0000E+00  0.4498E+03
      5.398  0.0000E+00  0.4498E+03
      5.511  0.7052E+00  0.4498E+03
      5.624  0.2585E+02  0.4527E+03
      5.737  0.2272E-08  0.4528E+03
      5.850  0.1579E+02  0.4545E+03
      5.963  0.1911E+01  0.4548E+03
      6.076  0.0000E+00  0.4548E+03
      6.189  0.0000E+00  0.4548E+03
      6.302  0.4775E-04  0.4548E+03
      6.415  0.1342E+02  0.4563E+03
      6.528  0.8699E+01  0.4572E+03
      6.641  0.2934E+02  0.4606E+03
      6.754  0.7643E+02  0.4692E+03
      6.867  0.5744E+02  0.4757E+03
      6.980  0.1244E+02  0.4771E+03
      7.093  0.3568E+01  0.4775E+03
      7.206  0.3153E+01  0.4779E+03
      7.319  0.3518E+01  0.4783E+03
      7.432  0.7926E+02  0.4872E+03
      7.545  0.1634E+03  0.5057E+03
      7.658  0.9562E+01  0.5068E+03
      7.771  0.2655E+02  0.5097E+03
      7.884  0.1693E-01  0.5098E+03
      7.997  0.5308E+02  0.5157E+03
      8.110  0.3777E-03  0.5158E+03
      8.223  0.1337E+02  0.5173E+03
      8.336  0.9272E+02  0.5277E+03
      8.449  0.1133E+00  0.5278E+03
      8.562  0.1320E+03  0.5427E+03
      8.675  0.2726E+02  0.5457E+03
      8.788  0.1296E-07  0.5458E+03
      8.901  0.6706E+02  0.5533E+03
      9.014  0.1301E+03  0.5680E+03
      9.127  0.1303E+02  0.5695E+03
      9.240  0.1259E+02  0.5709E+03
      9.353  0.3166E+02  0.5745E+03
      9.466  0.4584E+00  0.5746E+03
      9.579  0.1282E+02  0.5760E+03
      9.692  0.0000E+00  0.5760E+03
      9.805  0.0000E+00  0.5760E+03
      9.918  0.0000E+00  0.5760E+03
     10.031  0.0000E+00  0.5760E+03
     10.144  0.0000E+00  0.5760E+03
     10.257  0.0000E+00  0.5760E+03
     10.370  0.0000E+00  0.5760E+03
     10.483  0.0000E+00  0.5760E+03
     10.596  0.0000E+00  0.5760E+03
     10.709  0.0000E+00  0.5760E+03
     10.822  0.0000E+00  0.5760E+03
     10.935  0.0000E+00  0.5760E+03
     11.048  0.0000E+00  0.5760E+03
