       N       E                     dE             d eps       ncg     rms          rms(c)
DAV:   1     0.431680845233E+04    0.43168E+04   -0.17182E+05  3456   0.125E+03
DAV:   2     0.363408860039E+03   -0.39534E+04   -0.37614E+04  3840   0.367E+02
DAV:   3    -0.206226556944E+03   -0.56964E+03   -0.56540E+03  4224   0.156E+02
DAV:   4    -0.228193616218E+03   -0.21967E+02   -0.21869E+02  4160   0.331E+01
DAV:   5    -0.229004039627E+03   -0.81042E+00   -0.80897E+00  4352   0.615E+00    0.106E+01
DAV:   6    -0.224138755076E+03    0.48653E+01   -0.94706E+00  4288   0.532E+00    0.776E+00
DAV:   7    -0.223776969314E+03    0.36179E+00   -0.20716E+00  4672   0.234E+00    0.533E+00
DAV:   8    -0.223902326770E+03   -0.12536E+00   -0.26740E-01  4000   0.124E+00    0.143E+00
DAV:   9    -0.223896720864E+03    0.56059E-02   -0.11142E-02  4288   0.257E-01    0.614E-01
DAV:  10    -0.223900984816E+03   -0.42640E-02   -0.18812E-02  4032   0.233E-01    0.292E-01
DAV:  11    -0.223900229990E+03    0.75483E-03   -0.16661E-03  4320   0.849E-02    0.883E-02
DAV:  12    -0.223900187832E+03    0.42158E-04   -0.16847E-04  4576   0.251E-02    0.119E-02
DAV:  13    -0.223900190519E+03   -0.26865E-05   -0.17335E-05  4256   0.739E-03    0.350E-03
DAV:  14    -0.223900191638E+03   -0.11196E-05   -0.17886E-06  4256   0.336E-03    0.790E-03
DAV:  15    -0.223900192999E+03   -0.13610E-05   -0.47290E-07  4032   0.162E-03    0.216E-03
DAV:  16    -0.223900193403E+03   -0.40331E-06   -0.11112E-07  4288   0.848E-04    0.438E-04
DAV:  17    -0.223900193331E+03    0.71428E-07   -0.45961E-09  2784   0.608E-04    0.219E-04
DAV:  18    -0.223900193345E+03   -0.13635E-07   -0.70697E-09  2688   0.329E-04    0.324E-04
DAV:  19    -0.223900193348E+03   -0.30414E-08   -0.32215E-09  2304   0.245E-04
   1 F= -.22390019E+03 E0= -.22390019E+03  d E =-.155047E-13
