 vasp.6.3.2 27Jun22 (build Oct 14 2022 12:13:54) complex                        
  
 executed on             LinuxIFC date 2025.08.28  22:07:33
 running on   32 total cores
 distrk:  each k-point on   32 cores,    1 groups
 distr:  one band on NCORE=   1 cores,   32 groups


--------------------------------------------------------------------------------------------------------


 INCAR:
   ENCUT = 341.213600
   SIGMA = 0.020000
   EDIFF = 1.00e-08
   GGA = PS
   PREC = Accurate
   IALGO = 38
   IBRION = -1
   ISMEAR = 0
   NELMIN = 5
   ADDGRID = .TRUE.
   LCHARG = .FALSE.
   LWAVE = .FALSE.
   LREAL = .FALSE.

 POTCAR:    PAW_PBE Na_pv 19Sep2006               
 POTCAR:    PAW_PBE Cl 06Sep2000                  
 -----------------------------------------------------------------------------
|                                                                             |
|           W    W    AA    RRRRR   N    N  II  N    N   GGGG   !!!           |
|           W    W   A  A   R    R  NN   N  II  NN   N  G    G  !!!           |
|           W    W  A    A  R    R  N N  N  II  N N  N  G       !!!           |
|           W WW W  AAAAAA  RRRRR   N  N N  II  N  N N  G  GGG   !            |
|           WW  WW  A    A  R   R   N   NN  II  N   NN  G    G                |
|           W    W  A    A  R    R  N    N  II  N    N   GGGG   !!!           |
|                                                                             |
|     For optimal performance we recommend to set                             |
|       NCORE = 2 up to number-of-cores-per-socket                            |
|     NCORE specifies how many cores store one orbital (NPAR=cpu/NCORE).      |
|     This setting can greatly improve the performance of VASP for DFT.       |
|     The default, NCORE=1 might be grossly inefficient on modern             |
|     multi-core architectures or massively parallel machines. Do your        |
|     own testing! More info at https://www.vasp.at/wiki/index.php/NCORE      |
|     Unfortunately you need to use the default for GW and RPA                |
|     calculations (for HF NCORE is supported but not extensively tested      |
|     yet).                                                                   |
|                                                                             |
 -----------------------------------------------------------------------------

 POTCAR:    PAW_PBE Na_pv 19Sep2006               
   SHA256 =  6a2f546d9e11350984debacf3dc457d8cffc0868e817d445faca461816a32b94 Na_pv/POTCAR          
   COPYR  = (c) Copyright 19Sep2006 Georg Kresse                                                    
   COPYR  = This file is part of the software VASP. Any use, copying, and all other rights are regul
   COPYR  = If you do not have a valid VASP license, you may not use, copy or distribute this file. 
   VRHFIN =Na: p6s1                                                                                 
   LEXCH  = PE                                                                                      
   EATOM  =   766.0439 eV,   56.3026 Ry                                                             
                                                                                                    
   TITEL  = PAW_PBE Na_pv 19Sep2006                                                                 
   LULTRA =        F    use ultrasoft PP ?                                                          
   IUNSCR =        1    unscreen: 0-lin 1-nonlin 2-no                                               
   RPACOR =    1.800    partial core radius                                                         
   POMASS =   22.990; ZVAL   =    7.000    mass and valenz                                          
   RCORE  =    2.200    outmost cutoff radius                                                       
   RWIGS  =    2.200; RWIGS  =    1.164    wigner-seitz radius (au A)                               
   ENMAX  =  259.561; ENMIN  =  194.671 eV                                                          
   ICORE  =        2    local potential                                                             
   LCOR   =        T    correct aug charges                                                         
   LPAW   =        T    paw PP                                                                      
   EAUG   =  368.056                                                                                
   DEXC   =    0.000                                                                                
   RMAX   =    2.245    core radius for proj-oper                                                   
   RAUG   =    1.300    factor for augmentation sphere                                              
   RDEP   =    2.259    radius for radial grids                                                     
   RDEPT  =    1.738    core radius for aug-charge                                                  
                                                                                                    
   Atomic configuration                                                                             
    5 entries                                                                                       
     n  l   j            E        occ.                                                              
     1  0  0.50     -1033.6933   2.0000                                                             
     2  0  0.50       -56.7526   2.0000                                                             
     2  1  1.50       -28.6721   6.0000                                                             
     3  0  0.50        -2.7440   1.0000                                                             
     3  2  1.50        -1.3606   0.0000                                                             
   Description                                                                                      
     l       E           TYP  RCUT    TYP  RCUT                                                     
     1    -28.6720912     23  2.000                                                                 
     1      6.8029130     23  2.000                                                                 
     0     -2.7439560     23  2.200                                                                 
     0     34.0145650     23  2.200                                                                 
     2     -1.3605826     23  2.200                                                                 
  local pseudopotential read in
  partial core-charges read in
  partial kinetic energy density read in
  atomic valenz-charges read in
  non local Contribution for L=           1  read in
    real space projection operators read in
  non local Contribution for L=           1  read in
    real space projection operators read in
  non local Contribution for L=           0  read in
    real space projection operators read in
  non local Contribution for L=           0  read in
    real space projection operators read in
    PAW grid and wavefunctions read in
 
   number of l-projection  operators is LMAX  =           4
   number of lm-projection operators is LMMAX =           8
 
 POTCAR:    PAW_PBE Cl 06Sep2000                  
   SHA256 =  9f1b6e6ed4247ac726a768b330d26d7667cc3c95a39ff49c1d064c2d9dcce931 Cl/POTCAR             
   COPYR  = (c) Copyright 06Sep2000 Georg Kresse                                                    
   COPYR  = This file is part of the software VASP. Any use, copying, and all other rights are regul
   COPYR  = If you do not have a valid VASP license, you may not use, copy or distribute this file. 
   VRHFIN =Cl: s2p5                                                                                 
   LEXCH  = PE                                                                                      
   EATOM  =   409.7259 eV,   30.1140 Ry                                                             
                                                                                                    
   TITEL  = PAW_PBE Cl 06Sep2000                                                                    
   LULTRA =        F    use ultrasoft PP ?                                                          
   IUNSCR =        1    unscreen: 0-lin 1-nonlin 2-no                                               
   RPACOR =    1.500    partial core radius                                                         
   POMASS =   35.453; ZVAL   =    7.000    mass and valenz                                          
   RCORE  =    1.900    outmost cutoff radius                                                       
   RWIGS  =    2.100; RWIGS  =    1.111    wigner-seitz radius (au A)                               
   ENMAX  =  262.472; ENMIN  =  196.854 eV                                                          
   ICORE  =        2    local potential                                                             
   LCOR   =        T    correct aug charges                                                         
   LPAW   =        T    paw PP                                                                      
   EAUG   =  356.192                                                                                
   DEXC   =    0.000                                                                                
   RMAX   =    1.945    core radius for proj-oper                                                   
   RAUG   =    1.300    factor for augmentation sphere                                              
   RDEP   =    2.020    radius for radial grids                                                     
   RDEPT  =    1.678    core radius for aug-charge                                                  
                                                                                                    
   Atomic configuration                                                                             
    6 entries                                                                                       
     n  l   j            E        occ.                                                              
     1  0  0.50     -2751.1850   2.0000                                                             
     2  0  0.50      -252.6861   2.0000                                                             
     2  1  1.50      -191.6157   6.0000                                                             
     3  0  0.50       -20.6916   2.0000                                                             
     3  1  0.50        -8.5949   5.0000                                                             
     3  2  1.50        -8.1635   0.0000                                                             
   Description                                                                                      
     l       E           TYP  RCUT    TYP  RCUT                                                     
     0    -20.6915656     23  1.900                                                                 
     0    -22.0521482     23  1.900                                                                 
     1     -8.5948577     23  1.900                                                                 
     1     -5.3847331     23  1.900                                                                 
     2     -8.1634956     23  1.900                                                                 
  local pseudopotential read in
  partial core-charges read in
  partial kinetic energy density read in
  atomic valenz-charges read in
  non local Contribution for L=           0  read in
    real space projection operators read in
  non local Contribution for L=           0  read in
    real space projection operators read in
  non local Contribution for L=           1  read in
    real space projection operators read in
  non local Contribution for L=           1  read in
    real space projection operators read in
    PAW grid and wavefunctions read in
 
   number of l-projection  operators is LMAX  =           4
   number of lm-projection operators is LMMAX =           8
 
 -----------------------------------------------------------------------------
|                                                                             |
|               ----> ADVICE to this user running VASP <----                  |
|                                                                             |
|     You have a (more or less) 'large supercell' and for larger cells it     |
|     might be more efficient to use real-space projection operators.         |
|     Therefore, try LREAL= Auto in the INCAR file.                           |
|     Mind: For very accurate calculation, you might also keep the            |
|     reciprocal projection scheme (i.e. LREAL=.FALSE.).                      |
|                                                                             |
 -----------------------------------------------------------------------------

 -----------------------------------------------------------------------------
|                                                                             |
|               ----> ADVICE to this user running VASP <----                  |
|                                                                             |
|     You enforced a specific xc type in the INCAR file but a different       |
|     type was found in the POTCAR file.                                      |
|     I HOPE YOU KNOW WHAT YOU ARE DOING!                                     |
|                                                                             |
 -----------------------------------------------------------------------------

  PAW_PBE Na_pv 19Sep2006               :
 energy of atom  1       EATOM= -766.0439
 kinetic energy error for atom=    0.0189 (will be added to EATOM!!)
  PAW_PBE Cl 06Sep2000                  :
 energy of atom  2       EATOM= -409.7259
 kinetic energy error for atom=    0.0106 (will be added to EATOM!!)
 
 
 POSCAR: Na Cl
  positions in cartesian coordinates
  No initial velocities read in
 exchange correlation table for  LEXCH =       14
   RHO(1)=    0.500       N(1)  =     2000
   RHO(2)=  100.500       N(2)  =     4000
 


--------------------------------------------------------------------------------------------------------


 ion  position               nearest neighbor table
   1  0.997  0.000  0.000-
   2  0.250  0.250  0.000-
   3  0.250  0.000  0.250-
   4  0.000  0.250  0.250-
   5  0.000  0.000  0.500-
   6  0.250  0.250  0.500-
   7  0.250  0.000  0.750-
   8  0.000  0.250  0.750-
   9  0.000  0.500  0.000-
  10  0.250  0.750  0.000-
  11  0.250  0.500  0.250-
  12  0.000  0.750  0.250-
  13  0.000  0.500  0.500-
  14  0.250  0.750  0.500-
  15  0.250  0.500  0.750-
  16  0.000  0.750  0.750-
  17  0.500  0.000  0.000-
  18  0.750  0.250  0.000-
  19  0.750  0.000  0.250-
  20  0.500  0.250  0.250-
  21  0.500  0.000  0.500-
  22  0.750  0.250  0.500-
  23  0.750  0.000  0.750-
  24  0.500  0.250  0.750-
  25  0.500  0.500  0.000-
  26  0.750  0.750  0.000-
  27  0.750  0.500  0.250-
  28  0.500  0.750  0.250-
  29  0.500  0.500  0.500-
  30  0.750  0.750  0.500-
  31  0.750  0.500  0.750-
  32  0.500  0.750  0.750-
  33  0.250  0.250  0.250-
  34  0.000  0.000  0.250-
  35  0.000  0.250  0.000-
  36  0.253  0.000  0.000-
  37  0.250  0.250  0.750-
  38  0.000  0.000  0.750-
  39  0.000  0.250  0.500-
  40  0.250  0.000  0.500-
  41  0.250  0.750  0.250-
  42  0.000  0.500  0.250-
  43  0.000  0.750  0.000-
  44  0.250  0.500  0.000-
  45  0.250  0.750  0.750-
  46  0.000  0.500  0.750-
  47  0.000  0.750  0.500-
  48  0.250  0.500  0.500-
  49  0.750  0.250  0.250-
  50  0.500  0.000  0.250-
  51  0.500  0.250  0.000-
  52  0.750  0.000  0.000-
  53  0.750  0.250  0.750-
  54  0.500  0.000  0.750-
  55  0.500  0.250  0.500-
  56  0.750  0.000  0.500-
  57  0.750  0.750  0.250-
  58  0.500  0.500  0.250-
  59  0.500  0.750  0.000-
  60  0.750  0.500  0.000-
  61  0.750  0.750  0.750-
  62  0.500  0.500  0.750-
  63  0.500  0.750  0.500-
  64  0.750  0.500  0.500-
 
  LATTYP: Found a simple cubic cell.
 ALAT       =    11.2040023600
  
  Lattice vectors:
  
 A1 = (  11.2040023600,   0.0000000000,   0.0000000000)
 A2 = (   0.0000000000,  11.2040023600,   0.0000000000)
 A3 = (   0.0000000000,   0.0000000000,  11.2040023600)


Analysis of symmetry for initial positions (statically):
=====================================================================
 Subroutine PRICEL returns:
 Original cell was already a primitive cell.
 

 Routine SETGRP: Setting up the symmetry group for a 
 simple cubic supercell.


 Subroutine GETGRP returns: Found  8 space group operations
 (whereof  8 operations were pure point group operations)
 out of a pool of 48 trial point group operations.


The static configuration has the point symmetry C_4v.


Analysis of symmetry for dynamics (positions and initial velocities):
=====================================================================
 Subroutine PRICEL returns:
 Original cell was already a primitive cell.
 

 Routine SETGRP: Setting up the symmetry group for a 
 simple cubic supercell.


 Subroutine GETGRP returns: Found  8 space group operations
 (whereof  8 operations were pure point group operations)
 out of a pool of 48 trial point group operations.


The dynamic configuration has the point symmetry C_4v.


 Subroutine INISYM returns: Found  8 space group operations
 (whereof  8 operations are pure point group operations),
 and found     1 'primitive' translations


----------------------------------------------------------------------------------------

                                     Primitive cell                                     

  volume of cell :    1406.4347

  direct lattice vectors                    reciprocal lattice vectors
    11.204002360  0.000000000  0.000000000     0.089253819  0.000000000  0.000000000
     0.000000000 11.204002360  0.000000000     0.000000000  0.089253819  0.000000000
     0.000000000  0.000000000 11.204002360     0.000000000  0.000000000  0.089253819

  length of vectors
    11.204002360 11.204002360 11.204002360     0.089253819  0.089253819  0.089253819

  position of ions in fractional coordinates (direct lattice)
     0.997322385  0.000000000  0.000000000
     0.250000000  0.250000000  0.000000000
     0.250000000  0.000000000  0.250000000
     0.000000000  0.250000000  0.250000000
     0.000000000  0.000000000  0.500000000
     0.250000000  0.250000000  0.500000000
     0.250000000  0.000000000  0.750000000
     0.000000000  0.250000000  0.750000000
     0.000000000  0.500000000  0.000000000
     0.250000000  0.750000000  0.000000000
     0.250000000  0.500000000  0.250000000
     0.000000000  0.750000000  0.250000000
     0.000000000  0.500000000  0.500000000
     0.250000000  0.750000000  0.500000000
     0.250000000  0.500000000  0.750000000
     0.000000000  0.750000000  0.750000000
     0.500000000  0.000000000  0.000000000
     0.750000000  0.250000000  0.000000000
     0.750000000  0.000000000  0.250000000
     0.500000000  0.250000000  0.250000000
     0.500000000  0.000000000  0.500000000
     0.750000000  0.250000000  0.500000000
     0.750000000  0.000000000  0.750000000
     0.500000000  0.250000000  0.750000000
     0.500000000  0.500000000  0.000000000
     0.750000000  0.750000000  0.000000000
     0.750000000  0.500000000  0.250000000
     0.500000000  0.750000000  0.250000000
     0.500000000  0.500000000  0.500000000
     0.750000000  0.750000000  0.500000000
     0.750000000  0.500000000  0.750000000
     0.500000000  0.750000000  0.750000000
     0.250000000  0.250000000  0.250000000
     0.000000000  0.000000000  0.250000000
     0.000000000  0.250000000  0.000000000
     0.252677615  0.000000000  0.000000000
     0.250000000  0.250000000  0.750000000
     0.000000000  0.000000000  0.750000000
     0.000000000  0.250000000  0.500000000
     0.250000000  0.000000000  0.500000000
     0.250000000  0.750000000  0.250000000
     0.000000000  0.500000000  0.250000000
     0.000000000  0.750000000  0.000000000
     0.250000000  0.500000000  0.000000000
     0.250000000  0.750000000  0.750000000
     0.000000000  0.500000000  0.750000000
     0.000000000  0.750000000  0.500000000
     0.250000000  0.500000000  0.500000000
     0.750000000  0.250000000  0.250000000
     0.500000000  0.000000000  0.250000000
     0.500000000  0.250000000  0.000000000
     0.750000000  0.000000000  0.000000000
     0.750000000  0.250000000  0.750000000
     0.500000000  0.000000000  0.750000000
     0.500000000  0.250000000  0.500000000
     0.750000000  0.000000000  0.500000000
     0.750000000  0.750000000  0.250000000
     0.500000000  0.500000000  0.250000000
     0.500000000  0.750000000  0.000000000
     0.750000000  0.500000000  0.000000000
     0.750000000  0.750000000  0.750000000
     0.500000000  0.500000000  0.750000000
     0.500000000  0.750000000  0.500000000
     0.750000000  0.500000000  0.500000000

  ion indices of the primitive-cell ions
   primitive index   ion index
                 1           1
                 2           2
                 3           3
                 4           4
                 5           5
                 6           6
                 7           7
                 8           8
                 9           9
                10          10
                11          11
                12          12
                13          13
                14          14
                15          15
                16          16
                17          17
                18          18
                19          19
                20          20
                21          21
                22          22
                23          23
                24          24
                25          25
                26          26
                27          27
                28          28
                29          29
                30          30
                31          31
                32          32
                33          33
                34          34
                35          35
                36          36
                37          37
                38          38
                39          39
                40          40
                41          41
                42          42
                43          43
                44          44
                45          45
                46          46
                47          47
                48          48
                49          49
                50          50
                51          51
                52          52
                53          53
                54          54
                55          55
                56          56
                57          57
                58          58
                59          59
                60          60
                61          61
                62          62
                63          63
                64          64

----------------------------------------------------------------------------------------

 
 
 KPOINTS: KPOINTS created by Atomic Simulation Env

Automatic generation of k-mesh.
 Grid dimensions read from file:
 generate k-points for:    2    2    2

 Generating k-lattice:

  Cartesian coordinates                     Fractional coordinates (reciprocal lattice)
     0.044626910  0.000000000  0.000000000     0.500000000  0.000000000  0.000000000
     0.000000000  0.044626910  0.000000000     0.000000000  0.500000000  0.000000000
     0.000000000  0.000000000  0.044626910     0.000000000  0.000000000  0.500000000

  Length of vectors
     0.044626910  0.044626910  0.044626910

  Shift w.r.t. Gamma in fractional coordinates (k-lattice)
     0.000000000  0.000000000  0.000000000

 
 Subroutine IBZKPT returns following result:
 ===========================================
 
 Found      6 irreducible k-points:
 
 Following reciprocal coordinates:
            Coordinates               Weight
  0.000000  0.000000  0.000000      1.000000
  0.500000  0.000000  0.000000      1.000000
  0.000000  0.500000  0.000000      2.000000
  0.500000  0.500000  0.000000      2.000000
  0.000000  0.500000  0.500000      1.000000
  0.500000  0.500000  0.500000      1.000000
 
 Following cartesian coordinates:
            Coordinates               Weight
  0.000000  0.000000  0.000000      1.000000
  0.044627  0.000000  0.000000      1.000000
  0.000000  0.044627  0.000000      2.000000
  0.044627  0.044627  0.000000      2.000000
  0.000000  0.044627  0.044627      1.000000
  0.044627  0.044627  0.044627      1.000000
 


--------------------------------------------------------------------------------------------------------




 Dimension of arrays:
   k-points           NKPTS =      6   k-points in BZ     NKDIM =      6   number of bands    NBANDS=    288
   number of dos      NEDOS =    301   number of ions     NIONS =     64
   non local maximal  LDIM  =      4   non local SUM 2l+1 LMDIM =      8
   total plane-waves  NPLWV = 343000
   max r-space proj   IRMAX =      1   max aug-charges    IRDMAX=  56280
   dimension x,y,z NGX =    70 NGY =   70 NGZ =   70
   dimension x,y,z NGXF=   140 NGYF=  140 NGZF=  140
   support grid    NGXF=   280 NGYF=  280 NGZF=  280
   ions per type =              32  32
   NGX,Y,Z   is equivalent  to a cutoff of  10.39, 10.39, 10.39 a.u.
   NGXF,Y,Z  is equivalent  to a cutoff of  20.77, 20.77, 20.77 a.u.

 SYSTEM =  unknown system                          
 POSCAR =  Na Cl                                   

 Startparameter for this run:
   NWRITE =      2    write-flag & timer
   PREC   = accura    normal or accurate (medium, high low for compatibility)
   ISTART =      0    job   : 0-new  1-cont  2-samecut
   ICHARG =      2    charge: 1-file 2-atom 10-const
   ISPIN  =      1    spin polarized calculation?
   LNONCOLLINEAR =      F non collinear calculations
   LSORBIT =      F    spin-orbit coupling
   INIWAV =      1    electr: 0-lowe 1-rand  2-diag
   LASPH  =      F    aspherical Exc in radial PAW
 Electronic Relaxation 1
   ENCUT  =  341.2 eV  25.08 Ry    5.01 a.u.  16.87 16.87 16.87*2*pi/ulx,y,z
   ENINI  =  341.2     initial cutoff
   ENAUG  =  368.1 eV  augmentation charge cutoff
   NELM   =     60;   NELMIN=  5; NELMDL= -5     # of ELM steps 
   EDIFF  = 0.1E-07   stopping-criterion for ELM
   LREAL  =      F    real-space projection
   NLSPLINE    = F    spline interpolate recip. space projectors
   LCOMPAT=      F    compatible to vasp.4.4
   GGA_COMPAT  = T    GGA compatible to vasp.4.4-vasp.4.6
   LMAXPAW     = -100 max onsite density
   LMAXMIX     =    2 max onsite mixed and CHGCAR
   VOSKOWN=      0    Vosko Wilk Nusair interpolation
   ROPT   =    0.00000   0.00000
 Ionic relaxation
   EDIFFG = 0.1E-06   stopping-criterion for IOM
   NSW    =      0    number of steps for IOM
   NBLOCK =      1;   KBLOCK =      1    inner block; outer block 
   IBRION =     -1    ionic relax: 0-MD 1-quasi-New 2-CG
   NFREE  =      0    steps in history (QN), initial steepest desc. (CG)
   ISIF   =      2    stress and relaxation
   IWAVPR =     10    prediction:  0-non 1-charg 2-wave 3-comb
   ISYM   =      2    0-nonsym 1-usesym 2-fastsym
   LCORR  =      T    Harris-Foulkes like correction to forces

   POTIM  = 0.5000    time-step for ionic-motion
   TEIN   =    0.0    initial temperature
   TEBEG  =    0.0;   TEEND  =   0.0 temperature during run
   SMASS  =  -3.00    Nose mass-parameter (am)
   estimated Nose-frequenzy (Omega)   =  0.10E-29 period in steps = 0.13E+47 mass=  -0.287E-26a.u.
   SCALEE = 1.0000    scale energy and forces
   NPACO  =    256;   APACO  = 10.0  distance and # of slots for P.C.
   PSTRESS=    0.0 pullay stress

  Mass of Ions in am
   POMASS =  22.99 35.45
  Ionic Valenz
   ZVAL   =   7.00  7.00
  Atomic Wigner-Seitz radii
   RWIGS  =  -1.00 -1.00
  virtual crystal weights 
   VCA    =   1.00  1.00
   NELECT =     448.0000    total number of electrons
   NUPDOWN=      -1.0000    fix difference up-down

 DOS related values:
   EMIN   =  10.00;   EMAX   =-10.00  energy-range for DOS
   EFERMI =   0.00
   ISMEAR =     0;   SIGMA  =   0.02  broadening in eV -4-tet -1-fermi 0-gaus

 Electronic relaxation 2 (details)
   IALGO  =     38    algorithm
   LDIAG  =      T    sub-space diagonalisation (order eigenvalues)
   LSUBROT=      F    optimize rotation matrix (better conditioning)
   TURBO    =      0    0=normal 1=particle mesh
   IRESTART =      0    0=no restart 2=restart with 2 vectors
   NREBOOT  =      0    no. of reboots
   NMIN     =      0    reboot dimension
   EREF     =   0.00    reference energy to select bands
   IMIX   =      4    mixing-type and parameters
     AMIX     =   0.40;   BMIX     =  1.00
     AMIX_MAG =   1.60;   BMIX_MAG =  1.00
     AMIN     =   0.10
     WC   =   100.;   INIMIX=   1;  MIXPRE=   1;  MAXMIX= -45

 Intra band minimization:
   WEIMIN = 0.0000     energy-eigenvalue tresh-hold
   EBREAK =  0.87E-11  absolut break condition
   DEPER  =   0.30     relativ break condition  

   TIME   =   0.40     timestep for ELM

  volume/ion in A,a.u.               =      21.98       148.30
  Fermi-wavevector in a.u.,A,eV,Ry     =   1.118049  2.112807 17.007750  1.250034
  Thomas-Fermi vector in A             =   2.254677
 
 Write flags
   LWAVE        =      F    write WAVECAR
   LDOWNSAMPLE  =      F    k-point downsampling of WAVECAR
   LCHARG       =      F    write CHGCAR
   LVTOT        =      F    write LOCPOT, total local potential
   LVHAR        =      F    write LOCPOT, Hartree potential only
   LELF         =      F    write electronic localiz. function (ELF)
   LORBIT       =      0    0 simple, 1 ext, 2 COOP (PROOUT), +10 PAW based schemes


 Dipole corrections
   LMONO  =      F    monopole corrections only (constant potential shift)
   LDIPOL =      F    correct potential (dipole corrections)
   IDIPOL =      0    1-x, 2-y, 3-z, 4-all directions 
   EPSILON=  1.0000000 bulk dielectric constant

 Exchange correlation treatment:
   GGA     =    PS    GGA type
   LEXCH   =    14    internal setting for exchange type
   LIBXC   =     F    Libxc                    
   VOSKOWN =     0    Vosko Wilk Nusair interpolation
   LHFCALC =     F    Hartree Fock is set to
   LHFONE  =     F    Hartree Fock one center treatment
   AEXX    =    0.0000 exact exchange contribution

 Linear response parameters
   LEPSILON=     F    determine dielectric tensor
   LRPA    =     F    only Hartree local field effects (RPA)
   LNABLA  =     F    use nabla operator in PAW spheres
   LVEL    =     F    velocity operator in full k-point grid
   CSHIFT  =0.1000    complex shift for real part using Kramers Kronig
   OMEGAMAX=  -1.0    maximum frequency
   DEG_THRESHOLD= 0.2000000E-02 threshold for treating states as degnerate
   RTIME   =   -0.100 relaxation time in fs
  (WPLASMAI=    0.000 imaginary part of plasma frequency in eV, 0.658/RTIME)
   DFIELD  = 0.0000000 0.0000000 0.0000000 field for delta impulse in time
 
  Optional k-point grid parameters
   LKPOINTS_OPT  =     F    use optional k-point grid
   KPOINTS_OPT_MODE=     1    mode for optional k-point grid
 
 Orbital magnetization related:
   ORBITALMAG=     F  switch on orbital magnetization
   LCHIMAG   =     F  perturbation theory with respect to B field
   DQ        =  0.001000  dq finite difference perturbation B field
   LLRAUG    =     F  two centre corrections for induced B field



--------------------------------------------------------------------------------------------------------


 Static calculation
 charge density and potential will be updated during run
 non-spin polarized calculation
 Variant of blocked Davidson
 Davidson routine will perform the subspace rotation
 perform sub-space diagonalisation
    after iterative eigenvector-optimisation
 modified Broyden-mixing scheme, WC =      100.0
 initial mixing is a Kerker type mixing with AMIX =  0.4000 and BMIX =      1.0000
 Hartree-type preconditioning will be used
 using additional bands           64
 reciprocal scheme for non local part
 use partial core corrections
 calculate Harris-corrections to forces 
   (improved forces if not selfconsistent)
 use gradient corrections 
 use of overlap-Matrix (Vanderbilt PP)
 Gauss-broadening in eV      SIGMA  =   0.02


--------------------------------------------------------------------------------------------------------


  energy-cutoff  :      341.21
  volume of cell :     1406.43
      direct lattice vectors                 reciprocal lattice vectors
    11.204002360  0.000000000  0.000000000     0.089253819  0.000000000  0.000000000
     0.000000000 11.204002360  0.000000000     0.000000000  0.089253819  0.000000000
     0.000000000  0.000000000 11.204002360     0.000000000  0.000000000  0.089253819

  length of vectors
    11.204002360 11.204002360 11.204002360     0.089253819  0.089253819  0.089253819


 
 k-points in units of 2pi/SCALE and weight: KPOINTS created by Atomic Simulation Env
   0.00000000  0.00000000  0.00000000       0.125
   0.04462691  0.00000000  0.00000000       0.125
   0.00000000  0.04462691  0.00000000       0.250
   0.04462691  0.04462691  0.00000000       0.250
   0.00000000  0.04462691  0.04462691       0.125
   0.04462691  0.04462691  0.04462691       0.125
 
 k-points in reciprocal lattice and weights: KPOINTS created by Atomic Simulation Env
   0.00000000  0.00000000  0.00000000       0.125
   0.50000000  0.00000000  0.00000000       0.125
   0.00000000  0.50000000  0.00000000       0.250
   0.50000000  0.50000000  0.00000000       0.250
   0.00000000  0.50000000  0.50000000       0.125
   0.50000000  0.50000000  0.50000000       0.125
 
 position of ions in fractional coordinates (direct lattice) 
   0.99732239  0.00000000  0.00000000
   0.25000000  0.25000000  0.00000000
   0.25000000  0.00000000  0.25000000
   0.00000000  0.25000000  0.25000000
   0.00000000  0.00000000  0.50000000
   0.25000000  0.25000000  0.50000000
   0.25000000  0.00000000  0.75000000
   0.00000000  0.25000000  0.75000000
   0.00000000  0.50000000  0.00000000
   0.25000000  0.75000000  0.00000000
   0.25000000  0.50000000  0.25000000
   0.00000000  0.75000000  0.25000000
   0.00000000  0.50000000  0.50000000
   0.25000000  0.75000000  0.50000000
   0.25000000  0.50000000  0.75000000
   0.00000000  0.75000000  0.75000000
   0.50000000  0.00000000  0.00000000
   0.75000000  0.25000000  0.00000000
   0.75000000  0.00000000  0.25000000
   0.50000000  0.25000000  0.25000000
   0.50000000  0.00000000  0.50000000
   0.75000000  0.25000000  0.50000000
   0.75000000  0.00000000  0.75000000
   0.50000000  0.25000000  0.75000000
   0.50000000  0.50000000  0.00000000
   0.75000000  0.75000000  0.00000000
   0.75000000  0.50000000  0.25000000
   0.50000000  0.75000000  0.25000000
   0.50000000  0.50000000  0.50000000
   0.75000000  0.75000000  0.50000000
   0.75000000  0.50000000  0.75000000
   0.50000000  0.75000000  0.75000000
   0.25000000  0.25000000  0.25000000
   0.00000000  0.00000000  0.25000000
   0.00000000  0.25000000  0.00000000
   0.25267761  0.00000000  0.00000000
   0.25000000  0.25000000  0.75000000
   0.00000000  0.00000000  0.75000000
   0.00000000  0.25000000  0.50000000
   0.25000000  0.00000000  0.50000000
   0.25000000  0.75000000  0.25000000
   0.00000000  0.50000000  0.25000000
   0.00000000  0.75000000  0.00000000
   0.25000000  0.50000000  0.00000000
   0.25000000  0.75000000  0.75000000
   0.00000000  0.50000000  0.75000000
   0.00000000  0.75000000  0.50000000
   0.25000000  0.50000000  0.50000000
   0.75000000  0.25000000  0.25000000
   0.50000000  0.00000000  0.25000000
   0.50000000  0.25000000  0.00000000
   0.75000000  0.00000000  0.00000000
   0.75000000  0.25000000  0.75000000
   0.50000000  0.00000000  0.75000000
   0.50000000  0.25000000  0.50000000
   0.75000000  0.00000000  0.50000000
   0.75000000  0.75000000  0.25000000
   0.50000000  0.50000000  0.25000000
   0.50000000  0.75000000  0.00000000
   0.75000000  0.50000000  0.00000000
   0.75000000  0.75000000  0.75000000
   0.50000000  0.50000000  0.75000000
   0.50000000  0.75000000  0.50000000
   0.75000000  0.50000000  0.50000000
 
 position of ions in cartesian coordinates  (Angst):
  11.17400236  0.00000000  0.00000000
   2.80100059  2.80100059  0.00000000
   2.80100059  0.00000000  2.80100059
   0.00000000  2.80100059  2.80100059
   0.00000000  0.00000000  5.60200118
   2.80100059  2.80100059  5.60200118
   2.80100059  0.00000000  8.40300177
   0.00000000  2.80100059  8.40300177
   0.00000000  5.60200118  0.00000000
   2.80100059  8.40300177  0.00000000
   2.80100059  5.60200118  2.80100059
   0.00000000  8.40300177  2.80100059
   0.00000000  5.60200118  5.60200118
   2.80100059  8.40300177  5.60200118
   2.80100059  5.60200118  8.40300177
   0.00000000  8.40300177  8.40300177
   5.60200118  0.00000000  0.00000000
   8.40300177  2.80100059  0.00000000
   8.40300177  0.00000000  2.80100059
   5.60200118  2.80100059  2.80100059
   5.60200118  0.00000000  5.60200118
   8.40300177  2.80100059  5.60200118
   8.40300177  0.00000000  8.40300177
   5.60200118  2.80100059  8.40300177
   5.60200118  5.60200118  0.00000000
   8.40300177  8.40300177  0.00000000
   8.40300177  5.60200118  2.80100059
   5.60200118  8.40300177  2.80100059
   5.60200118  5.60200118  5.60200118
   8.40300177  8.40300177  5.60200118
   8.40300177  5.60200118  8.40300177
   5.60200118  8.40300177  8.40300177
   2.80100059  2.80100059  2.80100059
   0.00000000  0.00000000  2.80100059
   0.00000000  2.80100059  0.00000000
   2.83100059  0.00000000  0.00000000
   2.80100059  2.80100059  8.40300177
   0.00000000  0.00000000  8.40300177
   0.00000000  2.80100059  5.60200118
   2.80100059  0.00000000  5.60200118
   2.80100059  8.40300177  2.80100059
   0.00000000  5.60200118  2.80100059
   0.00000000  8.40300177  0.00000000
   2.80100059  5.60200118  0.00000000
   2.80100059  8.40300177  8.40300177
   0.00000000  5.60200118  8.40300177
   0.00000000  8.40300177  5.60200118
   2.80100059  5.60200118  5.60200118
   8.40300177  2.80100059  2.80100059
   5.60200118  0.00000000  2.80100059
   5.60200118  2.80100059  0.00000000
   8.40300177  0.00000000  0.00000000
   8.40300177  2.80100059  8.40300177
   5.60200118  0.00000000  8.40300177
   5.60200118  2.80100059  5.60200118
   8.40300177  0.00000000  5.60200118
   8.40300177  8.40300177  2.80100059
   5.60200118  5.60200118  2.80100059
   5.60200118  8.40300177  0.00000000
   8.40300177  5.60200118  0.00000000
   8.40300177  8.40300177  8.40300177
   5.60200118  5.60200118  8.40300177
   5.60200118  8.40300177  5.60200118
   8.40300177  5.60200118  5.60200118
 


--------------------------------------------------------------------------------------------------------


 k-point   1 :   0.0000 0.0000 0.0000  plane waves:   20005
 k-point   2 :   0.5000 0.0000 0.0000  plane waves:   20138
 k-point   3 :   0.0000 0.5000 0.0000  plane waves:   20138
 k-point   4 :   0.5000 0.5000 0.0000  plane waves:   20160
 k-point   5 :   0.0000 0.5000 0.5000  plane waves:   20160
 k-point   6 :   0.5000 0.5000 0.5000  plane waves:   20336

 maximum and minimum number of plane-waves per node :     20336    20005

 maximum number of plane-waves:     20336
 maximum index in each direction: 
   IXMAX=   16   IYMAX=   16   IZMAX=   16
   IXMIN=  -17   IYMIN=  -17   IZMIN=  -17


 serial   3D FFT for wavefunctions
 parallel 3D FFT for charge:
    minimum data exchange during FFTs selected (reduces bandwidth)


 total amount of memory used by VASP MPI-rank0   118439. kBytes
=======================================================================

   base      :      30000. kBytes
   nonl-proj :      36470. kBytes
   fftplans  :      14405. kBytes
   grid      :      19342. kBytes
   one-center:        196. kBytes
   wavefun   :      18026. kBytes
 
     INWAV:  cpu time      0.0000: real time      0.0000
 Broyden mixing: mesh for mixing (old mesh)
   NGX = 33   NGY = 33   NGZ = 33
  (NGX  =140   NGY  =140   NGZ  =140)
  gives a total of  35937 points

 initial charge density was supplied:
 charge density of overlapping atoms calculated
 number of electron     448.0000000 magnetization 
 keeping initial charge density in first step


--------------------------------------------------------------------------------------------------------


 Maximum index for augmentation-charges         1834 (set IRDMAX)


--------------------------------------------------------------------------------------------------------


 First call to EWALD:  gamma=   0.158
 Maximum number of real-space cells 3x 3x 3
 Maximum number of reciprocal cells 3x 3x 3

    FEWALD:  cpu time      0.0014: real time      0.0014


--------------------------------------- Iteration      1(   1)  ---------------------------------------


    POTLOK:  cpu time      0.0421: real time      0.0427
    SETDIJ:  cpu time      0.0319: real time      0.0321
     EDDAV:  cpu time      7.2248: real time      7.2634
       DOS:  cpu time      0.0008: real time      0.0008
    --------------------------------------------
      LOOP:  cpu time      7.2996: real time      7.3390

 eigenvalue-minimisations  :  3456
 total energy-change (2. order) : 0.4316808E+04  (-0.1718200E+05)
 number of electron     448.0000000 magnetization 
 augmentation part      448.0000000 magnetization 

 Free energy of the ion-electron system (eV)
  ---------------------------------------------------
  alpha Z        PSCENC =       751.52672365
  Ewald energy   TEWEN  =    -22871.28123581
  -Hartree energ DENC   =     -8992.29876787
  -exchange      EXHF   =         0.00000000
  -V(xc)+E(xc)   XCENC  =      1456.53455249
  PAW double counting   =     26466.43774078   -29286.08056155
  entropy T*S    EENTRO =        -0.00282457
  eigenvalues    EBANDS =      -740.20664472
  atomic energy  EATOM  =     37532.17946992
  Solvation  Ediel_sol  =         0.00000000
  ---------------------------------------------------
  free energy    TOTEN  =      4316.80845233 eV

  energy without entropy =     4316.81127689  energy(sigma->0) =     4316.80986461


--------------------------------------------------------------------------------------------------------




--------------------------------------- Iteration      1(   2)  ---------------------------------------


     EDDAV:  cpu time      7.8529: real time      7.8952
       DOS:  cpu time      0.0003: real time      0.0003
    --------------------------------------------
      LOOP:  cpu time      7.8532: real time      7.8955

 eigenvalue-minimisations  :  3840
 total energy-change (2. order) :-0.3953400E+04  (-0.3761430E+04)
 number of electron     448.0000000 magnetization 
 augmentation part      448.0000000 magnetization 

 Free energy of the ion-electron system (eV)
  ---------------------------------------------------
  alpha Z        PSCENC =       751.52672365
  Ewald energy   TEWEN  =    -22871.28123581
  -Hartree energ DENC   =     -8992.29876787
  -exchange      EXHF   =         0.00000000
  -V(xc)+E(xc)   XCENC  =      1456.53455249
  PAW double counting   =     26466.43774078   -29286.08056155
  entropy T*S    EENTRO =        -0.00000000
  eigenvalues    EBANDS =     -4693.60906157
  atomic energy  EATOM  =     37532.17946992
  Solvation  Ediel_sol  =         0.00000000
  ---------------------------------------------------
  free energy    TOTEN  =       363.40886004 eV

  energy without entropy =      363.40886004  energy(sigma->0) =      363.40886004


--------------------------------------------------------------------------------------------------------




--------------------------------------- Iteration      1(   3)  ---------------------------------------


     EDDAV:  cpu time      8.4909: real time      8.5362
       DOS:  cpu time      0.0005: real time      0.0005
    --------------------------------------------
      LOOP:  cpu time      8.4915: real time      8.5367

 eigenvalue-minimisations  :  4224
 total energy-change (2. order) :-0.5696354E+03  (-0.5654035E+03)
 number of electron     448.0000000 magnetization 
 augmentation part      448.0000000 magnetization 

 Free energy of the ion-electron system (eV)
  ---------------------------------------------------
  alpha Z        PSCENC =       751.52672365
  Ewald energy   TEWEN  =    -22871.28123581
  -Hartree energ DENC   =     -8992.29876787
  -exchange      EXHF   =         0.00000000
  -V(xc)+E(xc)   XCENC  =      1456.53455249
  PAW double counting   =     26466.43774078   -29286.08056155
  entropy T*S    EENTRO =        -0.00000000
  eigenvalues    EBANDS =     -5263.24447856
  atomic energy  EATOM  =     37532.17946992
  Solvation  Ediel_sol  =         0.00000000
  ---------------------------------------------------
  free energy    TOTEN  =      -206.22655694 eV

  energy without entropy =     -206.22655694  energy(sigma->0) =     -206.22655694


--------------------------------------------------------------------------------------------------------




--------------------------------------- Iteration      1(   4)  ---------------------------------------


     EDDAV:  cpu time      8.3977: real time      8.4426
       DOS:  cpu time      0.0005: real time      0.0005
    --------------------------------------------
      LOOP:  cpu time      8.3982: real time      8.4430

 eigenvalue-minimisations  :  4160
 total energy-change (2. order) :-0.2196706E+02  (-0.2186875E+02)
 number of electron     448.0000000 magnetization 
 augmentation part      448.0000000 magnetization 

 Free energy of the ion-electron system (eV)
  ---------------------------------------------------
  alpha Z        PSCENC =       751.52672365
  Ewald energy   TEWEN  =    -22871.28123581
  -Hartree energ DENC   =     -8992.29876787
  -exchange      EXHF   =         0.00000000
  -V(xc)+E(xc)   XCENC  =      1456.53455249
  PAW double counting   =     26466.43774078   -29286.08056155
  entropy T*S    EENTRO =        -0.00000000
  eigenvalues    EBANDS =     -5285.21153783
  atomic energy  EATOM  =     37532.17946992
  Solvation  Ediel_sol  =         0.00000000
  ---------------------------------------------------
  free energy    TOTEN  =      -228.19361622 eV

  energy without entropy =     -228.19361622  energy(sigma->0) =     -228.19361622


--------------------------------------------------------------------------------------------------------




--------------------------------------- Iteration      1(   5)  ---------------------------------------


     EDDAV:  cpu time      8.6810: real time      8.7272
       DOS:  cpu time      0.0004: real time      0.0004
    CHARGE:  cpu time      0.2679: real time      0.2697
    MIXING:  cpu time      0.0012: real time      0.0012
    --------------------------------------------
      LOOP:  cpu time      8.9505: real time      8.9985

 eigenvalue-minimisations  :  4352
 total energy-change (2. order) :-0.8104234E+00  (-0.8089686E+00)
 number of electron     448.0000022 magnetization 
 augmentation part      111.6414040 magnetization 

 Broyden mixing:
  rms(total) = 0.10607E+01    rms(broyden)= 0.10603E+01
  rms(prec ) = 0.14936E+01
  weight for this iteration     100.00

 Free energy of the ion-electron system (eV)
  ---------------------------------------------------
  alpha Z        PSCENC =       751.52672365
  Ewald energy   TEWEN  =    -22871.28123581
  -Hartree energ DENC   =     -8992.29876787
  -exchange      EXHF   =         0.00000000
  -V(xc)+E(xc)   XCENC  =      1456.53455249
  PAW double counting   =     26466.43774078   -29286.08056155
  entropy T*S    EENTRO =        -0.00000000
  eigenvalues    EBANDS =     -5286.02196124
  atomic energy  EATOM  =     37532.17946992
  Solvation  Ediel_sol  =         0.00000000
  ---------------------------------------------------
  free energy    TOTEN  =      -229.00403963 eV

  energy without entropy =     -229.00403963  energy(sigma->0) =     -229.00403963


--------------------------------------------------------------------------------------------------------




--------------------------------------- Iteration      1(   6)  ---------------------------------------


    POTLOK:  cpu time      0.0364: real time      0.0377
    SETDIJ:  cpu time      0.0299: real time      0.0300
     EDDAV:  cpu time      8.6065: real time      8.6515
       DOS:  cpu time      0.0002: real time      0.0002
    CHARGE:  cpu time      0.2660: real time      0.2678
    MIXING:  cpu time      0.0010: real time      0.0010
    --------------------------------------------
      LOOP:  cpu time      8.9400: real time      8.9883

 eigenvalue-minimisations  :  4288
 total energy-change (2. order) : 0.4865285E+01  (-0.9470635E+00)
 number of electron     448.0000022 magnetization 
 augmentation part      112.4582707 magnetization 

 Broyden mixing:
  rms(total) = 0.77561E+00    rms(broyden)= 0.77555E+00
  rms(prec ) = 0.89172E+00
  weight for this iteration     100.00

 eigenvalues of (default mixing * dielectric matrix)
  average eigenvalue GAMMA=   1.0768
  1.0768

 Free energy of the ion-electron system (eV)
  ---------------------------------------------------
  alpha Z        PSCENC =       751.52672365
  Ewald energy   TEWEN  =    -22871.28123581
  -Hartree energ DENC   =     -9061.76092591
  -exchange      EXHF   =         0.00000000
  -V(xc)+E(xc)   XCENC  =      1465.42568854
  PAW double counting   =     27291.08426044   -30103.01949270
  entropy T*S    EENTRO =        -0.00000000
  eigenvalues    EBANDS =     -5228.29324321
  atomic energy  EATOM  =     37532.17946992
  Solvation  Ediel_sol  =         0.00000000
  ---------------------------------------------------
  free energy    TOTEN  =      -224.13875508 eV

  energy without entropy =     -224.13875508  energy(sigma->0) =     -224.13875508


--------------------------------------------------------------------------------------------------------




--------------------------------------- Iteration      1(   7)  ---------------------------------------


    POTLOK:  cpu time      0.0357: real time      0.0359
    SETDIJ:  cpu time      0.0300: real time      0.0301
     EDDAV:  cpu time      9.2461: real time      9.2949
       DOS:  cpu time      0.0003: real time      0.0003
    CHARGE:  cpu time      0.2651: real time      0.2664
    MIXING:  cpu time      0.0014: real time      0.0014
    --------------------------------------------
      LOOP:  cpu time      9.5786: real time      9.6291

 eigenvalue-minimisations  :  4672
 total energy-change (2. order) : 0.3617858E+00  (-0.2071586E+00)
 number of electron     448.0000022 magnetization 
 augmentation part      112.8279028 magnetization 

 Broyden mixing:
  rms(total) = 0.53302E+00    rms(broyden)= 0.53299E+00
  rms(prec ) = 0.56296E+00
  weight for this iteration     100.00

 eigenvalues of (default mixing * dielectric matrix)
  average eigenvalue GAMMA=   2.1567
  1.4408  2.8725

 Free energy of the ion-electron system (eV)
  ---------------------------------------------------
  alpha Z        PSCENC =       751.52672365
  Ewald energy   TEWEN  =    -22871.28123581
  -Hartree energ DENC   =     -9085.90288242
  -exchange      EXHF   =         0.00000000
  -V(xc)+E(xc)   XCENC  =      1470.12997090
  PAW double counting   =     28330.37626440   -31143.10047987
  entropy T*S    EENTRO =        -0.00000000
  eigenvalues    EBANDS =     -5207.70480009
  atomic energy  EATOM  =     37532.17946992
  Solvation  Ediel_sol  =         0.00000000
  ---------------------------------------------------
  free energy    TOTEN  =      -223.77696931 eV

  energy without entropy =     -223.77696931  energy(sigma->0) =     -223.77696931


--------------------------------------------------------------------------------------------------------




--------------------------------------- Iteration      1(   8)  ---------------------------------------


    POTLOK:  cpu time      0.0365: real time      0.0413
    SETDIJ:  cpu time      0.0301: real time      0.0303
     EDDAV:  cpu time      8.1299: real time      8.1727
       DOS:  cpu time      0.0003: real time      0.0003
    CHARGE:  cpu time      0.2832: real time      0.2850
    MIXING:  cpu time      0.0012: real time      0.0012
    --------------------------------------------
      LOOP:  cpu time      8.4812: real time      8.5308

 eigenvalue-minimisations  :  4000
 total energy-change (2. order) :-0.1253575E+00  (-0.2674009E-01)
 number of electron     448.0000022 magnetization 
 augmentation part      112.8090647 magnetization 

 Broyden mixing:
  rms(total) = 0.14251E+00    rms(broyden)= 0.14251E+00
  rms(prec ) = 0.14543E+00
  weight for this iteration     100.00

 eigenvalues of (default mixing * dielectric matrix)
  average eigenvalue GAMMA=   1.5549
  2.5291  1.3887  0.7469

 Free energy of the ion-electron system (eV)
  ---------------------------------------------------
  alpha Z        PSCENC =       751.52672365
  Ewald energy   TEWEN  =    -22871.28123581
  -Hartree energ DENC   =     -9075.22717187
  -exchange      EXHF   =         0.00000000
  -V(xc)+E(xc)   XCENC  =      1472.33808285
  PAW double counting   =     29810.68075969   -32630.55652576
  entropy T*S    EENTRO =        -0.00000000
  eigenvalues    EBANDS =     -5213.56242943
  atomic energy  EATOM  =     37532.17946992
  Solvation  Ediel_sol  =         0.00000000
  ---------------------------------------------------
  free energy    TOTEN  =      -223.90232677 eV

  energy without entropy =     -223.90232677  energy(sigma->0) =     -223.90232677


--------------------------------------------------------------------------------------------------------




--------------------------------------- Iteration      1(   9)  ---------------------------------------


    POTLOK:  cpu time      0.0357: real time      0.0360
    SETDIJ:  cpu time      0.0301: real time      0.0302
     EDDAV:  cpu time      8.6061: real time      8.6508
       DOS:  cpu time      0.0004: real time      0.0004
    CHARGE:  cpu time      0.2680: real time      0.2698
    MIXING:  cpu time      0.0018: real time      0.0018
    --------------------------------------------
      LOOP:  cpu time      8.9421: real time      8.9889

 eigenvalue-minimisations  :  4288
 total energy-change (2. order) : 0.5605906E-02  (-0.1114241E-02)
 number of electron     448.0000022 magnetization 
 augmentation part      112.8308402 magnetization 

 Broyden mixing:
  rms(total) = 0.61353E-01    rms(broyden)= 0.61352E-01
  rms(prec ) = 0.63400E-01
  weight for this iteration     100.00

 eigenvalues of (default mixing * dielectric matrix)
  average eigenvalue GAMMA=   2.0089
  2.8833  2.7593  0.9987  1.3941

 Free energy of the ion-electron system (eV)
  ---------------------------------------------------
  alpha Z        PSCENC =       751.52672365
  Ewald energy   TEWEN  =    -22871.28123581
  -Hartree energ DENC   =     -9077.95268072
  -exchange      EXHF   =         0.00000000
  -V(xc)+E(xc)   XCENC  =      1472.35676051
  PAW double counting   =     29632.64674730   -32451.67644929
  entropy T*S    EENTRO =        -0.00000000
  eigenvalues    EBANDS =     -5211.69605643
  atomic energy  EATOM  =     37532.17946992
  Solvation  Ediel_sol  =         0.00000000
  ---------------------------------------------------
  free energy    TOTEN  =      -223.89672086 eV

  energy without entropy =     -223.89672086  energy(sigma->0) =     -223.89672086


--------------------------------------------------------------------------------------------------------




--------------------------------------- Iteration      1(  10)  ---------------------------------------


    POTLOK:  cpu time      0.0357: real time      0.0360
    SETDIJ:  cpu time      0.0301: real time      0.0303
     EDDAV:  cpu time      8.2015: real time      8.2452
       DOS:  cpu time      0.0004: real time      0.0004
    CHARGE:  cpu time      0.2668: real time      0.2681
    MIXING:  cpu time      0.0022: real time      0.0022
    --------------------------------------------
      LOOP:  cpu time      8.5369: real time      8.5823

 eigenvalue-minimisations  :  4032
 total energy-change (2. order) :-0.4263952E-02  (-0.1881189E-02)
 number of electron     448.0000022 magnetization 
 augmentation part      112.8612387 magnetization 

 Broyden mixing:
  rms(total) = 0.29213E-01    rms(broyden)= 0.29211E-01
  rms(prec ) = 0.31311E-01
  weight for this iteration     100.00

 eigenvalues of (default mixing * dielectric matrix)
  average eigenvalue GAMMA=   1.7107
  2.9419  2.5119  1.2964  1.0207  0.7827

 Free energy of the ion-electron system (eV)
  ---------------------------------------------------
  alpha Z        PSCENC =       751.52672365
  Ewald energy   TEWEN  =    -22871.28123581
  -Hartree energ DENC   =     -9079.51621889
  -exchange      EXHF   =         0.00000000
  -V(xc)+E(xc)   XCENC  =      1472.60842404
  PAW double counting   =     29455.21204111   -32274.43284474
  entropy T*S    EENTRO =        -0.00000000
  eigenvalues    EBANDS =     -5210.19734410
  atomic energy  EATOM  =     37532.17946992
  Solvation  Ediel_sol  =         0.00000000
  ---------------------------------------------------
  free energy    TOTEN  =      -223.90098482 eV

  energy without entropy =     -223.90098482  energy(sigma->0) =     -223.90098482


--------------------------------------------------------------------------------------------------------




--------------------------------------- Iteration      1(  11)  ---------------------------------------


    POTLOK:  cpu time      0.0357: real time      0.0359
    SETDIJ:  cpu time      0.0304: real time      0.0305
     EDDAV:  cpu time      8.6657: real time      8.7115
       DOS:  cpu time      0.0004: real time      0.0004
    CHARGE:  cpu time      0.2669: real time      0.2682
    MIXING:  cpu time      0.0017: real time      0.0017
    --------------------------------------------
      LOOP:  cpu time      9.0007: real time      9.0482

 eigenvalue-minimisations  :  4320
 total energy-change (2. order) : 0.7548260E-03  (-0.1666134E-03)
 number of electron     448.0000022 magnetization 
 augmentation part      112.8517761 magnetization 

 Broyden mixing:
  rms(total) = 0.88347E-02    rms(broyden)= 0.88346E-02
  rms(prec ) = 0.92747E-02
  weight for this iteration     100.00

 eigenvalues of (default mixing * dielectric matrix)
  average eigenvalue GAMMA=   1.5733
  2.9135  2.4359  1.3197  1.0104  0.8801  0.8801

 Free energy of the ion-electron system (eV)
  ---------------------------------------------------
  alpha Z        PSCENC =       751.52672365
  Ewald energy   TEWEN  =    -22871.28123581
  -Hartree energ DENC   =     -9078.40148202
  -exchange      EXHF   =         0.00000000
  -V(xc)+E(xc)   XCENC  =      1472.53019631
  PAW double counting   =     29487.16127505   -32306.53269784
  entropy T*S    EENTRO =        -0.00000000
  eigenvalues    EBANDS =     -5211.08247926
  atomic energy  EATOM  =     37532.17946992
  Solvation  Ediel_sol  =         0.00000000
  ---------------------------------------------------
  free energy    TOTEN  =      -223.90022999 eV

  energy without entropy =     -223.90022999  energy(sigma->0) =     -223.90022999


--------------------------------------------------------------------------------------------------------




--------------------------------------- Iteration      1(  12)  ---------------------------------------


    POTLOK:  cpu time      0.0361: real time      0.0363
    SETDIJ:  cpu time      0.0305: real time      0.0306
     EDDAV:  cpu time      9.0936: real time      9.1415
       DOS:  cpu time      0.0004: real time      0.0004
    CHARGE:  cpu time      0.2733: real time      0.2746
    MIXING:  cpu time      0.0013: real time      0.0013
    --------------------------------------------
      LOOP:  cpu time      9.4351: real time      9.4847

 eigenvalue-minimisations  :  4576
 total energy-change (2. order) : 0.4215794E-04  (-0.1684734E-04)
 number of electron     448.0000022 magnetization 
 augmentation part      112.8487225 magnetization 

 Broyden mixing:
  rms(total) = 0.11945E-02    rms(broyden)= 0.11933E-02
  rms(prec ) = 0.14495E-02
  weight for this iteration     100.00

 eigenvalues of (default mixing * dielectric matrix)
  average eigenvalue GAMMA=   1.5963
  2.8866  2.4076  1.6183  1.1925  1.1925  1.0648  0.8117

 Free energy of the ion-electron system (eV)
  ---------------------------------------------------
  alpha Z        PSCENC =       751.52672365
  Ewald energy   TEWEN  =    -22871.28123581
  -Hartree energ DENC   =     -9078.23043292
  -exchange      EXHF   =         0.00000000
  -V(xc)+E(xc)   XCENC  =      1472.51801455
  PAW double counting   =     29499.23614679   -32318.61211350
  entropy T*S    EENTRO =        -0.00000000
  eigenvalues    EBANDS =     -5211.23676051
  atomic energy  EATOM  =     37532.17946992
  Solvation  Ediel_sol  =         0.00000000
  ---------------------------------------------------
  free energy    TOTEN  =      -223.90018783 eV

  energy without entropy =     -223.90018783  energy(sigma->0) =     -223.90018783


--------------------------------------------------------------------------------------------------------




--------------------------------------- Iteration      1(  13)  ---------------------------------------


    POTLOK:  cpu time      0.0362: real time      0.0376
    SETDIJ:  cpu time      0.0305: real time      0.0307
     EDDAV:  cpu time      8.5566: real time      8.6019
       DOS:  cpu time      0.0004: real time      0.0004
    CHARGE:  cpu time      0.2728: real time      0.2743
    MIXING:  cpu time      0.0013: real time      0.0013
    --------------------------------------------
      LOOP:  cpu time      8.8978: real time      8.9461

 eigenvalue-minimisations  :  4256
 total energy-change (2. order) :-0.2686480E-05  (-0.1733468E-05)
 number of electron     448.0000022 magnetization 
 augmentation part      112.8477691 magnetization 

 Broyden mixing:
  rms(total) = 0.34977E-03    rms(broyden)= 0.34927E-03
  rms(prec ) = 0.41177E-03
  weight for this iteration     100.00

 eigenvalues of (default mixing * dielectric matrix)
  average eigenvalue GAMMA=   1.6240
  2.9815  2.3464  2.3464  1.2689  0.9820  0.9820  1.0422  1.0422

 Free energy of the ion-electron system (eV)
  ---------------------------------------------------
  alpha Z        PSCENC =       751.52672365
  Ewald energy   TEWEN  =    -22871.28123581
  -Hartree energ DENC   =     -9078.17155552
  -exchange      EXHF   =         0.00000000
  -V(xc)+E(xc)   XCENC  =      1472.51143652
  PAW double counting   =     29498.79442280   -32318.16916375
  entropy T*S    EENTRO =        -0.00000000
  eigenvalues    EBANDS =     -5211.29028834
  atomic energy  EATOM  =     37532.17946992
  Solvation  Ediel_sol  =         0.00000000
  ---------------------------------------------------
  free energy    TOTEN  =      -223.90019052 eV

  energy without entropy =     -223.90019052  energy(sigma->0) =     -223.90019052


--------------------------------------------------------------------------------------------------------




--------------------------------------- Iteration      1(  14)  ---------------------------------------


    POTLOK:  cpu time      0.0361: real time      0.0364
    SETDIJ:  cpu time      0.0302: real time      0.0303
     EDDAV:  cpu time      8.5732: real time      8.6178
       DOS:  cpu time      0.0004: real time      0.0004
    CHARGE:  cpu time      0.2668: real time      0.2686
    MIXING:  cpu time      0.0017: real time      0.0017
    --------------------------------------------
      LOOP:  cpu time      8.9083: real time      8.9551

 eigenvalue-minimisations  :  4256
 total energy-change (2. order) :-0.1119566E-05  (-0.1788589E-06)
 number of electron     448.0000022 magnetization 
 augmentation part      112.8476738 magnetization 

 Broyden mixing:
  rms(total) = 0.78965E-03    rms(broyden)= 0.78961E-03
  rms(prec ) = 0.81298E-03
  weight for this iteration     100.00

 eigenvalues of (default mixing * dielectric matrix)
  average eigenvalue GAMMA=   1.6519
  3.0770  2.5781  2.5781  1.4424  1.2219  1.2219  0.9444  0.9444  0.8591

 Free energy of the ion-electron system (eV)
  ---------------------------------------------------
  alpha Z        PSCENC =       751.52672365
  Ewald energy   TEWEN  =    -22871.28123581
  -Hartree energ DENC   =     -9078.18118833
  -exchange      EXHF   =         0.00000000
  -V(xc)+E(xc)   XCENC  =      1472.51258031
  PAW double counting   =     29499.90774415   -32319.27844839
  entropy T*S    EENTRO =        -0.00000000
  eigenvalues    EBANDS =     -5211.28583714
  atomic energy  EATOM  =     37532.17946992
  Solvation  Ediel_sol  =         0.00000000
  ---------------------------------------------------
  free energy    TOTEN  =      -223.90019164 eV

  energy without entropy =     -223.90019164  energy(sigma->0) =     -223.90019164


--------------------------------------------------------------------------------------------------------




--------------------------------------- Iteration      1(  15)  ---------------------------------------


    POTLOK:  cpu time      0.0365: real time      0.0407
    SETDIJ:  cpu time      0.0304: real time      0.0306
     EDDAV:  cpu time      8.2031: real time      8.2457
       DOS:  cpu time      0.0004: real time      0.0004
    CHARGE:  cpu time      0.2691: real time      0.2704
    MIXING:  cpu time      0.0018: real time      0.0018
    --------------------------------------------
      LOOP:  cpu time      8.5412: real time      8.5895

 eigenvalue-minimisations  :  4032
 total energy-change (2. order) :-0.1360968E-05  (-0.4728998E-07)
 number of electron     448.0000022 magnetization 
 augmentation part      112.8477996 magnetization 

 Broyden mixing:
  rms(total) = 0.21556E-03    rms(broyden)= 0.21552E-03
  rms(prec ) = 0.22459E-03
  weight for this iteration     100.00

 eigenvalues of (default mixing * dielectric matrix)
  average eigenvalue GAMMA=   1.6163
  3.1192  2.7456  2.3900  1.5540  1.2673  1.2673  0.9988  0.9988  0.8700  0.9521

 Free energy of the ion-electron system (eV)
  ---------------------------------------------------
  alpha Z        PSCENC =       751.52672365
  Ewald energy   TEWEN  =    -22871.28123581
  -Hartree energ DENC   =     -9078.21121133
  -exchange      EXHF   =         0.00000000
  -V(xc)+E(xc)   XCENC  =      1472.51354677
  PAW double counting   =     29498.76623365   -32318.13204991
  entropy T*S    EENTRO =        -0.00000000
  eigenvalues    EBANDS =     -5211.26166994
  atomic energy  EATOM  =     37532.17946992
  Solvation  Ediel_sol  =         0.00000000
  ---------------------------------------------------
  free energy    TOTEN  =      -223.90019300 eV

  energy without entropy =     -223.90019300  energy(sigma->0) =     -223.90019300


--------------------------------------------------------------------------------------------------------




--------------------------------------- Iteration      1(  16)  ---------------------------------------


    POTLOK:  cpu time      0.0357: real time      0.0359
    SETDIJ:  cpu time      0.0306: real time      0.0307
     EDDAV:  cpu time      8.6334: real time      8.6785
       DOS:  cpu time      0.0004: real time      0.0004
    CHARGE:  cpu time      0.2684: real time      0.2697
    MIXING:  cpu time      0.0016: real time      0.0016
    --------------------------------------------
      LOOP:  cpu time      8.9702: real time      9.0169

 eigenvalue-minimisations  :  4288
 total energy-change (2. order) :-0.4033063E-06  (-0.1111227E-07)
 number of electron     448.0000022 magnetization 
 augmentation part      112.8478635 magnetization 

 Broyden mixing:
  rms(total) = 0.43775E-04    rms(broyden)= 0.43597E-04
  rms(prec ) = 0.49960E-04
  weight for this iteration     100.00

 eigenvalues of (default mixing * dielectric matrix)
  average eigenvalue GAMMA=   1.6045
  3.1355  2.7383  2.3823  1.6000  1.3197  1.3197  1.2293  1.2293  0.9134  0.8911
  0.8911

 Free energy of the ion-electron system (eV)
  ---------------------------------------------------
  alpha Z        PSCENC =       751.52672365
  Ewald energy   TEWEN  =    -22871.28123581
  -Hartree energ DENC   =     -9078.22008482
  -exchange      EXHF   =         0.00000000
  -V(xc)+E(xc)   XCENC  =      1472.51392746
  PAW double counting   =     29498.32332305   -32317.68886580
  entropy T*S    EENTRO =        -0.00000000
  eigenvalues    EBANDS =     -5211.25345106
  atomic energy  EATOM  =     37532.17946992
  Solvation  Ediel_sol  =         0.00000000
  ---------------------------------------------------
  free energy    TOTEN  =      -223.90019340 eV

  energy without entropy =     -223.90019340  energy(sigma->0) =     -223.90019340


--------------------------------------------------------------------------------------------------------




--------------------------------------- Iteration      1(  17)  ---------------------------------------


    POTLOK:  cpu time      0.0361: real time      0.0363
    SETDIJ:  cpu time      0.0301: real time      0.0303
     EDDAV:  cpu time      6.2568: real time      6.2897
       DOS:  cpu time      0.0004: real time      0.0004
    CHARGE:  cpu time      0.2743: real time      0.2756
    MIXING:  cpu time      0.0014: real time      0.0014
    --------------------------------------------
      LOOP:  cpu time      6.5991: real time      6.6337

 eigenvalue-minimisations  :  2784
 total energy-change (2. order) : 0.7142808E-07  (-0.4596138E-09)
 number of electron     448.0000022 magnetization 
 augmentation part      112.8478594 magnetization 

 Broyden mixing:
  rms(total) = 0.21947E-04    rms(broyden)= 0.21620E-04
  rms(prec ) = 0.25774E-04
  weight for this iteration     100.00

 eigenvalues of (default mixing * dielectric matrix)
  average eigenvalue GAMMA=   1.6210
  3.1718  2.8726  2.2751  2.2751  1.4598  1.2759  1.2759  0.9765  0.9765  1.0777
  0.8854  0.9299

 Free energy of the ion-electron system (eV)
  ---------------------------------------------------
  alpha Z        PSCENC =       751.52672365
  Ewald energy   TEWEN  =    -22871.28123581
  -Hartree energ DENC   =     -9078.22103775
  -exchange      EXHF   =         0.00000000
  -V(xc)+E(xc)   XCENC  =      1472.51394503
  PAW double counting   =     29498.31602253   -32317.68151372
  entropy T*S    EENTRO =        -0.00000000
  eigenvalues    EBANDS =     -5211.25256718
  atomic energy  EATOM  =     37532.17946992
  Solvation  Ediel_sol  =         0.00000000
  ---------------------------------------------------
  free energy    TOTEN  =      -223.90019333 eV

  energy without entropy =     -223.90019333  energy(sigma->0) =     -223.90019333


--------------------------------------------------------------------------------------------------------




--------------------------------------- Iteration      1(  18)  ---------------------------------------


    POTLOK:  cpu time      0.0357: real time      0.0359
    SETDIJ:  cpu time      0.0303: real time      0.0304
     EDDAV:  cpu time      6.1091: real time      6.1410
       DOS:  cpu time      0.0003: real time      0.0003
    CHARGE:  cpu time      0.2688: real time      0.2701
    MIXING:  cpu time      0.0015: real time      0.0015
    --------------------------------------------
      LOOP:  cpu time      6.4457: real time      6.4792

 eigenvalue-minimisations  :  2688
 total energy-change (2. order) :-0.1363514E-07  (-0.7069653E-09)
 number of electron     448.0000022 magnetization 
 augmentation part      112.8478625 magnetization 

 Broyden mixing:
  rms(total) = 0.32363E-04    rms(broyden)= 0.32142E-04
  rms(prec ) = 0.33851E-04
  weight for this iteration     100.00

 eigenvalues of (default mixing * dielectric matrix)
  average eigenvalue GAMMA=   1.5452
  3.2109  2.8949  2.3398  2.3398  1.2810  1.2810  1.3157  0.9477  0.9477  1.0748
  0.9579  0.8501  0.6464

 Free energy of the ion-electron system (eV)
  ---------------------------------------------------
  alpha Z        PSCENC =       751.52672365
  Ewald energy   TEWEN  =    -22871.28123581
  -Hartree energ DENC   =     -9078.22215988
  -exchange      EXHF   =         0.00000000
  -V(xc)+E(xc)   XCENC  =      1472.51398951
  PAW double counting   =     29498.28857961   -32317.65397722
  entropy T*S    EENTRO =        -0.00000000
  eigenvalues    EBANDS =     -5211.25158313
  atomic energy  EATOM  =     37532.17946992
  Solvation  Ediel_sol  =         0.00000000
  ---------------------------------------------------
  free energy    TOTEN  =      -223.90019334 eV

  energy without entropy =     -223.90019334  energy(sigma->0) =     -223.90019334


--------------------------------------------------------------------------------------------------------




--------------------------------------- Iteration      1(  19)  ---------------------------------------


    POTLOK:  cpu time      0.0355: real time      0.0359
    SETDIJ:  cpu time      0.0306: real time      0.0309
     EDDAV:  cpu time      5.4947: real time      5.5229
       DOS:  cpu time      0.0003: real time      0.0003
    --------------------------------------------
      LOOP:  cpu time      5.5612: real time      5.5900

 eigenvalue-minimisations  :  2304
 total energy-change (2. order) :-0.3041350E-08  (-0.3221464E-09)
 number of electron     448.0000022 magnetization 
 augmentation part      112.8478625 magnetization 

 Free energy of the ion-electron system (eV)
  ---------------------------------------------------
  alpha Z        PSCENC =       751.52672365
  Ewald energy   TEWEN  =    -22871.28123581
  -Hartree energ DENC   =     -9078.22237540
  -exchange      EXHF   =         0.00000000
  -V(xc)+E(xc)   XCENC  =      1472.51400712
  PAW double counting   =     29498.29317201   -32317.65860210
  entropy T*S    EENTRO =        -0.00000000
  eigenvalues    EBANDS =     -5211.25135275
  atomic energy  EATOM  =     37532.17946992
  Solvation  Ediel_sol  =         0.00000000
  ---------------------------------------------------
  free energy    TOTEN  =      -223.90019335 eV

  energy without entropy =     -223.90019335  energy(sigma->0) =     -223.90019335


--------------------------------------------------------------------------------------------------------




 average (electrostatic) potential at core
  the test charge radii are     0.9254  0.9406
  (the norm of the test charge is              1.0000)
       1 -46.9721       2 -46.9441       3 -46.9441       4 -46.9525       5 -46.9527
       6 -46.9484       7 -46.9441       8 -46.9525       9 -46.9527      10 -46.9441
      11 -46.9484      12 -46.9525      13 -46.9506      14 -46.9484      15 -46.9484
      16 -46.9525      17 -46.9261      18 -46.9553      19 -46.9553      20 -46.9467
      21 -46.9464      22 -46.9508      23 -46.9553      24 -46.9467      25 -46.9464
      26 -46.9553      27 -46.9508      28 -46.9467      29 -46.9486      30 -46.9508
      31 -46.9508      32 -46.9467      33 -93.5855      34 -93.5957      35 -93.5957
      36 -93.5648      37 -93.5855      38 -93.5957      39 -93.5897      40 -93.5873
      41 -93.5855      42 -93.5897      43 -93.5957      44 -93.5873      45 -93.5855
      46 -93.5897      47 -93.5897      48 -93.5872      49 -93.5909      50 -93.5806
      51 -93.5806      52 -93.6116      53 -93.5909      54 -93.5806      55 -93.5867
      56 -93.5890      57 -93.5909      58 -93.5867      59 -93.5806      60 -93.5890
      61 -93.5909      62 -93.5867      63 -93.5867      64 -93.5892
 
 
 
 E-fermi :  -0.5622     XC(G=0):  -8.4227     alpha+bet : -8.2520

 Fermi energy:        -0.5622009941

 k-point     1 :       0.0000    0.0000    0.0000
  band No.  band energies     occupation 
      1     -21.3089      2.00000
      2     -21.3088      2.00000
      3     -21.3088      2.00000
      4     -21.3045      2.00000
      5     -21.3008      2.00000
      6     -21.2998      2.00000
      7     -21.2998      2.00000
      8     -21.2945      2.00000
      9     -21.2945      2.00000
     10     -21.2944      2.00000
     11     -21.2942      2.00000
     12     -21.2938      2.00000
     13     -21.2935      2.00000
     14     -21.2933      2.00000
     15     -21.2933      2.00000
     16     -21.2928      2.00000
     17     -21.2923      2.00000
     18     -21.2921      2.00000
     19     -21.2921      2.00000
     20     -21.2899      2.00000
     21     -21.2899      2.00000
     22     -21.2882      2.00000
     23     -21.2877      2.00000
     24     -21.2877      2.00000
     25     -21.2872      2.00000
     26     -21.2869      2.00000
     27     -21.2863      2.00000
     28     -21.2861      2.00000
     29     -21.2861      2.00000
     30     -21.2855      2.00000
     31     -21.2848      2.00000
     32     -21.2848      2.00000
     33     -21.2836      2.00000
     34     -21.2836      2.00000
     35     -21.2834      2.00000
     36     -21.2834      2.00000
     37     -21.2833      2.00000
     38     -21.2831      2.00000
     39     -21.2820      2.00000
     40     -21.2820      2.00000
     41     -21.2820      2.00000
     42     -21.2818      2.00000
     43     -21.2818      2.00000
     44     -21.2816      2.00000
     45     -21.2816      2.00000
     46     -21.2813      2.00000
     47     -21.2811      2.00000
     48     -21.2806      2.00000
     49     -21.2806      2.00000
     50     -21.2803      2.00000
     51     -21.2798      2.00000
     52     -21.2798      2.00000
     53     -21.2793      2.00000
     54     -21.2787      2.00000
     55     -21.2783      2.00000
     56     -21.2773      2.00000
     57     -21.2773      2.00000
     58     -21.2769      2.00000
     59     -21.2769      2.00000
     60     -21.2768      2.00000
     61     -21.2761      2.00000
     62     -21.2761      2.00000
     63     -21.2760      2.00000
     64     -21.2752      2.00000
     65     -21.2752      2.00000
     66     -21.2752      2.00000
     67     -21.2752      2.00000
     68     -21.2749      2.00000
     69     -21.2749      2.00000
     70     -21.2749      2.00000
     71     -21.2746      2.00000
     72     -21.2730      2.00000
     73     -21.2730      2.00000
     74     -21.2722      2.00000
     75     -21.2722      2.00000
     76     -21.2715      2.00000
     77     -21.2715      2.00000
     78     -21.2715      2.00000
     79     -21.2713      2.00000
     80     -21.2713      2.00000
     81     -21.2712      2.00000
     82     -21.2710      2.00000
     83     -21.2708      2.00000
     84     -21.2708      2.00000
     85     -21.2706      2.00000
     86     -21.2700      2.00000
     87     -21.2694      2.00000
     88     -21.2694      2.00000
     89     -21.2689      2.00000
     90     -21.2679      2.00000
     91     -21.2677      2.00000
     92     -21.2677      2.00000
     93     -21.2675      2.00000
     94     -21.2555      2.00000
     95     -21.2555      2.00000
     96     -21.2553      2.00000
     97     -13.3581      2.00000
     98     -13.1429      2.00000
     99     -13.1374      2.00000
    100     -13.1374      2.00000
    101     -13.1374      2.00000
    102     -13.1371      2.00000
    103     -13.1334      2.00000
    104     -13.0215      2.00000
    105     -13.0145      2.00000
    106     -13.0145      2.00000
    107     -13.0115      2.00000
    108     -13.0114      2.00000
    109     -13.0113      2.00000
    110     -13.0112      2.00000
    111     -13.0112      2.00000
    112     -13.0111      2.00000
    113     -13.0087      2.00000
[...]
         0         1         2         3         4         5         6         7         8         9
 total charge-density along one line
 
 pseudopotential strength for first ion, spin component:           1
-25.404  -0.000  -0.000   2.518   0.000   0.000  -0.000  -0.000
 -0.000 -25.404  -0.000   0.000   2.518   0.000  -0.000  -0.000
 -0.000  -0.000 -25.405   0.000   0.000   2.518   0.001   0.003
  2.518   0.000   0.000   6.525   0.000   0.000   0.000  -0.000
  0.000   2.518   0.000   0.000   6.525   0.000   0.000  -0.000
  0.000   0.000   2.518   0.000   0.000   6.525  -0.000  -0.000
 -0.000  -0.000   0.001   0.000   0.000  -0.000   1.428   6.994
 -0.000  -0.000   0.003  -0.000  -0.000  -0.000   6.994  33.992
 total augmentation occupancy for first ion, spin component:           1
  2.002   0.000   0.000   0.002   0.000   0.000   0.000  -0.000
  0.000   2.002   0.000   0.000   0.002   0.000  -0.000   0.000
  0.000   0.000   2.002   0.000   0.000   0.002  -0.002   0.001
  0.002   0.000   0.000   0.017   0.000   0.000   0.000   0.000
  0.000   0.002   0.000   0.000   0.017   0.000   0.000  -0.000
  0.000   0.000   0.002  -0.000   0.000   0.017  -0.005   0.000
  0.000  -0.000  -0.002   0.000   0.000  -0.005   0.400  -0.001
 -0.000   0.000   0.001   0.000   0.000   0.000  -0.001   0.000


------------------------ aborting loop because EDIFF is reached ----------------------------------------


    CHARGE:  cpu time      0.2672: real time      0.2684
    FORLOC:  cpu time      0.0116: real time      0.0116
    FORNL :  cpu time      1.7179: real time      1.7270
    STRESS:  cpu time      9.4932: real time      9.5386
    FORCOR:  cpu time      0.0433: real time      0.0434
    FORHAR:  cpu time      0.0173: real time      0.0174
    MIXING:  cpu time      0.0012: real time      0.0012
    OFIELD:  cpu time      0.0000: real time      0.0000

  FORCE on cell =-STRESS in cart. coord.  units (eV):
  Direction    XX          YY          ZZ          XY          YZ          ZX
  --------------------------------------------------------------------------------------
  Alpha Z   751.52672   751.52672   751.52672
  Ewald   -7623.56483 -7623.92687 -7623.92687    -0.00000     0.00000     0.00000
  Hartree  3026.14797  3026.03591  3026.03591    -0.00000    -0.00000    -0.00000
  E(xc)   -2014.34871 -2014.34885 -2014.34885     0.00000    -0.00000     0.00000
  Local   -2025.24084 -2024.77538 -2024.77538    -0.00000    -0.00000    -0.00000
  n-local  1887.63622  1887.51963  1887.72194    -0.00000     0.00000     0.00000
  augment   687.00914   687.00963   687.00932    -0.00000    -0.00010    -0.00010
  Kinetic  5310.52992  5310.26915  5310.77983     0.00000     0.00000     0.00000
  Fock        0.00000     0.00000     0.00000     0.00000     0.00000     0.00000
  -------------------------------------------------------------------------------------
  Total      -0.30441    -0.33372    -0.33372     0.00000     0.00000     0.00000
  in kB      -0.34678    -0.38016    -0.38016     0.00000     0.00000     0.00000
  external pressure =       -0.37 kB  Pullay stress =        0.00 kB


 VOLUME and BASIS-vectors are now :
 -----------------------------------------------------------------------------
  energy-cutoff  :      341.21
  volume of cell :     1406.43
      direct lattice vectors                 reciprocal lattice vectors
    11.204002360  0.000000000  0.000000000     0.089253819  0.000000000  0.000000000
     0.000000000 11.204002360  0.000000000     0.000000000  0.089253819  0.000000000
     0.000000000  0.000000000 11.204002360     0.000000000  0.000000000  0.089253819

  length of vectors
    11.204002360 11.204002360 11.204002360     0.089253819  0.089253819  0.089253819


 FORCES acting on ions
    electron-ion (+dipol)            ewald-force                    non-local-force                 convergence-correction
 -----------------------------------------------------------------------------------------------
   -.608E+01 0.414E-13 0.656E-05   0.591E+01 -.572E-13 -.121E-13   0.249E+00 -.441E-23 0.294E-22   -.263E-04 -.124E-12 -.895E-13
   0.121E+01 0.454E+00 0.956E-09   -.117E+01 -.485E+00 0.682E-14   -.346E-01 0.258E-01 0.178E-24   -.707E-04 0.173E-05 -.676E-13
   0.121E+01 0.411E-13 0.454E+00   -.117E+01 0.228E-13 -.485E+00   -.346E-01 0.185E-24 0.258E-01   -.707E-04 -.104E-12 0.173E-05
   -.365E+00 0.169E+00 0.169E+00   0.373E+00 -.162E+00 -.162E+00   -.595E-02 -.595E-02 -.595E-02   -.355E-04 -.159E-05 -.159E-05
   -.181E+00 0.401E-13 0.226E-07   0.182E+00 0.377E-13 0.180E-14   -.541E-03 0.303E-25 0.281E-25   -.347E-04 -.109E-12 -.285E-12
   0.122E+00 0.399E-01 -.116E-10   -.118E+00 -.395E-01 0.125E-13   -.275E-02 -.396E-03 -.222E-25   -.680E-04 -.334E-06 -.160E-12
   0.121E+01 0.466E-13 -.454E+00   -.117E+01 -.387E-14 0.485E+00   -.346E-01 -.228E-24 -.258E-01   -.707E-04 -.939E-13 -.173E-05
   -.365E+00 0.169E+00 -.169E+00   0.373E+00 -.162E+00 0.162E+00   -.595E-02 -.595E-02 0.595E-02   -.355E-04 -.159E-05 0.159E-05
   -.181E+00 0.767E-12 0.431E-09   0.182E+00 0.356E-14 0.131E-13   -.541E-03 0.427E-25 -.745E-25   -.347E-04 0.600E-13 -.152E-12
   0.121E+01 -.454E+00 0.955E-09   -.117E+01 0.485E+00 0.954E-14   -.346E-01 -.258E-01 -.230E-24   -.707E-04 -.173E-05 -.629E-13
   0.122E+00 0.842E-12 0.399E-01   -.118E+00 0.178E-14 -.395E-01   -.275E-02 -.212E-24 -.396E-03   -.680E-04 0.334E-13 -.334E-06
   -.365E+00 -.169E+00 0.169E+00   0.373E+00 0.162E+00 -.162E+00   -.595E-02 0.595E-02 -.595E-02   -.355E-04 0.159E-05 -.159E-05
   -.677E-01 0.766E-12 0.104E-10   0.701E-01 0.196E-13 0.160E-13   -.200E-02 0.167E-24 -.176E-24   -.352E-04 0.426E-13 -.210E-12
   0.122E+00 -.399E-01 -.114E-10   -.118E+00 0.395E-01 0.125E-13   -.275E-02 0.396E-03 0.316E-25   -.680E-04 0.334E-06 -.172E-12
   0.122E+00 0.567E-12 -.399E-01   -.118E+00 -.520E-17 0.395E-01   -.275E-02 -.256E-25 0.396E-03   -.680E-04 0.201E-13 0.334E-06
   -.365E+00 -.169E+00 -.169E+00   0.373E+00 0.162E+00 0.162E+00   -.595E-02 0.595E-02 0.595E-02   -.355E-04 0.159E-05 0.159E-05
   -.173E+01 0.489E-13 -.418E-05   0.154E+01 0.159E-13 -.153E-13   0.200E+00 -.269E-23 0.327E-22   0.352E-04 -.108E-12 -.287E-13
   -.572E-01 -.447E+00 0.953E-09   0.343E-01 0.480E+00 0.599E-14   0.185E-01 -.273E-01 -.173E-25   0.675E-04 -.873E-06 -.581E-13
   -.572E-01 0.380E-13 -.447E+00   0.343E-01 0.198E-13 0.480E+00   0.185E-01 0.362E-24 -.273E-01   0.675E-04 -.112E-12 -.873E-06
   0.105E+00 -.169E+00 -.169E+00   -.112E+00 0.161E+00 0.161E+00   0.590E-02 0.607E-02 0.607E-02   0.388E-04 0.155E-05 0.155E-05
   0.112E+00 0.426E-13 0.226E-07   -.112E+00 0.289E-13 0.160E-13   0.265E-03 0.422E-24 0.899E-25   0.374E-04 -.102E-12 -.285E-12
   -.899E-01 -.400E-01 -.709E-11   0.864E-01 0.395E-01 0.891E-14   0.284E-02 0.443E-03 -.131E-24   0.678E-04 -.423E-06 -.192E-12
   -.572E-01 0.545E-13 0.447E+00   0.343E-01 -.629E-14 -.480E+00   0.185E-01 -.377E-25 0.273E-01   0.675E-04 -.831E-13 0.873E-06
   0.105E+00 -.169E+00 0.169E+00   -.112E+00 0.161E+00 -.161E+00   0.590E-02 0.607E-02 -.607E-02   0.388E-04 0.155E-05 -.155E-05
   0.112E+00 0.716E-12 0.429E-09   -.112E+00 0.574E-17 -.162E-13   0.265E-03 -.951E-25 -.958E-25   0.374E-04 0.291E-13 -.136E-12
   -.572E-01 0.447E+00 0.953E-09   0.343E-01 -.480E+00 0.194E-13   0.185E-01 0.273E-01 0.166E-25   0.675E-04 0.873E-06 -.234E-13
   -.899E-01 0.239E-11 -.400E-01   0.864E-01 -.180E-14 0.395E-01   0.284E-02 -.361E-24 0.443E-03   0.678E-04 0.700E-13 -.423E-06
   0.105E+00 0.169E+00 -.169E+00   -.112E+00 -.161E+00 0.161E+00   0.590E-02 -.607E-02 0.607E-02   0.388E-04 -.155E-05 0.155E-05
   0.589E-01 0.843E-12 0.464E-11   -.614E-01 0.142E-13 0.142E-13   0.199E-02 -.119E-24 0.143E-24   0.371E-04 0.213E-13 -.208E-12
   -.899E-01 0.400E-01 0.610E-12   0.864E-01 -.395E-01 0.892E-14   0.284E-02 -.443E-03 0.379E-24   0.678E-04 0.423E-06 -.222E-12
   -.899E-01 0.663E-11 0.400E-01   0.864E-01 -.352E-14 -.395E-01   0.284E-02 0.253E-24 -.443E-03   0.678E-04 0.395E-13 0.423E-06
   0.105E+00 0.169E+00 0.169E+00   -.112E+00 -.161E+00 -.161E+00   0.590E-02 -.607E-02 -.607E-02   0.388E-04 -.155E-05 -.155E-05
   0.376E+00 0.160E+00 0.160E+00   -.373E+00 -.162E+00 -.162E+00   -.530E-02 0.316E-02 0.316E-02   -.575E-04 0.645E-06 0.645E-06
   -.116E+01 -.796E-13 0.493E+00   0.117E+01 -.685E-14 -.485E+00   -.733E-02 -.134E-24 -.138E-01   -.316E-04 -.115E-12 -.238E-05
   -.116E+01 0.493E+00 0.211E-09   0.117E+01 -.485E+00 0.869E-14   -.733E-02 -.138E-01 0.645E-25   -.316E-04 -.238E-05 -.542E-13
   0.594E+01 -.740E-13 -.344E-05   -.591E+01 0.424E-13 0.347E-13   -.120E+00 0.320E-23 0.878E-23   -.700E-04 -.953E-13 -.338E-13
   0.376E+00 0.160E+00 -.160E+00   -.373E+00 -.162E+00 0.162E+00   -.530E-02 0.316E-02 -.316E-02   -.575E-04 0.645E-06 -.645E-06
   -.116E+01 -.780E-13 -.493E+00   0.117E+01 0.160E-14 0.485E+00   -.733E-02 -.708E-25 0.138E-01   -.316E-04 -.972E-13 0.238E-05
   -.117E+00 0.403E-01 0.922E-11   0.118E+00 -.395E-01 -.354E-14   -.161E-02 -.140E-02 -.942E-24   -.309E-04 -.108E-05 -.146E-12
   0.185E+00 -.734E-13 -.913E-08   -.182E+00 -.178E-13 0.623E-14   -.429E-02 -.224E-24 0.205E-24   -.587E-04 -.965E-13 -.172E-12
   0.376E+00 -.160E+00 0.160E+00   -.373E+00 0.162E+00 -.162E+00   -.530E-02 -.316E-02 0.316E-02   -.575E-04 -.645E-06 0.645E-06
   -.117E+00 -.826E-14 0.403E-01   0.118E+00 -.708E-14 -.395E-01   -.161E-02 -.691E-24 -.140E-02   -.309E-04 0.575E-13 -.108E-05
   -.116E+01 -.493E+00 0.211E-09   0.117E+01 0.485E+00 0.237E-14   -.733E-02 0.138E-01 0.127E-25   -.316E-04 0.238E-05 -.395E-13
   0.185E+00 -.765E-14 0.786E-10   -.182E+00 -.622E-14 -.145E-13   -.429E-02 0.231E-24 0.454E-25   -.587E-04 0.415E-13 -.898E-13
   0.376E+00 -.160E+00 -.160E+00   -.373E+00 0.162E+00 0.162E+00   -.530E-02 -.316E-02 -.316E-02   -.575E-04 -.645E-06 -.645E-06
   -.117E+00 -.105E-12 -.403E-01   0.118E+00 0.222E-13 0.395E-01   -.161E-02 0.650E-24 0.140E-02   -.309E-04 0.412E-13 0.108E-05
   -.117E+00 -.403E-01 0.912E-11   0.118E+00 0.395E-01 -.266E-14   -.161E-02 0.140E-02 0.699E-25   -.309E-04 0.108E-05 -.164E-12
   0.710E-01 0.107E-13 0.151E-10   -.701E-01 -.711E-14 0.771E-17   -.131E-02 0.155E-23 -.668E-24   -.533E-04 0.412E-13 -.109E-12
   -.115E+00 -.159E+00 -.159E+00   0.112E+00 0.161E+00 0.161E+00   0.446E-02 -.329E-02 -.329E-02   0.557E-04 -.633E-06 -.633E-06
   0.246E-01 -.809E-13 -.488E+00   -.343E-01 0.750E-14 0.480E+00   0.164E-01 -.193E-25 0.140E-01   0.333E-04 -.106E-12 0.262E-05
   0.246E-01 -.488E+00 0.210E-09   -.343E-01 0.480E+00 0.104E-13   0.164E-01 0.140E-01 -.402E-24   0.333E-04 0.262E-05 -.435E-13
   0.152E+01 -.796E-13 -.627E-06   -.154E+01 -.546E-13 -.829E-14   0.187E-02 0.308E-23 -.753E-24   0.598E-04 -.117E-12 0.564E-14
   -.115E+00 -.159E+00 0.159E+00   0.112E+00 0.161E+00 -.161E+00   0.446E-02 -.329E-02 0.329E-02   0.557E-04 -.633E-06 0.633E-06
   0.246E-01 -.702E-13 0.488E+00   -.343E-01 -.290E-15 -.480E+00   0.164E-01 -.508E-24 -.140E-01   0.333E-04 -.904E-13 -.262E-05
   0.854E-01 -.403E-01 0.653E-11   -.864E-01 0.395E-01 -.355E-14   0.154E-02 0.145E-02 0.258E-24   0.291E-04 0.186E-06 -.161E-12
   -.115E+00 -.800E-13 -.912E-08   0.112E+00 -.115E-13 0.837E-17   0.451E-02 -.133E-23 0.118E-25   0.560E-04 -.101E-12 -.221E-12
   -.115E+00 0.159E+00 -.159E+00   0.112E+00 -.161E+00 0.161E+00   0.446E-02 0.329E-02 -.329E-02   0.557E-04 0.633E-06 -.633E-06
   0.854E-01 0.609E-12 -.403E-01   -.864E-01 -.708E-14 0.395E-01   0.154E-02 -.581E-24 0.145E-02   0.291E-04 0.436E-13 0.186E-06
   0.246E-01 0.488E+00 0.211E-09   -.343E-01 -.480E+00 0.734E-14   0.164E-01 -.140E-01 -.385E-24   0.333E-04 -.262E-05 -.324E-13
   -.115E+00 0.107E-10 0.691E-10   0.112E+00 -.364E-13 -.140E-13   0.451E-02 0.717E-25 -.867E-24   0.560E-04 0.580E-13 -.650E-13
   -.115E+00 0.159E+00 0.159E+00   0.112E+00 -.161E+00 -.161E+00   0.446E-02 0.329E-02 0.329E-02   0.557E-04 0.633E-06 0.633E-06
   0.854E-01 0.143E-11 0.403E-01   -.864E-01 0.178E-13 -.395E-01   0.154E-02 -.237E-24 -.145E-02   0.291E-04 0.264E-13 -.186E-06
   0.854E-01 0.403E-01 0.796E-11   -.864E-01 -.395E-01 -.416E-16   0.154E-02 -.145E-02 0.163E-24   0.291E-04 -.186E-06 -.180E-12
   -.623E-01 0.344E-11 0.157E-10   0.614E-01 -.213E-13 -.583E-16   0.132E-02 0.194E-25 0.702E-25   0.530E-04 0.398E-13 -.146E-12
 -----------------------------------------------------------------------------------------------
   -.300E+00 -.382E-11 -.161E-05   0.186E-12 -.138E-12 0.498E-13   0.299E+00 -.130E-17 -.369E-17   -.747E-05 -.313E-12 -.161E-11
 
 
 POSITION                                       TOTAL-FORCE (eV/Angst)
 -----------------------------------------------------------------------------------
     11.17400      0.00000      0.00000         0.075376     -0.000000      0.000000
      2.80100      2.80100      0.00000         0.003505     -0.005884      0.000000
      2.80100      0.00000      2.80100         0.003505     -0.000000     -0.005884
      0.00000      2.80100      2.80100         0.001427      0.001273      0.001273
      0.00000      0.00000      5.60200         0.000203     -0.000000      0.000000
      2.80100      2.80100      5.60200         0.000630      0.000071      0.000000
      2.80100      0.00000      8.40300         0.003505     -0.000000      0.005884
      0.00000      2.80100      8.40300         0.001427      0.001273     -0.001273
      0.00000      5.60200      0.00000         0.000203     -0.000000      0.000000
      2.80100      8.40300      0.00000         0.003505      0.005884      0.000000
      2.80100      5.60200      2.80100         0.000630     -0.000000      0.000071
      0.00000      8.40300      2.80100         0.001427     -0.001273      0.001273
      0.00000      5.60200      5.60200         0.000450     -0.000000      0.000000
      2.80100      8.40300      5.60200         0.000630     -0.000071      0.000000
      2.80100      5.60200      8.40300         0.000630     -0.000000     -0.000071
      0.00000      8.40300      8.40300         0.001427     -0.001273     -0.001273
      5.60200      0.00000      0.00000         0.011372     -0.000000      0.000000
      8.40300      2.80100      0.00000        -0.004349      0.005924      0.000000
      8.40300      0.00000      2.80100        -0.004349     -0.000000      0.005924
      5.60200      2.80100      2.80100        -0.001373     -0.001298     -0.001298
      5.60200      0.00000      5.60200        -0.000138     -0.000000      0.000000
      8.40300      2.80100      5.60200        -0.000634     -0.000081      0.000000
      8.40300      0.00000      8.40300        -0.004349     -0.000000     -0.005924
      5.60200      2.80100      8.40300        -0.001373     -0.001298      0.001298
      5.60200      5.60200      0.00000        -0.000138     -0.000000      0.000000
      8.40300      8.40300      0.00000        -0.004349     -0.005924      0.000000
      8.40300      5.60200      2.80100        -0.000634     -0.000000     -0.000081
      5.60200      8.40300      2.80100        -0.001373      0.001298     -0.001298
      5.60200      5.60200      5.60200        -0.000434     -0.000000      0.000000
      8.40300      8.40300      5.60200        -0.000634      0.000081      0.000000
      8.40300      5.60200      8.40300        -0.000634     -0.000000      0.000081
      5.60200      8.40300      8.40300        -0.001373      0.001298      0.001298
      2.80100      2.80100      2.80100        -0.002089      0.001247      0.001247
      0.00000      0.00000      2.80100        -0.001140     -0.000000     -0.005845
      0.00000      2.80100      0.00000        -0.001140     -0.005845      0.000000
      2.83100      0.00000      0.00000        -0.088629     -0.000000      0.000000
      2.80100      2.80100      8.40300        -0.002089      0.001247     -0.001247
      0.00000      0.00000      8.40300        -0.001140     -0.000000      0.005845
      0.00000      2.80100      5.60200        -0.000629     -0.000557      0.000000
      2.80100      0.00000      5.60200        -0.001681     -0.000000      0.000000
      2.80100      8.40300      2.80100        -0.002089     -0.001247      0.001247
      0.00000      5.60200      2.80100        -0.000629     -0.000000     -0.000557
      0.00000      8.40300      0.00000        -0.001140      0.005845      0.000000
      2.80100      5.60200      0.00000        -0.001681     -0.000000      0.000000
      2.80100      8.40300      8.40300        -0.002089     -0.001247     -0.001247
      0.00000      5.60200      8.40300        -0.000629     -0.000000      0.000557
      0.00000      8.40300      5.60200        -0.000629      0.000557      0.000000
      2.80100      5.60200      5.60200        -0.000498     -0.000000      0.000000
      8.40300      2.80100      2.80100         0.001761     -0.001302     -0.001302
      5.60200      0.00000      2.80100         0.006751     -0.000000      0.005884
      5.60200      2.80100      0.00000         0.006751      0.005884      0.000000
      8.40300      0.00000      0.00000        -0.016398     -0.000000      0.000000
      8.40300      2.80100      8.40300         0.001761     -0.001302      0.001302
      5.60200      0.00000      8.40300         0.006751     -0.000000     -0.005884
      5.60200      2.80100      5.60200         0.000615      0.000576      0.000000
      8.40300      0.00000      5.60200         0.001784     -0.000000      0.000000
      8.40300      8.40300      2.80100         0.001761      0.001302     -0.001302
      5.60200      5.60200      2.80100         0.000615     -0.000000      0.000576
      5.60200      8.40300      0.00000         0.006751     -0.005884      0.000000
      8.40300      5.60200      0.00000         0.001784     -0.000000      0.000000
      8.40300      8.40300      8.40300         0.001761      0.001302      0.001302
      5.60200      5.60200      8.40300         0.000615     -0.000000     -0.000576
      5.60200      8.40300      5.60200         0.000615     -0.000576      0.000000
      8.40300      5.60200      5.60200         0.000523     -0.000000      0.000000
 -----------------------------------------------------------------------------------
    total drift:                               -0.000453     -0.000000     -0.000002


--------------------------------------------------------------------------------------------------------



  FREE ENERGIE OF THE ION-ELECTRON SYSTEM (eV)
  ---------------------------------------------------
  free  energy   TOTEN  =      -223.90019335 eV

  energy  without entropy=     -223.90019335  energy(sigma->0) =     -223.90019335
 


--------------------------------------------------------------------------------------------------------


    POTLOK:  cpu time      0.0689: real time      0.0692


--------------------------------------------------------------------------------------------------------


     LOOP+:  cpu time    169.4909: real time    170.3980
    4ORBIT:  cpu time      0.0000: real time      0.0000

 total amount of memory used by VASP MPI-rank0   118439. kBytes
=======================================================================

   base      :      30000. kBytes
   nonl-proj :      36470. kBytes
   fftplans  :      14405. kBytes
   grid      :      19342. kBytes
   one-center:        196. kBytes
   wavefun   :      18026. kBytes
 
  
  
 General timing and accounting informations for this job:
 ========================================================
  
                  Total CPU time used (sec):      173.007
                            User time (sec):      172.487
                          System time (sec):        0.520
                         Elapsed time (sec):      174.342
  
                   Maximum memory used (kb):      302376.
                   Average memory used (kb):          N/A
  
                          Minor page faults:       108789
                          Major page faults:            0
                 Voluntary context switches:          863
