<?xml version="1.0" encoding="ISO-8859-1"?>
<modeling>
 <generator>
  <i name="program" type="string">vasp </i>
  <i name="version" type="string">6.3.2  </i>
  <i name="subversion" type="string">27Jun22 (build Oct 14 2022 12:13:54) complex                          parallel </i>
  <i name="platform" type="string">LinuxIFC </i>
  <i name="date" type="string">2025 08 28 </i>
  <i name="time" type="string">22:07:33 </i>
 </generator>
 <incar>
  <i type="string" name="PREC">Accurate</i>
  <i type="int" name="IALGO">    38</i>
  <i type="logical" name="ADDGRID"> T  </i>
  <i type="int" name="NELMIN">     5</i>
  <i type="int" name="IBRION">    -1</i>
  <i name="EDIFF">      0.00000001</i>
  <i name="ENCUT">    341.21360000</i>
  <i type="logical" name="LREAL"> F  </i>
  <i type="int" name="ISMEAR">     0</i>
  <i name="SIGMA">      0.02000000</i>
  <i type="logical" name="LWAVE"> F  </i>
  <i type="logical" name="LCHARG"> F  </i>
  <i type="string" name="GGA">PS</i>
 </incar>
 <primitive_cell>
  <structure name="primitive_cell" >
   <crystal>
    <varray name="basis" >
     <v>      11.20400236       0.00000000       0.00000000 </v>
     <v>       0.00000000      11.20400236       0.00000000 </v>
     <v>       0.00000000       0.00000000      11.20400236 </v>
    </varray>
    <i name="volume">   1406.43470641 </i>
    <varray name="rec_basis" >
     <v>       0.08925382       0.00000000       0.00000000 </v>
     <v>       0.00000000       0.08925382       0.00000000 </v>
     <v>       0.00000000       0.00000000       0.08925382 </v>
    </varray>
   </crystal>
   <varray name="positions" >
    <v>       0.99732239       0.00000000       0.00000000 </v>
    <v>       0.25000000       0.25000000       0.00000000 </v>
    <v>       0.25000000       0.00000000       0.25000000 </v>
    <v>       0.00000000       0.25000000       0.25000000 </v>
    <v>       0.00000000       0.00000000       0.50000000 </v>
    <v>       0.25000000       0.25000000       0.50000000 </v>
    <v>       0.25000000       0.00000000       0.75000000 </v>
    <v>       0.00000000       0.25000000       0.75000000 </v>
    <v>       0.00000000       0.50000000       0.00000000 </v>
    <v>       0.25000000       0.75000000       0.00000000 </v>
    <v>       0.25000000       0.50000000       0.25000000 </v>
    <v>       0.00000000       0.75000000       0.25000000 </v>
    <v>       0.00000000       0.50000000       0.50000000 </v>
    <v>       0.25000000       0.75000000       0.50000000 </v>
    <v>       0.25000000       0.50000000       0.75000000 </v>
    <v>       0.00000000       0.75000000       0.75000000 </v>
    <v>       0.50000000       0.00000000       0.00000000 </v>
    <v>       0.75000000       0.25000000       0.00000000 </v>
    <v>       0.75000000       0.00000000       0.25000000 </v>
    <v>       0.50000000       0.25000000       0.25000000 </v>
    <v>       0.50000000       0.00000000       0.50000000 </v>
    <v>       0.75000000       0.25000000       0.50000000 </v>
    <v>       0.75000000       0.00000000       0.75000000 </v>
    <v>       0.50000000       0.25000000       0.75000000 </v>
    <v>       0.50000000       0.50000000       0.00000000 </v>
    <v>       0.75000000       0.75000000       0.00000000 </v>
    <v>       0.75000000       0.50000000       0.25000000 </v>
    <v>       0.50000000       0.75000000       0.25000000 </v>
    <v>       0.50000000       0.50000000       0.50000000 </v>
    <v>       0.75000000       0.75000000       0.50000000 </v>
    <v>       0.75000000       0.50000000       0.75000000 </v>
    <v>       0.50000000       0.75000000       0.75000000 </v>
    <v>       0.25000000       0.25000000       0.25000000 </v>
    <v>       0.00000000       0.00000000       0.25000000 </v>
    <v>       0.00000000       0.25000000       0.00000000 </v>
    <v>       0.25267761       0.00000000       0.00000000 </v>
    <v>       0.25000000       0.25000000       0.75000000 </v>
    <v>       0.00000000       0.00000000       0.75000000 </v>
    <v>       0.00000000       0.25000000       0.50000000 </v>
    <v>       0.25000000       0.00000000       0.50000000 </v>
    <v>       0.25000000       0.75000000       0.25000000 </v>
    <v>       0.00000000       0.50000000       0.25000000 </v>
    <v>       0.00000000       0.75000000       0.00000000 </v>
    <v>       0.25000000       0.50000000       0.00000000 </v>
    <v>       0.25000000       0.75000000       0.75000000 </v>
    <v>       0.00000000       0.50000000       0.75000000 </v>
    <v>       0.00000000       0.75000000       0.50000000 </v>
    <v>       0.25000000       0.50000000       0.50000000 </v>
    <v>       0.75000000       0.25000000       0.25000000 </v>
    <v>       0.50000000       0.00000000       0.25000000 </v>
    <v>       0.50000000       0.25000000       0.00000000 </v>
    <v>       0.75000000       0.00000000       0.00000000 </v>
    <v>       0.75000000       0.25000000       0.75000000 </v>
    <v>       0.50000000       0.00000000       0.75000000 </v>
    <v>       0.50000000       0.25000000       0.50000000 </v>
    <v>       0.75000000       0.00000000       0.50000000 </v>
    <v>       0.75000000       0.75000000       0.25000000 </v>
    <v>       0.50000000       0.50000000       0.25000000 </v>
    <v>       0.50000000       0.75000000       0.00000000 </v>
    <v>       0.75000000       0.50000000       0.00000000 </v>
    <v>       0.75000000       0.75000000       0.75000000 </v>
    <v>       0.50000000       0.50000000       0.75000000 </v>
    <v>       0.50000000       0.75000000       0.50000000 </v>
    <v>       0.75000000       0.50000000       0.50000000 </v>
   </varray>
  </structure>
  <varray name="primitive_index" >
   <v type="int" >        1 </v>
   <v type="int" >        2 </v>
   <v type="int" >        3 </v>
   <v type="int" >        4 </v>
   <v type="int" >        5 </v>
   <v type="int" >        6 </v>
   <v type="int" >        7 </v>
   <v type="int" >        8 </v>
   <v type="int" >        9 </v>
   <v type="int" >       10 </v>
   <v type="int" >       11 </v>
   <v type="int" >       12 </v>
   <v type="int" >       13 </v>
   <v type="int" >       14 </v>
   <v type="int" >       15 </v>
   <v type="int" >       16 </v>
   <v type="int" >       17 </v>
   <v type="int" >       18 </v>
   <v type="int" >       19 </v>
   <v type="int" >       20 </v>
   <v type="int" >       21 </v>
   <v type="int" >       22 </v>
   <v type="int" >       23 </v>
   <v type="int" >       24 </v>
   <v type="int" >       25 </v>
   <v type="int" >       26 </v>
   <v type="int" >       27 </v>
   <v type="int" >       28 </v>
   <v type="int" >       29 </v>
   <v type="int" >       30 </v>
   <v type="int" >       31 </v>
   <v type="int" >       32 </v>
   <v type="int" >       33 </v>
   <v type="int" >       34 </v>
   <v type="int" >       35 </v>
   <v type="int" >       36 </v>
   <v type="int" >       37 </v>
   <v type="int" >       38 </v>
   <v type="int" >       39 </v>
   <v type="int" >       40 </v>
   <v type="int" >       41 </v>
   <v type="int" >       42 </v>
   <v type="int" >       43 </v>
   <v type="int" >       44 </v>
   <v type="int" >       45 </v>
   <v type="int" >       46 </v>
   <v type="int" >       47 </v>
   <v type="int" >       48 </v>
   <v type="int" >       49 </v>
   <v type="int" >       50 </v>
   <v type="int" >       51 </v>
   <v type="int" >       52 </v>
   <v type="int" >       53 </v>
   <v type="int" >       54 </v>
   <v type="int" >       55 </v>
   <v type="int" >       56 </v>
   <v type="int" >       57 </v>
   <v type="int" >       58 </v>
   <v type="int" >       59 </v>
   <v type="int" >       60 </v>
   <v type="int" >       61 </v>
   <v type="int" >       62 </v>
   <v type="int" >       63 </v>
   <v type="int" >       64 </v>
  </varray>
 </primitive_cell>
 <kpoints>
  <generation param="Gamma">
   <v type="int" name="divisions">       2        2        2 </v>
   <v name="usershift">      0.00000000       0.00000000       0.00000000 </v>
   <v name="genvec1">      0.50000000       0.00000000       0.00000000 </v>
   <v name="genvec2">      0.00000000       0.50000000       0.00000000 </v>
   <v name="genvec3">      0.00000000       0.00000000       0.50000000 </v>
   <v name="shift">      0.00000000       0.00000000       0.00000000 </v>
  </generation>
  <varray name="kpointlist" >
   <v>       0.00000000       0.00000000       0.00000000 </v>
   <v>       0.50000000       0.00000000       0.00000000 </v>
   <v>       0.00000000       0.50000000       0.00000000 </v>
   <v>       0.50000000       0.50000000       0.00000000 </v>
   <v>       0.00000000       0.50000000       0.50000000 </v>
   <v>       0.50000000       0.50000000       0.50000000 </v>
  </varray>
  <varray name="weights" >
   <v>       0.12500000 </v>
   <v>       0.12500000 </v>
   <v>       0.25000000 </v>
   <v>       0.25000000 </v>
   <v>       0.12500000 </v>
   <v>       0.12500000 </v>
  </varray>
 </kpoints>
 <parameters>
  <separator name="general" >
   <i type="string" name="SYSTEM">unknown system</i>
   <i type="logical" name="LCOMPAT"> F  </i>
  </separator>
  <separator name="electronic" >
   <i type="string" name="PREC">accura</i>
   <i name="ENMAX">    341.21360000</i>
   <i name="ENAUG">    368.05600000</i>
   <i name="EDIFF">      0.00000001</i>
   <i type="int" name="IALGO">    38</i>
   <i type="int" name="IWAVPR">    10</i>
   <i type="int" name="NBANDS">   288</i>
   <i type="int" name="NBANDSLOW">    -1</i>
   <i type="int" name="NBANDSHIGH">    -1</i>
   <i name="NELECT">    448.00000000</i>
   <i type="int" name="TURBO">     0</i>
   <i type="int" name="IRESTART">     0</i>
   <i type="int" name="NREBOOT">     0</i>
   <i type="int" name="NMIN">     0</i>
   <i name="EREF">      0.00000000</i>
   <separator name="electronic smearing" >
    <i type="int" name="ISMEAR">     0</i>
    <i name="SIGMA">      0.02000000</i>
    <i name="KSPACING">      0.50000000</i>
    <i type="logical" name="KGAMMA"> T  </i>
    <i type="logical" name="KBLOWUP"> T  </i>
   </separator>
   <separator name="electronic projectors" >
    <i type="logical" name="LREAL"> F  </i>
    <v name="ROPT">      0.00000000      0.00000000</v>
    <i type="int" name="LMAXPAW">  -100</i>
    <i type="int" name="LMAXMIX">     2</i>
    <i type="logical" name="NLSPLINE"> F  </i>
   </separator>
   <separator name="electronic startup" >
    <i type="int" name="ISTART">     0</i>
    <i type="int" name="ICHARG">     2</i>
    <i type="int" name="INIWAV">     1</i>
   </separator>
   <separator name="electronic spin" >
    <i type="int" name="ISPIN">     1</i>
    <i type="logical" name="LNONCOLLINEAR"> F  </i>
    <v name="MAGMOM">      1.00000000      1.00000000      1.00000000      1.00000000      1.00000000      1.00000000      1.00000000      1.00000000      1.00000000      1.00000000      1.00000000      1.00000000      1.00000000      1.00000000      1.00000000      1.00000000      1.00000000      1.00000000      1.00000000      1.00000000
      1.00000000      1.00000000      1.00000000      1.00000000      1.00000000      1.00000000      1.00000000      1.00000000      1.00000000      1.00000000      1.00000000      1.00000000      1.00000000      1.00000000      1.00000000      1.00000000      1.00000000      1.00000000      1.00000000      1.00000000
      1.00000000      1.00000000      1.00000000      1.00000000      1.00000000      1.00000000      1.00000000      1.00000000      1.00000000      1.00000000      1.00000000      1.00000000      1.00000000      1.00000000      1.00000000      1.00000000      1.00000000      1.00000000      1.00000000      1.00000000
      1.00000000      1.00000000      1.00000000      1.00000000</v>
    <i name="NUPDOWN">     -1.00000000</i>
    <i type="logical" name="LSORBIT"> F  </i>
    <v name="SAXIS">      0.00000000      0.00000000      1.00000000</v>
    <i type="logical" name="LSPIRAL"> F  </i>
    <v name="QSPIRAL">      0.00000000      0.00000000      0.00000000</v>
    <i type="logical" name="LZEROZ"> F  </i>
   </separator>
   <separator name="electronic exchange-correlation" >
    <i type="logical" name="LASPH"> F  </i>
    <i type="logical" name="LMETAGGA"> F  </i>
   </separator>
   <separator name="electronic convergence" >
    <i type="int" name="NELM">    60</i>
    <i type="int" name="NELMDL">    -5</i>
    <i type="int" name="NELMIN">     5</i>
    <i name="ENINI">    341.21360000</i>
    <separator name="electronic convergence detail" >
     <i type="logical" name="LDIAG"> T  </i>
     <i type="logical" name="LSUBROT"> F  </i>
     <i name="WEIMIN">      0.00000000</i>
     <i name="EBREAK">      0.00000000</i>
     <i name="DEPER">      0.30000000</i>
     <i type="int" name="NRMM">     4</i>
     <i name="TIME">      0.40000000</i>
    </separator>
   </separator>
   <separator name="electronic mixer" >
    <i name="AMIX">      0.40000000</i>
    <i name="BMIX">      1.00000000</i>
    <i name="AMIN">      0.10000000</i>
    <i name="AMIX_MAG">      1.60000000</i>
    <i name="BMIX_MAG">      1.00000000</i>
    <separator name="electronic mixer details" >
     <i type="int" name="IMIX">     4</i>
     <i type="logical" name="MIXFIRST"> F  </i>
     <i type="int" name="MAXMIX">   -45</i>
     <i name="WC">    100.00000000</i>
     <i type="int" name="INIMIX">     1</i>
     <i type="int" name="MIXPRE">     1</i>
     <i type="int" name="MREMOVE">     5</i>
    </separator>
   </separator>
   <separator name="electronic dipolcorrection" >
    <i type="logical" name="LDIPOL"> F  </i>
    <i type="logical" name="LMONO"> F  </i>
    <i type="int" name="IDIPOL">     0</i>
    <i name="EPSILON">      1.00000000</i>
    <v name="DIPOL">   -100.00000000   -100.00000000   -100.00000000</v>
    <i name="EFIELD">      0.00000000</i>
   </separator>
  </separator>
  <separator name="grids" >
   <i type="int" name="NGX">    70</i>
   <i type="int" name="NGY">    70</i>
   <i type="int" name="NGZ">    70</i>
   <i type="int" name="NGXF">   140</i>
   <i type="int" name="NGYF">   140</i>
   <i type="int" name="NGZF">   140</i>
   <i type="logical" name="ADDGRID"> T  </i>
  </separator>
  <separator name="ionic" >
   <i type="int" name="NSW">     0</i>
   <i type="int" name="IBRION">    -1</i>
   <i type="int" name="MDALGO">     0</i>
   <i type="int" name="ISIF">     2</i>
   <i name="PSTRESS">      0.00000000</i>
   <i name="EDIFFG">      0.00000010</i>
   <i type="int" name="NFREE">     0</i>
   <i name="POTIM">      0.50000000</i>
   <i name="SMASS">     -3.00000000</i>
   <i name="SCALEE">      1.00000000</i>
  </separator>
  <separator name="ionic md" >
   <i name="TEBEG">      0.00010000</i>
   <i name="TEEND">      0.00010000</i>
   <i type="int" name="NBLOCK">     1</i>
   <i type="int" name="KBLOCK">     1</i>
   <i type="int" name="NPACO">   256</i>
   <i name="APACO">     10.00000000</i>
  </separator>
  <separator name="symmetry" >
   <i type="int" name="ISYM">     2</i>
   <i name="SYMPREC">      0.00001000</i>
  </separator>
  <separator name="dos" >
   <i type="int" name="LORBIT">     0</i>
   <v name="RWIGS">     -1.00000000     -1.00000000</v>
   <i type="int" name="NEDOS">   301</i>
   <i name="EMIN">     10.00000000</i>
   <i name="EMAX">    -10.00000000</i>
   <i name="EFERMI">      0.00000000</i>
  </separator>
  <separator name="writing" >
   <i type="int" name="NWRITE">     2</i>
   <i type="logical" name="LWAVE"> F  </i>
   <i type="logical" name="LDOWNSAMPLE"> F  </i>
   <i type="logical" name="LCHARG"> F  </i>
   <i type="logical" name="LPARD"> F  </i>
   <i type="logical" name="LVTOT"> F  </i>
   <i type="logical" name="LVHAR"> F  </i>
   <i type="logical" name="LELF"> F  </i>
   <i type="logical" name="LOPTICS"> F  </i>
   <v name="STM">      0.00000000      0.00000000      0.00000000      0.00000000      0.00000000      0.00000000      0.00000000</v>
  </separator>
  <separator name="performance" >
   <i type="int" name="NPAR">    32</i>
   <i type="int" name="NSIM">     4</i>
   <i type="int" name="NBLK">    -1</i>
   <i type="logical" name="LPLANE"> T  </i>
   <i type="logical" name="LSCALAPACK"> T  </i>
   <i type="logical" name="LSCAAWARE"> F  </i>
   <i type="logical" name="LSCALU"> F  </i>
   <i type="logical" name="LASYNC"> F  </i>
   <i type="logical" name="LORBITALREAL"> F  </i>
  </separator>
  <separator name="miscellaneous" >
   <i type="int" name="IDIOT">     3</i>
   <i type="int" name="PHON_NSTRUCT">    -1</i>
   <i type="logical" name="LMUSIC"> F  </i>
   <v name="POMASS">     22.99000000     35.45300000</v>
   <v name="DARWINR">      0.00000000      0.00000000</v>
   <v name="DARWINV">      1.00000000      1.00000000</v>
   <i type="logical" name="LCORR"> T  </i>
  </separator>
  <i type="logical" name="GGA_COMPAT"> T  </i>
  <i type="logical" name="LBERRY"> F  </i>
  <i type="int" name="ICORELEVEL">     0</i>
  <i type="logical" name="LDAU"> F  </i>
  <i type="int" name="I_CONSTRAINED_M">     0</i>
  <separator name="electronic exchange-correlation" >
   <i type="string" name="GGA">PS</i>
   <i type="int" name="VOSKOWN">     0</i>
   <i type="logical" name="LHFCALC"> F  </i>
   <i type="string" name="PRECFOCK"></i>
   <i type="logical" name="LSYMGRAD"> F  </i>
   <i type="logical" name="LHFONE"> F  </i>
   <i type="logical" name="LRHFCALC"> F  </i>
   <i type="logical" name="LTHOMAS"> F  </i>
   <i type="logical" name="LMODELHF"> F  </i>
   <i type="logical" name="LFOCKACE"> F  </i>
   <i name="ENCUT4O">     -1.00000000</i>
   <i type="int" name="EXXOEP">     0</i>
   <i type="int" name="FOURORBIT">     0</i>
   <i name="AEXX">      0.00000000</i>
   <i name="HFALPHA">      0.00000000</i>
   <i name="MCALPHA">      0.00000000</i>
   <i name="ALDAX">      1.00000000</i>
   <i name="AGGAX">      1.00000000</i>
   <i name="ALDAC">      1.00000000</i>
   <i name="AGGAC">      1.00000000</i>
   <i type="int" name="NKREDX">     1</i>
   <i type="int" name="NKREDY">     1</i>
   <i type="int" name="NKREDZ">     1</i>
   <i type="logical" name="SHIFTRED"> F  </i>
   <i type="logical" name="ODDONLY"> F  </i>
   <i type="logical" name="EVENONLY"> F  </i>
   <i type="int" name="LMAXFOCK">     0</i>
   <i type="int" name="NMAXFOCKAE">     0</i>
   <i type="logical" name="LFOCKAEDFT"> F  </i>
   <i name="HFSCREEN">      0.00000000</i>
   <i name="HFSCREENC">      0.00000000</i>
   <i type="int" name="NBANDSGWLOW">     0</i>
  </separator>
  <separator name="vdW DFT" >
   <i type="logical" name="LUSE_VDW"> F  </i>
   <i name="Zab_VDW">     -0.84910000</i>
   <i name="PARAM1">      0.12340000</i>
   <i name="PARAM2">      1.00000000</i>
   <i name="PARAM3">      0.00000000</i>
  </separator>
  <separator name="model GW" >
   <i type="int" name="MODEL_GW">     0</i>
   <i name="MODEL_EPS0">     13.18532537</i>
   <i name="MODEL_ALPHA">      1.00000000</i>
  </separator>
  <separator name="linear response parameters" >
   <i type="logical" name="LEPSILON"> F  </i>
   <i type="logical" name="LRPA"> F  </i>
   <i type="logical" name="LNABLA"> F  </i>
   <i type="logical" name="LVEL"> F  </i>
   <i name="CSHIFT">      0.10000000</i>
   <i name="OMEGAMAX">     -1.00000000</i>
   <i name="DEG_THRESHOLD">      0.00200000</i>
   <i name="RTIME">     -0.10000000</i>
   <i name="WPLASMAI">      0.00000000</i>
   <v name="DFIELD">      0.00000000      0.00000000      0.00000000</v>
   <v name="WPLASMA">      0.00000000      0.00000000      0.00000000      0.00000000      0.00000000      0.00000000      0.00000000      0.00000000      0.00000000</v>
  </separator>
  <separator name="orbital magnetization" >
   <i type="logical" name="NUCIND"> F  </i>
   <v name="MAGPOS">      0.00000000      0.00000000      0.00000000</v>
   <i type="logical" name="LNICSALL"> T  </i>
   <i type="logical" name="ORBITALMAG"> F  </i>
   <i type="logical" name="LMAGBLOCH"> F  </i>
   <i type="logical" name="LCHIMAG"> F  </i>
   <i type="logical" name="LGAUGE"> T  </i>
   <i type="int" name="MAGATOM">     0</i>
   <v name="MAGDIPOL">      0.00000000      0.00000000      0.00000000</v>
   <v name="AVECCONST">      0.00000000      0.00000000      0.00000000</v>
  </separator>
  <separator name="response functions" >
   <i type="logical" name="LFINITE_TEMPERATURE"> F  </i>
   <i type="logical" name="LADDER"> F  </i>
   <i type="logical" name="LRPAFORCE"> F  </i>
   <i type="logical" name="LFXC"> F  </i>
   <i type="logical" name="LHARTREE"> T  </i>
   <i type="int" name="IBSE">     0</i>
   <v type="int" name="KPOINT">    -1     0     0     0</v>
   <i type="logical" name="LTCTC"> F  </i>
   <i type="logical" name="LTCTE"> F  </i>
   <i type="logical" name="LTETE"> F  </i>
   <i type="logical" name="LTRIPLET"> F  </i>
   <i type="logical" name="LFXCEPS"> F  </i>
   <i type="logical" name="LFXHEG"> F  </i>
   <i type="int" name="NATURALO">     2</i>
   <i type="logical" name="LHOLEGF"> F  </i>
   <i type="logical" name="L2ORDER"> F  </i>
   <i type="logical" name="LDMP1"> F  </i>
   <i type="logical" name="LMP2LT"> F  </i>
   <i type="logical" name="LSMP2LT"> F  </i>
   <i type="logical" name="LGWLF"> F  </i>
   <i name="ENCUTGW">     -2.00000000</i>
   <i name="ENCUTGWSOFT">     -2.00000000</i>
   <i name="ENCUTLF">     -1.00000000</i>
   <i type="logical" name="LESF_SPLINES"> F  </i>
   <i type="int" name="LMAXMP2">    -1</i>
   <i name="SCISSOR">      0.00000000</i>
   <i type="int" name="NOMEGA">     0</i>
   <i type="int" name="NOMEGAR">     0</i>
   <i type="int" name="NBANDSGW">    -1</i>
   <i type="int" name="NBANDSO">    -1</i>
   <i type="int" name="NBANDSV">    -1</i>
   <i type="int" name="NELMGW">     1</i>
   <i type="int" name="NELMHF">     1</i>
   <i type="int" name="DIM">     3</i>
   <i type="int" name="IESPILON">     4</i>
   <i type="int" name="ANTIRES">     0</i>
   <i name="OMEGAMAX">    -30.00000000</i>
   <i name="OMEGAMIN">    -30.00000000</i>
   <i name="OMEGATL">   -200.00000000</i>
   <i type="int" name="OMEGAGRID">     0</i>
   <i name="CSHIFT">     -0.10000000</i>
   <i type="logical" name="LSELFENERGY"> F  </i>
   <i type="logical" name="LSPECTRAL"> F  </i>
   <i type="logical" name="LSPECTRALGW"> F  </i>
   <i type="logical" name="LSINGLES"> F  </i>
   <i type="logical" name="LFERMIGW"> F  </i>
   <i type="logical" name="ODDONLYGW"> F  </i>
   <i type="logical" name="EVENONLYGW"> F  </i>
   <i type="int" name="NKREDLFX">     1</i>
   <i type="int" name="NKREDLFY">     1</i>
   <i type="int" name="NKREDLFZ">     1</i>
   <i type="int" name="MAXMEM">  2800</i>
   <i type="int" name="TELESCOPE">     0</i>
   <i type="int" name="NTAUPAR">    -1</i>
   <i type="int" name="NOMEGAPAR">    -1</i>
   <i name="DAMP_NEWTON">      0.80000001</i>
   <i name="LAMBDA">      1.00000000</i>
  </separator>
  <separator name="External order field" >
   <i name="OFIELD_KAPPA">      0.00000000</i>
   <v name="OFIELD_K">      0.00000000      0.00000000      0.00000000</v>
   <i name="OFIELD_Q6_NEAR">      0.00000000</i>
   <i name="OFIELD_Q6_FAR">      0.00000000</i>
   <i name="OFIELD_A">      0.00000000</i>
  </separator>
  <separator name="optional k-points parameters" >
   <i type="int" name="KPOINTS_OPT_MODE">     1</i>
   <i type="logical" name="LKPOINTS_OPT"> F  </i>
  </separator>
 </parameters>
 <atominfo>
  <atoms>      64 </atoms>
  <types>       2 </types>
  <array name="atoms" >
   <dimension dim="1">ion</dimension>
   <field type="string">element</field>
   <field type="int">atomtype</field>
   <set>
    <rc><c>Na</c><c>   1</c></rc>
    <rc><c>Na</c><c>   1</c></rc>
    <rc><c>Na</c><c>   1</c></rc>
    <rc><c>Na</c><c>   1</c></rc>
    <rc><c>Na</c><c>   1</c></rc>
    <rc><c>Na</c><c>   1</c></rc>
    <rc><c>Na</c><c>   1</c></rc>
    <rc><c>Na</c><c>   1</c></rc>
    <rc><c>Na</c><c>   1</c></rc>
    <rc><c>Na</c><c>   1</c></rc>
    <rc><c>Na</c><c>   1</c></rc>
    <rc><c>Na</c><c>   1</c></rc>
    <rc><c>Na</c><c>   1</c></rc>
    <rc><c>Na</c><c>   1</c></rc>
    <rc><c>Na</c><c>   1</c></rc>
    <rc><c>Na</c><c>   1</c></rc>
    <rc><c>Na</c><c>   1</c></rc>
    <rc><c>Na</c><c>   1</c></rc>
    <rc><c>Na</c><c>   1</c></rc>
    <rc><c>Na</c><c>   1</c></rc>
    <rc><c>Na</c><c>   1</c></rc>
    <rc><c>Na</c><c>   1</c></rc>
    <rc><c>Na</c><c>   1</c></rc>
    <rc><c>Na</c><c>   1</c></rc>
    <rc><c>Na</c><c>   1</c></rc>
    <rc><c>Na</c><c>   1</c></rc>
    <rc><c>Na</c><c>   1</c></rc>
    <rc><c>Na</c><c>   1</c></rc>
    <rc><c>Na</c><c>   1</c></rc>
    <rc><c>Na</c><c>   1</c></rc>
    <rc><c>Na</c><c>   1</c></rc>
    <rc><c>Na</c><c>   1</c></rc>
    <rc><c>Cl</c><c>   2</c></rc>
    <rc><c>Cl</c><c>   2</c></rc>
    <rc><c>Cl</c><c>   2</c></rc>
    <rc><c>Cl</c><c>   2</c></rc>
    <rc><c>Cl</c><c>   2</c></rc>
    <rc><c>Cl</c><c>   2</c></rc>
    <rc><c>Cl</c><c>   2</c></rc>
    <rc><c>Cl</c><c>   2</c></rc>
    <rc><c>Cl</c><c>   2</c></rc>
    <rc><c>Cl</c><c>   2</c></rc>
    <rc><c>Cl</c><c>   2</c></rc>
    <rc><c>Cl</c><c>   2</c></rc>
    <rc><c>Cl</c><c>   2</c></rc>
    <rc><c>Cl</c><c>   2</c></rc>
    <rc><c>Cl</c><c>   2</c></rc>
    <rc><c>Cl</c><c>   2</c></rc>
    <rc><c>Cl</c><c>   2</c></rc>
    <rc><c>Cl</c><c>   2</c></rc>
    <rc><c>Cl</c><c>   2</c></rc>
    <rc><c>Cl</c><c>   2</c></rc>
    <rc><c>Cl</c><c>   2</c></rc>
    <rc><c>Cl</c><c>   2</c></rc>
    <rc><c>Cl</c><c>   2</c></rc>
    <rc><c>Cl</c><c>   2</c></rc>
    <rc><c>Cl</c><c>   2</c></rc>
    <rc><c>Cl</c><c>   2</c></rc>
    <rc><c>Cl</c><c>   2</c></rc>
    <rc><c>Cl</c><c>   2</c></rc>
    <rc><c>Cl</c><c>   2</c></rc>
    <rc><c>Cl</c><c>   2</c></rc>
    <rc><c>Cl</c><c>   2</c></rc>
    <rc><c>Cl</c><c>   2</c></rc>
   </set>
  </array>
  <array name="atomtypes" >
   <dimension dim="1">type</dimension>
   <field type="int">atomspertype</field>
   <field type="string">element</field>
   <field>mass</field>
   <field>valence</field>
   <field type="string">pseudopotential</field>
   <set>
    <rc><c>  32</c><c>Na</c><c>     22.99000000</c><c>      7.00000000</c><c>  PAW_PBE Na_pv 19Sep2006               </c></rc>
    <rc><c>  32</c><c>Cl</c><c>     35.45300000</c><c>      7.00000000</c><c>  PAW_PBE Cl 06Sep2000                  </c></rc>
   </set>
  </array>
 </atominfo>
 <structure name="initialpos" >
  <crystal>
   <varray name="basis" >
    <v>      11.20400236       0.00000000       0.00000000 </v>
    <v>       0.00000000      11.20400236       0.00000000 </v>
    <v>       0.00000000       0.00000000      11.20400236 </v>
   </varray>
   <i name="volume">   1406.43470641 </i>
   <varray name="rec_basis" >
    <v>       0.08925382       0.00000000       0.00000000 </v>
    <v>       0.00000000       0.08925382       0.00000000 </v>
    <v>       0.00000000       0.00000000       0.08925382 </v>
   </varray>
  </crystal>
  <varray name="positions" >
   <v>       0.99732239       0.00000000       0.00000000 </v>
   <v>       0.25000000       0.25000000       0.00000000 </v>
   <v>       0.25000000       0.00000000       0.25000000 </v>
   <v>       0.00000000       0.25000000       0.25000000 </v>
   <v>       0.00000000       0.00000000       0.50000000 </v>
   <v>       0.25000000       0.25000000       0.50000000 </v>
   <v>       0.25000000       0.00000000       0.75000000 </v>
   <v>       0.00000000       0.25000000       0.75000000 </v>
   <v>       0.00000000       0.50000000       0.00000000 </v>
   <v>       0.25000000       0.75000000       0.00000000 </v>
   <v>       0.25000000       0.50000000       0.25000000 </v>
   <v>       0.00000000       0.75000000       0.25000000 </v>
   <v>       0.00000000       0.50000000       0.50000000 </v>
   <v>       0.25000000       0.75000000       0.50000000 </v>
   <v>       0.25000000       0.50000000       0.75000000 </v>
   <v>       0.00000000       0.75000000       0.75000000 </v>
   <v>       0.50000000       0.00000000       0.00000000 </v>
   <v>       0.75000000       0.25000000       0.00000000 </v>
   <v>       0.75000000       0.00000000       0.25000000 </v>
   <v>       0.50000000       0.25000000       0.25000000 </v>
   <v>       0.50000000       0.00000000       0.50000000 </v>
   <v>       0.75000000       0.25000000       0.50000000 </v>
   <v>       0.75000000       0.00000000       0.75000000 </v>
   <v>       0.50000000       0.25000000       0.75000000 </v>
   <v>       0.50000000       0.50000000       0.00000000 </v>
   <v>       0.75000000       0.75000000       0.00000000 </v>
   <v>       0.75000000       0.50000000       0.25000000 </v>
   <v>       0.50000000       0.75000000       0.25000000 </v>
   <v>       0.50000000       0.50000000       0.50000000 </v>
   <v>       0.75000000       0.75000000       0.50000000 </v>
   <v>       0.75000000       0.50000000       0.75000000 </v>
   <v>       0.50000000       0.75000000       0.75000000 </v>
   <v>       0.25000000       0.25000000       0.25000000 </v>
   <v>       0.00000000       0.00000000       0.25000000 </v>
   <v>       0.00000000       0.25000000       0.00000000 </v>
   <v>       0.25267761       0.00000000       0.00000000 </v>
   <v>       0.25000000       0.25000000       0.75000000 </v>
   <v>       0.00000000       0.00000000       0.75000000 </v>
   <v>       0.00000000       0.25000000       0.50000000 </v>
   <v>       0.25000000       0.00000000       0.50000000 </v>
   <v>       0.25000000       0.75000000       0.25000000 </v>
   <v>       0.00000000       0.50000000       0.25000000 </v>
   <v>       0.00000000       0.75000000       0.00000000 </v>
   <v>       0.25000000       0.50000000       0.00000000 </v>
   <v>       0.25000000       0.75000000       0.75000000 </v>
   <v>       0.00000000       0.50000000       0.75000000 </v>
   <v>       0.00000000       0.75000000       0.50000000 </v>
   <v>       0.25000000       0.50000000       0.50000000 </v>
   <v>       0.75000000       0.25000000       0.25000000 </v>
   <v>       0.50000000       0.00000000       0.25000000 </v>
   <v>       0.50000000       0.25000000       0.00000000 </v>
   <v>       0.75000000       0.00000000       0.00000000 </v>
   <v>       0.75000000       0.25000000       0.75000000 </v>
   <v>       0.50000000       0.00000000       0.75000000 </v>
   <v>       0.50000000       0.25000000       0.50000000 </v>
   <v>       0.75000000       0.00000000       0.50000000 </v>
   <v>       0.75000000       0.75000000       0.25000000 </v>
   <v>       0.50000000       0.50000000       0.25000000 </v>
   <v>       0.50000000       0.75000000       0.00000000 </v>
   <v>       0.75000000       0.50000000       0.00000000 </v>
   <v>       0.75000000       0.75000000       0.75000000 </v>
   <v>       0.50000000       0.50000000       0.75000000 </v>
   <v>       0.50000000       0.75000000       0.50000000 </v>
   <v>       0.75000000       0.50000000       0.50000000 </v>
  </varray>
 </structure>
 <calculation>
  <scstep>
   <time name="dav">    7.22    7.26</time>
   <time name="total">    7.30    7.34</time>
   <energy>
    <i name="alphaZ">    751.52672365 </i>
    <i name="ewald"> -22871.28123581 </i>
    <i name="hartreedc">  -8992.29876787 </i>
    <i name="XCdc">   1456.53455249 </i>
    <i name="pawpsdc">  26466.43774078 </i>
    <i name="pawaedc"> -29286.08056155 </i>
    <i name="eentropy">     -0.00282457 </i>
    <i name="bandstr">   -740.20664472 </i>
    <i name="atom">  37532.17946992 </i>
    <i name="e_fr_energy">   4316.80845233 </i>
    <i name="e_wo_entrp">   4316.81127689 </i>
    <i name="e_0_energy">   4316.80986461 </i>
   </energy>
  </scstep>
  <scstep>
   <time name="dav">    7.85    7.90</time>
   <time name="total">    7.85    7.90</time>
   <energy>
    <i name="e_fr_energy">    363.40886004 </i>
    <i name="e_wo_entrp">    363.40886004 </i>
    <i name="e_0_energy">    363.40886004 </i>
   </energy>
  </scstep>
  <scstep>
   <time name="dav">    8.49    8.54</time>
   <time name="total">    8.49    8.54</time>
   <energy>
    <i name="e_fr_energy">   -206.22655694 </i>
    <i name="e_wo_entrp">   -206.22655694 </i>
    <i name="e_0_energy">   -206.22655694 </i>
   </energy>
  </scstep>
  <scstep>
   <time name="dav">    8.40    8.44</time>
   <time name="total">    8.40    8.44</time>
   <energy>
    <i name="e_fr_energy">   -228.19361622 </i>
    <i name="e_wo_entrp">   -228.19361622 </i>
    <i name="e_0_energy">   -228.19361622 </i>
   </energy>
  </scstep>
  <scstep>
   <time name="dav">    8.68    8.73</time>
   <time name="total">    8.95    9.00</time>
   <energy>
    <i name="e_fr_energy">   -229.00403963 </i>
    <i name="e_wo_entrp">   -229.00403963 </i>
    <i name="e_0_energy">   -229.00403963 </i>
   </energy>
  </scstep>
  <scstep>
   <time name="dav">    8.61    8.65</time>
   <time name="total">    8.94    8.99</time>
   <energy>
    <i name="e_fr_energy">   -224.13875508 </i>
    <i name="e_wo_entrp">   -224.13875508 </i>
    <i name="e_0_energy">   -224.13875508 </i>
   </energy>
  </scstep>
  <scstep>
   <time name="dav">    9.25    9.29</time>
   <time name="total">    9.58    9.63</time>
   <energy>
    <i name="e_fr_energy">   -223.77696931 </i>
    <i name="e_wo_entrp">   -223.77696931 </i>
    <i name="e_0_energy">   -223.77696931 </i>
   </energy>
  </scstep>
  <scstep>
   <time name="dav">    8.13    8.17</time>
   <time name="total">    8.48    8.53</time>
   <energy>
    <i name="e_fr_energy">   -223.90232677 </i>
    <i name="e_wo_entrp">   -223.90232677 </i>
    <i name="e_0_energy">   -223.90232677 </i>
   </energy>
  </scstep>
  <scstep>
   <time name="dav">    8.61    8.65</time>
   <time name="total">    8.94    8.99</time>
   <energy>
    <i name="e_fr_energy">   -223.89672086 </i>
    <i name="e_wo_entrp">   -223.89672086 </i>
    <i name="e_0_energy">   -223.89672086 </i>
   </energy>
  </scstep>
  <scstep>
   <time name="dav">    8.20    8.25</time>
   <time name="total">    8.54    8.58</time>
   <energy>
    <i name="e_fr_energy">   -223.90098482 </i>
    <i name="e_wo_entrp">   -223.90098482 </i>
    <i name="e_0_energy">   -223.90098482 </i>
   </energy>
  </scstep>
  <scstep>
   <time name="dav">    8.67    8.71</time>
   <time name="total">    9.00    9.05</time>
   <energy>
    <i name="e_fr_energy">   -223.90022999 </i>
    <i name="e_wo_entrp">   -223.90022999 </i>
    <i name="e_0_energy">   -223.90022999 </i>
   </energy>
  </scstep>
  <scstep>
   <time name="dav">    9.09    9.14</time>
   <time name="total">    9.44    9.48</time>
   <energy>
    <i name="e_fr_energy">   -223.90018783 </i>
    <i name="e_wo_entrp">   -223.90018783 </i>
    <i name="e_0_energy">   -223.90018783 </i>
   </energy>
  </scstep>
  <scstep>
   <time name="dav">    8.56    8.60</time>
   <time name="total">    8.90    8.95</time>
   <energy>
    <i name="e_fr_energy">   -223.90019052 </i>
    <i name="e_wo_entrp">   -223.90019052 </i>
    <i name="e_0_energy">   -223.90019052 </i>
   </energy>
  </scstep>
  <scstep>
   <time name="dav">    8.57    8.62</time>
   <time name="total">    8.91    8.96</time>
   <energy>
    <i name="e_fr_energy">   -223.90019164 </i>
    <i name="e_wo_entrp">   -223.90019164 </i>
    <i name="e_0_energy">   -223.90019164 </i>
   </energy>
  </scstep>
  <scstep>
   <time name="dav">    8.20    8.25</time>
   <time name="total">    8.54    8.59</time>
   <energy>
    <i name="e_fr_energy">   -223.90019300 </i>
    <i name="e_wo_entrp">   -223.90019300 </i>
    <i name="e_0_energy">   -223.90019300 </i>
   </energy>
  </scstep>
  <scstep>
   <time name="dav">    8.63    8.68</time>
   <time name="total">    8.97    9.02</time>
   <energy>
    <i name="e_fr_energy">   -223.90019340 </i>
    <i name="e_wo_entrp">   -223.90019340 </i>
    <i name="e_0_energy">   -223.90019340 </i>
   </energy>
  </scstep>
  <scstep>
   <time name="dav">    6.26    6.29</time>
   <time name="total">    6.60    6.63</time>
   <energy>
    <i name="e_fr_energy">   -223.90019333 </i>
    <i name="e_wo_entrp">   -223.90019333 </i>
    <i name="e_0_energy">   -223.90019333 </i>
   </energy>
  </scstep>
  <scstep>
   <time name="dav">    6.11    6.14</time>
   <time name="total">    6.45    6.48</time>
   <energy>
    <i name="e_fr_energy">   -223.90019334 </i>
    <i name="e_wo_entrp">   -223.90019334 </i>
    <i name="e_0_energy">   -223.90019334 </i>
   </energy>
  </scstep>
  <scstep>
   <time name="dav">    5.49    5.52</time>
   <time name="total">    5.56    5.59</time>
   <energy>
    <i name="alphaZ">    751.52672365 </i>
    <i name="ewald"> -22871.28123581 </i>
    <i name="hartreedc">  -9078.22237540 </i>
    <i name="XCdc">   1472.51400712 </i>
    <i name="pawpsdc">  29498.29317201 </i>
    <i name="pawaedc"> -32317.65860210 </i>
    <i name="eentropy">     -0.00000000 </i>
    <i name="bandstr">  -5211.25135275 </i>
    <i name="atom">  37532.17946992 </i>
    <i name="e_fr_energy">   -223.90019335 </i>
    <i name="e_wo_entrp">   -223.90019335 </i>
    <i name="e_0_energy">   -223.90019335 </i>
   </energy>
  </scstep>
  <structure>
   <crystal>
    <varray name="basis" >
     <v>      11.20400236       0.00000000       0.00000000 </v>
     <v>       0.00000000      11.20400236       0.00000000 </v>
     <v>       0.00000000       0.00000000      11.20400236 </v>
    </varray>
    <i name="volume">   1406.43470641 </i>
    <varray name="rec_basis" >
     <v>       0.08925382       0.00000000       0.00000000 </v>
     <v>       0.00000000       0.08925382       0.00000000 </v>
     <v>       0.00000000       0.00000000       0.08925382 </v>
    </varray>
   </crystal>
   <varray name="positions" >
    <v>       0.99732239       0.00000000       0.00000000 </v>
    <v>       0.25000000       0.25000000       0.00000000 </v>
    <v>       0.25000000       0.00000000       0.25000000 </v>
    <v>       0.00000000       0.25000000       0.25000000 </v>
    <v>       0.00000000       0.00000000       0.50000000 </v>
    <v>       0.25000000       0.25000000       0.50000000 </v>
    <v>       0.25000000       0.00000000       0.75000000 </v>
    <v>       0.00000000       0.25000000       0.75000000 </v>
    <v>       0.00000000       0.50000000       0.00000000 </v>
    <v>       0.25000000       0.75000000       0.00000000 </v>
    <v>       0.25000000       0.50000000       0.25000000 </v>
    <v>       0.00000000       0.75000000       0.25000000 </v>
    <v>       0.00000000       0.50000000       0.50000000 </v>
    <v>       0.25000000       0.75000000       0.50000000 </v>
    <v>       0.25000000       0.50000000       0.75000000 </v>
    <v>       0.00000000       0.75000000       0.75000000 </v>
    <v>       0.50000000       0.00000000       0.00000000 </v>
    <v>       0.75000000       0.25000000       0.00000000 </v>
    <v>       0.75000000       0.00000000       0.25000000 </v>
    <v>       0.50000000       0.25000000       0.25000000 </v>
    <v>       0.50000000       0.00000000       0.50000000 </v>
    <v>       0.75000000       0.25000000       0.50000000 </v>
    <v>       0.75000000       0.00000000       0.75000000 </v>
    <v>       0.50000000       0.25000000       0.75000000 </v>
    <v>       0.50000000       0.50000000       0.00000000 </v>
    <v>       0.75000000       0.75000000       0.00000000 </v>
    <v>       0.75000000       0.50000000       0.25000000 </v>
    <v>       0.50000000       0.75000000       0.25000000 </v>
    <v>       0.50000000       0.50000000       0.50000000 </v>
    <v>       0.75000000       0.75000000       0.50000000 </v>
    <v>       0.75000000       0.50000000       0.75000000 </v>
    <v>       0.50000000       0.75000000       0.75000000 </v>
    <v>       0.25000000       0.25000000       0.25000000 </v>
    <v>       0.00000000       0.00000000       0.25000000 </v>
    <v>       0.00000000       0.25000000       0.00000000 </v>
    <v>       0.25267761       0.00000000       0.00000000 </v>
    <v>       0.25000000       0.25000000       0.75000000 </v>
    <v>       0.00000000       0.00000000       0.75000000 </v>
    <v>       0.00000000       0.25000000       0.50000000 </v>
    <v>       0.25000000       0.00000000       0.50000000 </v>
    <v>       0.25000000       0.75000000       0.25000000 </v>
    <v>       0.00000000       0.50000000       0.25000000 </v>
    <v>       0.00000000       0.75000000       0.00000000 </v>
    <v>       0.25000000       0.50000000       0.00000000 </v>
    <v>       0.25000000       0.75000000       0.75000000 </v>
    <v>       0.00000000       0.50000000       0.75000000 </v>
    <v>       0.00000000       0.75000000       0.50000000 </v>
    <v>       0.25000000       0.50000000       0.50000000 </v>
    <v>       0.75000000       0.25000000       0.25000000 </v>
    <v>       0.50000000       0.00000000       0.25000000 </v>
    <v>       0.50000000       0.25000000       0.00000000 </v>
    <v>       0.75000000       0.00000000       0.00000000 </v>
    <v>       0.75000000       0.25000000       0.75000000 </v>
    <v>       0.50000000       0.00000000       0.75000000 </v>
    <v>       0.50000000       0.25000000       0.50000000 </v>
    <v>       0.75000000       0.00000000       0.50000000 </v>
    <v>       0.75000000       0.75000000       0.25000000 </v>
    <v>       0.50000000       0.50000000       0.25000000 </v>
    <v>       0.50000000       0.75000000       0.00000000 </v>
    <v>       0.75000000       0.50000000       0.00000000 </v>
    <v>       0.75000000       0.75000000       0.75000000 </v>
    <v>       0.50000000       0.50000000       0.75000000 </v>
    <v>       0.50000000       0.75000000       0.50000000 </v>
    <v>       0.75000000       0.50000000       0.50000000 </v>
   </varray>
  </structure>
  <varray name="forces" >
   <v>       0.07537646      -0.00000000       0.00000000 </v>
   <v>       0.00350485      -0.00588409       0.00000000 </v>
   <v>       0.00350485      -0.00000000      -0.00588409 </v>
   <v>       0.00142691       0.00127280       0.00127280 </v>
   <v>       0.00020332      -0.00000000       0.00000000 </v>
   <v>       0.00062974       0.00007088       0.00000000 </v>
   <v>       0.00350485      -0.00000000       0.00588409 </v>
   <v>       0.00142691       0.00127280      -0.00127280 </v>
   <v>       0.00020332      -0.00000000       0.00000000 </v>
   <v>       0.00350485       0.00588409       0.00000000 </v>
   <v>       0.00062974      -0.00000000       0.00007088 </v>
   <v>       0.00142691      -0.00127280       0.00127280 </v>
   <v>       0.00045007      -0.00000000       0.00000000 </v>
   <v>       0.00062974      -0.00007088       0.00000000 </v>
   <v>       0.00062974      -0.00000000      -0.00007088 </v>
   <v>       0.00142691      -0.00127280      -0.00127280 </v>
   <v>       0.01137170      -0.00000000       0.00000000 </v>
   <v>      -0.00434855       0.00592354       0.00000000 </v>
   <v>      -0.00434855      -0.00000000       0.00592354 </v>
   <v>      -0.00137275      -0.00129761      -0.00129761 </v>
   <v>      -0.00013793      -0.00000000       0.00000000 </v>
   <v>      -0.00063418      -0.00008096       0.00000000 </v>
   <v>      -0.00434855      -0.00000000      -0.00592354 </v>
   <v>      -0.00137275      -0.00129761       0.00129761 </v>
   <v>      -0.00013793      -0.00000000       0.00000000 </v>
   <v>      -0.00434855      -0.00592354       0.00000000 </v>
   <v>      -0.00063418      -0.00000000      -0.00008096 </v>
   <v>      -0.00137275       0.00129761      -0.00129761 </v>
   <v>      -0.00043433      -0.00000000       0.00000000 </v>
   <v>      -0.00063418       0.00008096       0.00000000 </v>
   <v>      -0.00063418      -0.00000000       0.00008096 </v>
   <v>      -0.00137275       0.00129761       0.00129761 </v>
   <v>      -0.00208864       0.00124704       0.00124704 </v>
   <v>      -0.00114030      -0.00000000      -0.00584525 </v>
   <v>      -0.00114030      -0.00584525       0.00000000 </v>
   <v>      -0.08862936      -0.00000000       0.00000000 </v>
   <v>      -0.00208864       0.00124704      -0.00124704 </v>
   <v>      -0.00114030      -0.00000000       0.00584525 </v>
   <v>      -0.00062930      -0.00055697       0.00000000 </v>
   <v>      -0.00168065      -0.00000000       0.00000000 </v>
   <v>      -0.00208864      -0.00124704       0.00124704 </v>
   <v>      -0.00062930      -0.00000000      -0.00055697 </v>
   <v>      -0.00114030       0.00584525       0.00000000 </v>
   <v>      -0.00168065      -0.00000000       0.00000000 </v>
   <v>      -0.00208864      -0.00124704      -0.00124704 </v>
   <v>      -0.00062930      -0.00000000       0.00055697 </v>
   <v>      -0.00062930       0.00055697       0.00000000 </v>
   <v>      -0.00049841      -0.00000000       0.00000000 </v>
   <v>       0.00176073      -0.00130158      -0.00130158 </v>
   <v>       0.00675134      -0.00000000       0.00588416 </v>
   <v>       0.00675134       0.00588416       0.00000000 </v>
   <v>      -0.01639778      -0.00000000       0.00000000 </v>
   <v>       0.00176073      -0.00130158       0.00130158 </v>
   <v>       0.00675134      -0.00000000      -0.00588416 </v>
   <v>       0.00061547       0.00057613       0.00000000 </v>
   <v>       0.00178387      -0.00000000       0.00000000 </v>
   <v>       0.00176073       0.00130158      -0.00130158 </v>
   <v>       0.00061547      -0.00000000       0.00057613 </v>
   <v>       0.00675134      -0.00588416       0.00000000 </v>
   <v>       0.00178387      -0.00000000       0.00000000 </v>
   <v>       0.00176073       0.00130158       0.00130158 </v>
   <v>       0.00061547      -0.00000000      -0.00057613 </v>
   <v>       0.00061547      -0.00057613       0.00000000 </v>
   <v>       0.00052311      -0.00000000       0.00000000 </v>
  </varray>
  <varray name="stress" >
   <v>      -0.34677530      -0.00000000       0.00000000 </v>
   <v>       0.00000000      -0.38016462       0.00000000 </v>
   <v>      -0.00000000       0.00000000      -0.38016462 </v>
  </varray>
  <energy>
   <i name="e_fr_energy">   -223.90019335 </i>
   <i name="e_wo_entrp">   -223.90019335 </i>
   <i name="e_0_energy">   -223.90019335 </i>
  </energy>
  <time name="totalsc">  169.49  170.40</time>
  <eigenvalues>
   <array>
    <dimension dim="1">band</dimension>
    <dimension dim="2">kpoint</dimension>
    <dimension dim="3">spin</dimension>
    <field>eigene</field>
    <field>occ</field>
    <set>
     <set comment="spin 1">
      <set comment="kpoint 1">
       <r>  -21.3089    1.0000 </r>
       <r>  -21.3088    1.0000 </r>
       <r>  -21.3088    1.0000 </r>
       <r>  -21.3045    1.0000 </r>
       <r>  -21.3008    1.0000 </r>
       <r>  -21.2998    1.0000 </r>
       <r>  -21.2998    1.0000 </r>
       <r>  -21.2945    1.0000 </r>
       <r>  -21.2945    1.0000 </r>
       <r>  -21.2944    1.0000 </r>
       <r>  -21.2942    1.0000 </r>
       <r>  -21.2938    1.0000 </r>
       <r>  -21.2935    1.0000 </r>
       <r>  -21.2933    1.0000 </r>
       <r>  -21.2933    1.0000 </r>
       <r>  -21.2928    1.0000 </r>
       <r>  -21.2923    1.0000 </r>
       <r>  -21.2921    1.0000 </r>
       <r>  -21.2921    1.0000 </r>
       <r>  -21.2899    1.0000 </r>
       <r>  -21.2899    1.0000 </r>
       <r>  -21.2882    1.0000 </r>
       <r>  -21.2877    1.0000 </r>
       <r>  -21.2877    1.0000 </r>
       <r>  -21.2872    1.0000 </r>
       <r>  -21.2869    1.0000 </r>
       <r>  -21.2863    1.0000 </r>
       <r>  -21.2861    1.0000 </r>
       <r>  -21.2861    1.0000 </r>
       <r>  -21.2855    1.0000 </r>
       <r>  -21.2848    1.0000 </r>
       <r>  -21.2848    1.0000 </r>
       <r>  -21.2836    1.0000 </r>
       <r>  -21.2836    1.0000 </r>
       <r>  -21.2834    1.0000 </r>
       <r>  -21.2834    1.0000 </r>
       <r>  -21.2833    1.0000 </r>
       <r>  -21.2831    1.0000 </r>
       <r>  -21.2820    1.0000 </r>
       <r>  -21.2820    1.0000 </r>
       <r>  -21.2820    1.0000 </r>
       <r>  -21.2818    1.0000 </r>
       <r>  -21.2818    1.0000 </r>
       <r>  -21.2816    1.0000 </r>
       <r>  -21.2816    1.0000 </r>
       <r>  -21.2813    1.0000 </r>
       <r>  -21.2811    1.0000 </r>
       <r>  -21.2806    1.0000 </r>
       <r>  -21.2806    1.0000 </r>
       <r>  -21.2803    1.0000 </r>
       <r>  -21.2798    1.0000 </r>
       <r>  -21.2798    1.0000 </r>
       <r>  -21.2793    1.0000 </r>
       <r>  -21.2787    1.0000 </r>
       <r>  -21.2783    1.0000 </r>
       <r>  -21.2773    1.0000 </r>
       <r>  -21.2773    1.0000 </r>
       <r>  -21.2769    1.0000 </r>
       <r>  -21.2769    1.0000 </r>
       <r>  -21.2768    1.0000 </r>
       <r>  -21.2761    1.0000 </r>
       <r>  -21.2761    1.0000 </r>
       <r>  -21.2760    1.0000 </r>
       <r>  -21.2752    1.0000 </r>
       <r>  -21.2752    1.0000 </r>
       <r>  -21.2752    1.0000 </r>
       <r>  -21.2752    1.0000 </r>
       <r>  -21.2749    1.0000 </r>
       <r>  -21.2749    1.0000 </r>
       <r>  -21.2749    1.0000 </r>
       <r>  -21.2746    1.0000 </r>
       <r>  -21.2730    1.0000 </r>
       <r>  -21.2730    1.0000 </r>
       <r>  -21.2722    1.0000 </r>
       <r>  -21.2722    1.0000 </r>
       <r>  -21.2715    1.0000 </r>
       <r>  -21.2715    1.0000 </r>
       <r>  -21.2715    1.0000 </r>
       <r>  -21.2713    1.0000 </r>
       <r>  -21.2713    1.0000 </r>
       <r>  -21.2712    1.0000 </r>
       <r>  -21.2710    1.0000 </r>
       <r>  -21.2708    1.0000 </r>
       <r>  -21.2708    1.0000 </r>
       <r>  -21.2706    1.0000 </r>
       <r>  -21.2700    1.0000 </r>
       <r>  -21.2694    1.0000 </r>
       <r>  -21.2694    1.0000 </r>
       <r>  -21.2689    1.0000 </r>
       <r>  -21.2679    1.0000 </r>
       <r>  -21.2677    1.0000 </r>
       <r>  -21.2677    1.0000 </r>
       <r>  -21.2675    1.0000 </r>
       <r>  -21.2555    1.0000 </r>
       <r>  -21.2555    1.0000 </r>
       <r>  -21.2553    1.0000 </r>
       <r>  -13.3581    1.0000 </r>
       <r>  -13.1429    1.0000 </r>
       <r>  -13.1374    1.0000 </r>
       <r>  -13.1374    1.0000 </r>
       <r>  -13.1374    1.0000 </r>
       <r>  -13.1371    1.0000 </r>
       <r>  -13.1334    1.0000 </r>
       <r>  -13.0215    1.0000 </r>
       <r>  -13.0145    1.0000 </r>
       <r>  -13.0145    1.0000 </r>
       <r>  -13.0115    1.0000 </r>
       <r>  -13.0114    1.0000 </r>
       <r>  -13.0113    1.0000 </r>
       <r>  -13.0112    1.0000 </r>
       <r>  -13.0112    1.0000 </r>
       <r>  -13.0111    1.0000 </r>
       <r>  -13.0087    1.0000 </r>
       <r>  -13.0087    1.0000 </r>
       <r>  -13.0043    1.0000 </r>
       <r>  -12.9897    1.0000 </r>
       <r>  -12.9891    1.0000 </r>
       <r>  -12.9891    1.0000 </r>
       <r>  -12.9886    1.0000 </r>
       <r>  -12.9416    1.0000 </r>
       <r>  -12.9412    1.0000 </r>
       <r>  -12.9402    1.0000 </r>
       <r>  -12.9244    1.0000 </r>
       <r>  -12.9230    1.0000 </r>
       <r>  -12.9213    1.0000 </r>
       <r>  -12.9213    1.0000 </r>
       <r>  -12.9188    1.0000 </r>
       <r>  -12.9150    1.0000 </r>
       <r>   -2.7000    1.0000 </r>
       <r>   -2.7000    1.0000 </r>
       <r>   -2.7000    1.0000 </r>
       <r>   -2.7000    1.0000 </r>
       <r>   -2.4240    1.0000 </r>
       <r>   -2.4240    1.0000 </r>
       <r>   -2.4240    1.0000 </r>
       <r>   -2.2074    1.0000 </r>
       <r>   -2.2074    1.0000 </r>
       <r>   -2.2052    1.0000 </r>
       <r>   -2.2048    1.0000 </r>
       <r>   -2.2044    1.0000 </r>
       <r>   -2.2044    1.0000 </r>
       <r>   -2.2044    1.0000 </r>
       <r>   -2.2042    1.0000 </r>
       <r>   -2.2040    1.0000 </r>
       <r>   -2.2030    1.0000 </r>
       <r>   -2.2011    1.0000 </r>
       <r>   -2.2011    1.0000 </r>
       <r>   -1.9281    1.0000 </r>
       <r>   -1.9281    1.0000 </r>
       <r>   -1.9256    1.0000 </r>
       <r>   -1.9256    1.0000 </r>
       <r>   -1.9247    1.0000 </r>
       <r>   -1.9247    1.0000 </r>
       <r>   -1.9247    1.0000 </r>
       <r>   -1.9246    1.0000 </r>
       <r>   -1.9245    1.0000 </r>
       <r>   -1.9245    1.0000 </r>
       <r>   -1.9206    1.0000 </r>
       <r>   -1.9206    1.0000 </r>
       <r>   -1.7976    1.0000 </r>
       <r>   -1.7966    1.0000 </r>
       <r>   -1.7966    1.0000 </r>
       <r>   -1.7966    1.0000 </r>
       <r>   -1.7966    1.0000 </r>
       <r>   -1.7955    1.0000 </r>
       <r>   -1.5082    1.0000 </r>
       <r>   -1.5082    1.0000 </r>
       <r>   -1.5061    1.0000 </r>
       <r>   -1.5061    1.0000 </r>
       <r>   -1.5061    1.0000 </r>
       <r>   -1.5057    1.0000 </r>
       <r>   -1.5053    1.0000 </r>
       <r>   -1.5052    1.0000 </r>
       <r>   -1.5052    1.0000 </r>
       <r>   -1.5049    1.0000 </r>
       <r>   -1.5021    1.0000 </r>
       <r>   -1.5021    1.0000 </r>
       <r>   -1.4648    1.0000 </r>
       <r>   -1.4637    1.0000 </r>
       <r>   -1.4623    1.0000 </r>
       <r>   -1.4623    1.0000 </r>
       <r>   -1.4621    1.0000 </r>
       <r>   -1.4604    1.0000 </r>
       <r>   -1.2948    1.0000 </r>
       <r>   -1.2948    1.0000 </r>
       <r>   -1.2947    1.0000 </r>
       <r>   -1.2946    1.0000 </r>
       <r>   -1.2946    1.0000 </r>
       <r>   -1.2946    1.0000 </r>
       <r>   -1.0042    1.0000 </r>
       <r>   -1.0042    1.0000 </r>
       <r>   -1.0030    1.0000 </r>
       <r>   -1.0017    1.0000 </r>
       <r>   -1.0017    1.0000 </r>
       <r>   -1.0011    1.0000 </r>
       <r>   -1.0011    1.0000 </r>
       <r>   -1.0008    1.0000 </r>
       <r>   -1.0007    1.0000 </r>
       <r>   -1.0007    1.0000 </r>
       <r>   -0.9965    1.0000 </r>
       <r>   -0.9965    1.0000 </r>
       <r>   -0.9526    1.0000 </r>
       <r>   -0.9526    1.0000 </r>
       <r>   -0.9523    1.0000 </r>
       <r>   -0.9511    1.0000 </r>
       <r>   -0.9494    1.0000 </r>
       <r>   -0.9478    1.0000 </r>
       <r>   -0.9478    1.0000 </r>
       <r>   -0.9477    1.0000 </r>
       <r>   -0.9475    1.0000 </r>
       <r>   -0.9472    1.0000 </r>
       <r>   -0.9472    1.0000 </r>
       <r>   -0.9467    1.0000 </r>
       <r>   -0.9458    1.0000 </r>
       <r>   -0.9457    1.0000 </r>
       <r>   -0.9457    1.0000 </r>
       <r>   -0.9427    1.0000 </r>
       <r>   -0.9425    1.0000 </r>
       <r>   -0.9417    1.0000 </r>
       <r>   -0.9408    1.0000 </r>
       <r>   -0.9408    1.0000 </r>
       <r>   -0.6648    1.0000 </r>
       <r>   -0.6648    1.0000 </r>
       <r>   -0.6648    1.0000 </r>
       <r>    4.3403    0.0000 </r>
       <r>    6.3610    0.0000 </r>
       <r>    6.3677    0.0000 </r>
       <r>    6.3680    0.0000 </r>
       <r>    6.3680    0.0000 </r>
       <r>    6.3682    0.0000 </r>
       <r>    6.3754    0.0000 </r>
       <r>    6.4446    0.0000 </r>
       <r>    6.4447    0.0000 </r>
       <r>    6.4448    0.0000 </r>
       <r>    6.4448    0.0000 </r>
       <r>    6.8279    0.0000 </r>
       <r>    6.8279    0.0000 </r>
       <r>    6.8281    0.0000 </r>
       <r>    7.2068    0.0000 </r>
       <r>    7.2068    0.0000 </r>
       <r>    7.2069    0.0000 </r>
       <r>    7.4557    0.0000 </r>
       <r>    7.4602    0.0000 </r>
       <r>    7.4602    0.0000 </r>
       <r>    7.4613    0.0000 </r>
       <r>    7.4626    0.0000 </r>
       <r>    7.4626    0.0000 </r>
       <r>    7.4639    0.0000 </r>
       <r>    7.4642    0.0000 </r>
       <r>    7.4645    0.0000 </r>
       <r>    7.4699    0.0000 </r>
       <r>    7.4699    0.0000 </r>
       <r>    7.4749    0.0000 </r>
       <r>    8.1628    0.0000 </r>
       <r>    8.1666    0.0000 </r>
       <r>    8.1682    0.0000 </r>
       <r>    8.1682    0.0000 </r>
       <r>    8.1702    0.0000 </r>
       <r>    8.1739    0.0000 </r>
       <r>    8.2769    0.0000 </r>
       <r>    8.2781    0.0000 </r>
       <r>    8.2796    0.0000 </r>
       <r>    8.2796    0.0000 </r>
       <r>    8.2796    0.0000 </r>
       <r>    8.2836    0.0000 </r>
       <r>    8.8947    0.0000 </r>
       <r>    8.8951    0.0000 </r>
       <r>    8.8952    0.0000 </r>
       <r>    8.8971    0.0000 </r>
       <r>    8.8985    0.0000 </r>
       <r>    8.9006    0.0000 </r>
       <r>    8.9007    0.0000 </r>
       <r>    8.9010    0.0000 </r>
       <r>    8.9024    0.0000 </r>
       <r>    8.9045    0.0000 </r>
       <r>    8.9048    0.0000 </r>
       <r>    8.9064    0.0000 </r>
       <r>    8.9132    0.0000 </r>
       <r>    8.9136    0.0000 </r>
       <r>    8.9139    0.0000 </r>
       <r>    8.9155    0.0000 </r>
       <r>    8.9162    0.0000 </r>
       <r>    8.9164    0.0000 </r>
       <r>    8.9166    0.0000 </r>
       <r>    8.9170    0.0000 </r>
       <r>    8.9187    0.0000 </r>
       <r>    8.9263    0.0000 </r>
       <r>    8.9302    0.0000 </r>
      </set>
      <set comment="kpoint 2">
       <r>  -21.3082    1.0000 </r>
       <r>  -21.3081    1.0000 </r>
       <r>  -21.3081    1.0000 </r>
       <r>  -21.3021    1.0000 </r>
       <r>  -21.2996    1.0000 </r>
       <r>  -21.2976    1.0000 </r>
       <r>  -21.2976    1.0000 </r>
       <r>  -21.2969    1.0000 </r>
       <r>  -21.2965    1.0000 </r>
       <r>  -21.2964    1.0000 </r>
       <r>  -21.2964    1.0000 </r>
       <r>  -21.2933    1.0000 </r>
       <r>  -21.2933    1.0000 </r>
       <r>  -21.2932    1.0000 </r>
       <r>  -21.2927    1.0000 </r>
       <r>  -21.2925    1.0000 </r>
       <r>  -21.2925    1.0000 </r>
       <r>  -21.2923    1.0000 </r>
       <r>  -21.2917    1.0000 </r>
       <r>  -21.2901    1.0000 </r>
       <r>  -21.2900    1.0000 </r>
       <r>  -21.2900    1.0000 </r>
       <r>  -21.2892    1.0000 </r>
       <r>  -21.2892    1.0000 </r>
       <r>  -21.2887    1.0000 </r>
       <r>  -21.2885    1.0000 </r>
       <r>  -21.2878    1.0000 </r>
       <r>  -21.2878    1.0000 </r>
       <r>  -21.2869    1.0000 </r>
       <r>  -21.2868    1.0000 </r>
       <r>  -21.2866    1.0000 </r>
       <r>  -21.2861    1.0000 </r>
       <r>  -21.2859    1.0000 </r>
       <r>  -21.2859    1.0000 </r>
       <r>  -21.2849    1.0000 </r>
       <r>  -21.2849    1.0000 </r>
       <r>  -21.2837    1.0000 </r>
       <r>  -21.2833    1.0000 </r>
       <r>  -21.2830    1.0000 </r>
       <r>  -21.2828    1.0000 </r>
       <r>  -21.2809    1.0000 </r>
       <r>  -21.2809    1.0000 </r>
       <r>  -21.2805    1.0000 </r>
       <r>  -21.2805    1.0000 </r>
       <r>  -21.2798    1.0000 </r>
       <r>  -21.2791    1.0000 </r>
       <r>  -21.2791    1.0000 </r>
       <r>  -21.2782    1.0000 </r>
       <r>  -21.2782    1.0000 </r>
       <r>  -21.2779    1.0000 </r>
       <r>  -21.2777    1.0000 </r>
       <r>  -21.2775    1.0000 </r>
       <r>  -21.2775    1.0000 </r>
       <r>  -21.2775    1.0000 </r>
       <r>  -21.2769    1.0000 </r>
       <r>  -21.2769    1.0000 </r>
       <r>  -21.2766    1.0000 </r>
       <r>  -21.2765    1.0000 </r>
       <r>  -21.2765    1.0000 </r>
       <r>  -21.2762    1.0000 </r>
       <r>  -21.2757    1.0000 </r>
       <r>  -21.2757    1.0000 </r>
       <r>  -21.2756    1.0000 </r>
       <r>  -21.2756    1.0000 </r>
       <r>  -21.2749    1.0000 </r>
       <r>  -21.2749    1.0000 </r>
       <r>  -21.2747    1.0000 </r>
       <r>  -21.2747    1.0000 </r>
       <r>  -21.2746    1.0000 </r>
       <r>  -21.2744    1.0000 </r>
       <r>  -21.2744    1.0000 </r>
       <r>  -21.2735    1.0000 </r>
       <r>  -21.2735    1.0000 </r>
       <r>  -21.2730    1.0000 </r>
       <r>  -21.2730    1.0000 </r>
       <r>  -21.2729    1.0000 </r>
       <r>  -21.2724    1.0000 </r>
       <r>  -21.2723    1.0000 </r>
       <r>  -21.2723    1.0000 </r>
       <r>  -21.2720    1.0000 </r>
       <r>  -21.2717    1.0000 </r>
       <r>  -21.2713    1.0000 </r>
       <r>  -21.2713    1.0000 </r>
       <r>  -21.2707    1.0000 </r>
       <r>  -21.2707    1.0000 </r>
       <r>  -21.2707    1.0000 </r>
       <r>  -21.2700    1.0000 </r>
       <r>  -21.2696    1.0000 </r>
       <r>  -21.2696    1.0000 </r>
       <r>  -21.2679    1.0000 </r>
       <r>  -21.2679    1.0000 </r>
       <r>  -21.2679    1.0000 </r>
       <r>  -21.2675    1.0000 </r>
       <r>  -21.2555    1.0000 </r>
       <r>  -21.2555    1.0000 </r>
       <r>  -21.2555    1.0000 </r>
       <r>  -13.2944    1.0000 </r>
       <r>  -13.2882    1.0000 </r>
       <r>  -13.1048    1.0000 </r>
       <r>  -13.0995    1.0000 </r>
       <r>  -13.0995    1.0000 </r>
       <r>  -13.0991    1.0000 </r>
       <r>  -13.0946    1.0000 </r>
       <r>  -13.0943    1.0000 </r>
       <r>  -13.0943    1.0000 </r>
       <r>  -13.0908    1.0000 </r>
       <r>  -13.0092    1.0000 </r>
       <r>  -13.0050    1.0000 </r>
       <r>  -13.0050    1.0000 </r>
       <r>  -13.0033    1.0000 </r>
       <r>  -12.9984    1.0000 </r>
       <r>  -12.9979    1.0000 </r>
       <r>  -12.9962    1.0000 </r>
       <r>  -12.9962    1.0000 </r>
       <r>  -12.9959    1.0000 </r>
       <r>  -12.9901    1.0000 </r>
       <r>  -12.9508    1.0000 </r>
       <r>  -12.9463    1.0000 </r>
       <r>  -12.9462    1.0000 </r>
       <r>  -12.9462    1.0000 </r>
       <r>  -12.9418    1.0000 </r>
       <r>  -12.9411    1.0000 </r>
       <r>  -12.9411    1.0000 </r>
       <r>  -12.9376    1.0000 </r>
       <r>  -12.9351    1.0000 </r>
       <r>  -12.9346    1.0000 </r>
       <r>  -12.9264    1.0000 </r>
       <r>  -12.9235    1.0000 </r>
       <r>   -2.5081    1.0000 </r>
       <r>   -2.5081    1.0000 </r>
       <r>   -2.5075    1.0000 </r>
       <r>   -2.5074    1.0000 </r>
       <r>   -2.5012    1.0000 </r>
       <r>   -2.5011    1.0000 </r>
       <r>   -2.5007    1.0000 </r>
       <r>   -2.5007    1.0000 </r>
       <r>   -2.2905    1.0000 </r>
       <r>   -2.2905    1.0000 </r>
       <r>   -2.2849    1.0000 </r>
       <r>   -2.2849    1.0000 </r>
       <r>   -2.2775    1.0000 </r>
       <r>   -2.2709    1.0000 </r>
       <r>   -2.1423    1.0000 </r>
       <r>   -2.1373    1.0000 </r>
       <r>   -2.1368    1.0000 </r>
       <r>   -2.1368    1.0000 </r>
       <r>   -2.1362    1.0000 </r>
       <r>   -2.1362    1.0000 </r>
       <r>   -2.1355    1.0000 </r>
       <r>   -2.1306    1.0000 </r>
       <r>   -1.9880    1.0000 </r>
       <r>   -1.9880    1.0000 </r>
       <r>   -1.9867    1.0000 </r>
       <r>   -1.9864    1.0000 </r>
       <r>   -1.9842    1.0000 </r>
       <r>   -1.9841    1.0000 </r>
       <r>   -1.9830    1.0000 </r>
       <r>   -1.9830    1.0000 </r>
       <r>   -1.8123    1.0000 </r>
       <r>   -1.8123    1.0000 </r>
       <r>   -1.8115    1.0000 </r>
       <r>   -1.8112    1.0000 </r>
       <r>   -1.8063    1.0000 </r>
       <r>   -1.8060    1.0000 </r>
       <r>   -1.8053    1.0000 </r>
       <r>   -1.8053    1.0000 </r>
       <r>   -1.5017    1.0000 </r>
       <r>   -1.5017    1.0000 </r>
       <r>   -1.4938    1.0000 </r>
       <r>   -1.4938    1.0000 </r>
       <r>   -1.3859    1.0000 </r>
       <r>   -1.3844    1.0000 </r>
       <r>   -1.3763    1.0000 </r>
       <r>   -1.3753    1.0000 </r>
       <r>   -1.2155    1.0000 </r>
       <r>   -1.2155    1.0000 </r>
       <r>   -1.2096    1.0000 </r>
       <r>   -1.2096    1.0000 </r>
       <r>   -1.1958    1.0000 </r>
       <r>   -1.1931    1.0000 </r>
       <r>   -1.1931    1.0000 </r>
       <r>   -1.1918    1.0000 </r>
       <r>   -1.1899    1.0000 </r>
       <r>   -1.1896    1.0000 </r>
       <r>   -1.1896    1.0000 </r>
       <r>   -1.1889    1.0000 </r>
       <r>   -1.1796    1.0000 </r>
       <r>   -1.1780    1.0000 </r>
       <r>   -1.1780    1.0000 </r>
       <r>   -1.1763    1.0000 </r>
       <r>   -1.1724    1.0000 </r>
       <r>   -1.1705    1.0000 </r>
       <r>   -1.1705    1.0000 </r>
       <r>   -1.1665    1.0000 </r>
       <r>   -1.1648    1.0000 </r>
       <r>   -1.1648    1.0000 </r>
       <r>   -1.1622    1.0000 </r>
       <r>   -1.1621    1.0000 </r>
       <r>   -1.1574    1.0000 </r>
       <r>   -1.1571    1.0000 </r>
       <r>   -1.1531    1.0000 </r>
       <r>   -1.1531    1.0000 </r>
       <r>   -1.0867    1.0000 </r>
       <r>   -1.0796    1.0000 </r>
       <r>   -0.9517    1.0000 </r>
       <r>   -0.9517    1.0000 </r>
       <r>   -0.9515    1.0000 </r>
       <r>   -0.9510    1.0000 </r>
       <r>   -0.9426    1.0000 </r>
       <r>   -0.9423    1.0000 </r>
       <r>   -0.9423    1.0000 </r>
       <r>   -0.9423    1.0000 </r>
       <r>   -0.9386    1.0000 </r>
       <r>   -0.9340    1.0000 </r>
       <r>   -0.9340    1.0000 </r>
       <r>   -0.9334    1.0000 </r>
       <r>   -0.9313    1.0000 </r>
       <r>   -0.9304    1.0000 </r>
       <r>   -0.9304    1.0000 </r>
       <r>   -0.9255    1.0000 </r>
       <r>   -0.7720    1.0000 </r>
       <r>   -0.7720    1.0000 </r>
       <r>   -0.7645    1.0000 </r>
       <r>   -0.7645    1.0000 </r>
       <r>    5.0183    0.0000 </r>
       <r>    5.0263    0.0000 </r>
       <r>    6.7096    0.0000 </r>
       <r>    6.7142    0.0000 </r>
       <r>    6.7142    0.0000 </r>
       <r>    6.7170    0.0000 </r>
       <r>    6.7198    0.0000 </r>
       <r>    6.7222    0.0000 </r>
       <r>    6.7222    0.0000 </r>
       <r>    6.7262    0.0000 </r>
       <r>    6.8384    0.0000 </r>
       <r>    6.8384    0.0000 </r>
       <r>    6.8389    0.0000 </r>
       <r>    6.8403    0.0000 </r>
       <r>    6.8461    0.0000 </r>
       <r>    6.8473    0.0000 </r>
       <r>    6.8483    0.0000 </r>
       <r>    6.8483    0.0000 </r>
       <r>    6.9681    0.0000 </r>
       <r>    6.9744    0.0000 </r>
       <r>    7.3562    0.0000 </r>
       <r>    7.3591    0.0000 </r>
       <r>    7.3660    0.0000 </r>
       <r>    7.3689    0.0000 </r>
       <r>    7.4771    0.0000 </r>
       <r>    7.4834    0.0000 </r>
       <r>    7.7099    0.0000 </r>
       <r>    7.7099    0.0000 </r>
       <r>    7.7193    0.0000 </r>
       <r>    7.7193    0.0000 </r>
       <r>    8.2553    0.0000 </r>
       <r>    8.2628    0.0000 </r>
       <r>    8.2628    0.0000 </r>
       <r>    8.2651    0.0000 </r>
       <r>    8.2668    0.0000 </r>
       <r>    8.2689    0.0000 </r>
       <r>    8.2689    0.0000 </r>
       <r>    8.2752    0.0000 </r>
       <r>    8.5306    0.0000 </r>
       <r>    8.5306    0.0000 </r>
       <r>    8.5316    0.0000 </r>
       <r>    8.5351    0.0000 </r>
       <r>    8.5351    0.0000 </r>
       <r>    8.5360    0.0000 </r>
       <r>    8.5361    0.0000 </r>
       <r>    8.5372    0.0000 </r>
       <r>    8.5377    0.0000 </r>
       <r>    8.5377    0.0000 </r>
       <r>    8.5403    0.0000 </r>
       <r>    8.5407    0.0000 </r>
       <r>    8.5411    0.0000 </r>
       <r>    8.5460    0.0000 </r>
       <r>    8.5506    0.0000 </r>
       <r>    8.5506    0.0000 </r>
       <r>    8.9460    0.0000 </r>
       <r>    8.9461    0.0000 </r>
       <r>    8.9461    0.0000 </r>
       <r>    8.9490    0.0000 </r>
       <r>    8.9528    0.0000 </r>
       <r>    8.9558    0.0000 </r>
       <r>    8.9560    0.0000 </r>
       <r>    8.9560    0.0000 </r>
       <r>    9.4855    0.0000 </r>
       <r>    9.5069    0.0000 </r>
      </set>
      <set comment="kpoint 3">
       <r>  -21.3081    1.0000 </r>
       <r>  -21.3078    1.0000 </r>
       <r>  -21.3075    1.0000 </r>
       <r>  -21.3006    1.0000 </r>
       <r>  -21.2999    1.0000 </r>
       <r>  -21.2998    1.0000 </r>
       <r>  -21.2997    1.0000 </r>
       <r>  -21.2996    1.0000 </r>
       <r>  -21.2968    1.0000 </r>
       <r>  -21.2967    1.0000 </r>
       <r>  -21.2951    1.0000 </r>
       <r>  -21.2935    1.0000 </r>
       <r>  -21.2931    1.0000 </r>
       <r>  -21.2923    1.0000 </r>
       <r>  -21.2919    1.0000 </r>
       <r>  -21.2915    1.0000 </r>
       <r>  -21.2913    1.0000 </r>
       <r>  -21.2911    1.0000 </r>
       <r>  -21.2910    1.0000 </r>
       <r>  -21.2908    1.0000 </r>
       <r>  -21.2903    1.0000 </r>
       <r>  -21.2896    1.0000 </r>
       <r>  -21.2895    1.0000 </r>
       <r>  -21.2893    1.0000 </r>
       <r>  -21.2888    1.0000 </r>
       <r>  -21.2884    1.0000 </r>
       <r>  -21.2882    1.0000 </r>
       <r>  -21.2879    1.0000 </r>
       <r>  -21.2869    1.0000 </r>
       <r>  -21.2868    1.0000 </r>
       <r>  -21.2867    1.0000 </r>
       <r>  -21.2849    1.0000 </r>
       <r>  -21.2847    1.0000 </r>
       <r>  -21.2844    1.0000 </r>
       <r>  -21.2841    1.0000 </r>
       <r>  -21.2841    1.0000 </r>
       <r>  -21.2837    1.0000 </r>
       <r>  -21.2833    1.0000 </r>
       <r>  -21.2829    1.0000 </r>
       <r>  -21.2825    1.0000 </r>
       <r>  -21.2816    1.0000 </r>
       <r>  -21.2809    1.0000 </r>
       <r>  -21.2808    1.0000 </r>
       <r>  -21.2807    1.0000 </r>
       <r>  -21.2807    1.0000 </r>
       <r>  -21.2804    1.0000 </r>
       <r>  -21.2797    1.0000 </r>
       <r>  -21.2793    1.0000 </r>
       <r>  -21.2790    1.0000 </r>
       <r>  -21.2789    1.0000 </r>
       <r>  -21.2783    1.0000 </r>
       <r>  -21.2782    1.0000 </r>
       <r>  -21.2780    1.0000 </r>
       <r>  -21.2776    1.0000 </r>
       <r>  -21.2775    1.0000 </r>
       <r>  -21.2773    1.0000 </r>
       <r>  -21.2771    1.0000 </r>
       <r>  -21.2768    1.0000 </r>
       <r>  -21.2764    1.0000 </r>
       <r>  -21.2763    1.0000 </r>
       <r>  -21.2762    1.0000 </r>
       <r>  -21.2760    1.0000 </r>
       <r>  -21.2759    1.0000 </r>
       <r>  -21.2754    1.0000 </r>
       <r>  -21.2750    1.0000 </r>
       <r>  -21.2748    1.0000 </r>
       <r>  -21.2748    1.0000 </r>
       <r>  -21.2746    1.0000 </r>
       <r>  -21.2741    1.0000 </r>
       <r>  -21.2741    1.0000 </r>
       <r>  -21.2736    1.0000 </r>
       <r>  -21.2735    1.0000 </r>
       <r>  -21.2732    1.0000 </r>
       <r>  -21.2726    1.0000 </r>
       <r>  -21.2724    1.0000 </r>
       <r>  -21.2722    1.0000 </r>
       <r>  -21.2718    1.0000 </r>
       <r>  -21.2716    1.0000 </r>
       <r>  -21.2715    1.0000 </r>
       <r>  -21.2714    1.0000 </r>
       <r>  -21.2713    1.0000 </r>
       <r>  -21.2708    1.0000 </r>
       <r>  -21.2707    1.0000 </r>
       <r>  -21.2707    1.0000 </r>
       <r>  -21.2702    1.0000 </r>
       <r>  -21.2701    1.0000 </r>
       <r>  -21.2699    1.0000 </r>
       <r>  -21.2696    1.0000 </r>
       <r>  -21.2693    1.0000 </r>
       <r>  -21.2689    1.0000 </r>
       <r>  -21.2687    1.0000 </r>
       <r>  -21.2685    1.0000 </r>
       <r>  -21.2682    1.0000 </r>
       <r>  -21.2556    1.0000 </r>
       <r>  -21.2555    1.0000 </r>
       <r>  -21.2554    1.0000 </r>
       <r>  -13.2916    1.0000 </r>
       <r>  -13.2912    1.0000 </r>
       <r>  -13.1043    1.0000 </r>
       <r>  -13.0983    1.0000 </r>
       <r>  -13.0971    1.0000 </r>
       <r>  -13.0969    1.0000 </r>
       <r>  -13.0969    1.0000 </r>
       <r>  -13.0968    1.0000 </r>
       <r>  -13.0954    1.0000 </r>
       <r>  -13.0914    1.0000 </r>
       <r>  -13.0063    1.0000 </r>
       <r>  -13.0011    1.0000 </r>
       <r>  -13.0010    1.0000 </r>
       <r>  -13.0009    1.0000 </r>
       <r>  -13.0007    1.0000 </r>
       <r>  -13.0006    1.0000 </r>
       <r>  -13.0006    1.0000 </r>
       <r>  -13.0004    1.0000 </r>
       <r>  -12.9952    1.0000 </r>
       <r>  -12.9922    1.0000 </r>
       <r>  -12.9496    1.0000 </r>
       <r>  -12.9454    1.0000 </r>
       <r>  -12.9453    1.0000 </r>
       <r>  -12.9439    1.0000 </r>
       <r>  -12.9437    1.0000 </r>
       <r>  -12.9432    1.0000 </r>
       <r>  -12.9423    1.0000 </r>
       <r>  -12.9378    1.0000 </r>
       <r>  -12.9311    1.0000 </r>
       <r>  -12.9307    1.0000 </r>
       <r>  -12.9305    1.0000 </r>
       <r>  -12.9252    1.0000 </r>
       <r>   -2.5052    1.0000 </r>
       <r>   -2.5051    1.0000 </r>
       <r>   -2.5048    1.0000 </r>
       <r>   -2.5043    1.0000 </r>
       <r>   -2.5043    1.0000 </r>
       <r>   -2.5041    1.0000 </r>
       <r>   -2.5038    1.0000 </r>
       <r>   -2.5036    1.0000 </r>
       <r>   -2.2877    1.0000 </r>
       <r>   -2.2877    1.0000 </r>
       <r>   -2.2877    1.0000 </r>
       <r>   -2.2876    1.0000 </r>
       <r>   -2.2742    1.0000 </r>
       <r>   -2.2741    1.0000 </r>
       <r>   -2.1409    1.0000 </r>
       <r>   -2.1368    1.0000 </r>
       <r>   -2.1367    1.0000 </r>
       <r>   -2.1364    1.0000 </r>
       <r>   -2.1364    1.0000 </r>
       <r>   -2.1363    1.0000 </r>
       <r>   -2.1360    1.0000 </r>
       <r>   -2.1317    1.0000 </r>
       <r>   -1.9868    1.0000 </r>
       <r>   -1.9867    1.0000 </r>
       <r>   -1.9857    1.0000 </r>
       <r>   -1.9856    1.0000 </r>
       <r>   -1.9855    1.0000 </r>
       <r>   -1.9854    1.0000 </r>
       <r>   -1.9841    1.0000 </r>
       <r>   -1.9840    1.0000 </r>
       <r>   -1.8120    1.0000 </r>
       <r>   -1.8097    1.0000 </r>
       <r>   -1.8089    1.0000 </r>
       <r>   -1.8088    1.0000 </r>
       <r>   -1.8087    1.0000 </r>
       <r>   -1.8086    1.0000 </r>
       <r>   -1.8085    1.0000 </r>
       <r>   -1.8046    1.0000 </r>
       <r>   -1.4979    1.0000 </r>
       <r>   -1.4978    1.0000 </r>
       <r>   -1.4978    1.0000 </r>
       <r>   -1.4977    1.0000 </r>
       <r>   -1.3807    1.0000 </r>
       <r>   -1.3805    1.0000 </r>
       <r>   -1.3804    1.0000 </r>
       <r>   -1.3804    1.0000 </r>
       <r>   -1.2142    1.0000 </r>
       <r>   -1.2126    1.0000 </r>
       <r>   -1.2125    1.0000 </r>
       <r>   -1.2123    1.0000 </r>
       <r>   -1.1935    1.0000 </r>
       <r>   -1.1926    1.0000 </r>
       <r>   -1.1925    1.0000 </r>
       <r>   -1.1917    1.0000 </r>
       <r>   -1.1916    1.0000 </r>
       <r>   -1.1908    1.0000 </r>
       <r>   -1.1898    1.0000 </r>
       <r>   -1.1887    1.0000 </r>
       <r>   -1.1762    1.0000 </r>
       <r>   -1.1749    1.0000 </r>
       <r>   -1.1747    1.0000 </r>
       <r>   -1.1743    1.0000 </r>
       <r>   -1.1741    1.0000 </r>
       <r>   -1.1736    1.0000 </r>
       <r>   -1.1732    1.0000 </r>
       <r>   -1.1719    1.0000 </r>
       <r>   -1.1618    1.0000 </r>
       <r>   -1.1604    1.0000 </r>
       <r>   -1.1599    1.0000 </r>
       <r>   -1.1596    1.0000 </r>
       <r>   -1.1596    1.0000 </r>
       <r>   -1.1588    1.0000 </r>
       <r>   -1.1575    1.0000 </r>
       <r>   -1.1558    1.0000 </r>
       <r>   -1.0833    1.0000 </r>
       <r>   -1.0831    1.0000 </r>
       <r>   -0.9482    1.0000 </r>
       <r>   -0.9474    1.0000 </r>
       <r>   -0.9469    1.0000 </r>
       <r>   -0.9469    1.0000 </r>
       <r>   -0.9468    1.0000 </r>
       <r>   -0.9468    1.0000 </r>
       <r>   -0.9467    1.0000 </r>
       <r>   -0.9452    1.0000 </r>
       <r>   -0.9369    1.0000 </r>
       <r>   -0.9339    1.0000 </r>
       <r>   -0.9332    1.0000 </r>
       <r>   -0.9323    1.0000 </r>
       <r>   -0.9323    1.0000 </r>
       <r>   -0.9317    1.0000 </r>
       <r>   -0.9307    1.0000 </r>
       <r>   -0.9265    1.0000 </r>
       <r>   -0.7684    1.0000 </r>
       <r>   -0.7683    1.0000 </r>
       <r>   -0.7680    1.0000 </r>
       <r>   -0.7679    1.0000 </r>
       <r>    5.0223    0.0000 </r>
       <r>    5.0224    0.0000 </r>
       <r>    6.7099    0.0000 </r>
       <r>    6.7166    0.0000 </r>
       <r>    6.7166    0.0000 </r>
       <r>    6.7177    0.0000 </r>
       <r>    6.7179    0.0000 </r>
       <r>    6.7183    0.0000 </r>
       <r>    6.7204    0.0000 </r>
       <r>    6.7272    0.0000 </r>
       <r>    6.8397    0.0000 </r>
       <r>    6.8406    0.0000 </r>
       <r>    6.8424    0.0000 </r>
       <r>    6.8425    0.0000 </r>
       <r>    6.8439    0.0000 </r>
       <r>    6.8441    0.0000 </r>
       <r>    6.8463    0.0000 </r>
       <r>    6.8469    0.0000 </r>
       <r>    6.9711    0.0000 </r>
       <r>    6.9712    0.0000 </r>
       <r>    7.3625    0.0000 </r>
       <r>    7.3625    0.0000 </r>
       <r>    7.3626    0.0000 </r>
       <r>    7.3627    0.0000 </r>
       <r>    7.4802    0.0000 </r>
       <r>    7.4803    0.0000 </r>
       <r>    7.7146    0.0000 </r>
       <r>    7.7146    0.0000 </r>
       <r>    7.7146    0.0000 </r>
       <r>    7.7146    0.0000 </r>
       <r>    8.2608    0.0000 </r>
       <r>    8.2641    0.0000 </r>
       <r>    8.2644    0.0000 </r>
       <r>    8.2657    0.0000 </r>
       <r>    8.2658    0.0000 </r>
       <r>    8.2660    0.0000 </r>
       <r>    8.2675    0.0000 </r>
       <r>    8.2728    0.0000 </r>
       <r>    8.5275    0.0000 </r>
       <r>    8.5328    0.0000 </r>
       <r>    8.5344    0.0000 </r>
       <r>    8.5353    0.0000 </r>
       <r>    8.5370    0.0000 </r>
       <r>    8.5372    0.0000 </r>
       <r>    8.5372    0.0000 </r>
       <r>    8.5377    0.0000 </r>
       <r>    8.5383    0.0000 </r>
       <r>    8.5384    0.0000 </r>
       <r>    8.5385    0.0000 </r>
       <r>    8.5385    0.0000 </r>
       <r>    8.5433    0.0000 </r>
       <r>    8.5448    0.0000 </r>
       <r>    8.5454    0.0000 </r>
       <r>    8.5497    0.0000 </r>
       <r>    8.9435    0.0000 </r>
       <r>    8.9475    0.0000 </r>
       <r>    8.9499    0.0000 </r>
       <r>    8.9509    0.0000 </r>
       <r>    8.9509    0.0000 </r>
       <r>    8.9513    0.0000 </r>
       <r>    8.9515    0.0000 </r>
       <r>    8.9619    0.0000 </r>
       <r>    9.4889    0.0000 </r>
       <r>    9.4982    0.0000 </r>
      </set>
      <set comment="kpoint 4">
       <r>  -21.3078    1.0000 </r>
       <r>  -21.3074    1.0000 </r>
       <r>  -21.3073    1.0000 </r>
       <r>  -21.2994    1.0000 </r>
       <r>  -21.2982    1.0000 </r>
       <r>  -21.2979    1.0000 </r>
       <r>  -21.2975    1.0000 </r>
       <r>  -21.2973    1.0000 </r>
       <r>  -21.2962    1.0000 </r>
       <r>  -21.2958    1.0000 </r>
       <r>  -21.2953    1.0000 </r>
       <r>  -21.2941    1.0000 </r>
       <r>  -21.2938    1.0000 </r>
       <r>  -21.2937    1.0000 </r>
       <r>  -21.2932    1.0000 </r>
       <r>  -21.2929    1.0000 </r>
       <r>  -21.2928    1.0000 </r>
       <r>  -21.2928    1.0000 </r>
       <r>  -21.2924    1.0000 </r>
       <r>  -21.2921    1.0000 </r>
       <r>  -21.2920    1.0000 </r>
       <r>  -21.2917    1.0000 </r>
       <r>  -21.2914    1.0000 </r>
       <r>  -21.2906    1.0000 </r>
       <r>  -21.2903    1.0000 </r>
       <r>  -21.2894    1.0000 </r>
       <r>  -21.2885    1.0000 </r>
       <r>  -21.2884    1.0000 </r>
       <r>  -21.2875    1.0000 </r>
       <r>  -21.2870    1.0000 </r>
       <r>  -21.2862    1.0000 </r>
       <r>  -21.2858    1.0000 </r>
       <r>  -21.2845    1.0000 </r>
       <r>  -21.2842    1.0000 </r>
       <r>  -21.2841    1.0000 </r>
       <r>  -21.2820    1.0000 </r>
       <r>  -21.2817    1.0000 </r>
       <r>  -21.2816    1.0000 </r>
       <r>  -21.2809    1.0000 </r>
       <r>  -21.2806    1.0000 </r>
       <r>  -21.2806    1.0000 </r>
       <r>  -21.2804    1.0000 </r>
       <r>  -21.2803    1.0000 </r>
       <r>  -21.2802    1.0000 </r>
       <r>  -21.2795    1.0000 </r>
       <r>  -21.2794    1.0000 </r>
       <r>  -21.2793    1.0000 </r>
       <r>  -21.2791    1.0000 </r>
       <r>  -21.2788    1.0000 </r>
       <r>  -21.2786    1.0000 </r>
       <r>  -21.2782    1.0000 </r>
       <r>  -21.2781    1.0000 </r>
       <r>  -21.2779    1.0000 </r>
       <r>  -21.2778    1.0000 </r>
       <r>  -21.2776    1.0000 </r>
       <r>  -21.2775    1.0000 </r>
       <r>  -21.2775    1.0000 </r>
       <r>  -21.2771    1.0000 </r>
       <r>  -21.2769    1.0000 </r>
       <r>  -21.2766    1.0000 </r>
[...]
      </set>
     </set>
    </set>
   </array>
  </eigenvalues>
  <separator name="orbital magnetization" >
   <v name="MAGDIPOLOUT">      0.00000000      0.00000000      0.00000000</v>
  </separator>
  <dos>
   <i name="efermi">     -0.56220099 </i>
   <total>
    <array>
     <dimension dim="1">gridpoints</dimension>
     <dimension dim="2">spin</dimension>
     <field>energy</field>
     <field>total</field>
     <field>integrated</field>
     <set>
      <set comment="spin 1">
       <r>   -22.8497     0.0000     0.0000 </r>
       <r>   -22.7367     0.0000     0.0000 </r>
       <r>   -22.6238     0.0000     0.0000 </r>
       <r>   -22.5108     0.0000     0.0000 </r>
       <r>   -22.3978     0.0000     0.0000 </r>
       <r>   -22.2848     0.0000     0.0000 </r>
       <r>   -22.1718     0.0000     0.0000 </r>
       <r>   -22.0588     0.0000     0.0000 </r>
       <r>   -21.9458     0.0000     0.0000 </r>
       <r>   -21.8328     0.0000     0.0000 </r>
       <r>   -21.7198     0.0000     0.0000 </r>
       <r>   -21.6068     0.0000     0.0000 </r>
       <r>   -21.4938     0.0000     0.0000 </r>
       <r>   -21.3808     0.0000     0.0000 </r>
       <r>   -21.2679  1310.4919   148.0742 </r>
       <r>   -21.1549   388.7539   192.0000 </r>
       <r>   -21.0419     0.0000   192.0000 </r>
       <r>   -20.9289     0.0000   192.0000 </r>
       <r>   -20.8159     0.0000   192.0000 </r>
       <r>   -20.7029     0.0000   192.0000 </r>
       <r>   -20.5899     0.0000   192.0000 </r>
       <r>   -20.4769     0.0000   192.0000 </r>
       <r>   -20.3639     0.0000   192.0000 </r>
       <r>   -20.2509     0.0000   192.0000 </r>
       <r>   -20.1379     0.0000   192.0000 </r>
       <r>   -20.0250     0.0000   192.0000 </r>
       <r>   -19.9120     0.0000   192.0000 </r>
       <r>   -19.7990     0.0000   192.0000 </r>
       <r>   -19.6860     0.0000   192.0000 </r>
       <r>   -19.5730     0.0000   192.0000 </r>
       <r>   -19.4600     0.0000   192.0000 </r>
       <r>   -19.3470     0.0000   192.0000 </r>
       <r>   -19.2340     0.0000   192.0000 </r>
       <r>   -19.1210     0.0000   192.0000 </r>
       <r>   -19.0080     0.0000   192.0000 </r>
       <r>   -18.8950     0.0000   192.0000 </r>
       <r>   -18.7820     0.0000   192.0000 </r>
       <r>   -18.6691     0.0000   192.0000 </r>
       <r>   -18.5561     0.0000   192.0000 </r>
       <r>   -18.4431     0.0000   192.0000 </r>
       <r>   -18.3301     0.0000   192.0000 </r>
       <r>   -18.2171     0.0000   192.0000 </r>
       <r>   -18.1041     0.0000   192.0000 </r>
       <r>   -17.9911     0.0000   192.0000 </r>
       <r>   -17.8781     0.0000   192.0000 </r>
       <r>   -17.7651     0.0000   192.0000 </r>
       <r>   -17.6521     0.0000   192.0000 </r>
       <r>   -17.5391     0.0000   192.0000 </r>
       <r>   -17.4262     0.0000   192.0000 </r>
       <r>   -17.3132     0.0000   192.0000 </r>
       <r>   -17.2002     0.0000   192.0000 </r>
       <r>   -17.0872     0.0000   192.0000 </r>
       <r>   -16.9742     0.0000   192.0000 </r>
       <r>   -16.8612     0.0000   192.0000 </r>
       <r>   -16.7482     0.0000   192.0000 </r>
       <r>   -16.6352     0.0000   192.0000 </r>
       <r>   -16.5222     0.0000   192.0000 </r>
       <r>   -16.4092     0.0000   192.0000 </r>
       <r>   -16.2962     0.0000   192.0000 </r>
       <r>   -16.1832     0.0000   192.0000 </r>
       <r>   -16.0703     0.0000   192.0000 </r>
       <r>   -15.9573     0.0000   192.0000 </r>
       <r>   -15.8443     0.0000   192.0000 </r>
       <r>   -15.7313     0.0000   192.0000 </r>
       <r>   -15.6183     0.0000   192.0000 </r>
       <r>   -15.5053     0.0000   192.0000 </r>
       <r>   -15.3923     0.0000   192.0000 </r>
       <r>   -15.2793     0.0000   192.0000 </r>
       <r>   -15.1663     0.0000   192.0000 </r>
       <r>   -15.0533     0.0000   192.0000 </r>
       <r>   -14.9403     0.0000   192.0000 </r>
       <r>   -14.8274     0.0000   192.0000 </r>
       <r>   -14.7144     0.0000   192.0000 </r>
       <r>   -14.6014     0.0000   192.0000 </r>
       <r>   -14.4884     0.0000   192.0000 </r>
       <r>   -14.3754     0.0000   192.0000 </r>
       <r>   -14.2624     0.0000   192.0000 </r>
       <r>   -14.1494     0.0000   192.0000 </r>
       <r>   -14.0364     0.0000   192.0000 </r>
       <r>   -13.9234     0.0000   192.0000 </r>
       <r>   -13.8104     0.0000   192.0000 </r>
       <r>   -13.6974     0.0000   192.0000 </r>
       <r>   -13.5844     0.0000   192.0000 </r>
       <r>   -13.4715     0.0000   192.0000 </r>
       <r>   -13.3585     1.0828   192.1223 </r>
       <r>   -13.2455    18.9662   194.2654 </r>
       <r>   -13.1325    48.5732   199.7538 </r>
       <r>   -13.0195   124.7516   213.8498 </r>
       <r>   -12.9065   367.5183   255.3766 </r>
       <r>   -12.7935     5.5065   256.0000 </r>
       <r>   -12.6805     0.0000   256.0000 </r>
       <r>   -12.5675     0.0000   256.0000 </r>
       <r>   -12.4545     0.0000   256.0000 </r>
       <r>   -12.3415     0.0000   256.0000 </r>
       <r>   -12.2286     0.0000   256.0000 </r>
       <r>   -12.1156     0.0000   256.0000 </r>
       <r>   -12.0026     0.0000   256.0000 </r>
       <r>   -11.8896     0.0000   256.0000 </r>
       <r>   -11.7766     0.0000   256.0000 </r>
       <r>   -11.6636     0.0000   256.0000 </r>
       <r>   -11.5506     0.0000   256.0000 </r>
       <r>   -11.4376     0.0000   256.0000 </r>
       <r>   -11.3246     0.0000   256.0000 </r>
       <r>   -11.2116     0.0000   256.0000 </r>
       <r>   -11.0986     0.0000   256.0000 </r>
       <r>   -10.9856     0.0000   256.0000 </r>
       <r>   -10.8727     0.0000   256.0000 </r>
       <r>   -10.7597     0.0000   256.0000 </r>
       <r>   -10.6467     0.0000   256.0000 </r>
       <r>   -10.5337     0.0000   256.0000 </r>
       <r>   -10.4207     0.0000   256.0000 </r>
       <r>   -10.3077     0.0000   256.0000 </r>
       <r>   -10.1947     0.0000   256.0000 </r>
       <r>   -10.0817     0.0000   256.0000 </r>
       <r>    -9.9687     0.0000   256.0000 </r>
       <r>    -9.8557     0.0000   256.0000 </r>
       <r>    -9.7427     0.0000   256.0000 </r>
       <r>    -9.6298     0.0000   256.0000 </r>
       <r>    -9.5168     0.0000   256.0000 </r>
       <r>    -9.4038     0.0000   256.0000 </r>
       <r>    -9.2908     0.0000   256.0000 </r>
       <r>    -9.1778     0.0000   256.0000 </r>
       <r>    -9.0648     0.0000   256.0000 </r>
       <r>    -8.9518     0.0000   256.0000 </r>
       <r>    -8.8388     0.0000   256.0000 </r>
       <r>    -8.7258     0.0000   256.0000 </r>
       <r>    -8.6128     0.0000   256.0000 </r>
       <r>    -8.4998     0.0000   256.0000 </r>
       <r>    -8.3868     0.0000   256.0000 </r>
       <r>    -8.2739     0.0000   256.0000 </r>
       <r>    -8.1609     0.0000   256.0000 </r>
       <r>    -8.0479     0.0000   256.0000 </r>
       <r>    -7.9349     0.0000   256.0000 </r>
       <r>    -7.8219     0.0000   256.0000 </r>
       <r>    -7.7089     0.0000   256.0000 </r>
       <r>    -7.5959     0.0000   256.0000 </r>
       <r>    -7.4829     0.0000   256.0000 </r>
       <r>    -7.3699     0.0000   256.0000 </r>
       <r>    -7.2569     0.0000   256.0000 </r>
       <r>    -7.1439     0.0000   256.0000 </r>
       <r>    -7.0310     0.0000   256.0000 </r>
       <r>    -6.9180     0.0000   256.0000 </r>
       <r>    -6.8050     0.0000   256.0000 </r>
       <r>    -6.6920     0.0000   256.0000 </r>
       <r>    -6.5790     0.0000   256.0000 </r>
       <r>    -6.4660     0.0000   256.0000 </r>
       <r>    -6.3530     0.0000   256.0000 </r>
       <r>    -6.2400     0.0000   256.0000 </r>
       <r>    -6.1270     0.0000   256.0000 </r>
       <r>    -6.0140     0.0000   256.0000 </r>
       <r>    -5.9010     0.0000   256.0000 </r>
       <r>    -5.7880     0.0000   256.0000 </r>
       <r>    -5.6751     0.0000   256.0000 </r>
       <r>    -5.5621     0.0000   256.0000 </r>
       <r>    -5.4491     0.0000   256.0000 </r>
       <r>    -5.3361     0.0000   256.0000 </r>
       <r>    -5.2231     0.0000   256.0000 </r>
       <r>    -5.1101     0.0000   256.0000 </r>
       <r>    -4.9971     0.0000   256.0000 </r>
       <r>    -4.8841     0.0000   256.0000 </r>
       <r>    -4.7711     0.0000   256.0000 </r>
       <r>    -4.6581     0.0000   256.0000 </r>
       <r>    -4.5451     0.0000   256.0000 </r>
       <r>    -4.4322     0.0000   256.0000 </r>
       <r>    -4.3192     0.0000   256.0000 </r>
       <r>    -4.2062     0.0000   256.0000 </r>
       <r>    -4.0932     0.0000   256.0000 </r>
       <r>    -3.9802     0.0000   256.0000 </r>
       <r>    -3.8672     0.0000   256.0000 </r>
       <r>    -3.7542     0.0000   256.0000 </r>
       <r>    -3.6412     0.0000   256.0000 </r>
       <r>    -3.5282     0.0000   256.0000 </r>
       <r>    -3.4152     0.0000   256.0000 </r>
       <r>    -3.3022     0.0000   256.0000 </r>
       <r>    -3.1892     0.0000   256.0000 </r>
       <r>    -3.0763     0.0000   256.0000 </r>
       <r>    -2.9633     0.0000   256.0000 </r>
       <r>    -2.8503     0.0000   256.0000 </r>
       <r>    -2.7373     0.0372   256.0042 </r>
       <r>    -2.6243     8.8131   257.0000 </r>
       <r>    -2.5113    16.6873   258.8855 </r>
       <r>    -2.3983    87.8834   268.8156 </r>
       <r>    -2.2853    79.6817   277.8189 </r>
       <r>    -2.1723   157.7819   295.6470 </r>
       <r>    -2.0593    76.1384   304.2500 </r>
       <r>    -1.9463    54.6733   310.4276 </r>
       <r>    -1.8334    56.0295   316.7585 </r>
       <r>    -1.7204    79.5773   325.7500 </r>
       <r>    -1.6074     0.0000   325.7500 </r>
       <r>    -1.4944    51.5704   331.5770 </r>
       <r>    -1.3814   209.7306   355.2747 </r>
       <r>    -1.2684    30.4414   358.7143 </r>
       <r>    -1.1554   240.5498   385.8944 </r>
       <r>    -1.0424   147.1168   402.5174 </r>
       <r>    -0.9294   247.1920   430.4480 </r>
       <r>    -0.8164    71.8087   438.5622 </r>
       <r>    -0.7034    76.7401   447.2331 </r>
       <r>    -0.5904     6.7868   448.0000 </r>
       <r>    -0.4775     0.0000   448.0000 </r>
       <r>    -0.3645     0.0000   448.0000 </r>
       <r>    -0.2515     0.0000   448.0000 </r>
       <r>    -0.1385     0.0000   448.0000 </r>
       <r>    -0.0255     0.0000   448.0000 </r>
       <r>     0.0875     0.0000   448.0000 </r>
       <r>     0.2005     0.0000   448.0000 </r>
       <r>     0.3135     0.0000   448.0000 </r>
       <r>     0.4265     0.0000   448.0000 </r>
       <r>     0.5395     0.0000   448.0000 </r>
       <r>     0.6525     0.0000   448.0000 </r>
       <r>     0.7654     0.0000   448.0000 </r>
       <r>     0.8784     0.0000   448.0000 </r>
       <r>     0.9914     0.0000   448.0000 </r>
       <r>     1.1044     0.0000   448.0000 </r>
       <r>     1.2174     0.0000   448.0000 </r>
       <r>     1.3304     0.0000   448.0000 </r>
       <r>     1.4434     0.0000   448.0000 </r>
       <r>     1.5564     0.0000   448.0000 </r>
       <r>     1.6694     0.0000   448.0000 </r>
       <r>     1.7824     0.0000   448.0000 </r>
       <r>     1.8954     0.0000   448.0000 </r>
       <r>     2.0084     0.0000   448.0000 </r>
       <r>     2.1213     0.0000   448.0000 </r>
       <r>     2.2343     0.0000   448.0000 </r>
       <r>     2.3473     0.0000   448.0000 </r>
       <r>     2.4603     0.0000   448.0000 </r>
       <r>     2.5733     0.0000   448.0000 </r>
       <r>     2.6863     0.0000   448.0000 </r>
       <r>     2.7993     0.0000   448.0000 </r>
       <r>     2.9123     0.0000   448.0000 </r>
       <r>     3.0253     0.0000   448.0000 </r>
       <r>     3.1383     0.0000   448.0000 </r>
       <r>     3.2513     0.0000   448.0000 </r>
       <r>     3.3642     0.0000   448.0000 </r>
       <r>     3.4772     0.0000   448.0000 </r>
       <r>     3.5902     0.0000   448.0000 </r>
       <r>     3.7032     0.0000   448.0000 </r>
       <r>     3.8162     0.0000   448.0000 </r>
       <r>     3.9292     0.0000   448.0000 </r>
       <r>     4.0422     0.0000   448.0000 </r>
       <r>     4.1552     0.0000   448.0000 </r>
       <r>     4.2682     0.0000   448.0000 </r>
       <r>     4.3812     2.2083   448.2495 </r>
       <r>     4.4942     0.0043   448.2500 </r>
       <r>     4.6072     0.0000   448.2500 </r>
       <r>     4.7201     0.0000   448.2500 </r>
       <r>     4.8331     0.0000   448.2500 </r>
       <r>     4.9461     0.0000   448.2500 </r>
       <r>     5.0591    13.2073   449.7423 </r>
       <r>     5.1721     0.0681   449.7500 </r>
       <r>     5.2851     0.0000   449.7500 </r>
       <r>     5.3981     0.0000   449.7500 </r>
       <r>     5.5111     0.7052   449.8297 </r>
       <r>     5.6241    25.8455   452.7500 </r>
       <r>     5.7371     0.0000   452.7500 </r>
       <r>     5.8501    15.7895   454.5341 </r>
       <r>     5.9630     1.9110   454.7500 </r>
       <r>     6.0760     0.0000   454.7500 </r>
       <r>     6.1890     0.0000   454.7500 </r>
       <r>     6.3020     0.0000   454.7500 </r>
       <r>     6.4150    13.4231   456.2667 </r>
       <r>     6.5280     8.6994   457.2500 </r>
       <r>     6.6410    29.3447   460.5657 </r>
       <r>     6.7540    76.4273   469.2013 </r>
       <r>     6.8670    57.4369   475.6912 </r>
       <r>     6.9800    12.4403   477.0968 </r>
       <r>     7.0930     3.5681   477.5000 </r>
       <r>     7.2060     3.1532   477.8563 </r>
       <r>     7.3189     3.5183   478.2538 </r>
       <r>     7.4319    79.2589   487.2094 </r>
       <r>     7.5449   163.3766   505.6696 </r>
       <r>     7.6579     9.5615   506.7501 </r>
       <r>     7.7709    26.5484   509.7499 </r>
       <r>     7.8839     0.0169   509.7519 </r>
       <r>     7.9969    53.0837   515.7499 </r>
       <r>     8.1099     0.0004   515.7500 </r>
       <r>     8.2229    13.3688   517.2606 </r>
       <r>     8.3359    92.7186   527.7371 </r>
       <r>     8.4489     0.1133   527.7500 </r>
       <r>     8.5618   132.0447   542.6699 </r>
       <r>     8.6748    27.2596   545.7500 </r>
       <r>     8.7878     0.0000   545.7500 </r>
       <r>     8.9008    67.0598   553.3272 </r>
       <r>     9.0138   130.1049   568.0279 </r>
       <r>     9.1268    13.0277   569.5000 </r>
       <r>     9.2398    12.5891   570.9225 </r>
       <r>     9.3528    31.6621   574.5000 </r>
       <r>     9.4658     0.4584   574.5518 </r>
       <r>     9.5788    12.8169   576.0000 </r>
       <r>     9.6918     0.0000   576.0000 </r>
       <r>     9.8048     0.0000   576.0000 </r>
       <r>     9.9177     0.0000   576.0000 </r>
       <r>    10.0307     0.0000   576.0000 </r>
       <r>    10.1437     0.0000   576.0000 </r>
       <r>    10.2567     0.0000   576.0000 </r>
       <r>    10.3697     0.0000   576.0000 </r>
       <r>    10.4827     0.0000   576.0000 </r>
       <r>    10.5957     0.0000   576.0000 </r>
       <r>    10.7087     0.0000   576.0000 </r>
       <r>    10.8217     0.0000   576.0000 </r>
       <r>    10.9347     0.0000   576.0000 </r>
       <r>    11.0477     0.0000   576.0000 </r>
      </set>
     </set>
    </array>
   </total>
  </dos>
 </calculation>
 <structure name="finalpos" >
  <crystal>
   <varray name="basis" >
    <v>      11.20400236       0.00000000       0.00000000 </v>
    <v>       0.00000000      11.20400236       0.00000000 </v>
    <v>       0.00000000       0.00000000      11.20400236 </v>
   </varray>
   <i name="volume">   1406.43470641 </i>
   <varray name="rec_basis" >
    <v>       0.08925382       0.00000000       0.00000000 </v>
    <v>       0.00000000       0.08925382       0.00000000 </v>
    <v>       0.00000000       0.00000000       0.08925382 </v>
   </varray>
  </crystal>
  <varray name="positions" >
   <v>       0.99732239       0.00000000       0.00000000 </v>
   <v>       0.25000000       0.25000000       0.00000000 </v>
   <v>       0.25000000       0.00000000       0.25000000 </v>
   <v>       0.00000000       0.25000000       0.25000000 </v>
   <v>       0.00000000       0.00000000       0.50000000 </v>
   <v>       0.25000000       0.25000000       0.50000000 </v>
   <v>       0.25000000       0.00000000       0.75000000 </v>
   <v>       0.00000000       0.25000000       0.75000000 </v>
   <v>       0.00000000       0.50000000       0.00000000 </v>
   <v>       0.25000000       0.75000000       0.00000000 </v>
   <v>       0.25000000       0.50000000       0.25000000 </v>
   <v>       0.00000000       0.75000000       0.25000000 </v>
   <v>       0.00000000       0.50000000       0.50000000 </v>
   <v>       0.25000000       0.75000000       0.50000000 </v>
   <v>       0.25000000       0.50000000       0.75000000 </v>
   <v>       0.00000000       0.75000000       0.75000000 </v>
   <v>       0.50000000       0.00000000       0.00000000 </v>
   <v>       0.75000000       0.25000000       0.00000000 </v>
   <v>       0.75000000       0.00000000       0.25000000 </v>
   <v>       0.50000000       0.25000000       0.25000000 </v>
   <v>       0.50000000       0.00000000       0.50000000 </v>
   <v>       0.75000000       0.25000000       0.50000000 </v>
   <v>       0.75000000       0.00000000       0.75000000 </v>
   <v>       0.50000000       0.25000000       0.75000000 </v>
   <v>       0.50000000       0.50000000       0.00000000 </v>
   <v>       0.75000000       0.75000000       0.00000000 </v>
   <v>       0.75000000       0.50000000       0.25000000 </v>
   <v>       0.50000000       0.75000000       0.25000000 </v>
   <v>       0.50000000       0.50000000       0.50000000 </v>
   <v>       0.75000000       0.75000000       0.50000000 </v>
   <v>       0.75000000       0.50000000       0.75000000 </v>
   <v>       0.50000000       0.75000000       0.75000000 </v>
   <v>       0.25000000       0.25000000       0.25000000 </v>
   <v>       0.00000000       0.00000000       0.25000000 </v>
   <v>       0.00000000       0.25000000       0.00000000 </v>
   <v>       0.25267761       0.00000000       0.00000000 </v>
   <v>       0.25000000       0.25000000       0.75000000 </v>
   <v>       0.00000000       0.00000000       0.75000000 </v>
   <v>       0.00000000       0.25000000       0.50000000 </v>
   <v>       0.25000000       0.00000000       0.50000000 </v>
   <v>       0.25000000       0.75000000       0.25000000 </v>
   <v>       0.00000000       0.50000000       0.25000000 </v>
   <v>       0.00000000       0.75000000       0.00000000 </v>
   <v>       0.25000000       0.50000000       0.00000000 </v>
   <v>       0.25000000       0.75000000       0.75000000 </v>
   <v>       0.00000000       0.50000000       0.75000000 </v>
   <v>       0.00000000       0.75000000       0.50000000 </v>
   <v>       0.25000000       0.50000000       0.50000000 </v>
   <v>       0.75000000       0.25000000       0.25000000 </v>
   <v>       0.50000000       0.00000000       0.25000000 </v>
   <v>       0.50000000       0.25000000       0.00000000 </v>
   <v>       0.75000000       0.00000000       0.00000000 </v>
   <v>       0.75000000       0.25000000       0.75000000 </v>
   <v>       0.50000000       0.00000000       0.75000000 </v>
   <v>       0.50000000       0.25000000       0.50000000 </v>
   <v>       0.75000000       0.00000000       0.50000000 </v>
   <v>       0.75000000       0.75000000       0.25000000 </v>
   <v>       0.50000000       0.50000000       0.25000000 </v>
   <v>       0.50000000       0.75000000       0.00000000 </v>
   <v>       0.75000000       0.50000000       0.00000000 </v>
   <v>       0.75000000       0.75000000       0.75000000 </v>
   <v>       0.50000000       0.50000000       0.75000000 </v>
   <v>       0.50000000       0.75000000       0.50000000 </v>
   <v>       0.75000000       0.50000000       0.50000000 </v>
  </varray>
 </structure>
</modeling>
