  64  64   0   0
  0.2197554E+02  0.1120400E-08  0.1120400E-08  0.1120400E-08  0.5000000E-15
  1.000000000000000E-004
  CAR 
 unknown system                          
     11.05292494    -22.84605889  301     -0.55747702      1.00000000
    -22.846  0.0000E+00  0.0000E+00
    -22.733  0.0000E+00  0.0000E+00
    -22.620  0.0000E+00  0.0000E+00
    -22.507  0.0000E+00  0.0000E+00
    -22.394  0.0000E+00  0.0000E+00
    -22.281  0.0000E+00  0.0000E+00
    -22.168  0.0000E+00  0.0000E+00
    -22.055  0.0000E+00  0.0000E+00
    -21.942  0.0000E+00  0.0000E+00
    -21.829  0.0000E+00  0.0000E+00
    -21.716  0.0000E+00  0.0000E+00
    -21.603  0.0000E+00  0.0000E+00
    -21.490  0.0000E+00  0.0000E+00
    -21.377  0.4305E-05  0.4864E-06
    -21.264  0.1427E+04  0.1612E+03
    -21.151  0.2726E+03  0.1920E+03
    -21.038  0.0000E+00  0.1920E+03
    -20.925  0.0000E+00  0.1920E+03
    -20.812  0.0000E+00  0.1920E+03
    -20.699  0.0000E+00  0.1920E+03
    -20.586  0.0000E+00  0.1920E+03
    -20.473  0.0000E+00  0.1920E+03
    -20.360  0.0000E+00  0.1920E+03
    -20.247  0.0000E+00  0.1920E+03
    -20.134  0.0000E+00  0.1920E+03
    -20.021  0.0000E+00  0.1920E+03
    -19.908  0.0000E+00  0.1920E+03
    -19.795  0.0000E+00  0.1920E+03
    -19.682  0.0000E+00  0.1920E+03
    -19.569  0.0000E+00  0.1920E+03
    -19.456  0.0000E+00  0.1920E+03
    -19.343  0.0000E+00  0.1920E+03
    -19.230  0.0000E+00  0.1920E+03
    -19.117  0.0000E+00  0.1920E+03
    -19.004  0.0000E+00  0.1920E+03
    -18.891  0.0000E+00  0.1920E+03
    -18.778  0.0000E+00  0.1920E+03
    -18.665  0.0000E+00  0.1920E+03
    -18.552  0.0000E+00  0.1920E+03
    -18.439  0.0000E+00  0.1920E+03
    -18.326  0.0000E+00  0.1920E+03
    -18.213  0.0000E+00  0.1920E+03
    -18.100  0.0000E+00  0.1920E+03
    -17.987  0.0000E+00  0.1920E+03
    -17.874  0.0000E+00  0.1920E+03
    -17.761  0.0000E+00  0.1920E+03
    -17.648  0.0000E+00  0.1920E+03
    -17.535  0.0000E+00  0.1920E+03
    -17.422  0.0000E+00  0.1920E+03
    -17.309  0.0000E+00  0.1920E+03
    -17.196  0.0000E+00  0.1920E+03
    -17.083  0.0000E+00  0.1920E+03
    -16.970  0.0000E+00  0.1920E+03
    -16.857  0.0000E+00  0.1920E+03
    -16.744  0.0000E+00  0.1920E+03
    -16.631  0.0000E+00  0.1920E+03
    -16.518  0.0000E+00  0.1920E+03
    -16.405  0.0000E+00  0.1920E+03
    -16.292  0.0000E+00  0.1920E+03
    -16.179  0.0000E+00  0.1920E+03
    -16.066  0.0000E+00  0.1920E+03
    -15.953  0.0000E+00  0.1920E+03
    -15.840  0.0000E+00  0.1920E+03
    -15.727  0.0000E+00  0.1920E+03
    -15.614  0.0000E+00  0.1920E+03
    -15.501  0.0000E+00  0.1920E+03
    -15.388  0.0000E+00  0.1920E+03
    -15.275  0.0000E+00  0.1920E+03
    -15.162  0.0000E+00  0.1920E+03
    -15.049  0.0000E+00  0.1920E+03
    -14.936  0.0000E+00  0.1920E+03
    -14.823  0.0000E+00  0.1920E+03
    -14.710  0.0000E+00  0.1920E+03
    -14.597  0.0000E+00  0.1920E+03
    -14.484  0.0000E+00  0.1920E+03
    -14.371  0.0000E+00  0.1920E+03
    -14.258  0.0000E+00  0.1920E+03
    -14.145  0.0000E+00  0.1920E+03
    -14.032  0.0000E+00  0.1920E+03
    -13.919  0.0000E+00  0.1920E+03
    -13.806  0.0000E+00  0.1920E+03
    -13.693  0.0000E+00  0.1920E+03
    -13.580  0.0000E+00  0.1920E+03
    -13.467  0.1376E-13  0.1920E+03
    -13.354  0.1349E+01  0.1922E+03
    -13.241  0.2110E+02  0.1945E+03
    -13.128  0.4824E+02  0.2000E+03
    -13.015  0.1304E+03  0.2147E+03
    -12.902  0.3594E+03  0.2553E+03
    -12.789  0.5792E+01  0.2560E+03
    -12.676  0.0000E+00  0.2560E+03
    -12.563  0.0000E+00  0.2560E+03
    -12.450  0.0000E+00  0.2560E+03
    -12.337  0.0000E+00  0.2560E+03
    -12.224  0.0000E+00  0.2560E+03
    -12.111  0.0000E+00  0.2560E+03
    -11.998  0.0000E+00  0.2560E+03
    -11.885  0.0000E+00  0.2560E+03
    -11.772  0.0000E+00  0.2560E+03
    -11.659  0.0000E+00  0.2560E+03
    -11.546  0.0000E+00  0.2560E+03
    -11.433  0.0000E+00  0.2560E+03
    -11.320  0.0000E+00  0.2560E+03
    -11.207  0.0000E+00  0.2560E+03
    -11.094  0.0000E+00  0.2560E+03
    -10.981  0.0000E+00  0.2560E+03
    -10.868  0.0000E+00  0.2560E+03
    -10.755  0.0000E+00  0.2560E+03
    -10.642  0.0000E+00  0.2560E+03
    -10.529  0.0000E+00  0.2560E+03
    -10.416  0.0000E+00  0.2560E+03
    -10.303  0.0000E+00  0.2560E+03
    -10.190  0.0000E+00  0.2560E+03
    -10.077  0.0000E+00  0.2560E+03
     -9.964  0.0000E+00  0.2560E+03
     -9.851  0.0000E+00  0.2560E+03
     -9.738  0.0000E+00  0.2560E+03
     -9.625  0.0000E+00  0.2560E+03
     -9.512  0.0000E+00  0.2560E+03
     -9.399  0.0000E+00  0.2560E+03
     -9.286  0.0000E+00  0.2560E+03
     -9.173  0.0000E+00  0.2560E+03
     -9.060  0.0000E+00  0.2560E+03
     -8.947  0.0000E+00  0.2560E+03
     -8.834  0.0000E+00  0.2560E+03
     -8.721  0.0000E+00  0.2560E+03
     -8.608  0.0000E+00  0.2560E+03
     -8.495  0.0000E+00  0.2560E+03
     -8.382  0.0000E+00  0.2560E+03
     -8.269  0.0000E+00  0.2560E+03
     -8.156  0.0000E+00  0.2560E+03
     -8.044  0.0000E+00  0.2560E+03
     -7.931  0.0000E+00  0.2560E+03
     -7.818  0.0000E+00  0.2560E+03
     -7.705  0.0000E+00  0.2560E+03
     -7.592  0.0000E+00  0.2560E+03
     -7.479  0.0000E+00  0.2560E+03
     -7.366  0.0000E+00  0.2560E+03
     -7.253  0.0000E+00  0.2560E+03
     -7.140  0.0000E+00  0.2560E+03
     -7.027  0.0000E+00  0.2560E+03
     -6.914  0.0000E+00  0.2560E+03
     -6.801  0.0000E+00  0.2560E+03
     -6.688  0.0000E+00  0.2560E+03
     -6.575  0.0000E+00  0.2560E+03
     -6.462  0.0000E+00  0.2560E+03
     -6.349  0.0000E+00  0.2560E+03
     -6.236  0.0000E+00  0.2560E+03
     -6.123  0.0000E+00  0.2560E+03
     -6.010  0.0000E+00  0.2560E+03
     -5.897  0.0000E+00  0.2560E+03
     -5.784  0.0000E+00  0.2560E+03
     -5.671  0.0000E+00  0.2560E+03
     -5.558  0.0000E+00  0.2560E+03
     -5.445  0.0000E+00  0.2560E+03
     -5.332  0.0000E+00  0.2560E+03
     -5.219  0.0000E+00  0.2560E+03
     -5.106  0.0000E+00  0.2560E+03
     -4.993  0.0000E+00  0.2560E+03
     -4.880  0.0000E+00  0.2560E+03
     -4.767  0.0000E+00  0.2560E+03
     -4.654  0.0000E+00  0.2560E+03
     -4.541  0.0000E+00  0.2560E+03
     -4.428  0.0000E+00  0.2560E+03
     -4.315  0.0000E+00  0.2560E+03
     -4.202  0.0000E+00  0.2560E+03
     -4.089  0.0000E+00  0.2560E+03
     -3.976  0.0000E+00  0.2560E+03
     -3.863  0.0000E+00  0.2560E+03
     -3.750  0.0000E+00  0.2560E+03
     -3.637  0.0000E+00  0.2560E+03
     -3.524  0.0000E+00  0.2560E+03
     -3.411  0.0000E+00  0.2560E+03
     -3.298  0.0000E+00  0.2560E+03
     -3.185  0.0000E+00  0.2560E+03
     -3.072  0.0000E+00  0.2560E+03
     -2.959  0.0000E+00  0.2560E+03
     -2.846  0.0000E+00  0.2560E+03
     -2.733  0.9460E-01  0.2560E+03
     -2.620  0.8755E+01  0.2570E+03
     -2.507  0.2338E+02  0.2596E+03
     -2.394  0.8469E+02  0.2692E+03
     -2.281  0.8175E+02  0.2784E+03
     -2.168  0.1551E+03  0.2960E+03
     -2.055  0.7319E+02  0.3043E+03
     -1.942  0.5623E+02  0.3106E+03
     -1.829  0.6076E+02  0.3175E+03
     -1.716  0.7329E+02  0.3257E+03
     -1.603  0.1101E-09  0.3258E+03
     -1.490  0.6789E+02  0.3334E+03
     -1.377  0.1986E+03  0.3559E+03
     -1.264  0.2565E+02  0.3588E+03
     -1.151  0.2502E+03  0.3870E+03
     -1.038  0.1393E+03  0.4028E+03
     -0.925  0.2556E+03  0.4317E+03
     -0.812  0.6552E+02  0.4391E+03
     -0.699  0.7240E+02  0.4472E+03
     -0.586  0.6657E+01  0.4480E+03
     -0.473  0.0000E+00  0.4480E+03
     -0.360  0.0000E+00  0.4480E+03
     -0.247  0.0000E+00  0.4480E+03
     -0.134  0.0000E+00  0.4480E+03
     -0.021  0.0000E+00  0.4480E+03
      0.092  0.0000E+00  0.4480E+03
      0.205  0.0000E+00  0.4480E+03
      0.318  0.0000E+00  0.4480E+03
      0.431  0.0000E+00  0.4480E+03
      0.544  0.0000E+00  0.4480E+03
      0.657  0.0000E+00  0.4480E+03
      0.770  0.0000E+00  0.4480E+03
      0.883  0.0000E+00  0.4480E+03
      0.996  0.0000E+00  0.4480E+03
      1.109  0.0000E+00  0.4480E+03
      1.222  0.0000E+00  0.4480E+03
      1.335  0.0000E+00  0.4480E+03
      1.448  0.0000E+00  0.4480E+03
      1.561  0.0000E+00  0.4480E+03
      1.674  0.0000E+00  0.4480E+03
      1.787  0.0000E+00  0.4480E+03
      1.900  0.0000E+00  0.4480E+03
      2.013  0.0000E+00  0.4480E+03
      2.126  0.0000E+00  0.4480E+03
      2.239  0.0000E+00  0.4480E+03
      2.352  0.0000E+00  0.4480E+03
      2.465  0.0000E+00  0.4480E+03
      2.578  0.0000E+00  0.4480E+03
      2.691  0.0000E+00  0.4480E+03
      2.804  0.0000E+00  0.4480E+03
      2.917  0.0000E+00  0.4480E+03
      3.030  0.0000E+00  0.4480E+03
      3.143  0.0000E+00  0.4480E+03
      3.256  0.0000E+00  0.4480E+03
      3.369  0.0000E+00  0.4480E+03
      3.482  0.0000E+00  0.4480E+03
      3.595  0.0000E+00  0.4480E+03
      3.708  0.0000E+00  0.4480E+03
      3.821  0.0000E+00  0.4480E+03
      3.934  0.0000E+00  0.4480E+03
      4.047  0.0000E+00  0.4480E+03
      4.160  0.0000E+00  0.4480E+03
      4.273  0.2250E-05  0.4480E+03
      4.386  0.2211E+01  0.4482E+03
      4.499  0.1322E-02  0.4482E+03
      4.612  0.0000E+00  0.4482E+03
      4.725  0.0000E+00  0.4482E+03
      4.838  0.0000E+00  0.4482E+03
      4.951  0.3592E-05  0.4483E+03
      5.064  0.1325E+02  0.4497E+03
      5.177  0.2210E-01  0.4498E+03
      5.290  0.0000E+00  0.4498E+03
      5.403  0.0000E+00  0.4498E+03
      5.516  0.1370E+01  0.4499E+03
      5.629  0.2518E+02  0.4527E+03
      5.742  0.4934E-08  0.4528E+03
      5.855  0.1675E+02  0.4546E+03
      5.968  0.9538E+00  0.4548E+03
      6.081  0.0000E+00  0.4548E+03
      6.194  0.0000E+00  0.4548E+03
      6.307  0.1333E-03  0.4548E+03
      6.420  0.1364E+02  0.4563E+03
      6.533  0.8485E+01  0.4572E+03
      6.646  0.3645E+02  0.4614E+03
      6.759  0.6962E+02  0.4692E+03
      6.872  0.5871E+02  0.4759E+03
      6.985  0.1227E+02  0.4773E+03
      7.098  0.2157E+01  0.4775E+03
      7.211  0.4098E+01  0.4780E+03
      7.324  0.2633E+01  0.4783E+03
      7.437  0.8016E+02  0.4873E+03
      7.550  0.1668E+03  0.5062E+03
      7.663  0.5186E+01  0.5068E+03
      7.776  0.2654E+02  0.5097E+03
      7.889  0.5619E-01  0.5098E+03
      8.002  0.5304E+02  0.5157E+03
      8.115  0.1213E-02  0.5158E+03
      8.228  0.1351E+02  0.5173E+03
      8.341  0.9266E+02  0.5277E+03
      8.454  0.3213E-01  0.5278E+03
      8.567  0.1430E+03  0.5439E+03
      8.680  0.1626E+02  0.5458E+03
      8.793  0.6047E-07  0.5458E+03
      8.906  0.7454E+02  0.5542E+03
      9.019  0.1282E+03  0.5687E+03
      9.132  0.7411E+01  0.5695E+03
      9.245  0.1886E+02  0.5716E+03
      9.358  0.2539E+02  0.5745E+03
      9.471  0.8078E+00  0.5746E+03
      9.584  0.1247E+02  0.5760E+03
      9.697  0.0000E+00  0.5760E+03
      9.810  0.0000E+00  0.5760E+03
      9.923  0.0000E+00  0.5760E+03
     10.036  0.0000E+00  0.5760E+03
     10.149  0.0000E+00  0.5760E+03
     10.262  0.0000E+00  0.5760E+03
     10.375  0.0000E+00  0.5760E+03
     10.488  0.0000E+00  0.5760E+03
     10.601  0.0000E+00  0.5760E+03
     10.714  0.0000E+00  0.5760E+03
     10.827  0.0000E+00  0.5760E+03
     10.940  0.0000E+00  0.5760E+03
     11.053  0.0000E+00  0.5760E+03
