       N       E                     dE             d eps       ncg     rms          rms(c)
DAV:   1     0.431151608240E+04    0.43115E+04   -0.17195E+05  3456   0.125E+03
DAV:   2     0.361109296504E+03   -0.39504E+04   -0.37602E+04  3840   0.367E+02
DAV:   3    -0.206443038167E+03   -0.56755E+03   -0.56331E+03  4224   0.155E+02
DAV:   4    -0.228201952847E+03   -0.21759E+02   -0.21661E+02  4160   0.329E+01
DAV:   5    -0.229004510103E+03   -0.80256E+00   -0.80117E+00  4320   0.613E+00    0.106E+01
DAV:   6    -0.224138319900E+03    0.48662E+01   -0.94821E+00  4288   0.529E+00    0.776E+00
DAV:   7    -0.223777366634E+03    0.36095E+00   -0.20682E+00  4704   0.235E+00    0.533E+00
DAV:   8    -0.223902642883E+03   -0.12528E+00   -0.26651E-01  4000   0.123E+00    0.142E+00
DAV:   9    -0.223897094861E+03    0.55480E-02   -0.11320E-02  4288   0.256E-01    0.598E-01
DAV:  10    -0.223901434271E+03   -0.43394E-02   -0.18445E-02  4000   0.222E-01    0.292E-01
DAV:  11    -0.223900683137E+03    0.75113E-03   -0.16756E-03  4416   0.795E-02    0.824E-02
DAV:  12    -0.223900646653E+03    0.36484E-04   -0.15753E-04  4416   0.226E-02    0.955E-03
DAV:  13    -0.223900651815E+03   -0.51614E-05   -0.13926E-05  4096   0.669E-03    0.341E-03
DAV:  14    -0.223900651973E+03   -0.15895E-06   -0.12451E-06  4576   0.264E-03    0.928E-03
DAV:  15    -0.223900653457E+03   -0.14834E-05   -0.70900E-07  3968   0.147E-03    0.214E-03
DAV:  16    -0.223900653858E+03   -0.40084E-06   -0.62086E-08  4032   0.602E-04    0.366E-04
DAV:  17    -0.223900653826E+03    0.31985E-07   -0.88757E-09  2880   0.412E-04    0.196E-04
DAV:  18    -0.223900653842E+03   -0.16153E-07   -0.30850E-09  2336   0.237E-04    0.240E-04
DAV:  19    -0.223900653817E+03    0.24644E-07   -0.17379E-09  2496   0.164E-04    0.169E-04
DAV:  20    -0.223900653782E+03    0.35347E-07   -0.13938E-09  2432   0.171E-04    0.917E-05
DAV:  21    -0.223900653778E+03    0.39508E-08   -0.89561E-10  2304   0.923E-05
   1 F= -.22390065E+03 E0= -.22390065E+03  d E =-.141027E-14
