 vasp.6.3.2 27Jun22 (build Oct 14 2022 12:13:54) complex                        
  
 executed on             LinuxIFC date 2025.08.28  21:57:06
 running on   32 total cores
 distrk:  each k-point on   32 cores,    1 groups
 distr:  one band on NCORE=   1 cores,   32 groups


--------------------------------------------------------------------------------------------------------


 INCAR:
   ENCUT = 341.213600
   SIGMA = 0.020000
   EDIFF = 1.00e-08
   GGA = PS
   PREC = Accurate
   IALGO = 38
   IBRION = -1
   ISMEAR = 0
   NELMIN = 5
   ADDGRID = .TRUE.
   LCHARG = .FALSE.
   LWAVE = .FALSE.
   LREAL = .FALSE.

 POTCAR:    PAW_PBE Na_pv 19Sep2006               
 POTCAR:    PAW_PBE Cl 06Sep2000                  
 -----------------------------------------------------------------------------
|                                                                             |
|           W    W    AA    RRRRR   N    N  II  N    N   GGGG   !!!           |
|           W    W   A  A   R    R  NN   N  II  NN   N  G    G  !!!           |
|           W    W  A    A  R    R  N N  N  II  N N  N  G       !!!           |
|           W WW W  AAAAAA  RRRRR   N  N N  II  N  N N  G  GGG   !            |
|           WW  WW  A    A  R   R   N   NN  II  N   NN  G    G                |
|           W    W  A    A  R    R  N    N  II  N    N   GGGG   !!!           |
|                                                                             |
|     For optimal performance we recommend to set                             |
|       NCORE = 2 up to number-of-cores-per-socket                            |
|     NCORE specifies how many cores store one orbital (NPAR=cpu/NCORE).      |
|     This setting can greatly improve the performance of VASP for DFT.       |
|     The default, NCORE=1 might be grossly inefficient on modern             |
|     multi-core architectures or massively parallel machines. Do your        |
|     own testing! More info at https://www.vasp.at/wiki/index.php/NCORE      |
|     Unfortunately you need to use the default for GW and RPA                |
|     calculations (for HF NCORE is supported but not extensively tested      |
|     yet).                                                                   |
|                                                                             |
 -----------------------------------------------------------------------------

 POTCAR:    PAW_PBE Na_pv 19Sep2006               
   SHA256 =  6a2f546d9e11350984debacf3dc457d8cffc0868e817d445faca461816a32b94 Na_pv/POTCAR          
   COPYR  = (c) Copyright 19Sep2006 Georg Kresse                                                    
   COPYR  = This file is part of the software VASP. Any use, copying, and all other rights are regul
   COPYR  = If you do not have a valid VASP license, you may not use, copy or distribute this file. 
   VRHFIN =Na: p6s1                                                                                 
   LEXCH  = PE                                                                                      
   EATOM  =   766.0439 eV,   56.3026 Ry                                                             
                                                                                                    
   TITEL  = PAW_PBE Na_pv 19Sep2006                                                                 
   LULTRA =        F    use ultrasoft PP ?                                                          
   IUNSCR =        1    unscreen: 0-lin 1-nonlin 2-no                                               
   RPACOR =    1.800    partial core radius                                                         
   POMASS =   22.990; ZVAL   =    7.000    mass and valenz                                          
   RCORE  =    2.200    outmost cutoff radius                                                       
   RWIGS  =    2.200; RWIGS  =    1.164    wigner-seitz radius (au A)                               
   ENMAX  =  259.561; ENMIN  =  194.671 eV                                                          
   ICORE  =        2    local potential                                                             
   LCOR   =        T    correct aug charges                                                         
   LPAW   =        T    paw PP                                                                      
   EAUG   =  368.056                                                                                
   DEXC   =    0.000                                                                                
   RMAX   =    2.245    core radius for proj-oper                                                   
   RAUG   =    1.300    factor for augmentation sphere                                              
   RDEP   =    2.259    radius for radial grids                                                     
   RDEPT  =    1.738    core radius for aug-charge                                                  
                                                                                                    
   Atomic configuration                                                                             
    5 entries                                                                                       
     n  l   j            E        occ.                                                              
     1  0  0.50     -1033.6933   2.0000                                                             
     2  0  0.50       -56.7526   2.0000                                                             
     2  1  1.50       -28.6721   6.0000                                                             
     3  0  0.50        -2.7440   1.0000                                                             
     3  2  1.50        -1.3606   0.0000                                                             
   Description                                                                                      
     l       E           TYP  RCUT    TYP  RCUT                                                     
     1    -28.6720912     23  2.000                                                                 
     1      6.8029130     23  2.000                                                                 
     0     -2.7439560     23  2.200                                                                 
     0     34.0145650     23  2.200                                                                 
     2     -1.3605826     23  2.200                                                                 
  local pseudopotential read in
  partial core-charges read in
  partial kinetic energy density read in
  atomic valenz-charges read in
  non local Contribution for L=           1  read in
    real space projection operators read in
  non local Contribution for L=           1  read in
    real space projection operators read in
  non local Contribution for L=           0  read in
    real space projection operators read in
  non local Contribution for L=           0  read in
    real space projection operators read in
    PAW grid and wavefunctions read in
 
   number of l-projection  operators is LMAX  =           4
   number of lm-projection operators is LMMAX =           8
 
 POTCAR:    PAW_PBE Cl 06Sep2000                  
   SHA256 =  9f1b6e6ed4247ac726a768b330d26d7667cc3c95a39ff49c1d064c2d9dcce931 Cl/POTCAR             
   COPYR  = (c) Copyright 06Sep2000 Georg Kresse                                                    
   COPYR  = This file is part of the software VASP. Any use, copying, and all other rights are regul
   COPYR  = If you do not have a valid VASP license, you may not use, copy or distribute this file. 
   VRHFIN =Cl: s2p5                                                                                 
   LEXCH  = PE                                                                                      
   EATOM  =   409.7259 eV,   30.1140 Ry                                                             
                                                                                                    
   TITEL  = PAW_PBE Cl 06Sep2000                                                                    
   LULTRA =        F    use ultrasoft PP ?                                                          
   IUNSCR =        1    unscreen: 0-lin 1-nonlin 2-no                                               
   RPACOR =    1.500    partial core radius                                                         
   POMASS =   35.453; ZVAL   =    7.000    mass and valenz                                          
   RCORE  =    1.900    outmost cutoff radius                                                       
   RWIGS  =    2.100; RWIGS  =    1.111    wigner-seitz radius (au A)                               
   ENMAX  =  262.472; ENMIN  =  196.854 eV                                                          
   ICORE  =        2    local potential                                                             
   LCOR   =        T    correct aug charges                                                         
   LPAW   =        T    paw PP                                                                      
   EAUG   =  356.192                                                                                
   DEXC   =    0.000                                                                                
   RMAX   =    1.945    core radius for proj-oper                                                   
   RAUG   =    1.300    factor for augmentation sphere                                              
   RDEP   =    2.020    radius for radial grids                                                     
   RDEPT  =    1.678    core radius for aug-charge                                                  
                                                                                                    
   Atomic configuration                                                                             
    6 entries                                                                                       
     n  l   j            E        occ.                                                              
     1  0  0.50     -2751.1850   2.0000                                                             
     2  0  0.50      -252.6861   2.0000                                                             
     2  1  1.50      -191.6157   6.0000                                                             
     3  0  0.50       -20.6916   2.0000                                                             
     3  1  0.50        -8.5949   5.0000                                                             
     3  2  1.50        -8.1635   0.0000                                                             
   Description                                                                                      
     l       E           TYP  RCUT    TYP  RCUT                                                     
     0    -20.6915656     23  1.900                                                                 
     0    -22.0521482     23  1.900                                                                 
     1     -8.5948577     23  1.900                                                                 
     1     -5.3847331     23  1.900                                                                 
     2     -8.1634956     23  1.900                                                                 
  local pseudopotential read in
  partial core-charges read in
  partial kinetic energy density read in
  atomic valenz-charges read in
  non local Contribution for L=           0  read in
    real space projection operators read in
  non local Contribution for L=           0  read in
    real space projection operators read in
  non local Contribution for L=           1  read in
    real space projection operators read in
  non local Contribution for L=           1  read in
    real space projection operators read in
    PAW grid and wavefunctions read in
 
   number of l-projection  operators is LMAX  =           4
   number of lm-projection operators is LMMAX =           8
 
 -----------------------------------------------------------------------------
|                                                                             |
|               ----> ADVICE to this user running VASP <----                  |
|                                                                             |
|     You have a (more or less) 'large supercell' and for larger cells it     |
|     might be more efficient to use real-space projection operators.         |
|     Therefore, try LREAL= Auto in the INCAR file.                           |
|     Mind: For very accurate calculation, you might also keep the            |
|     reciprocal projection scheme (i.e. LREAL=.FALSE.).                      |
|                                                                             |
 -----------------------------------------------------------------------------

 -----------------------------------------------------------------------------
|                                                                             |
|               ----> ADVICE to this user running VASP <----                  |
|                                                                             |
|     You enforced a specific xc type in the INCAR file but a different       |
|     type was found in the POTCAR file.                                      |
|     I HOPE YOU KNOW WHAT YOU ARE DOING!                                     |
|                                                                             |
 -----------------------------------------------------------------------------

  PAW_PBE Na_pv 19Sep2006               :
 energy of atom  1       EATOM= -766.0439
 kinetic energy error for atom=    0.0189 (will be added to EATOM!!)
  PAW_PBE Cl 06Sep2000                  :
 energy of atom  2       EATOM= -409.7259
 kinetic energy error for atom=    0.0106 (will be added to EATOM!!)
 
 
 POSCAR: Na Cl
  positions in cartesian coordinates
  No initial velocities read in
 exchange correlation table for  LEXCH =       14
   RHO(1)=    0.500       N(1)  =     2000
   RHO(2)=  100.500       N(2)  =     4000
 


--------------------------------------------------------------------------------------------------------


 ion  position               nearest neighbor table
   1  0.997  0.000  0.000-
   2  0.250  0.253  0.000-
   3  0.250  0.000  0.250-
   4  0.000  0.250  0.250-
   5  0.000  0.000  0.500-
   6  0.250  0.250  0.500-
   7  0.250  0.000  0.750-
   8  0.000  0.250  0.750-
   9  0.000  0.500  0.000-
  10  0.250  0.750  0.000-
  11  0.250  0.500  0.250-
  12  0.000  0.750  0.250-
  13  0.000  0.500  0.500-
  14  0.250  0.750  0.500-
  15  0.250  0.500  0.750-
  16  0.000  0.750  0.750-
  17  0.500  0.000  0.000-
  18  0.750  0.250  0.000-
  19  0.750  0.000  0.250-
  20  0.500  0.250  0.250-
  21  0.500  0.000  0.500-
  22  0.750  0.250  0.500-
  23  0.750  0.000  0.750-
  24  0.500  0.250  0.750-
  25  0.500  0.500  0.000-
  26  0.750  0.750  0.000-
  27  0.750  0.500  0.250-
  28  0.500  0.750  0.250-
  29  0.500  0.500  0.500-
  30  0.750  0.750  0.500-
  31  0.750  0.500  0.750-
  32  0.500  0.750  0.750-
  33  0.250  0.250  0.250-
  34  0.000  0.000  0.250-
  35  0.000  0.250  0.000-
  36  0.250  0.000  0.000-
  37  0.250  0.250  0.750-
  38  0.000  0.000  0.750-
  39  0.000  0.250  0.500-
  40  0.250  0.000  0.500-
  41  0.250  0.750  0.250-
  42  0.000  0.500  0.250-
  43  0.000  0.750  0.000-
  44  0.250  0.500  0.000-
  45  0.250  0.750  0.750-
  46  0.000  0.500  0.750-
  47  0.000  0.750  0.500-
  48  0.250  0.500  0.500-
  49  0.750  0.250  0.250-
  50  0.500  0.000  0.250-
  51  0.500  0.250  0.000-
  52  0.750  0.000  0.000-
  53  0.750  0.250  0.750-
  54  0.500  0.000  0.750-
  55  0.500  0.250  0.500-
  56  0.750  0.000  0.500-
  57  0.750  0.750  0.250-
  58  0.500  0.500  0.250-
  59  0.500  0.750  0.000-
  60  0.750  0.500  0.000-
  61  0.750  0.750  0.750-
  62  0.500  0.500  0.750-
  63  0.500  0.750  0.500-
  64  0.750  0.500  0.500-
 
  LATTYP: Found a simple cubic cell.
 ALAT       =    11.2040023600
  
  Lattice vectors:
  
 A1 = (  11.2040023600,   0.0000000000,   0.0000000000)
 A2 = (   0.0000000000,  11.2040023600,   0.0000000000)
 A3 = (   0.0000000000,   0.0000000000,  11.2040023600)


Analysis of symmetry for initial positions (statically):
=====================================================================
 Subroutine PRICEL returns:
 Original cell was already a primitive cell.
 

 Routine SETGRP: Setting up the symmetry group for a 
 simple cubic supercell.


 Subroutine GETGRP returns: Found  4 space group operations
 (whereof  2 operations were pure point group operations)
 out of a pool of 48 trial point group operations.


The static configuration has the point symmetry C_1h.
 The point group associated with its full space group is C_2v.


Analysis of symmetry for dynamics (positions and initial velocities):
=====================================================================
 Subroutine PRICEL returns:
 Original cell was already a primitive cell.
 

 Routine SETGRP: Setting up the symmetry group for a 
 simple cubic supercell.


 Subroutine GETGRP returns: Found  4 space group operations
 (whereof  2 operations were pure point group operations)
 out of a pool of 48 trial point group operations.


The dynamic configuration has the point symmetry C_1h.
 The point group associated with its full space group is C_2v.


 Subroutine INISYM returns: Found  4 space group operations
 (whereof  2 operations are pure point group operations),
 and found     1 'primitive' translations


----------------------------------------------------------------------------------------

                                     Primitive cell                                     

  volume of cell :    1406.4347

  direct lattice vectors                    reciprocal lattice vectors
    11.204002360  0.000000000  0.000000000     0.089253819  0.000000000  0.000000000
     0.000000000 11.204002360  0.000000000     0.000000000  0.089253819  0.000000000
     0.000000000  0.000000000 11.204002360     0.000000000  0.000000000  0.089253819

  length of vectors
    11.204002360 11.204002360 11.204002360     0.089253819  0.089253819  0.089253819

  position of ions in fractional coordinates (direct lattice)
     0.997322385  0.000000000  0.000000000
     0.250000000  0.252677615  0.000000000
     0.250000000  0.000000000  0.250000000
     0.000000000  0.250000000  0.250000000
     0.000000000  0.000000000  0.500000000
     0.250000000  0.250000000  0.500000000
     0.250000000  0.000000000  0.750000000
     0.000000000  0.250000000  0.750000000
     0.000000000  0.500000000  0.000000000
     0.250000000  0.750000000  0.000000000
     0.250000000  0.500000000  0.250000000
     0.000000000  0.750000000  0.250000000
     0.000000000  0.500000000  0.500000000
     0.250000000  0.750000000  0.500000000
     0.250000000  0.500000000  0.750000000
     0.000000000  0.750000000  0.750000000
     0.500000000  0.000000000  0.000000000
     0.750000000  0.250000000  0.000000000
     0.750000000  0.000000000  0.250000000
     0.500000000  0.250000000  0.250000000
     0.500000000  0.000000000  0.500000000
     0.750000000  0.250000000  0.500000000
     0.750000000  0.000000000  0.750000000
     0.500000000  0.250000000  0.750000000
     0.500000000  0.500000000  0.000000000
     0.750000000  0.750000000  0.000000000
     0.750000000  0.500000000  0.250000000
     0.500000000  0.750000000  0.250000000
     0.500000000  0.500000000  0.500000000
     0.750000000  0.750000000  0.500000000
     0.750000000  0.500000000  0.750000000
     0.500000000  0.750000000  0.750000000
     0.250000000  0.250000000  0.250000000
     0.000000000  0.000000000  0.250000000
     0.000000000  0.250000000  0.000000000
     0.250000000  0.000000000  0.000000000
     0.250000000  0.250000000  0.750000000
     0.000000000  0.000000000  0.750000000
     0.000000000  0.250000000  0.500000000
     0.250000000  0.000000000  0.500000000
     0.250000000  0.750000000  0.250000000
     0.000000000  0.500000000  0.250000000
     0.000000000  0.750000000  0.000000000
     0.250000000  0.500000000  0.000000000
     0.250000000  0.750000000  0.750000000
     0.000000000  0.500000000  0.750000000
     0.000000000  0.750000000  0.500000000
     0.250000000  0.500000000  0.500000000
     0.750000000  0.250000000  0.250000000
     0.500000000  0.000000000  0.250000000
     0.500000000  0.250000000  0.000000000
     0.750000000  0.000000000  0.000000000
     0.750000000  0.250000000  0.750000000
     0.500000000  0.000000000  0.750000000
     0.500000000  0.250000000  0.500000000
     0.750000000  0.000000000  0.500000000
     0.750000000  0.750000000  0.250000000
     0.500000000  0.500000000  0.250000000
     0.500000000  0.750000000  0.000000000
     0.750000000  0.500000000  0.000000000
     0.750000000  0.750000000  0.750000000
     0.500000000  0.500000000  0.750000000
     0.500000000  0.750000000  0.500000000
     0.750000000  0.500000000  0.500000000

  ion indices of the primitive-cell ions
   primitive index   ion index
                 1           1
                 2           2
                 3           3
                 4           4
                 5           5
                 6           6
                 7           7
                 8           8
                 9           9
                10          10
                11          11
                12          12
                13          13
                14          14
                15          15
                16          16
                17          17
                18          18
                19          19
                20          20
                21          21
                22          22
                23          23
                24          24
                25          25
                26          26
                27          27
                28          28
                29          29
                30          30
                31          31
                32          32
                33          33
                34          34
                35          35
                36          36
                37          37
                38          38
                39          39
                40          40
                41          41
                42          42
                43          43
                44          44
                45          45
                46          46
                47          47
                48          48
                49          49
                50          50
                51          51
                52          52
                53          53
                54          54
                55          55
                56          56
                57          57
                58          58
                59          59
                60          60
                61          61
                62          62
                63          63
                64          64

----------------------------------------------------------------------------------------

 
 
 KPOINTS: KPOINTS created by Atomic Simulation Env

Automatic generation of k-mesh.
 Grid dimensions read from file:
 generate k-points for:    2    2    2

 Generating k-lattice:

  Cartesian coordinates                     Fractional coordinates (reciprocal lattice)
     0.044626910  0.000000000  0.000000000     0.500000000  0.000000000  0.000000000
     0.000000000  0.044626910  0.000000000     0.000000000  0.500000000  0.000000000
     0.000000000  0.000000000  0.044626910     0.000000000  0.000000000  0.500000000

  Length of vectors
     0.044626910  0.044626910  0.044626910

  Shift w.r.t. Gamma in fractional coordinates (k-lattice)
     0.000000000  0.000000000  0.000000000

 
 Subroutine IBZKPT returns following result:
 ===========================================
 
 Found      6 irreducible k-points:
 
 Following reciprocal coordinates:
            Coordinates               Weight
  0.000000  0.000000  0.000000      1.000000
  0.500000  0.000000  0.000000      2.000000
  0.000000  0.000000  0.500000      1.000000
  0.500000  0.500000  0.000000      1.000000
  0.000000  0.500000  0.500000      2.000000
  0.500000  0.500000  0.500000      1.000000
 
 Following cartesian coordinates:
            Coordinates               Weight
  0.000000  0.000000  0.000000      1.000000
  0.044627  0.000000  0.000000      2.000000
  0.000000  0.000000  0.044627      1.000000
  0.044627  0.044627  0.000000      1.000000
  0.000000  0.044627  0.044627      2.000000
  0.044627  0.044627  0.044627      1.000000
 


--------------------------------------------------------------------------------------------------------




 Dimension of arrays:
   k-points           NKPTS =      6   k-points in BZ     NKDIM =      6   number of bands    NBANDS=    288
   number of dos      NEDOS =    301   number of ions     NIONS =     64
   non local maximal  LDIM  =      4   non local SUM 2l+1 LMDIM =      8
   total plane-waves  NPLWV = 343000
   max r-space proj   IRMAX =      1   max aug-charges    IRDMAX=  56280
   dimension x,y,z NGX =    70 NGY =   70 NGZ =   70
   dimension x,y,z NGXF=   140 NGYF=  140 NGZF=  140
   support grid    NGXF=   280 NGYF=  280 NGZF=  280
   ions per type =              32  32
   NGX,Y,Z   is equivalent  to a cutoff of  10.39, 10.39, 10.39 a.u.
   NGXF,Y,Z  is equivalent  to a cutoff of  20.77, 20.77, 20.77 a.u.

 SYSTEM =  unknown system                          
 POSCAR =  Na Cl                                   

 Startparameter for this run:
   NWRITE =      2    write-flag & timer
   PREC   = accura    normal or accurate (medium, high low for compatibility)
   ISTART =      0    job   : 0-new  1-cont  2-samecut
   ICHARG =      2    charge: 1-file 2-atom 10-const
   ISPIN  =      1    spin polarized calculation?
   LNONCOLLINEAR =      F non collinear calculations
   LSORBIT =      F    spin-orbit coupling
   INIWAV =      1    electr: 0-lowe 1-rand  2-diag
   LASPH  =      F    aspherical Exc in radial PAW
 Electronic Relaxation 1
   ENCUT  =  341.2 eV  25.08 Ry    5.01 a.u.  16.87 16.87 16.87*2*pi/ulx,y,z
   ENINI  =  341.2     initial cutoff
   ENAUG  =  368.1 eV  augmentation charge cutoff
   NELM   =     60;   NELMIN=  5; NELMDL= -5     # of ELM steps 
   EDIFF  = 0.1E-07   stopping-criterion for ELM
   LREAL  =      F    real-space projection
   NLSPLINE    = F    spline interpolate recip. space projectors
   LCOMPAT=      F    compatible to vasp.4.4
   GGA_COMPAT  = T    GGA compatible to vasp.4.4-vasp.4.6
   LMAXPAW     = -100 max onsite density
   LMAXMIX     =    2 max onsite mixed and CHGCAR
   VOSKOWN=      0    Vosko Wilk Nusair interpolation
   ROPT   =    0.00000   0.00000
 Ionic relaxation
   EDIFFG = 0.1E-06   stopping-criterion for IOM
   NSW    =      0    number of steps for IOM
   NBLOCK =      1;   KBLOCK =      1    inner block; outer block 
   IBRION =     -1    ionic relax: 0-MD 1-quasi-New 2-CG
   NFREE  =      0    steps in history (QN), initial steepest desc. (CG)
   ISIF   =      2    stress and relaxation
   IWAVPR =     10    prediction:  0-non 1-charg 2-wave 3-comb
   ISYM   =      2    0-nonsym 1-usesym 2-fastsym
   LCORR  =      T    Harris-Foulkes like correction to forces

   POTIM  = 0.5000    time-step for ionic-motion
   TEIN   =    0.0    initial temperature
   TEBEG  =    0.0;   TEEND  =   0.0 temperature during run
   SMASS  =  -3.00    Nose mass-parameter (am)
   estimated Nose-frequenzy (Omega)   =  0.10E-29 period in steps = 0.13E+47 mass=  -0.287E-26a.u.
   SCALEE = 1.0000    scale energy and forces
   NPACO  =    256;   APACO  = 10.0  distance and # of slots for P.C.
   PSTRESS=    0.0 pullay stress

  Mass of Ions in am
   POMASS =  22.99 35.45
  Ionic Valenz
   ZVAL   =   7.00  7.00
  Atomic Wigner-Seitz radii
   RWIGS  =  -1.00 -1.00
  virtual crystal weights 
   VCA    =   1.00  1.00
   NELECT =     448.0000    total number of electrons
   NUPDOWN=      -1.0000    fix difference up-down

 DOS related values:
   EMIN   =  10.00;   EMAX   =-10.00  energy-range for DOS
   EFERMI =   0.00
   ISMEAR =     0;   SIGMA  =   0.02  broadening in eV -4-tet -1-fermi 0-gaus

 Electronic relaxation 2 (details)
   IALGO  =     38    algorithm
   LDIAG  =      T    sub-space diagonalisation (order eigenvalues)
   LSUBROT=      F    optimize rotation matrix (better conditioning)
   TURBO    =      0    0=normal 1=particle mesh
   IRESTART =      0    0=no restart 2=restart with 2 vectors
   NREBOOT  =      0    no. of reboots
   NMIN     =      0    reboot dimension
   EREF     =   0.00    reference energy to select bands
   IMIX   =      4    mixing-type and parameters
     AMIX     =   0.40;   BMIX     =  1.00
     AMIX_MAG =   1.60;   BMIX_MAG =  1.00
     AMIN     =   0.10
     WC   =   100.;   INIMIX=   1;  MIXPRE=   1;  MAXMIX= -45

 Intra band minimization:
   WEIMIN = 0.0000     energy-eigenvalue tresh-hold
   EBREAK =  0.87E-11  absolut break condition
   DEPER  =   0.30     relativ break condition  

   TIME   =   0.40     timestep for ELM

  volume/ion in A,a.u.               =      21.98       148.30
  Fermi-wavevector in a.u.,A,eV,Ry     =   1.118049  2.112807 17.007750  1.250034
  Thomas-Fermi vector in A             =   2.254677
 
 Write flags
   LWAVE        =      F    write WAVECAR
   LDOWNSAMPLE  =      F    k-point downsampling of WAVECAR
   LCHARG       =      F    write CHGCAR
   LVTOT        =      F    write LOCPOT, total local potential
   LVHAR        =      F    write LOCPOT, Hartree potential only
   LELF         =      F    write electronic localiz. function (ELF)
   LORBIT       =      0    0 simple, 1 ext, 2 COOP (PROOUT), +10 PAW based schemes


 Dipole corrections
   LMONO  =      F    monopole corrections only (constant potential shift)
   LDIPOL =      F    correct potential (dipole corrections)
   IDIPOL =      0    1-x, 2-y, 3-z, 4-all directions 
   EPSILON=  1.0000000 bulk dielectric constant

 Exchange correlation treatment:
   GGA     =    PS    GGA type
   LEXCH   =    14    internal setting for exchange type
   LIBXC   =     F    Libxc                    
   VOSKOWN =     0    Vosko Wilk Nusair interpolation
   LHFCALC =     F    Hartree Fock is set to
   LHFONE  =     F    Hartree Fock one center treatment
   AEXX    =    0.0000 exact exchange contribution

 Linear response parameters
   LEPSILON=     F    determine dielectric tensor
   LRPA    =     F    only Hartree local field effects (RPA)
   LNABLA  =     F    use nabla operator in PAW spheres
   LVEL    =     F    velocity operator in full k-point grid
   CSHIFT  =0.1000    complex shift for real part using Kramers Kronig
   OMEGAMAX=  -1.0    maximum frequency
   DEG_THRESHOLD= 0.2000000E-02 threshold for treating states as degnerate
   RTIME   =   -0.100 relaxation time in fs
  (WPLASMAI=    0.000 imaginary part of plasma frequency in eV, 0.658/RTIME)
   DFIELD  = 0.0000000 0.0000000 0.0000000 field for delta impulse in time
 
  Optional k-point grid parameters
   LKPOINTS_OPT  =     F    use optional k-point grid
   KPOINTS_OPT_MODE=     1    mode for optional k-point grid
 
 Orbital magnetization related:
   ORBITALMAG=     F  switch on orbital magnetization
   LCHIMAG   =     F  perturbation theory with respect to B field
   DQ        =  0.001000  dq finite difference perturbation B field
   LLRAUG    =     F  two centre corrections for induced B field



--------------------------------------------------------------------------------------------------------


 Static calculation
 charge density and potential will be updated during run
 non-spin polarized calculation
 Variant of blocked Davidson
 Davidson routine will perform the subspace rotation
 perform sub-space diagonalisation
    after iterative eigenvector-optimisation
 modified Broyden-mixing scheme, WC =      100.0
 initial mixing is a Kerker type mixing with AMIX =  0.4000 and BMIX =      1.0000
 Hartree-type preconditioning will be used
 using additional bands           64
 reciprocal scheme for non local part
 use partial core corrections
 calculate Harris-corrections to forces 
   (improved forces if not selfconsistent)
 use gradient corrections 
 use of overlap-Matrix (Vanderbilt PP)
 Gauss-broadening in eV      SIGMA  =   0.02


--------------------------------------------------------------------------------------------------------


  energy-cutoff  :      341.21
  volume of cell :     1406.43
      direct lattice vectors                 reciprocal lattice vectors
    11.204002360  0.000000000  0.000000000     0.089253819  0.000000000  0.000000000
     0.000000000 11.204002360  0.000000000     0.000000000  0.089253819  0.000000000
     0.000000000  0.000000000 11.204002360     0.000000000  0.000000000  0.089253819

  length of vectors
    11.204002360 11.204002360 11.204002360     0.089253819  0.089253819  0.089253819


 
 k-points in units of 2pi/SCALE and weight: KPOINTS created by Atomic Simulation Env
   0.00000000  0.00000000  0.00000000       0.125
   0.04462691  0.00000000  0.00000000       0.250
   0.00000000  0.00000000  0.04462691       0.125
   0.04462691  0.04462691  0.00000000       0.125
   0.00000000  0.04462691  0.04462691       0.250
   0.04462691  0.04462691  0.04462691       0.125
 
 k-points in reciprocal lattice and weights: KPOINTS created by Atomic Simulation Env
   0.00000000  0.00000000  0.00000000       0.125
   0.50000000  0.00000000  0.00000000       0.250
   0.00000000  0.00000000  0.50000000       0.125
   0.50000000  0.50000000  0.00000000       0.125
   0.00000000  0.50000000  0.50000000       0.250
   0.50000000  0.50000000  0.50000000       0.125
 
 position of ions in fractional coordinates (direct lattice) 
   0.99732239  0.00000000  0.00000000
   0.25000000  0.25267761  0.00000000
   0.25000000  0.00000000  0.25000000
   0.00000000  0.25000000  0.25000000
   0.00000000  0.00000000  0.50000000
   0.25000000  0.25000000  0.50000000
   0.25000000  0.00000000  0.75000000
   0.00000000  0.25000000  0.75000000
   0.00000000  0.50000000  0.00000000
   0.25000000  0.75000000  0.00000000
   0.25000000  0.50000000  0.25000000
   0.00000000  0.75000000  0.25000000
   0.00000000  0.50000000  0.50000000
   0.25000000  0.75000000  0.50000000
   0.25000000  0.50000000  0.75000000
   0.00000000  0.75000000  0.75000000
   0.50000000  0.00000000  0.00000000
   0.75000000  0.25000000  0.00000000
   0.75000000  0.00000000  0.25000000
   0.50000000  0.25000000  0.25000000
   0.50000000  0.00000000  0.50000000
   0.75000000  0.25000000  0.50000000
   0.75000000  0.00000000  0.75000000
   0.50000000  0.25000000  0.75000000
   0.50000000  0.50000000  0.00000000
   0.75000000  0.75000000  0.00000000
   0.75000000  0.50000000  0.25000000
   0.50000000  0.75000000  0.25000000
   0.50000000  0.50000000  0.50000000
   0.75000000  0.75000000  0.50000000
   0.75000000  0.50000000  0.75000000
   0.50000000  0.75000000  0.75000000
   0.25000000  0.25000000  0.25000000
   0.00000000  0.00000000  0.25000000
   0.00000000  0.25000000  0.00000000
   0.25000000  0.00000000  0.00000000
   0.25000000  0.25000000  0.75000000
   0.00000000  0.00000000  0.75000000
   0.00000000  0.25000000  0.50000000
   0.25000000  0.00000000  0.50000000
   0.25000000  0.75000000  0.25000000
   0.00000000  0.50000000  0.25000000
   0.00000000  0.75000000  0.00000000
   0.25000000  0.50000000  0.00000000
   0.25000000  0.75000000  0.75000000
   0.00000000  0.50000000  0.75000000
   0.00000000  0.75000000  0.50000000
   0.25000000  0.50000000  0.50000000
   0.75000000  0.25000000  0.25000000
   0.50000000  0.00000000  0.25000000
   0.50000000  0.25000000  0.00000000
   0.75000000  0.00000000  0.00000000
   0.75000000  0.25000000  0.75000000
   0.50000000  0.00000000  0.75000000
   0.50000000  0.25000000  0.50000000
   0.75000000  0.00000000  0.50000000
   0.75000000  0.75000000  0.25000000
   0.50000000  0.50000000  0.25000000
   0.50000000  0.75000000  0.00000000
   0.75000000  0.50000000  0.00000000
   0.75000000  0.75000000  0.75000000
   0.50000000  0.50000000  0.75000000
   0.50000000  0.75000000  0.50000000
   0.75000000  0.50000000  0.50000000
 
 position of ions in cartesian coordinates  (Angst):
  11.17400236  0.00000000  0.00000000
   2.80100059  2.83100059  0.00000000
   2.80100059  0.00000000  2.80100059
   0.00000000  2.80100059  2.80100059
   0.00000000  0.00000000  5.60200118
   2.80100059  2.80100059  5.60200118
   2.80100059  0.00000000  8.40300177
   0.00000000  2.80100059  8.40300177
   0.00000000  5.60200118  0.00000000
   2.80100059  8.40300177  0.00000000
   2.80100059  5.60200118  2.80100059
   0.00000000  8.40300177  2.80100059
   0.00000000  5.60200118  5.60200118
   2.80100059  8.40300177  5.60200118
   2.80100059  5.60200118  8.40300177
   0.00000000  8.40300177  8.40300177
   5.60200118  0.00000000  0.00000000
   8.40300177  2.80100059  0.00000000
   8.40300177  0.00000000  2.80100059
   5.60200118  2.80100059  2.80100059
   5.60200118  0.00000000  5.60200118
   8.40300177  2.80100059  5.60200118
   8.40300177  0.00000000  8.40300177
   5.60200118  2.80100059  8.40300177
   5.60200118  5.60200118  0.00000000
   8.40300177  8.40300177  0.00000000
   8.40300177  5.60200118  2.80100059
   5.60200118  8.40300177  2.80100059
   5.60200118  5.60200118  5.60200118
   8.40300177  8.40300177  5.60200118
   8.40300177  5.60200118  8.40300177
   5.60200118  8.40300177  8.40300177
   2.80100059  2.80100059  2.80100059
   0.00000000  0.00000000  2.80100059
   0.00000000  2.80100059  0.00000000
   2.80100059  0.00000000  0.00000000
   2.80100059  2.80100059  8.40300177
   0.00000000  0.00000000  8.40300177
   0.00000000  2.80100059  5.60200118
   2.80100059  0.00000000  5.60200118
   2.80100059  8.40300177  2.80100059
   0.00000000  5.60200118  2.80100059
   0.00000000  8.40300177  0.00000000
   2.80100059  5.60200118  0.00000000
   2.80100059  8.40300177  8.40300177
   0.00000000  5.60200118  8.40300177
   0.00000000  8.40300177  5.60200118
   2.80100059  5.60200118  5.60200118
   8.40300177  2.80100059  2.80100059
   5.60200118  0.00000000  2.80100059
   5.60200118  2.80100059  0.00000000
   8.40300177  0.00000000  0.00000000
   8.40300177  2.80100059  8.40300177
   5.60200118  0.00000000  8.40300177
   5.60200118  2.80100059  5.60200118
   8.40300177  0.00000000  5.60200118
   8.40300177  8.40300177  2.80100059
   5.60200118  5.60200118  2.80100059
   5.60200118  8.40300177  0.00000000
   8.40300177  5.60200118  0.00000000
   8.40300177  8.40300177  8.40300177
   5.60200118  5.60200118  8.40300177
   5.60200118  8.40300177  5.60200118
   8.40300177  5.60200118  5.60200118
 


--------------------------------------------------------------------------------------------------------


 k-point   1 :   0.0000 0.0000 0.0000  plane waves:   20005
 k-point   2 :   0.5000 0.0000 0.0000  plane waves:   20138
 k-point   3 :   0.0000 0.0000 0.5000  plane waves:   20138
 k-point   4 :   0.5000 0.5000 0.0000  plane waves:   20160
 k-point   5 :   0.0000 0.5000 0.5000  plane waves:   20160
 k-point   6 :   0.5000 0.5000 0.5000  plane waves:   20336

 maximum and minimum number of plane-waves per node :     20336    20005

 maximum number of plane-waves:     20336
 maximum index in each direction: 
   IXMAX=   16   IYMAX=   16   IZMAX=   16
   IXMIN=  -17   IYMIN=  -17   IZMIN=  -17


 serial   3D FFT for wavefunctions
 parallel 3D FFT for charge:
    minimum data exchange during FFTs selected (reduces bandwidth)


 total amount of memory used by VASP MPI-rank0   118439. kBytes
=======================================================================

   base      :      30000. kBytes
   nonl-proj :      36470. kBytes
   fftplans  :      14405. kBytes
   grid      :      19342. kBytes
   one-center:        196. kBytes
   wavefun   :      18026. kBytes
 
     INWAV:  cpu time      0.0000: real time      0.0000
 Broyden mixing: mesh for mixing (old mesh)
   NGX = 33   NGY = 33   NGZ = 33
  (NGX  =140   NGY  =140   NGZ  =140)
  gives a total of  35937 points

 initial charge density was supplied:
 charge density of overlapping atoms calculated
 number of electron     448.0000000 magnetization 
 keeping initial charge density in first step


--------------------------------------------------------------------------------------------------------


 Maximum index for augmentation-charges         1834 (set IRDMAX)


--------------------------------------------------------------------------------------------------------


 First call to EWALD:  gamma=   0.158
 Maximum number of real-space cells 3x 3x 3
 Maximum number of reciprocal cells 3x 3x 3

    FEWALD:  cpu time      0.0015: real time      0.0015


--------------------------------------- Iteration      1(   1)  ---------------------------------------


    POTLOK:  cpu time      0.0421: real time      0.0516
    SETDIJ:  cpu time      0.0322: real time      0.0345
     EDDAV:  cpu time      7.1288: real time      7.2352
       DOS:  cpu time      0.0017: real time      0.0031
    --------------------------------------------
      LOOP:  cpu time      7.2047: real time      7.3244

 eigenvalue-minimisations  :  3456
 total energy-change (2. order) : 0.4311516E+04  (-0.1719505E+05)
 number of electron     448.0000000 magnetization 
 augmentation part      448.0000000 magnetization 

 Free energy of the ion-electron system (eV)
  ---------------------------------------------------
  alpha Z        PSCENC =       751.52672365
  Ewald energy   TEWEN  =    -22871.32626174
  -Hartree energ DENC   =     -8992.25791636
  -exchange      EXHF   =         0.00000000
  -V(xc)+E(xc)   XCENC  =      1456.53425565
  PAW double counting   =     26466.43774078   -29286.08056155
  entropy T*S    EENTRO =        -0.00498739
  eigenvalues    EBANDS =      -745.49238057
  atomic energy  EATOM  =     37532.17946992
  Solvation  Ediel_sol  =         0.00000000
  ---------------------------------------------------
  free energy    TOTEN  =      4311.51608240 eV

  energy without entropy =     4311.52106978  energy(sigma->0) =     4311.51857609


--------------------------------------------------------------------------------------------------------




--------------------------------------- Iteration      1(   2)  ---------------------------------------


     EDDAV:  cpu time      7.7778: real time      7.8236
       DOS:  cpu time      0.0006: real time      0.0006
    --------------------------------------------
      LOOP:  cpu time      7.7784: real time      7.8242

 eigenvalue-minimisations  :  3840
 total energy-change (2. order) :-0.3950407E+04  (-0.3760210E+04)
 number of electron     448.0000000 magnetization 
 augmentation part      448.0000000 magnetization 

 Free energy of the ion-electron system (eV)
  ---------------------------------------------------
  alpha Z        PSCENC =       751.52672365
  Ewald energy   TEWEN  =    -22871.32626174
  -Hartree energ DENC   =     -8992.25791636
  -exchange      EXHF   =         0.00000000
  -V(xc)+E(xc)   XCENC  =      1456.53425565
  PAW double counting   =     26466.43774078   -29286.08056155
  entropy T*S    EENTRO =        -0.00000000
  eigenvalues    EBANDS =     -4695.90415385
  atomic energy  EATOM  =     37532.17946992
  Solvation  Ediel_sol  =         0.00000000
  ---------------------------------------------------
  free energy    TOTEN  =       361.10929650 eV

  energy without entropy =      361.10929650  energy(sigma->0) =      361.10929650


--------------------------------------------------------------------------------------------------------




--------------------------------------- Iteration      1(   3)  ---------------------------------------


     EDDAV:  cpu time      8.4279: real time      8.4767
       DOS:  cpu time      0.0006: real time      0.0006
    --------------------------------------------
      LOOP:  cpu time      8.4285: real time      8.4773

 eigenvalue-minimisations  :  4224
 total energy-change (2. order) :-0.5675523E+03  (-0.5633132E+03)
 number of electron     448.0000000 magnetization 
 augmentation part      448.0000000 magnetization 

 Free energy of the ion-electron system (eV)
  ---------------------------------------------------
  alpha Z        PSCENC =       751.52672365
  Ewald energy   TEWEN  =    -22871.32626174
  -Hartree energ DENC   =     -8992.25791636
  -exchange      EXHF   =         0.00000000
  -V(xc)+E(xc)   XCENC  =      1456.53425565
  PAW double counting   =     26466.43774078   -29286.08056155
  entropy T*S    EENTRO =        -0.00000000
  eigenvalues    EBANDS =     -5263.45648852
  atomic energy  EATOM  =     37532.17946992
  Solvation  Ediel_sol  =         0.00000000
  ---------------------------------------------------
  free energy    TOTEN  =      -206.44303817 eV

  energy without entropy =     -206.44303817  energy(sigma->0) =     -206.44303817


--------------------------------------------------------------------------------------------------------




--------------------------------------- Iteration      1(   4)  ---------------------------------------


     EDDAV:  cpu time      8.3473: real time      8.3952
       DOS:  cpu time      0.0004: real time      0.0005
    --------------------------------------------
      LOOP:  cpu time      8.3477: real time      8.3956

 eigenvalue-minimisations  :  4160
 total energy-change (2. order) :-0.2175891E+02  (-0.2166057E+02)
 number of electron     448.0000000 magnetization 
 augmentation part      448.0000000 magnetization 

 Free energy of the ion-electron system (eV)
  ---------------------------------------------------
  alpha Z        PSCENC =       751.52672365
  Ewald energy   TEWEN  =    -22871.32626174
  -Hartree energ DENC   =     -8992.25791636
  -exchange      EXHF   =         0.00000000
  -V(xc)+E(xc)   XCENC  =      1456.53425565
  PAW double counting   =     26466.43774078   -29286.08056155
  entropy T*S    EENTRO =        -0.00000000
  eigenvalues    EBANDS =     -5285.21540320
  atomic energy  EATOM  =     37532.17946992
  Solvation  Ediel_sol  =         0.00000000
  ---------------------------------------------------
  free energy    TOTEN  =      -228.20195285 eV

  energy without entropy =     -228.20195285  energy(sigma->0) =     -228.20195285


--------------------------------------------------------------------------------------------------------




--------------------------------------- Iteration      1(   5)  ---------------------------------------


     EDDAV:  cpu time      8.6137: real time      8.6658
       DOS:  cpu time      0.0007: real time      0.0007
    CHARGE:  cpu time      0.2734: real time      0.2749
    MIXING:  cpu time      0.0012: real time      0.0020
    --------------------------------------------
      LOOP:  cpu time      8.8890: real time      8.9435

 eigenvalue-minimisations  :  4320
 total energy-change (2. order) :-0.8025573E+00  (-0.8011714E+00)
 number of electron     448.0000022 magnetization 
 augmentation part      111.6454781 magnetization 

 Broyden mixing:
  rms(total) = 0.10608E+01    rms(broyden)= 0.10604E+01
  rms(prec ) = 0.14938E+01
  weight for this iteration     100.00

 Free energy of the ion-electron system (eV)
  ---------------------------------------------------
  alpha Z        PSCENC =       751.52672365
  Ewald energy   TEWEN  =    -22871.32626174
  -Hartree energ DENC   =     -8992.25791636
  -exchange      EXHF   =         0.00000000
  -V(xc)+E(xc)   XCENC  =      1456.53425565
  PAW double counting   =     26466.43774078   -29286.08056155
  entropy T*S    EENTRO =        -0.00000000
  eigenvalues    EBANDS =     -5286.01796046
  atomic energy  EATOM  =     37532.17946992
  Solvation  Ediel_sol  =         0.00000000
  ---------------------------------------------------
  free energy    TOTEN  =      -229.00451010 eV

  energy without entropy =     -229.00451010  energy(sigma->0) =     -229.00451010


--------------------------------------------------------------------------------------------------------




--------------------------------------- Iteration      1(   6)  ---------------------------------------


    POTLOK:  cpu time      0.0367: real time      0.0374
    SETDIJ:  cpu time      0.0293: real time      0.0297
     EDDAV:  cpu time      8.6083: real time      8.6565
       DOS:  cpu time      0.0002: real time      0.0002
    CHARGE:  cpu time      0.2737: real time      0.2751
    MIXING:  cpu time      0.0013: real time      0.0013
    --------------------------------------------
      LOOP:  cpu time      8.9494: real time      9.0001

 eigenvalue-minimisations  :  4288
 total energy-change (2. order) : 0.4866190E+01  (-0.9482085E+00)
 number of electron     448.0000022 magnetization 
 augmentation part      112.4570817 magnetization 

 Broyden mixing:
  rms(total) = 0.77589E+00    rms(broyden)= 0.77584E+00
  rms(prec ) = 0.89192E+00
  weight for this iteration     100.00

 eigenvalues of (default mixing * dielectric matrix)
  average eigenvalue GAMMA=   1.0745
  1.0745

 Free energy of the ion-electron system (eV)
  ---------------------------------------------------
  alpha Z        PSCENC =       751.52672365
  Ewald energy   TEWEN  =    -22871.32626174
  -Hartree energ DENC   =     -9061.84897374
  -exchange      EXHF   =         0.00000000
  -V(xc)+E(xc)   XCENC  =      1465.43495138
  PAW double counting   =     27291.07118262   -30103.09386605
  entropy T*S    EENTRO =        -0.00000000
  eigenvalues    EBANDS =     -5228.08154595
  atomic energy  EATOM  =     37532.17946992
  Solvation  Ediel_sol  =         0.00000000
  ---------------------------------------------------
  free energy    TOTEN  =      -224.13831990 eV

  energy without entropy =     -224.13831990  energy(sigma->0) =     -224.13831990


--------------------------------------------------------------------------------------------------------




--------------------------------------- Iteration      1(   7)  ---------------------------------------


    POTLOK:  cpu time      0.0360: real time      0.0363
    SETDIJ:  cpu time      0.0295: real time      0.0299
     EDDAV:  cpu time      9.3147: real time      9.3668
       DOS:  cpu time      0.0002: real time      0.0002
    CHARGE:  cpu time      0.2712: real time      0.2727
    MIXING:  cpu time      0.0013: real time      0.0013
    --------------------------------------------
      LOOP:  cpu time      9.6528: real time      9.7072

 eigenvalue-minimisations  :  4704
 total energy-change (2. order) : 0.3609533E+00  (-0.2068167E+00)
 number of electron     448.0000022 magnetization 
 augmentation part      112.8270834 magnetization 

 Broyden mixing:
  rms(total) = 0.53332E+00    rms(broyden)= 0.53329E+00
  rms(prec ) = 0.56331E+00
  weight for this iteration     100.00

 eigenvalues of (default mixing * dielectric matrix)
  average eigenvalue GAMMA=   2.1548
  1.4390  2.8707

 Free energy of the ion-electron system (eV)
  ---------------------------------------------------
  alpha Z        PSCENC =       751.52672365
  Ewald energy   TEWEN  =    -22871.32626174
  -Hartree energ DENC   =     -9085.85499956
  -exchange      EXHF   =         0.00000000
  -V(xc)+E(xc)   XCENC  =      1470.12574031
  PAW double counting   =     28329.34262768   -31142.07016831
  entropy T*S    EENTRO =        -0.00000000
  eigenvalues    EBANDS =     -5207.70049860
  atomic energy  EATOM  =     37532.17946992
  Solvation  Ediel_sol  =         0.00000000
  ---------------------------------------------------
  free energy    TOTEN  =      -223.77736663 eV

  energy without entropy =     -223.77736663  energy(sigma->0) =     -223.77736663


--------------------------------------------------------------------------------------------------------




--------------------------------------- Iteration      1(   8)  ---------------------------------------


    POTLOK:  cpu time      0.0356: real time      0.0359
    SETDIJ:  cpu time      0.0306: real time      0.0307
     EDDAV:  cpu time      8.1888: real time      8.2345
       DOS:  cpu time      0.0002: real time      0.0002
    CHARGE:  cpu time      0.2723: real time      0.2741
    MIXING:  cpu time      0.0012: real time      0.0030
    --------------------------------------------
      LOOP:  cpu time      8.5286: real time      8.5785

 eigenvalue-minimisations  :  4000
 total energy-change (2. order) :-0.1252762E+00  (-0.2665126E-01)
 number of electron     448.0000022 magnetization 
 augmentation part      112.8096349 magnetization 

 Broyden mixing:
  rms(total) = 0.14171E+00    rms(broyden)= 0.14171E+00
  rms(prec ) = 0.14460E+00
  weight for this iteration     100.00

 eigenvalues of (default mixing * dielectric matrix)
  average eigenvalue GAMMA=   1.5562
  2.5211  1.3851  0.7624

 Free energy of the ion-electron system (eV)
  ---------------------------------------------------
  alpha Z        PSCENC =       751.52672365
  Ewald energy   TEWEN  =    -22871.32626174
  -Hartree energ DENC   =     -9075.21691722
  -exchange      EXHF   =         0.00000000
  -V(xc)+E(xc)   XCENC  =      1472.33848832
  PAW double counting   =     29809.29309795   -32629.12876209
  entropy T*S    EENTRO =        -0.00000000
  eigenvalues    EBANDS =     -5213.56848168
  atomic energy  EATOM  =     37532.17946992
  Solvation  Ediel_sol  =         0.00000000
  ---------------------------------------------------
  free energy    TOTEN  =      -223.90264288 eV

  energy without entropy =     -223.90264288  energy(sigma->0) =     -223.90264288


--------------------------------------------------------------------------------------------------------




--------------------------------------- Iteration      1(   9)  ---------------------------------------


    POTLOK:  cpu time      0.0357: real time      0.0359
    SETDIJ:  cpu time      0.0305: real time      0.0307
     EDDAV:  cpu time      8.6413: real time      8.6893
       DOS:  cpu time      0.0002: real time      0.0002
    CHARGE:  cpu time      0.2797: real time      0.2816
    MIXING:  cpu time      0.0010: real time      0.0010
    --------------------------------------------
      LOOP:  cpu time      8.9884: real time      9.0386

 eigenvalue-minimisations  :  4288
 total energy-change (2. order) : 0.5548021E-02  (-0.1132006E-02)
 number of electron     448.0000022 magnetization 
 augmentation part      112.8316811 magnetization 

 Broyden mixing:
  rms(total) = 0.59756E-01    rms(broyden)= 0.59755E-01
  rms(prec ) = 0.61818E-01
  weight for this iteration     100.00

 eigenvalues of (default mixing * dielectric matrix)
  average eigenvalue GAMMA=   2.0162
  2.9601  2.7153  0.9974  1.3922

 Free energy of the ion-electron system (eV)
  ---------------------------------------------------
  alpha Z        PSCENC =       751.52672365
  Ewald energy   TEWEN  =    -22871.32626174
  -Hartree energ DENC   =     -9077.96245134
  -exchange      EXHF   =         0.00000000
  -V(xc)+E(xc)   XCENC  =      1472.35702274
  PAW double counting   =     29629.33491934   -32448.32774973
  entropy T*S    EENTRO =        -0.00000000
  eigenvalues    EBANDS =     -5211.67876771
  atomic energy  EATOM  =     37532.17946992
  Solvation  Ediel_sol  =         0.00000000
  ---------------------------------------------------
  free energy    TOTEN  =      -223.89709486 eV

  energy without entropy =     -223.89709486  energy(sigma->0) =     -223.89709486


--------------------------------------------------------------------------------------------------------




--------------------------------------- Iteration      1(  10)  ---------------------------------------


    POTLOK:  cpu time      0.0362: real time      0.0364
    SETDIJ:  cpu time      0.0305: real time      0.0306
     EDDAV:  cpu time      8.1882: real time      8.2333
       DOS:  cpu time      0.0002: real time      0.0002
    CHARGE:  cpu time      0.2713: real time      0.2727
    MIXING:  cpu time      0.0015: real time      0.0016
    --------------------------------------------
      LOOP:  cpu time      8.5279: real time      8.5747

 eigenvalue-minimisations  :  4000
 total energy-change (2. order) :-0.4339410E-02  (-0.1844518E-02)
 number of electron     448.0000022 magnetization 
 augmentation part      112.8610460 magnetization 

 Broyden mixing:
  rms(total) = 0.29170E-01    rms(broyden)= 0.29168E-01
  rms(prec ) = 0.31220E-01
  weight for this iteration     100.00

 eigenvalues of (default mixing * dielectric matrix)
  average eigenvalue GAMMA=   1.7106
  2.9409  2.5111  1.2965  1.0205  0.7841

 Free energy of the ion-electron system (eV)
  ---------------------------------------------------
  alpha Z        PSCENC =       751.52672365
  Ewald energy   TEWEN  =    -22871.32626174
  -Hartree energ DENC   =     -9079.44948774
  -exchange      EXHF   =         0.00000000
  -V(xc)+E(xc)   XCENC  =      1472.60843230
  PAW double counting   =     29454.46677824   -32273.71126141
  entropy T*S    EENTRO =        -0.00000000
  eigenvalues    EBANDS =     -5210.19582750
  atomic energy  EATOM  =     37532.17946992
  Solvation  Ediel_sol  =         0.00000000
  ---------------------------------------------------
  free energy    TOTEN  =      -223.90143427 eV

  energy without entropy =     -223.90143427  energy(sigma->0) =     -223.90143427


--------------------------------------------------------------------------------------------------------




--------------------------------------- Iteration      1(  11)  ---------------------------------------


    POTLOK:  cpu time      0.0362: real time      0.0372
    SETDIJ:  cpu time      0.0305: real time      0.0307
     EDDAV:  cpu time      8.8854: real time      8.9350
       DOS:  cpu time      0.0002: real time      0.0002
    CHARGE:  cpu time      0.2758: real time      0.2777
    MIXING:  cpu time      0.0013: real time      0.0013
    --------------------------------------------
      LOOP:  cpu time      9.2294: real time      9.2821

 eigenvalue-minimisations  :  4416
 total energy-change (2. order) : 0.7511342E-03  (-0.1675583E-03)
 number of electron     448.0000022 magnetization 
 augmentation part      112.8513622 magnetization 

 Broyden mixing:
  rms(total) = 0.82427E-02    rms(broyden)= 0.82426E-02
  rms(prec ) = 0.86449E-02
  weight for this iteration     100.00

 eigenvalues of (default mixing * dielectric matrix)
  average eigenvalue GAMMA=   1.5919
  2.9105  2.4243  1.3287  1.0081  0.9398  0.9398

 Free energy of the ion-electron system (eV)
  ---------------------------------------------------
  alpha Z        PSCENC =       751.52672365
  Ewald energy   TEWEN  =    -22871.32626174
  -Hartree energ DENC   =     -9078.33218942
  -exchange      EXHF   =         0.00000000
  -V(xc)+E(xc)   XCENC  =      1472.52855412
  PAW double counting   =     29487.88651316   -32307.26936147
  entropy T*S    EENTRO =        -0.00000000
  eigenvalues    EBANDS =     -5211.09413135
  atomic energy  EATOM  =     37532.17946992
  Solvation  Ediel_sol  =         0.00000000
  ---------------------------------------------------
  free energy    TOTEN  =      -223.90068314 eV

  energy without entropy =     -223.90068314  energy(sigma->0) =     -223.90068314


--------------------------------------------------------------------------------------------------------




--------------------------------------- Iteration      1(  12)  ---------------------------------------


    POTLOK:  cpu time      0.0362: real time      0.0404
    SETDIJ:  cpu time      0.0309: real time      0.0310
     EDDAV:  cpu time      8.8818: real time      8.9321
       DOS:  cpu time      0.0002: real time      0.0002
    CHARGE:  cpu time      0.2736: real time      0.2751
    MIXING:  cpu time      0.0013: real time      0.0013
    --------------------------------------------
      LOOP:  cpu time      9.2241: real time      9.2802

 eigenvalue-minimisations  :  4416
 total energy-change (2. order) : 0.3648392E-04  (-0.1575300E-04)
 number of electron     448.0000022 magnetization 
 augmentation part      112.8485371 magnetization 

 Broyden mixing:
  rms(total) = 0.95514E-03    rms(broyden)= 0.95379E-03
  rms(prec ) = 0.11781E-02
  weight for this iteration     100.00

 eigenvalues of (default mixing * dielectric matrix)
  average eigenvalue GAMMA=   1.6482
  2.8817  2.4226  2.0169  1.1474  1.1474  0.8392  1.0820

 Free energy of the ion-electron system (eV)
  ---------------------------------------------------
  alpha Z        PSCENC =       751.52672365
  Ewald energy   TEWEN  =    -22871.32626174
  -Hartree energ DENC   =     -9078.16305159
  -exchange      EXHF   =         0.00000000
  -V(xc)+E(xc)   XCENC  =      1472.51651878
  PAW double counting   =     29500.03975395   -32319.41591759
  entropy T*S    EENTRO =        -0.00000000
  eigenvalues    EBANDS =     -5211.25788204
  atomic energy  EATOM  =     37532.17946992
  Solvation  Ediel_sol  =         0.00000000
  ---------------------------------------------------
  free energy    TOTEN  =      -223.90064665 eV

  energy without entropy =     -223.90064665  energy(sigma->0) =     -223.90064665


--------------------------------------------------------------------------------------------------------




--------------------------------------- Iteration      1(  13)  ---------------------------------------


    POTLOK:  cpu time      0.0359: real time      0.0369
    SETDIJ:  cpu time      0.0308: real time      0.0310
     EDDAV:  cpu time      8.3661: real time      8.4135
       DOS:  cpu time      0.0003: real time      0.0003
    CHARGE:  cpu time      0.2703: real time      0.2721
    MIXING:  cpu time      0.0024: real time      0.0024
    --------------------------------------------
      LOOP:  cpu time      8.7058: real time      8.7561

 eigenvalue-minimisations  :  4096
 total energy-change (2. order) :-0.5161368E-05  (-0.1392638E-05)
 number of electron     448.0000022 magnetization 
 augmentation part      112.8477796 magnetization 

 Broyden mixing:
  rms(total) = 0.34093E-03    rms(broyden)= 0.34050E-03
  rms(prec ) = 0.38852E-03
  weight for this iteration     100.00

 eigenvalues of (default mixing * dielectric matrix)
  average eigenvalue GAMMA=   1.6387
  2.9754  2.3865  2.3865  1.2757  0.9853  0.9853  1.0577  1.0577

 Free energy of the ion-electron system (eV)
  ---------------------------------------------------
  alpha Z        PSCENC =       751.52672365
  Ewald energy   TEWEN  =    -22871.32626174
  -Hartree energ DENC   =     -9078.11752809
  -exchange      EXHF   =         0.00000000
  -V(xc)+E(xc)   XCENC  =      1472.51069971
  PAW double counting   =     29498.67355245   -32318.04407556
  entropy T*S    EENTRO =        -0.00000000
  eigenvalues    EBANDS =     -5211.30323216
  atomic energy  EATOM  =     37532.17946992
  Solvation  Ediel_sol  =         0.00000000
  ---------------------------------------------------
  free energy    TOTEN  =      -223.90065181 eV

  energy without entropy =     -223.90065181  energy(sigma->0) =     -223.90065181


--------------------------------------------------------------------------------------------------------




--------------------------------------- Iteration      1(  14)  ---------------------------------------


    POTLOK:  cpu time      0.0355: real time      0.0358
    SETDIJ:  cpu time      0.0306: real time      0.0308
     EDDAV:  cpu time      9.1498: real time      9.2013
       DOS:  cpu time      0.0002: real time      0.0002
    CHARGE:  cpu time      0.2750: real time      0.2764
    MIXING:  cpu time      0.0013: real time      0.0013
    --------------------------------------------
      LOOP:  cpu time      9.4924: real time      9.5458

 eigenvalue-minimisations  :  4576
 total energy-change (2. order) :-0.1589506E-06  (-0.1245050E-06)
 number of electron     448.0000022 magnetization 
 augmentation part      112.8476646 magnetization 

 Broyden mixing:
  rms(total) = 0.92782E-03    rms(broyden)= 0.92778E-03
  rms(prec ) = 0.95132E-03
  weight for this iteration     100.00

 eigenvalues of (default mixing * dielectric matrix)
  average eigenvalue GAMMA=   1.6753
  3.0642  2.5949  2.5949  1.6278  1.2355  1.2355  0.9364  0.9364  0.8517

 Free energy of the ion-electron system (eV)
  ---------------------------------------------------
  alpha Z        PSCENC =       751.52672365
  Ewald energy   TEWEN  =    -22871.32626174
  -Hartree energ DENC   =     -9078.12560377
  -exchange      EXHF   =         0.00000000
  -V(xc)+E(xc)   XCENC  =      1472.51190682
  PAW double counting   =     29500.09977742   -32319.46923031
  entropy T*S    EENTRO =        -0.00000000
  eigenvalues    EBANDS =     -5211.29743397
  atomic energy  EATOM  =     37532.17946992
  Solvation  Ediel_sol  =         0.00000000
  ---------------------------------------------------
  free energy    TOTEN  =      -223.90065197 eV

  energy without entropy =     -223.90065197  energy(sigma->0) =     -223.90065197


--------------------------------------------------------------------------------------------------------




--------------------------------------- Iteration      1(  15)  ---------------------------------------


    POTLOK:  cpu time      0.0357: real time      0.0360
    SETDIJ:  cpu time      0.0302: real time      0.0303
     EDDAV:  cpu time      8.1577: real time      8.2034
       DOS:  cpu time      0.0002: real time      0.0002
    CHARGE:  cpu time      0.2720: real time      0.2738
    MIXING:  cpu time      0.0019: real time      0.0019
    --------------------------------------------
      LOOP:  cpu time      8.4976: real time      8.5456

 eigenvalue-minimisations  :  3968
 total energy-change (2. order) :-0.1483444E-05  (-0.7089995E-07)
 number of electron     448.0000022 magnetization 
 augmentation part      112.8477971 magnetization 

 Broyden mixing:
  rms(total) = 0.21437E-03    rms(broyden)= 0.21428E-03
  rms(prec ) = 0.22071E-03
  weight for this iteration     100.00

 eigenvalues of (default mixing * dielectric matrix)
  average eigenvalue GAMMA=   1.6160
  3.1179  2.7769  2.3594  1.3607  1.3607  1.3572  1.0135  1.0135  0.9117  0.8885

 Free energy of the ion-electron system (eV)
  ---------------------------------------------------
  alpha Z        PSCENC =       751.52672365
  Ewald energy   TEWEN  =    -22871.32626174
  -Hartree energ DENC   =     -9078.15881442
  -exchange      EXHF   =         0.00000000
  -V(xc)+E(xc)   XCENC  =      1472.51312700
  PAW double counting   =     29498.73886778   -32318.10516224
  entropy T*S    EENTRO =        -0.00000000
  eigenvalues    EBANDS =     -5211.26860341
  atomic energy  EATOM  =     37532.17946992
  Solvation  Ediel_sol  =         0.00000000
  ---------------------------------------------------
  free energy    TOTEN  =      -223.90065346 eV

  energy without entropy =     -223.90065346  energy(sigma->0) =     -223.90065346


--------------------------------------------------------------------------------------------------------




--------------------------------------- Iteration      1(  16)  ---------------------------------------


    POTLOK:  cpu time      0.0355: real time      0.0357
    SETDIJ:  cpu time      0.0304: real time      0.0306
     EDDAV:  cpu time      8.2973: real time      8.3433
       DOS:  cpu time      0.0002: real time      0.0002
    CHARGE:  cpu time      0.2702: real time      0.2716
    MIXING:  cpu time      0.0017: real time      0.0017
    --------------------------------------------
      LOOP:  cpu time      8.6353: real time      8.6831

 eigenvalue-minimisations  :  4032
 total energy-change (2. order) :-0.4008398E-06  (-0.6208556E-08)
 number of electron     448.0000022 magnetization 
 augmentation part      112.8478618 magnetization 

 Broyden mixing:
  rms(total) = 0.36559E-04    rms(broyden)= 0.36038E-04
  rms(prec ) = 0.41668E-04
  weight for this iteration     100.00

 eigenvalues of (default mixing * dielectric matrix)
  average eigenvalue GAMMA=   1.5854
  3.1506  2.7645  2.3506  1.4882  1.4882  1.3313  1.1323  1.1323  0.9476  0.8266
  0.8266

 Free energy of the ion-electron system (eV)
  ---------------------------------------------------
  alpha Z        PSCENC =       751.52672365
  Ewald energy   TEWEN  =    -22871.32626174
  -Hartree energ DENC   =     -9078.16380826
  -exchange      EXHF   =         0.00000000
  -V(xc)+E(xc)   XCENC  =      1472.51321518
  PAW double counting   =     29498.28511234   -32317.65015905
  entropy T*S    EENTRO =        -0.00000000
  eigenvalues    EBANDS =     -5211.26494591
  atomic energy  EATOM  =     37532.17946992
  Solvation  Ediel_sol  =         0.00000000
  ---------------------------------------------------
  free energy    TOTEN  =      -223.90065386 eV

  energy without entropy =     -223.90065386  energy(sigma->0) =     -223.90065386


--------------------------------------------------------------------------------------------------------




--------------------------------------- Iteration      1(  17)  ---------------------------------------


    POTLOK:  cpu time      0.0356: real time      0.0359
    SETDIJ:  cpu time      0.0298: real time      0.0301
     EDDAV:  cpu time      6.4246: real time      6.4603
       DOS:  cpu time      0.0002: real time      0.0002
    CHARGE:  cpu time      0.2714: real time      0.2728
    MIXING:  cpu time      0.0016: real time      0.0016
    --------------------------------------------
      LOOP:  cpu time      6.7632: real time      6.8009

 eigenvalue-minimisations  :  2880
 total energy-change (2. order) : 0.3198511E-07  (-0.8875729E-09)
 number of electron     448.0000022 magnetization 
 augmentation part      112.8478594 magnetization 

 Broyden mixing:
  rms(total) = 0.19578E-04    rms(broyden)= 0.18611E-04
  rms(prec ) = 0.22964E-04
  weight for this iteration     100.00

 eigenvalues of (default mixing * dielectric matrix)
  average eigenvalue GAMMA=   1.5799
  3.1538  2.8369  2.2383  1.9620  1.3425  1.3425  1.2226  1.2226  0.9251  0.9060
  0.9035  0.9035

 Free energy of the ion-electron system (eV)
  ---------------------------------------------------
  alpha Z        PSCENC =       751.52672365
  Ewald energy   TEWEN  =    -22871.32626174
  -Hartree energ DENC   =     -9078.16480291
  -exchange      EXHF   =         0.00000000
  -V(xc)+E(xc)   XCENC  =      1472.51325607
  PAW double counting   =     29498.25232448   -32317.61737402
  entropy T*S    EENTRO =        -0.00000000
  eigenvalues    EBANDS =     -5211.26398927
  atomic energy  EATOM  =     37532.17946992
  Solvation  Ediel_sol  =         0.00000000
  ---------------------------------------------------
  free energy    TOTEN  =      -223.90065383 eV

  energy without entropy =     -223.90065383  energy(sigma->0) =     -223.90065383


--------------------------------------------------------------------------------------------------------




--------------------------------------- Iteration      1(  18)  ---------------------------------------


    POTLOK:  cpu time      0.0358: real time      0.0369
    SETDIJ:  cpu time      0.0297: real time      0.0298
     EDDAV:  cpu time      5.5780: real time      5.6097
       DOS:  cpu time      0.0002: real time      0.0002
    CHARGE:  cpu time      0.2758: real time      0.2772
    MIXING:  cpu time      0.0017: real time      0.0017
    --------------------------------------------
      LOOP:  cpu time      5.9211: real time      5.9554

 eigenvalue-minimisations  :  2336
 total energy-change (2. order) :-0.1615263E-07  (-0.3084983E-09)
 number of electron     448.0000022 magnetization 
 augmentation part      112.8478628 magnetization 

 Broyden mixing:
  rms(total) = 0.24013E-04    rms(broyden)= 0.23233E-04
  rms(prec ) = 0.25091E-04
  weight for this iteration     100.00

 eigenvalues of (default mixing * dielectric matrix)
  average eigenvalue GAMMA=   1.5936
  3.1654  2.8600  2.3225  2.3225  1.2944  1.2944  1.3462  1.1972  1.1972  1.0189
  0.9512  0.8736  0.8736

 Free energy of the ion-electron system (eV)
  ---------------------------------------------------
  alpha Z        PSCENC =       751.52672365
  Ewald energy   TEWEN  =    -22871.32626174
  -Hartree energ DENC   =     -9078.16694765
  -exchange      EXHF   =         0.00000000
  -V(xc)+E(xc)   XCENC  =      1472.51334186
  PAW double counting   =     29498.23855678   -32317.60341715
  entropy T*S    EENTRO =        -0.00000000
  eigenvalues    EBANDS =     -5211.26211951
  atomic energy  EATOM  =     37532.17946992
  Solvation  Ediel_sol  =         0.00000000
  ---------------------------------------------------
  free energy    TOTEN  =      -223.90065384 eV

  energy without entropy =     -223.90065384  energy(sigma->0) =     -223.90065384


--------------------------------------------------------------------------------------------------------




--------------------------------------- Iteration      1(  19)  ---------------------------------------


    POTLOK:  cpu time      0.0357: real time      0.0360
    SETDIJ:  cpu time      0.0301: real time      0.0302
     EDDAV:  cpu time      5.8224: real time      5.8554
       DOS:  cpu time      0.0002: real time      0.0002
    CHARGE:  cpu time      0.2736: real time      0.2750
    MIXING:  cpu time      0.0021: real time      0.0021
    --------------------------------------------
      LOOP:  cpu time      6.1640: real time      6.1988

 eigenvalue-minimisations  :  2496
 total energy-change (2. order) : 0.2464367E-07  (-0.1737942E-09)
 number of electron     448.0000022 magnetization 
 augmentation part      112.8478662 magnetization 

 Broyden mixing:
  rms(total) = 0.16899E-04    rms(broyden)= 0.15772E-04
  rms(prec ) = 0.16885E-04
  weight for this iteration     100.00

 eigenvalues of (default mixing * dielectric matrix)
  average eigenvalue GAMMA=   1.6255
  3.3047  2.8899  2.2298  2.1398  2.1398  1.4480  1.4480  1.1944  1.1471  1.1471
  0.9502  0.8663  0.9256  0.9256

 Free energy of the ion-electron system (eV)
  ---------------------------------------------------
  alpha Z        PSCENC =       751.52672365
  Ewald energy   TEWEN  =    -22871.32626174
  -Hartree energ DENC   =     -9078.16706596
  -exchange      EXHF   =         0.00000000
  -V(xc)+E(xc)   XCENC  =      1472.51334689
  PAW double counting   =     29498.25604271   -32317.62078156
  entropy T*S    EENTRO =        -0.00000000
  eigenvalues    EBANDS =     -5211.26212774
  atomic energy  EATOM  =     37532.17946992
  Solvation  Ediel_sol  =         0.00000000
  ---------------------------------------------------
  free energy    TOTEN  =      -223.90065382 eV

  energy without entropy =     -223.90065382  energy(sigma->0) =     -223.90065382


--------------------------------------------------------------------------------------------------------




--------------------------------------- Iteration      1(  20)  ---------------------------------------


    POTLOK:  cpu time      0.0362: real time      0.0405
    SETDIJ:  cpu time      0.0301: real time      0.0302
     EDDAV:  cpu time      5.7252: real time      5.7575
       DOS:  cpu time      0.0002: real time      0.0002
    CHARGE:  cpu time      0.2788: real time      0.2802
    MIXING:  cpu time      0.0017: real time      0.0020
    --------------------------------------------
      LOOP:  cpu time      6.0721: real time      6.1104

 eigenvalue-minimisations  :  2432
 total energy-change (2. order) : 0.3534660E-07  (-0.1393765E-09)
 number of electron     448.0000022 magnetization 
 augmentation part      112.8478612 magnetization 

 Broyden mixing:
  rms(total) = 0.91716E-05    rms(broyden)= 0.68770E-05
  rms(prec ) = 0.73977E-05
  weight for this iteration     100.00
  WARNING: grid for Broyden might be to small

 eigenvalues of (default mixing * dielectric matrix)
  average eigenvalue GAMMA=   1.6372
  3.6995  2.9829  2.7482  2.4017  2.0072  1.2705  1.2705  1.1782  1.1782  1.2475
  1.0535  0.9385  0.9385  0.8215  0.8215

 Free energy of the ion-electron system (eV)
  ---------------------------------------------------
  alpha Z        PSCENC =       751.52672365
  Ewald energy   TEWEN  =    -22871.32626174
  -Hartree energ DENC   =     -9078.16639126
  -exchange      EXHF   =         0.00000000
  -V(xc)+E(xc)   XCENC  =      1472.51330997
  PAW double counting   =     29498.27750748   -32317.64230716
  entropy T*S    EENTRO =        -0.00000000
  eigenvalues    EBANDS =     -5211.26270465
  atomic energy  EATOM  =     37532.17946992
  Solvation  Ediel_sol  =         0.00000000
  ---------------------------------------------------
  free energy    TOTEN  =      -223.90065378 eV

  energy without entropy =     -223.90065378  energy(sigma->0) =     -223.90065378


--------------------------------------------------------------------------------------------------------




--------------------------------------- Iteration      1(  21)  ---------------------------------------


    POTLOK:  cpu time      0.0359: real time      0.0367
    SETDIJ:  cpu time      0.0303: real time      0.0305
     EDDAV:  cpu time      5.5445: real time      5.5753
       DOS:  cpu time      0.0002: real time      0.0002
    --------------------------------------------
      LOOP:  cpu time      5.6108: real time      5.6427

 eigenvalue-minimisations  :  2304
 total energy-change (2. order) : 0.3950845E-08  (-0.8956083E-10)
 number of electron     448.0000022 magnetization 
 augmentation part      112.8478612 magnetization 

 Free energy of the ion-electron system (eV)
  ---------------------------------------------------
  alpha Z        PSCENC =       751.52672365
  Ewald energy   TEWEN  =    -22871.32626174
  -Hartree energ DENC   =     -9078.16632216
  -exchange      EXHF   =         0.00000000
  -V(xc)+E(xc)   XCENC  =      1472.51331162
  PAW double counting   =     29498.28054701   -32317.64536267
  entropy T*S    EENTRO =        -0.00000000
  eigenvalues    EBANDS =     -5211.26275942
  atomic energy  EATOM  =     37532.17946992
  Solvation  Ediel_sol  =         0.00000000
  ---------------------------------------------------
  free energy    TOTEN  =      -223.90065378 eV

  energy without entropy =     -223.90065378  energy(sigma->0) =     -223.90065378


--------------------------------------------------------------------------------------------------------




 average (electrostatic) potential at core
  the test charge radii are     0.9254  0.9406
  (the norm of the test charge is              1.0000)
       1 -46.9442       2 -46.9442       3 -46.9384       4 -46.9495       5 -46.9483
       6 -46.9483       7 -46.9384       8 -46.9495       9 -46.9553      10 -46.9440
      11 -46.9541      12 -46.9496      13 -46.9508      14 -46.9484      15 -46.9541
      16 -46.9496      17 -46.9440      18 -46.9553      19 -46.9541      20 -46.9496
      21 -46.9484      22 -46.9508      23 -46.9541      24 -46.9496      25 -46.9553
      26 -46.9553      27 -46.9521      28 -46.9496      29 -46.9509      30 -46.9509
      31 -46.9521      32 -46.9496      33 -93.5854      34 -93.5854      35 -93.5880
      36 -93.5419      37 -93.5854      38 -93.5854      39 -93.5882      40 -93.5865
      41 -93.5855      42 -93.5910      43 -93.5882      44 -93.6108      45 -93.5855
      46 -93.5910      47 -93.5882      48 -93.5881      49 -93.5910      50 -93.5855
      51 -93.5882      52 -93.6108      53 -93.5910      54 -93.5855      55 -93.5882
      56 -93.5881      57 -93.5910      58 -93.5910      59 -93.5883      60 -93.5900
[...]
         0         1         2         3         4         5         6         7         8         9
 total charge-density along one line
 
 pseudopotential strength for first ion, spin component:           1
-25.383  -0.000   0.000   2.508   0.000  -0.000  -0.000  -0.000
 -0.000 -25.383  -0.000   0.000   2.508   0.000  -0.000  -0.000
  0.000  -0.000 -25.383  -0.000   0.000   2.508   0.000   0.001
  2.508   0.000  -0.000   6.529   0.000   0.000  -0.000  -0.000
  0.000   2.508   0.000   0.000   6.529   0.000   0.000  -0.000
 -0.000   0.000   2.508   0.000   0.000   6.529  -0.000  -0.000
 -0.000  -0.000   0.000  -0.000   0.000  -0.000   1.428   6.993
 -0.000  -0.000   0.001  -0.000  -0.000  -0.000   6.993  33.988
 total augmentation occupancy for first ion, spin component:           1
  2.002   0.000  -0.000   0.002   0.000  -0.000   0.000  -0.000
  0.000   2.002   0.000   0.000   0.002   0.000   0.000   0.000
 -0.000   0.000   2.002  -0.000   0.000   0.002  -0.000   0.000
  0.002   0.000  -0.000   0.017   0.000  -0.000  -0.000   0.000
  0.000   0.002   0.000   0.000   0.017   0.000   0.000   0.000
 -0.000   0.000   0.002  -0.000   0.000   0.018  -0.003   0.000
  0.000   0.000  -0.000  -0.000   0.000  -0.003   0.403  -0.001
 -0.000   0.000   0.000   0.000   0.000   0.000  -0.001   0.000


------------------------ aborting loop because EDIFF is reached ----------------------------------------


    CHARGE:  cpu time      0.2671: real time      0.2686
    FORLOC:  cpu time      0.0118: real time      0.0118
    FORNL :  cpu time      1.7175: real time      1.7271
    STRESS:  cpu time      9.4665: real time      9.5143
    FORCOR:  cpu time      0.0434: real time      0.0436
    FORHAR:  cpu time      0.0172: real time      0.0173
    MIXING:  cpu time      0.0013: real time      0.0013
    OFIELD:  cpu time      0.0000: real time      0.0000

  FORCE on cell =-STRESS in cart. coord.  units (eV):
  Direction    XX          YY          ZZ          XY          YZ          ZX
  --------------------------------------------------------------------------------------
  Alpha Z   751.52672   751.52672   751.52672
  Ewald   -7623.76841 -7623.76841 -7623.92677     0.01645     0.00000     0.00000
  Hartree  3026.07606  3026.07606  3026.01418     0.01190    -0.00000    -0.00000
  E(xc)   -2014.34805 -2014.34805 -2014.34811     0.00000     0.00000     0.00000
  Local   -2024.96918 -2024.96918 -2024.75194    -0.02816    -0.00000    -0.00000
  n-local  1887.57144  1887.68068  1887.62051     0.00006     0.00000     0.00000
  augment   687.00909   687.00909   687.00916    -0.00004    -0.00010    -0.00010
  Kinetic  5310.35151  5310.69848  5310.52322     0.00002     0.00000     0.00000
  Fock        0.00000     0.00000     0.00000     0.00000     0.00000     0.00000
  -------------------------------------------------------------------------------------
  Total      -0.32271    -0.32271    -0.33302     0.00022     0.00000     0.00000
  in kB      -0.36762    -0.36762    -0.37937     0.00025     0.00000     0.00000
  external pressure =       -0.37 kB  Pullay stress =        0.00 kB


 VOLUME and BASIS-vectors are now :
 -----------------------------------------------------------------------------
  energy-cutoff  :      341.21
  volume of cell :     1406.43
      direct lattice vectors                 reciprocal lattice vectors
    11.204002360  0.000000000  0.000000000     0.089253819  0.000000000  0.000000000
     0.000000000 11.204002360  0.000000000     0.000000000  0.089253819  0.000000000
     0.000000000  0.000000000 11.204002360     0.000000000  0.000000000  0.089253819

  length of vectors
    11.204002360 11.204002360 11.204002360     0.089253819  0.089253819  0.089253819


 FORCES acting on ions
    electron-ion (+dipol)            ewald-force                    non-local-force                 convergence-correction
 -----------------------------------------------------------------------------------------------
   -.446E+01 -.238E+00 0.675E-05   0.443E+01 0.242E+00 -.121E-13   0.896E-01 -.284E-02 0.293E-22   -.326E-05 -.147E-06 -.168E-12
   0.238E+00 0.446E+01 -.675E-05   -.242E+00 -.443E+01 -.768E-14   0.284E-02 -.896E-01 -.299E-22   0.147E-06 0.326E-05 -.897E-13
   0.246E+00 -.246E+00 0.875E+00   -.250E+00 0.250E+00 -.940E+00   0.303E-02 -.303E-02 0.536E-01   0.766E-06 -.766E-06 -.234E-06
   -.302E+00 0.302E+00 0.497E-02   0.311E+00 -.311E+00 -.519E-02   -.657E-02 0.657E-02 0.180E-03   -.621E-05 0.621E-05 -.494E-06
   -.203E+00 -.881E-02 0.279E-07   0.202E+00 0.877E-02 0.180E-14   0.705E-03 0.354E-04 -.808E-25   -.558E-05 -.366E-06 -.173E-12
   0.881E-02 0.203E+00 -.279E-07   -.877E-02 -.202E+00 0.125E-13   -.354E-04 -.705E-03 0.796E-25   0.366E-06 0.558E-05 -.993E-13
   0.246E+00 -.246E+00 -.875E+00   -.250E+00 0.250E+00 0.940E+00   0.303E-02 -.303E-02 -.536E-01   0.766E-06 -.766E-06 0.234E-06
   -.302E+00 0.302E+00 -.497E-02   0.311E+00 -.311E+00 0.519E-02   -.657E-02 0.657E-02 -.180E-03   -.621E-05 0.621E-05 0.494E-06
   0.282E+00 -.242E+00 -.788E-09   -.315E+00 0.247E+00 0.131E-13   0.276E-01 -.293E-02 0.365E-26   -.646E-05 0.252E-06 -.178E-12
   0.246E+00 -.889E+00 0.502E-05   -.250E+00 0.986E+00 0.954E-14   0.302E-02 -.827E-01 0.204E-22   0.583E-07 -.521E-05 -.770E-13
   0.881E-02 -.242E+00 -.406E+00   -.877E-02 0.247E+00 0.440E+00   -.354E-04 -.293E-02 -.277E-01   0.224E-06 0.925E-06 0.965E-06
   -.299E+00 -.169E+00 0.173E-02   0.307E+00 0.176E+00 -.182E-02   -.646E-02 -.561E-02 0.690E-04   -.552E-05 -.623E-05 -.466E-06
   -.252E-01 -.721E-02 0.248E-10   0.282E-01 0.709E-02 0.160E-13   -.246E-02 0.917E-04 0.284E-25   -.560E-05 0.457E-06 -.156E-12
   0.881E-02 -.166E+00 -.279E-07   -.877E-02 0.167E+00 0.125E-13   -.349E-04 -.809E-03 0.878E-25   -.448E-06 -.584E-05 -.117E-12
   0.881E-02 -.242E+00 0.406E+00   -.877E-02 0.247E+00 -.440E+00   -.354E-04 -.293E-02 0.277E-01   0.224E-06 0.925E-06 -.965E-06
   -.299E+00 -.169E+00 -.173E-02   0.307E+00 0.176E+00 0.182E-02   -.646E-02 -.561E-02 -.690E-04   -.552E-05 -.623E-05 0.466E-06
   0.889E+00 -.246E+00 -.502E-05   -.986E+00 0.250E+00 -.153E-13   0.827E-01 -.302E-02 0.221E-22   0.521E-05 -.583E-07 -.188E-12
   0.242E+00 -.282E+00 0.783E-09   -.247E+00 0.315E+00 0.599E-14   0.293E-02 -.276E-01 0.476E-26   -.252E-06 0.646E-05 -.121E-12
   0.242E+00 -.881E-02 -.406E+00   -.247E+00 0.877E-02 0.440E+00   0.293E-02 0.354E-04 -.277E-01   -.925E-06 -.224E-06 0.965E-06
   0.169E+00 0.299E+00 0.173E-02   -.176E+00 -.307E+00 -.182E-02   0.561E-02 0.646E-02 0.690E-04   0.623E-05 0.552E-05 -.466E-06
   0.166E+00 -.881E-02 0.279E-07   -.167E+00 0.877E-02 0.160E-13   0.809E-03 0.349E-04 -.589E-25   0.584E-05 0.448E-06 -.179E-12
   0.721E-02 0.252E-01 -.213E-10   -.709E-02 -.282E-01 0.891E-14   -.917E-04 0.246E-02 0.888E-26   -.457E-06 0.560E-05 -.116E-12
   0.242E+00 -.881E-02 0.406E+00   -.247E+00 0.877E-02 -.440E+00   0.293E-02 0.354E-04 0.277E-01   -.925E-06 -.224E-06 -.965E-06
   0.169E+00 0.299E+00 -.173E-02   -.176E+00 -.307E+00 0.182E-02   0.561E-02 0.646E-02 -.690E-04   0.623E-05 0.552E-05 0.466E-06
   -.319E+00 -.242E+00 -.785E-09   0.350E+00 0.247E+00 -.162E-13   -.261E-01 -.293E-02 -.305E-25   0.564E-05 -.291E-06 -.173E-12
   0.242E+00 0.319E+00 0.781E-09   -.247E+00 -.350E+00 0.194E-13   0.293E-02 0.261E-01 -.406E-25   0.291E-06 -.564E-05 -.971E-13
   0.721E-02 -.721E-02 -.794E-01   -.709E-02 0.709E-02 0.784E-01   -.916E-04 0.916E-04 0.854E-03   0.459E-07 -.459E-07 0.433E-06
   0.166E+00 -.166E+00 -.151E-02   -.172E+00 0.172E+00 0.155E-02   0.551E-02 -.551E-02 -.370E-04   0.492E-05 -.492E-05 -.759E-06
   0.209E-01 -.721E-02 0.169E-10   -.239E-01 0.709E-02 0.142E-13   0.246E-02 0.920E-04 0.385E-26   0.508E-05 -.815E-06 -.161E-12
   0.721E-02 -.209E-01 -.929E-11   -.709E-02 0.239E-01 0.892E-14   -.920E-04 -.246E-02 0.513E-26   0.815E-06 -.508E-05 -.138E-12
   0.721E-02 -.721E-02 0.794E-01   -.709E-02 0.709E-02 -.784E-01   -.916E-04 0.916E-04 -.854E-03   0.459E-07 -.459E-07 -.433E-06
   0.166E+00 -.166E+00 0.151E-02   -.172E+00 0.172E+00 -.155E-02   0.551E-02 -.551E-02 0.370E-04   0.492E-05 -.492E-05 0.759E-06
   0.643E-01 0.106E+01 0.172E+00   -.646E-01 -.108E+01 -.174E+00   0.595E-03 0.198E-01 0.319E-02   0.240E-06 0.216E-05 -.135E-06
   -.106E+01 -.643E-01 0.172E+00   0.108E+01 0.646E-01 -.174E+00   -.198E-01 -.595E-03 0.319E-02   -.216E-05 -.240E-06 -.135E-06
   -.922E+00 0.922E+00 0.139E-12   0.934E+00 -.934E+00 0.869E-14   -.165E-01 0.165E-01 -.190E-26   -.207E-05 0.207E-05 -.122E-12
   0.198E+01 -.198E+01 0.594E-12   -.200E+01 0.200E+01 -.135E-13   -.258E-02 0.258E-02 0.195E-25   -.950E-06 0.950E-06 -.108E-12
   0.643E-01 0.106E+01 -.172E+00   -.646E-01 -.108E+01 0.174E+00   0.595E-03 0.198E-01 -.319E-02   0.240E-06 0.216E-05 0.135E-06
   -.106E+01 -.643E-01 -.172E+00   0.108E+01 0.646E-01 0.174E+00   -.198E-01 -.595E-03 -.319E-02   -.216E-05 -.240E-06 0.135E-06
   -.109E+00 0.109E+00 0.183E-12   0.110E+00 -.110E+00 -.354E-14   -.155E-02 0.155E-02 -.241E-25   -.384E-05 0.384E-05 -.981E-13
   0.187E-01 -.187E-01 0.261E-11   -.185E-01 0.185E-01 0.623E-14   -.376E-03 0.376E-03 0.178E-24   -.515E-06 0.515E-06 -.978E-13
   0.643E-01 -.434E+00 0.156E+00   -.646E-01 0.440E+00 -.157E+00   0.594E-03 -.104E-01 0.322E-02   0.576E-06 -.318E-05 -.104E-05
   0.502E-01 -.611E-01 -.158E+00   -.512E-01 0.614E-01 0.160E+00   0.177E-02 -.543E-03 -.328E-02   -.477E-05 -.113E-06 0.342E-07
   -.905E+00 -.292E+00 0.509E-12   0.917E+00 0.296E+00 0.237E-14   -.165E-01 -.706E-02 0.616E-25   -.417E-05 -.277E-05 -.103E-12
   0.187E-01 -.204E+01 0.148E-05   -.185E-01 0.206E+01 -.145E-13   -.375E-03 0.768E-02 0.111E-23   0.580E-06 0.219E-06 -.128E-12
   0.643E-01 -.434E+00 -.156E+00   -.646E-01 0.440E+00 0.157E+00   0.594E-03 -.104E-01 -.322E-02   0.576E-06 -.318E-05 0.104E-05
   0.502E-01 -.611E-01 0.158E+00   -.512E-01 0.614E-01 -.160E+00   0.177E-02 -.543E-03 0.328E-02   -.477E-05 -.113E-06 -.342E-07
   -.108E+00 -.928E-01 -.164E-11   0.109E+00 0.939E-01 -.266E-14   -.153E-02 -.169E-02 -.843E-25   -.498E-05 -.378E-05 -.106E-12
   0.273E-02 -.164E-01 0.835E-08   -.273E-02 0.162E-01 0.771E-17   0.267E-05 0.448E-03 0.227E-24   -.202E-06 -.439E-06 -.844E-13
   0.611E-01 -.502E-01 -.158E+00   -.614E-01 0.512E-01 0.160E+00   0.543E-03 -.177E-02 -.328E-02   0.113E-06 0.477E-05 0.342E-07
   0.434E+00 -.643E-01 0.156E+00   -.440E+00 0.646E-01 -.157E+00   0.104E-01 -.594E-03 0.322E-02   0.318E-05 -.576E-06 -.104E-05
   0.292E+00 0.905E+00 0.435E-12   -.296E+00 -.917E+00 0.104E-13   0.706E-02 0.165E-01 -.313E-25   0.277E-05 0.417E-05 -.116E-12
   0.204E+01 -.187E-01 -.148E-05   -.206E+01 0.185E-01 -.829E-14   -.768E-02 0.375E-03 0.103E-23   -.219E-06 -.580E-06 -.929E-13
   0.611E-01 -.502E-01 0.158E+00   -.614E-01 0.512E-01 -.160E+00   0.543E-03 -.177E-02 0.328E-02   0.113E-06 0.477E-05 -.342E-07
   0.434E+00 -.643E-01 -.156E+00   -.440E+00 0.646E-01 0.157E+00   0.104E-01 -.594E-03 -.322E-02   0.318E-05 -.576E-06 0.104E-05
   0.928E-01 0.108E+00 -.577E-12   -.939E-01 -.109E+00 -.355E-14   0.169E-02 0.153E-02 -.659E-25   0.378E-05 0.498E-05 -.986E-13
   0.164E-01 -.273E-02 -.834E-08   -.162E-01 0.273E-02 0.837E-17   -.448E-03 -.267E-05 -.108E-24   0.439E-06 0.202E-06 -.122E-12
   0.611E-01 0.662E-01 -.159E+00   -.614E-01 -.672E-01 0.161E+00   0.543E-03 0.163E-02 -.330E-02   -.717E-06 -.378E-05 -.318E-06
   -.662E-01 -.611E-01 -.159E+00   0.672E-01 0.614E-01 0.161E+00   -.163E-02 -.543E-03 -.330E-02   0.378E-05 0.717E-06 -.318E-06
   0.275E+00 -.275E+00 0.175E-11   -.280E+00 0.280E+00 0.734E-14   0.709E-02 -.709E-02 -.984E-25   0.175E-05 -.175E-05 -.103E-12
   0.164E-01 -.164E-01 -.738E-11   -.162E-01 0.162E-01 -.140E-13   -.449E-03 0.449E-03 0.218E-25   -.228E-06 0.228E-06 -.122E-12
   0.611E-01 0.662E-01 0.159E+00   -.614E-01 -.672E-01 -.161E+00   0.543E-03 0.163E-02 0.330E-02   -.717E-06 -.378E-05 0.318E-06
   -.662E-01 -.611E-01 0.159E+00   0.672E-01 0.614E-01 -.161E+00   -.163E-02 -.543E-03 0.330E-02   0.378E-05 0.717E-06 0.318E-06
   0.922E-01 -.922E-01 -.864E-12   -.932E-01 0.932E-01 -.416E-16   0.167E-02 -.167E-02 0.119E-25   0.425E-05 -.425E-05 -.115E-12
   0.165E-02 -.165E-02 0.358E-11   -.163E-02 0.163E-02 -.583E-16   -.212E-04 0.212E-04 0.974E-26   0.839E-06 -.839E-06 -.990E-13
 -----------------------------------------------------------------------------------------------
   -.151E+00 0.151E+00 -.186E-10   0.137E-12 0.389E-13 0.136E-12   0.150E+00 -.150E+00 0.434E-18   -.182E-05 0.182E-05 -.142E-11
 
 
 POSITION                                       TOTAL-FORCE (eV/Angst)
 -----------------------------------------------------------------------------------
     11.17400      0.00000      0.00000         0.068494      0.001423     -0.000000
      2.80100      2.83100      0.00000        -0.001423     -0.068494     -0.000000
      2.80100      0.00000      2.80100        -0.001508      0.001508     -0.011603
      0.00000      2.80100      2.80100         0.001684     -0.001684     -0.000040
      0.00000      0.00000      5.60200        -0.000024     -0.000021     -0.000000
      2.80100      2.80100      5.60200         0.000021      0.000024     -0.000000
      2.80100      0.00000      8.40300        -0.001508      0.001508      0.011603
      0.00000      2.80100      8.40300         0.001684     -0.001684      0.000040
      0.00000      5.60200      0.00000        -0.005873      0.001514     -0.000000
      2.80100      8.40300      0.00000        -0.001507      0.014716     -0.000000
      2.80100      5.60200      2.80100         0.000021      0.001514      0.005999
      0.00000      8.40300      2.80100         0.001660      0.001183     -0.000015
      0.00000      5.60200      5.60200         0.000531     -0.000033     -0.000000
      2.80100      8.40300      5.60200         0.000021      0.000236     -0.000000
      2.80100      5.60200      8.40300         0.000021      0.001514     -0.005999
      0.00000      8.40300      8.40300         0.001660      0.001183      0.000015
      5.60200      0.00000      0.00000        -0.014716      0.001507     -0.000000
      8.40300      2.80100      0.00000        -0.001514      0.005873     -0.000000
      8.40300      0.00000      2.80100        -0.001514     -0.000021      0.005999
      5.60200      2.80100      2.80100        -0.001183     -0.001660     -0.000015
      5.60200      0.00000      5.60200        -0.000236     -0.000021     -0.000000
      8.40300      2.80100      5.60200         0.000033     -0.000531     -0.000000
      8.40300      0.00000      8.40300        -0.001514     -0.000021     -0.005999
      5.60200      2.80100      8.40300        -0.001183     -0.001660      0.000015
      5.60200      5.60200      0.00000         0.005617      0.001514     -0.000000
      8.40300      8.40300      0.00000        -0.001514     -0.005617     -0.000000
      8.40300      5.60200      2.80100         0.000033     -0.000033     -0.000155
      5.60200      8.40300      2.80100        -0.001160      0.001160      0.000008
      5.60200      5.60200      5.60200        -0.000519     -0.000033     -0.000000
      8.40300      8.40300      5.60200         0.000033      0.000519     -0.000000
      8.40300      5.60200      8.40300         0.000033     -0.000033      0.000155
      5.60200      8.40300      8.40300        -0.001160      0.001160     -0.000008
      2.80100      2.80100      2.80100         0.000240      0.006278      0.001153
      0.00000      0.00000      2.80100        -0.006278     -0.000240      0.001153
      0.00000      2.80100      0.00000        -0.004852      0.004852     -0.000000
      2.80100      0.00000      0.00000        -0.016169      0.016169     -0.000000
      2.80100      2.80100      8.40300         0.000240      0.006278     -0.001153
      0.00000      0.00000      8.40300        -0.006278     -0.000240     -0.001153
      0.00000      2.80100      5.60200        -0.000607      0.000607     -0.000000
      2.80100      0.00000      5.60200        -0.000141      0.000141     -0.000000
      2.80100      8.40300      2.80100         0.000240     -0.004117      0.001270
      0.00000      5.60200      2.80100         0.000708     -0.000220     -0.001296
      0.00000      8.40300      0.00000        -0.004980     -0.002705     -0.000000
      2.80100      5.60200      0.00000        -0.000141      0.020227     -0.000000
      2.80100      8.40300      8.40300         0.000240     -0.004117     -0.001270
      0.00000      5.60200      8.40300         0.000708     -0.000220      0.001296
      0.00000      8.40300      5.60200        -0.000596     -0.000681     -0.000000
      2.80100      5.60200      5.60200         0.000011      0.000169     -0.000000
      8.40300      2.80100      2.80100         0.000220     -0.000708     -0.001296
      5.60200      0.00000      2.80100         0.004117     -0.000240      0.001270
      5.60200      2.80100      0.00000         0.002705      0.004980     -0.000000
      8.40300      0.00000      0.00000        -0.020227      0.000141     -0.000000
      8.40300      2.80100      8.40300         0.000220     -0.000708      0.001296
      5.60200      0.00000      8.40300         0.004117     -0.000240     -0.001270
      5.60200      2.80100      5.60200         0.000681      0.000596     -0.000000
      8.40300      0.00000      5.60200        -0.000169     -0.000011     -0.000000
      8.40300      8.40300      2.80100         0.000220      0.000634     -0.001306
      5.60200      5.60200      2.80100        -0.000634     -0.000220     -0.001306
      5.60200      8.40300      0.00000         0.002824     -0.002824     -0.000000
      8.40300      5.60200      0.00000        -0.000169      0.000169     -0.000000
      8.40300      8.40300      8.40300         0.000220      0.000634      0.001306
      5.60200      5.60200      8.40300        -0.000634     -0.000220      0.001306
      5.60200      8.40300      5.60200         0.000671     -0.000671     -0.000000
      8.40300      5.60200      5.60200         0.000001     -0.000001     -0.000000
 -----------------------------------------------------------------------------------
    total drift:                               -0.000582      0.000582     -0.000000


--------------------------------------------------------------------------------------------------------



  FREE ENERGIE OF THE ION-ELECTRON SYSTEM (eV)
  ---------------------------------------------------
  free  energy   TOTEN  =      -223.90065378 eV

  energy  without entropy=     -223.90065378  energy(sigma->0) =     -223.90065378
 


--------------------------------------------------------------------------------------------------------


    POTLOK:  cpu time      0.0681: real time      0.0684


--------------------------------------------------------------------------------------------------------


     LOOP+:  cpu time    181.2443: real time    182.3702
    4ORBIT:  cpu time      0.0000: real time      0.0000

 total amount of memory used by VASP MPI-rank0   118439. kBytes
=======================================================================

   base      :      30000. kBytes
   nonl-proj :      36470. kBytes
   fftplans  :      14405. kBytes
   grid      :      19342. kBytes
   one-center:        196. kBytes
   wavefun   :      18026. kBytes
 
  
  
 General timing and accounting informations for this job:
 ========================================================
  
                  Total CPU time used (sec):      184.797
                            User time (sec):      184.162
                          System time (sec):        0.635
                         Elapsed time (sec):      186.969
  
                   Maximum memory used (kb):      306912.
                   Average memory used (kb):          N/A
  
                          Minor page faults:       124891
                          Major page faults:          196
                 Voluntary context switches:         1481
