<?xml version="1.0" encoding="ISO-8859-1"?>
<modeling>
 <generator>
  <i name="program" type="string">vasp </i>
  <i name="version" type="string">6.3.2  </i>
  <i name="subversion" type="string">27Jun22 (build Oct 14 2022 12:13:54) complex                          parallel </i>
  <i name="platform" type="string">LinuxIFC </i>
  <i name="date" type="string">2025 08 28 </i>
  <i name="time" type="string">21:57:06 </i>
 </generator>
 <incar>
  <i type="string" name="PREC">Accurate</i>
  <i type="int" name="IALGO">    38</i>
  <i type="logical" name="ADDGRID"> T  </i>
  <i type="int" name="NELMIN">     5</i>
  <i type="int" name="IBRION">    -1</i>
  <i name="EDIFF">      0.00000001</i>
  <i name="ENCUT">    341.21360000</i>
  <i type="logical" name="LREAL"> F  </i>
  <i type="int" name="ISMEAR">     0</i>
  <i name="SIGMA">      0.02000000</i>
  <i type="logical" name="LWAVE"> F  </i>
  <i type="logical" name="LCHARG"> F  </i>
  <i type="string" name="GGA">PS</i>
 </incar>
 <primitive_cell>
  <structure name="primitive_cell" >
   <crystal>
    <varray name="basis" >
     <v>      11.20400236       0.00000000       0.00000000 </v>
     <v>       0.00000000      11.20400236       0.00000000 </v>
     <v>       0.00000000       0.00000000      11.20400236 </v>
    </varray>
    <i name="volume">   1406.43470641 </i>
    <varray name="rec_basis" >
     <v>       0.08925382       0.00000000       0.00000000 </v>
     <v>       0.00000000       0.08925382       0.00000000 </v>
     <v>       0.00000000       0.00000000       0.08925382 </v>
    </varray>
   </crystal>
   <varray name="positions" >
    <v>       0.99732239       0.00000000       0.00000000 </v>
    <v>       0.25000000       0.25267761       0.00000000 </v>
    <v>       0.25000000       0.00000000       0.25000000 </v>
    <v>       0.00000000       0.25000000       0.25000000 </v>
    <v>       0.00000000       0.00000000       0.50000000 </v>
    <v>       0.25000000       0.25000000       0.50000000 </v>
    <v>       0.25000000       0.00000000       0.75000000 </v>
    <v>       0.00000000       0.25000000       0.75000000 </v>
    <v>       0.00000000       0.50000000       0.00000000 </v>
    <v>       0.25000000       0.75000000       0.00000000 </v>
    <v>       0.25000000       0.50000000       0.25000000 </v>
    <v>       0.00000000       0.75000000       0.25000000 </v>
    <v>       0.00000000       0.50000000       0.50000000 </v>
    <v>       0.25000000       0.75000000       0.50000000 </v>
    <v>       0.25000000       0.50000000       0.75000000 </v>
    <v>       0.00000000       0.75000000       0.75000000 </v>
    <v>       0.50000000       0.00000000       0.00000000 </v>
    <v>       0.75000000       0.25000000       0.00000000 </v>
    <v>       0.75000000       0.00000000       0.25000000 </v>
    <v>       0.50000000       0.25000000       0.25000000 </v>
    <v>       0.50000000       0.00000000       0.50000000 </v>
    <v>       0.75000000       0.25000000       0.50000000 </v>
    <v>       0.75000000       0.00000000       0.75000000 </v>
    <v>       0.50000000       0.25000000       0.75000000 </v>
    <v>       0.50000000       0.50000000       0.00000000 </v>
    <v>       0.75000000       0.75000000       0.00000000 </v>
    <v>       0.75000000       0.50000000       0.25000000 </v>
    <v>       0.50000000       0.75000000       0.25000000 </v>
    <v>       0.50000000       0.50000000       0.50000000 </v>
    <v>       0.75000000       0.75000000       0.50000000 </v>
    <v>       0.75000000       0.50000000       0.75000000 </v>
    <v>       0.50000000       0.75000000       0.75000000 </v>
    <v>       0.25000000       0.25000000       0.25000000 </v>
    <v>       0.00000000       0.00000000       0.25000000 </v>
    <v>       0.00000000       0.25000000       0.00000000 </v>
    <v>       0.25000000       0.00000000       0.00000000 </v>
    <v>       0.25000000       0.25000000       0.75000000 </v>
    <v>       0.00000000       0.00000000       0.75000000 </v>
    <v>       0.00000000       0.25000000       0.50000000 </v>
    <v>       0.25000000       0.00000000       0.50000000 </v>
    <v>       0.25000000       0.75000000       0.25000000 </v>
    <v>       0.00000000       0.50000000       0.25000000 </v>
    <v>       0.00000000       0.75000000       0.00000000 </v>
    <v>       0.25000000       0.50000000       0.00000000 </v>
    <v>       0.25000000       0.75000000       0.75000000 </v>
    <v>       0.00000000       0.50000000       0.75000000 </v>
    <v>       0.00000000       0.75000000       0.50000000 </v>
    <v>       0.25000000       0.50000000       0.50000000 </v>
    <v>       0.75000000       0.25000000       0.25000000 </v>
    <v>       0.50000000       0.00000000       0.25000000 </v>
    <v>       0.50000000       0.25000000       0.00000000 </v>
    <v>       0.75000000       0.00000000       0.00000000 </v>
    <v>       0.75000000       0.25000000       0.75000000 </v>
    <v>       0.50000000       0.00000000       0.75000000 </v>
    <v>       0.50000000       0.25000000       0.50000000 </v>
    <v>       0.75000000       0.00000000       0.50000000 </v>
    <v>       0.75000000       0.75000000       0.25000000 </v>
    <v>       0.50000000       0.50000000       0.25000000 </v>
    <v>       0.50000000       0.75000000       0.00000000 </v>
    <v>       0.75000000       0.50000000       0.00000000 </v>
    <v>       0.75000000       0.75000000       0.75000000 </v>
    <v>       0.50000000       0.50000000       0.75000000 </v>
    <v>       0.50000000       0.75000000       0.50000000 </v>
    <v>       0.75000000       0.50000000       0.50000000 </v>
   </varray>
  </structure>
  <varray name="primitive_index" >
   <v type="int" >        1 </v>
   <v type="int" >        2 </v>
   <v type="int" >        3 </v>
   <v type="int" >        4 </v>
   <v type="int" >        5 </v>
   <v type="int" >        6 </v>
   <v type="int" >        7 </v>
   <v type="int" >        8 </v>
   <v type="int" >        9 </v>
   <v type="int" >       10 </v>
   <v type="int" >       11 </v>
   <v type="int" >       12 </v>
   <v type="int" >       13 </v>
   <v type="int" >       14 </v>
   <v type="int" >       15 </v>
   <v type="int" >       16 </v>
   <v type="int" >       17 </v>
   <v type="int" >       18 </v>
   <v type="int" >       19 </v>
   <v type="int" >       20 </v>
   <v type="int" >       21 </v>
   <v type="int" >       22 </v>
   <v type="int" >       23 </v>
   <v type="int" >       24 </v>
   <v type="int" >       25 </v>
   <v type="int" >       26 </v>
   <v type="int" >       27 </v>
   <v type="int" >       28 </v>
   <v type="int" >       29 </v>
   <v type="int" >       30 </v>
   <v type="int" >       31 </v>
   <v type="int" >       32 </v>
   <v type="int" >       33 </v>
   <v type="int" >       34 </v>
   <v type="int" >       35 </v>
   <v type="int" >       36 </v>
   <v type="int" >       37 </v>
   <v type="int" >       38 </v>
   <v type="int" >       39 </v>
   <v type="int" >       40 </v>
   <v type="int" >       41 </v>
   <v type="int" >       42 </v>
   <v type="int" >       43 </v>
   <v type="int" >       44 </v>
   <v type="int" >       45 </v>
   <v type="int" >       46 </v>
   <v type="int" >       47 </v>
   <v type="int" >       48 </v>
   <v type="int" >       49 </v>
   <v type="int" >       50 </v>
   <v type="int" >       51 </v>
   <v type="int" >       52 </v>
   <v type="int" >       53 </v>
   <v type="int" >       54 </v>
   <v type="int" >       55 </v>
   <v type="int" >       56 </v>
   <v type="int" >       57 </v>
   <v type="int" >       58 </v>
   <v type="int" >       59 </v>
   <v type="int" >       60 </v>
   <v type="int" >       61 </v>
   <v type="int" >       62 </v>
   <v type="int" >       63 </v>
   <v type="int" >       64 </v>
  </varray>
 </primitive_cell>
 <kpoints>
  <generation param="Gamma">
   <v type="int" name="divisions">       2        2        2 </v>
   <v name="usershift">      0.00000000       0.00000000       0.00000000 </v>
   <v name="genvec1">      0.50000000       0.00000000       0.00000000 </v>
   <v name="genvec2">      0.00000000       0.50000000       0.00000000 </v>
   <v name="genvec3">      0.00000000       0.00000000       0.50000000 </v>
   <v name="shift">      0.00000000       0.00000000       0.00000000 </v>
  </generation>
  <varray name="kpointlist" >
   <v>       0.00000000       0.00000000       0.00000000 </v>
   <v>       0.50000000       0.00000000       0.00000000 </v>
   <v>       0.00000000       0.00000000       0.50000000 </v>
   <v>       0.50000000       0.50000000       0.00000000 </v>
   <v>       0.00000000       0.50000000       0.50000000 </v>
   <v>       0.50000000       0.50000000       0.50000000 </v>
  </varray>
  <varray name="weights" >
   <v>       0.12500000 </v>
   <v>       0.25000000 </v>
   <v>       0.12500000 </v>
   <v>       0.12500000 </v>
   <v>       0.25000000 </v>
   <v>       0.12500000 </v>
  </varray>
 </kpoints>
 <parameters>
  <separator name="general" >
   <i type="string" name="SYSTEM">unknown system</i>
   <i type="logical" name="LCOMPAT"> F  </i>
  </separator>
  <separator name="electronic" >
   <i type="string" name="PREC">accura</i>
   <i name="ENMAX">    341.21360000</i>
   <i name="ENAUG">    368.05600000</i>
   <i name="EDIFF">      0.00000001</i>
   <i type="int" name="IALGO">    38</i>
   <i type="int" name="IWAVPR">    10</i>
   <i type="int" name="NBANDS">   288</i>
   <i type="int" name="NBANDSLOW">    -1</i>
   <i type="int" name="NBANDSHIGH">    -1</i>
   <i name="NELECT">    448.00000000</i>
   <i type="int" name="TURBO">     0</i>
   <i type="int" name="IRESTART">     0</i>
   <i type="int" name="NREBOOT">     0</i>
   <i type="int" name="NMIN">     0</i>
   <i name="EREF">      0.00000000</i>
   <separator name="electronic smearing" >
    <i type="int" name="ISMEAR">     0</i>
    <i name="SIGMA">      0.02000000</i>
    <i name="KSPACING">      0.50000000</i>
    <i type="logical" name="KGAMMA"> T  </i>
    <i type="logical" name="KBLOWUP"> T  </i>
   </separator>
   <separator name="electronic projectors" >
    <i type="logical" name="LREAL"> F  </i>
    <v name="ROPT">      0.00000000      0.00000000</v>
    <i type="int" name="LMAXPAW">  -100</i>
    <i type="int" name="LMAXMIX">     2</i>
    <i type="logical" name="NLSPLINE"> F  </i>
   </separator>
   <separator name="electronic startup" >
    <i type="int" name="ISTART">     0</i>
    <i type="int" name="ICHARG">     2</i>
    <i type="int" name="INIWAV">     1</i>
   </separator>
   <separator name="electronic spin" >
    <i type="int" name="ISPIN">     1</i>
    <i type="logical" name="LNONCOLLINEAR"> F  </i>
    <v name="MAGMOM">      1.00000000      1.00000000      1.00000000      1.00000000      1.00000000      1.00000000      1.00000000      1.00000000      1.00000000      1.00000000      1.00000000      1.00000000      1.00000000      1.00000000      1.00000000      1.00000000      1.00000000      1.00000000      1.00000000      1.00000000
      1.00000000      1.00000000      1.00000000      1.00000000      1.00000000      1.00000000      1.00000000      1.00000000      1.00000000      1.00000000      1.00000000      1.00000000      1.00000000      1.00000000      1.00000000      1.00000000      1.00000000      1.00000000      1.00000000      1.00000000
      1.00000000      1.00000000      1.00000000      1.00000000      1.00000000      1.00000000      1.00000000      1.00000000      1.00000000      1.00000000      1.00000000      1.00000000      1.00000000      1.00000000      1.00000000      1.00000000      1.00000000      1.00000000      1.00000000      1.00000000
      1.00000000      1.00000000      1.00000000      1.00000000</v>
    <i name="NUPDOWN">     -1.00000000</i>
    <i type="logical" name="LSORBIT"> F  </i>
    <v name="SAXIS">      0.00000000      0.00000000      1.00000000</v>
    <i type="logical" name="LSPIRAL"> F  </i>
    <v name="QSPIRAL">      0.00000000      0.00000000      0.00000000</v>
    <i type="logical" name="LZEROZ"> F  </i>
   </separator>
   <separator name="electronic exchange-correlation" >
    <i type="logical" name="LASPH"> F  </i>
    <i type="logical" name="LMETAGGA"> F  </i>
   </separator>
   <separator name="electronic convergence" >
    <i type="int" name="NELM">    60</i>
    <i type="int" name="NELMDL">    -5</i>
    <i type="int" name="NELMIN">     5</i>
    <i name="ENINI">    341.21360000</i>
    <separator name="electronic convergence detail" >
     <i type="logical" name="LDIAG"> T  </i>
     <i type="logical" name="LSUBROT"> F  </i>
     <i name="WEIMIN">      0.00000000</i>
     <i name="EBREAK">      0.00000000</i>
     <i name="DEPER">      0.30000000</i>
     <i type="int" name="NRMM">     4</i>
     <i name="TIME">      0.40000000</i>
    </separator>
   </separator>
   <separator name="electronic mixer" >
    <i name="AMIX">      0.40000000</i>
    <i name="BMIX">      1.00000000</i>
    <i name="AMIN">      0.10000000</i>
    <i name="AMIX_MAG">      1.60000000</i>
    <i name="BMIX_MAG">      1.00000000</i>
    <separator name="electronic mixer details" >
     <i type="int" name="IMIX">     4</i>
     <i type="logical" name="MIXFIRST"> F  </i>
     <i type="int" name="MAXMIX">   -45</i>
     <i name="WC">    100.00000000</i>
     <i type="int" name="INIMIX">     1</i>
     <i type="int" name="MIXPRE">     1</i>
     <i type="int" name="MREMOVE">     5</i>
    </separator>
   </separator>
   <separator name="electronic dipolcorrection" >
    <i type="logical" name="LDIPOL"> F  </i>
    <i type="logical" name="LMONO"> F  </i>
    <i type="int" name="IDIPOL">     0</i>
    <i name="EPSILON">      1.00000000</i>
    <v name="DIPOL">   -100.00000000   -100.00000000   -100.00000000</v>
    <i name="EFIELD">      0.00000000</i>
   </separator>
  </separator>
  <separator name="grids" >
   <i type="int" name="NGX">    70</i>
   <i type="int" name="NGY">    70</i>
   <i type="int" name="NGZ">    70</i>
   <i type="int" name="NGXF">   140</i>
   <i type="int" name="NGYF">   140</i>
   <i type="int" name="NGZF">   140</i>
   <i type="logical" name="ADDGRID"> T  </i>
  </separator>
  <separator name="ionic" >
   <i type="int" name="NSW">     0</i>
   <i type="int" name="IBRION">    -1</i>
   <i type="int" name="MDALGO">     0</i>
   <i type="int" name="ISIF">     2</i>
   <i name="PSTRESS">      0.00000000</i>
   <i name="EDIFFG">      0.00000010</i>
   <i type="int" name="NFREE">     0</i>
   <i name="POTIM">      0.50000000</i>
   <i name="SMASS">     -3.00000000</i>
   <i name="SCALEE">      1.00000000</i>
  </separator>
  <separator name="ionic md" >
   <i name="TEBEG">      0.00010000</i>
   <i name="TEEND">      0.00010000</i>
   <i type="int" name="NBLOCK">     1</i>
   <i type="int" name="KBLOCK">     1</i>
   <i type="int" name="NPACO">   256</i>
   <i name="APACO">     10.00000000</i>
  </separator>
  <separator name="symmetry" >
   <i type="int" name="ISYM">     2</i>
   <i name="SYMPREC">      0.00001000</i>
  </separator>
  <separator name="dos" >
   <i type="int" name="LORBIT">     0</i>
   <v name="RWIGS">     -1.00000000     -1.00000000</v>
   <i type="int" name="NEDOS">   301</i>
   <i name="EMIN">     10.00000000</i>
   <i name="EMAX">    -10.00000000</i>
   <i name="EFERMI">      0.00000000</i>
  </separator>
  <separator name="writing" >
   <i type="int" name="NWRITE">     2</i>
   <i type="logical" name="LWAVE"> F  </i>
   <i type="logical" name="LDOWNSAMPLE"> F  </i>
   <i type="logical" name="LCHARG"> F  </i>
   <i type="logical" name="LPARD"> F  </i>
   <i type="logical" name="LVTOT"> F  </i>
   <i type="logical" name="LVHAR"> F  </i>
   <i type="logical" name="LELF"> F  </i>
   <i type="logical" name="LOPTICS"> F  </i>
   <v name="STM">      0.00000000      0.00000000      0.00000000      0.00000000      0.00000000      0.00000000      0.00000000</v>
  </separator>
  <separator name="performance" >
   <i type="int" name="NPAR">    32</i>
   <i type="int" name="NSIM">     4</i>
   <i type="int" name="NBLK">    -1</i>
   <i type="logical" name="LPLANE"> T  </i>
   <i type="logical" name="LSCALAPACK"> T  </i>
   <i type="logical" name="LSCAAWARE"> F  </i>
   <i type="logical" name="LSCALU"> F  </i>
   <i type="logical" name="LASYNC"> F  </i>
   <i type="logical" name="LORBITALREAL"> F  </i>
  </separator>
  <separator name="miscellaneous" >
   <i type="int" name="IDIOT">     3</i>
   <i type="int" name="PHON_NSTRUCT">    -1</i>
   <i type="logical" name="LMUSIC"> F  </i>
   <v name="POMASS">     22.99000000     35.45300000</v>
   <v name="DARWINR">      0.00000000      0.00000000</v>
   <v name="DARWINV">      1.00000000      1.00000000</v>
   <i type="logical" name="LCORR"> T  </i>
  </separator>
  <i type="logical" name="GGA_COMPAT"> T  </i>
  <i type="logical" name="LBERRY"> F  </i>
  <i type="int" name="ICORELEVEL">     0</i>
  <i type="logical" name="LDAU"> F  </i>
  <i type="int" name="I_CONSTRAINED_M">     0</i>
  <separator name="electronic exchange-correlation" >
   <i type="string" name="GGA">PS</i>
   <i type="int" name="VOSKOWN">     0</i>
   <i type="logical" name="LHFCALC"> F  </i>
   <i type="string" name="PRECFOCK"></i>
   <i type="logical" name="LSYMGRAD"> F  </i>
   <i type="logical" name="LHFONE"> F  </i>
   <i type="logical" name="LRHFCALC"> F  </i>
   <i type="logical" name="LTHOMAS"> F  </i>
   <i type="logical" name="LMODELHF"> F  </i>
   <i type="logical" name="LFOCKACE"> F  </i>
   <i name="ENCUT4O">     -1.00000000</i>
   <i type="int" name="EXXOEP">     0</i>
   <i type="int" name="FOURORBIT">     0</i>
   <i name="AEXX">      0.00000000</i>
   <i name="HFALPHA">      0.00000000</i>
   <i name="MCALPHA">      0.00000000</i>
   <i name="ALDAX">      1.00000000</i>
   <i name="AGGAX">      1.00000000</i>
   <i name="ALDAC">      1.00000000</i>
   <i name="AGGAC">      1.00000000</i>
   <i type="int" name="NKREDX">     1</i>
   <i type="int" name="NKREDY">     1</i>
   <i type="int" name="NKREDZ">     1</i>
   <i type="logical" name="SHIFTRED"> F  </i>
   <i type="logical" name="ODDONLY"> F  </i>
   <i type="logical" name="EVENONLY"> F  </i>
   <i type="int" name="LMAXFOCK">     0</i>
   <i type="int" name="NMAXFOCKAE">     0</i>
   <i type="logical" name="LFOCKAEDFT"> F  </i>
   <i name="HFSCREEN">      0.00000000</i>
   <i name="HFSCREENC">      0.00000000</i>
   <i type="int" name="NBANDSGWLOW">     0</i>
  </separator>
  <separator name="vdW DFT" >
   <i type="logical" name="LUSE_VDW"> F  </i>
   <i name="Zab_VDW">     -0.84910000</i>
   <i name="PARAM1">      0.12340000</i>
   <i name="PARAM2">      1.00000000</i>
   <i name="PARAM3">      0.00000000</i>
  </separator>
  <separator name="model GW" >
   <i type="int" name="MODEL_GW">     0</i>
   <i name="MODEL_EPS0">     13.18532537</i>
   <i name="MODEL_ALPHA">      1.00000000</i>
  </separator>
  <separator name="linear response parameters" >
   <i type="logical" name="LEPSILON"> F  </i>
   <i type="logical" name="LRPA"> F  </i>
   <i type="logical" name="LNABLA"> F  </i>
   <i type="logical" name="LVEL"> F  </i>
   <i name="CSHIFT">      0.10000000</i>
   <i name="OMEGAMAX">     -1.00000000</i>
   <i name="DEG_THRESHOLD">      0.00200000</i>
   <i name="RTIME">     -0.10000000</i>
   <i name="WPLASMAI">      0.00000000</i>
   <v name="DFIELD">      0.00000000      0.00000000      0.00000000</v>
   <v name="WPLASMA">      0.00000000      0.00000000      0.00000000      0.00000000      0.00000000      0.00000000      0.00000000      0.00000000      0.00000000</v>
  </separator>
  <separator name="orbital magnetization" >
   <i type="logical" name="NUCIND"> F  </i>
   <v name="MAGPOS">      0.00000000      0.00000000      0.00000000</v>
   <i type="logical" name="LNICSALL"> T  </i>
   <i type="logical" name="ORBITALMAG"> F  </i>
   <i type="logical" name="LMAGBLOCH"> F  </i>
   <i type="logical" name="LCHIMAG"> F  </i>
   <i type="logical" name="LGAUGE"> T  </i>
   <i type="int" name="MAGATOM">     0</i>
   <v name="MAGDIPOL">      0.00000000      0.00000000      0.00000000</v>
   <v name="AVECCONST">      0.00000000      0.00000000      0.00000000</v>
  </separator>
  <separator name="response functions" >
   <i type="logical" name="LFINITE_TEMPERATURE"> F  </i>
   <i type="logical" name="LADDER"> F  </i>
   <i type="logical" name="LRPAFORCE"> F  </i>
   <i type="logical" name="LFXC"> F  </i>
   <i type="logical" name="LHARTREE"> T  </i>
   <i type="int" name="IBSE">     0</i>
   <v type="int" name="KPOINT">    -1     0     0     0</v>
   <i type="logical" name="LTCTC"> F  </i>
   <i type="logical" name="LTCTE"> F  </i>
   <i type="logical" name="LTETE"> F  </i>
   <i type="logical" name="LTRIPLET"> F  </i>
   <i type="logical" name="LFXCEPS"> F  </i>
   <i type="logical" name="LFXHEG"> F  </i>
   <i type="int" name="NATURALO">     2</i>
   <i type="logical" name="LHOLEGF"> F  </i>
   <i type="logical" name="L2ORDER"> F  </i>
   <i type="logical" name="LDMP1"> F  </i>
   <i type="logical" name="LMP2LT"> F  </i>
   <i type="logical" name="LSMP2LT"> F  </i>
   <i type="logical" name="LGWLF"> F  </i>
   <i name="ENCUTGW">     -2.00000000</i>
   <i name="ENCUTGWSOFT">     -2.00000000</i>
   <i name="ENCUTLF">     -1.00000000</i>
   <i type="logical" name="LESF_SPLINES"> F  </i>
   <i type="int" name="LMAXMP2">    -1</i>
   <i name="SCISSOR">      0.00000000</i>
   <i type="int" name="NOMEGA">     0</i>
   <i type="int" name="NOMEGAR">     0</i>
   <i type="int" name="NBANDSGW">    -1</i>
   <i type="int" name="NBANDSO">    -1</i>
   <i type="int" name="NBANDSV">    -1</i>
   <i type="int" name="NELMGW">     1</i>
   <i type="int" name="NELMHF">     1</i>
   <i type="int" name="DIM">     3</i>
   <i type="int" name="IESPILON">     4</i>
   <i type="int" name="ANTIRES">     0</i>
   <i name="OMEGAMAX">    -30.00000000</i>
   <i name="OMEGAMIN">    -30.00000000</i>
   <i name="OMEGATL">   -200.00000000</i>
   <i type="int" name="OMEGAGRID">     0</i>
   <i name="CSHIFT">     -0.10000000</i>
   <i type="logical" name="LSELFENERGY"> F  </i>
   <i type="logical" name="LSPECTRAL"> F  </i>
   <i type="logical" name="LSPECTRALGW"> F  </i>
   <i type="logical" name="LSINGLES"> F  </i>
   <i type="logical" name="LFERMIGW"> F  </i>
   <i type="logical" name="ODDONLYGW"> F  </i>
   <i type="logical" name="EVENONLYGW"> F  </i>
   <i type="int" name="NKREDLFX">     1</i>
   <i type="int" name="NKREDLFY">     1</i>
   <i type="int" name="NKREDLFZ">     1</i>
   <i type="int" name="MAXMEM">  2800</i>
   <i type="int" name="TELESCOPE">     0</i>
   <i type="int" name="NTAUPAR">    -1</i>
   <i type="int" name="NOMEGAPAR">    -1</i>
   <i name="DAMP_NEWTON">      0.80000001</i>
   <i name="LAMBDA">      1.00000000</i>
  </separator>
  <separator name="External order field" >
   <i name="OFIELD_KAPPA">      0.00000000</i>
   <v name="OFIELD_K">      0.00000000      0.00000000      0.00000000</v>
   <i name="OFIELD_Q6_NEAR">      0.00000000</i>
   <i name="OFIELD_Q6_FAR">      0.00000000</i>
   <i name="OFIELD_A">      0.00000000</i>
  </separator>
  <separator name="optional k-points parameters" >
   <i type="int" name="KPOINTS_OPT_MODE">     1</i>
   <i type="logical" name="LKPOINTS_OPT"> F  </i>
  </separator>
 </parameters>
 <atominfo>
  <atoms>      64 </atoms>
  <types>       2 </types>
  <array name="atoms" >
   <dimension dim="1">ion</dimension>
   <field type="string">element</field>
   <field type="int">atomtype</field>
   <set>
    <rc><c>Na</c><c>   1</c></rc>
    <rc><c>Na</c><c>   1</c></rc>
    <rc><c>Na</c><c>   1</c></rc>
    <rc><c>Na</c><c>   1</c></rc>
    <rc><c>Na</c><c>   1</c></rc>
    <rc><c>Na</c><c>   1</c></rc>
    <rc><c>Na</c><c>   1</c></rc>
    <rc><c>Na</c><c>   1</c></rc>
    <rc><c>Na</c><c>   1</c></rc>
    <rc><c>Na</c><c>   1</c></rc>
    <rc><c>Na</c><c>   1</c></rc>
    <rc><c>Na</c><c>   1</c></rc>
    <rc><c>Na</c><c>   1</c></rc>
    <rc><c>Na</c><c>   1</c></rc>
    <rc><c>Na</c><c>   1</c></rc>
    <rc><c>Na</c><c>   1</c></rc>
    <rc><c>Na</c><c>   1</c></rc>
    <rc><c>Na</c><c>   1</c></rc>
    <rc><c>Na</c><c>   1</c></rc>
    <rc><c>Na</c><c>   1</c></rc>
    <rc><c>Na</c><c>   1</c></rc>
    <rc><c>Na</c><c>   1</c></rc>
    <rc><c>Na</c><c>   1</c></rc>
    <rc><c>Na</c><c>   1</c></rc>
    <rc><c>Na</c><c>   1</c></rc>
    <rc><c>Na</c><c>   1</c></rc>
    <rc><c>Na</c><c>   1</c></rc>
    <rc><c>Na</c><c>   1</c></rc>
    <rc><c>Na</c><c>   1</c></rc>
    <rc><c>Na</c><c>   1</c></rc>
    <rc><c>Na</c><c>   1</c></rc>
    <rc><c>Na</c><c>   1</c></rc>
    <rc><c>Cl</c><c>   2</c></rc>
    <rc><c>Cl</c><c>   2</c></rc>
    <rc><c>Cl</c><c>   2</c></rc>
    <rc><c>Cl</c><c>   2</c></rc>
    <rc><c>Cl</c><c>   2</c></rc>
    <rc><c>Cl</c><c>   2</c></rc>
    <rc><c>Cl</c><c>   2</c></rc>
    <rc><c>Cl</c><c>   2</c></rc>
    <rc><c>Cl</c><c>   2</c></rc>
    <rc><c>Cl</c><c>   2</c></rc>
    <rc><c>Cl</c><c>   2</c></rc>
    <rc><c>Cl</c><c>   2</c></rc>
    <rc><c>Cl</c><c>   2</c></rc>
    <rc><c>Cl</c><c>   2</c></rc>
    <rc><c>Cl</c><c>   2</c></rc>
    <rc><c>Cl</c><c>   2</c></rc>
    <rc><c>Cl</c><c>   2</c></rc>
    <rc><c>Cl</c><c>   2</c></rc>
    <rc><c>Cl</c><c>   2</c></rc>
    <rc><c>Cl</c><c>   2</c></rc>
    <rc><c>Cl</c><c>   2</c></rc>
    <rc><c>Cl</c><c>   2</c></rc>
    <rc><c>Cl</c><c>   2</c></rc>
    <rc><c>Cl</c><c>   2</c></rc>
    <rc><c>Cl</c><c>   2</c></rc>
    <rc><c>Cl</c><c>   2</c></rc>
    <rc><c>Cl</c><c>   2</c></rc>
    <rc><c>Cl</c><c>   2</c></rc>
    <rc><c>Cl</c><c>   2</c></rc>
    <rc><c>Cl</c><c>   2</c></rc>
    <rc><c>Cl</c><c>   2</c></rc>
    <rc><c>Cl</c><c>   2</c></rc>
   </set>
  </array>
  <array name="atomtypes" >
   <dimension dim="1">type</dimension>
   <field type="int">atomspertype</field>
   <field type="string">element</field>
   <field>mass</field>
   <field>valence</field>
   <field type="string">pseudopotential</field>
   <set>
    <rc><c>  32</c><c>Na</c><c>     22.99000000</c><c>      7.00000000</c><c>  PAW_PBE Na_pv 19Sep2006               </c></rc>
    <rc><c>  32</c><c>Cl</c><c>     35.45300000</c><c>      7.00000000</c><c>  PAW_PBE Cl 06Sep2000                  </c></rc>
   </set>
  </array>
 </atominfo>
 <structure name="initialpos" >
  <crystal>
   <varray name="basis" >
    <v>      11.20400236       0.00000000       0.00000000 </v>
    <v>       0.00000000      11.20400236       0.00000000 </v>
    <v>       0.00000000       0.00000000      11.20400236 </v>
   </varray>
   <i name="volume">   1406.43470641 </i>
   <varray name="rec_basis" >
    <v>       0.08925382       0.00000000       0.00000000 </v>
    <v>       0.00000000       0.08925382       0.00000000 </v>
    <v>       0.00000000       0.00000000       0.08925382 </v>
   </varray>
  </crystal>
  <varray name="positions" >
   <v>       0.99732239       0.00000000       0.00000000 </v>
   <v>       0.25000000       0.25267761       0.00000000 </v>
   <v>       0.25000000       0.00000000       0.25000000 </v>
   <v>       0.00000000       0.25000000       0.25000000 </v>
   <v>       0.00000000       0.00000000       0.50000000 </v>
   <v>       0.25000000       0.25000000       0.50000000 </v>
   <v>       0.25000000       0.00000000       0.75000000 </v>
   <v>       0.00000000       0.25000000       0.75000000 </v>
   <v>       0.00000000       0.50000000       0.00000000 </v>
   <v>       0.25000000       0.75000000       0.00000000 </v>
   <v>       0.25000000       0.50000000       0.25000000 </v>
   <v>       0.00000000       0.75000000       0.25000000 </v>
   <v>       0.00000000       0.50000000       0.50000000 </v>
   <v>       0.25000000       0.75000000       0.50000000 </v>
   <v>       0.25000000       0.50000000       0.75000000 </v>
   <v>       0.00000000       0.75000000       0.75000000 </v>
   <v>       0.50000000       0.00000000       0.00000000 </v>
   <v>       0.75000000       0.25000000       0.00000000 </v>
   <v>       0.75000000       0.00000000       0.25000000 </v>
   <v>       0.50000000       0.25000000       0.25000000 </v>
   <v>       0.50000000       0.00000000       0.50000000 </v>
   <v>       0.75000000       0.25000000       0.50000000 </v>
   <v>       0.75000000       0.00000000       0.75000000 </v>
   <v>       0.50000000       0.25000000       0.75000000 </v>
   <v>       0.50000000       0.50000000       0.00000000 </v>
   <v>       0.75000000       0.75000000       0.00000000 </v>
   <v>       0.75000000       0.50000000       0.25000000 </v>
   <v>       0.50000000       0.75000000       0.25000000 </v>
   <v>       0.50000000       0.50000000       0.50000000 </v>
   <v>       0.75000000       0.75000000       0.50000000 </v>
   <v>       0.75000000       0.50000000       0.75000000 </v>
   <v>       0.50000000       0.75000000       0.75000000 </v>
   <v>       0.25000000       0.25000000       0.25000000 </v>
   <v>       0.00000000       0.00000000       0.25000000 </v>
   <v>       0.00000000       0.25000000       0.00000000 </v>
   <v>       0.25000000       0.00000000       0.00000000 </v>
   <v>       0.25000000       0.25000000       0.75000000 </v>
   <v>       0.00000000       0.00000000       0.75000000 </v>
   <v>       0.00000000       0.25000000       0.50000000 </v>
   <v>       0.25000000       0.00000000       0.50000000 </v>
   <v>       0.25000000       0.75000000       0.25000000 </v>
   <v>       0.00000000       0.50000000       0.25000000 </v>
   <v>       0.00000000       0.75000000       0.00000000 </v>
   <v>       0.25000000       0.50000000       0.00000000 </v>
   <v>       0.25000000       0.75000000       0.75000000 </v>
   <v>       0.00000000       0.50000000       0.75000000 </v>
   <v>       0.00000000       0.75000000       0.50000000 </v>
   <v>       0.25000000       0.50000000       0.50000000 </v>
   <v>       0.75000000       0.25000000       0.25000000 </v>
   <v>       0.50000000       0.00000000       0.25000000 </v>
   <v>       0.50000000       0.25000000       0.00000000 </v>
   <v>       0.75000000       0.00000000       0.00000000 </v>
   <v>       0.75000000       0.25000000       0.75000000 </v>
   <v>       0.50000000       0.00000000       0.75000000 </v>
   <v>       0.50000000       0.25000000       0.50000000 </v>
   <v>       0.75000000       0.00000000       0.50000000 </v>
   <v>       0.75000000       0.75000000       0.25000000 </v>
   <v>       0.50000000       0.50000000       0.25000000 </v>
   <v>       0.50000000       0.75000000       0.00000000 </v>
   <v>       0.75000000       0.50000000       0.00000000 </v>
   <v>       0.75000000       0.75000000       0.75000000 </v>
   <v>       0.50000000       0.50000000       0.75000000 </v>
   <v>       0.50000000       0.75000000       0.50000000 </v>
   <v>       0.75000000       0.50000000       0.50000000 </v>
  </varray>
 </structure>
 <calculation>
  <scstep>
   <time name="dav">    7.13    7.24</time>
   <time name="total">    7.20    7.32</time>
   <energy>
    <i name="alphaZ">    751.52672365 </i>
    <i name="ewald"> -22871.32626174 </i>
    <i name="hartreedc">  -8992.25791636 </i>
    <i name="XCdc">   1456.53425565 </i>
    <i name="pawpsdc">  26466.43774078 </i>
    <i name="pawaedc"> -29286.08056155 </i>
    <i name="eentropy">     -0.00498739 </i>
    <i name="bandstr">   -745.49238057 </i>
    <i name="atom">  37532.17946992 </i>
    <i name="e_fr_energy">   4311.51608240 </i>
    <i name="e_wo_entrp">   4311.52106978 </i>
    <i name="e_0_energy">   4311.51857609 </i>
   </energy>
  </scstep>
  <scstep>
   <time name="dav">    7.78    7.82</time>
   <time name="total">    7.78    7.82</time>
   <energy>
    <i name="e_fr_energy">    361.10929650 </i>
    <i name="e_wo_entrp">    361.10929650 </i>
    <i name="e_0_energy">    361.10929650 </i>
   </energy>
  </scstep>
  <scstep>
   <time name="dav">    8.43    8.48</time>
   <time name="total">    8.43    8.48</time>
   <energy>
    <i name="e_fr_energy">   -206.44303817 </i>
    <i name="e_wo_entrp">   -206.44303817 </i>
    <i name="e_0_energy">   -206.44303817 </i>
   </energy>
  </scstep>
  <scstep>
   <time name="dav">    8.35    8.40</time>
   <time name="total">    8.35    8.40</time>
   <energy>
    <i name="e_fr_energy">   -228.20195285 </i>
    <i name="e_wo_entrp">   -228.20195285 </i>
    <i name="e_0_energy">   -228.20195285 </i>
   </energy>
  </scstep>
  <scstep>
   <time name="dav">    8.61    8.67</time>
   <time name="total">    8.89    8.94</time>
   <energy>
    <i name="e_fr_energy">   -229.00451010 </i>
    <i name="e_wo_entrp">   -229.00451010 </i>
    <i name="e_0_energy">   -229.00451010 </i>
   </energy>
  </scstep>
  <scstep>
   <time name="dav">    8.61    8.66</time>
   <time name="total">    8.95    9.00</time>
   <energy>
    <i name="e_fr_energy">   -224.13831990 </i>
    <i name="e_wo_entrp">   -224.13831990 </i>
    <i name="e_0_energy">   -224.13831990 </i>
   </energy>
  </scstep>
  <scstep>
   <time name="dav">    9.31    9.37</time>
   <time name="total">    9.65    9.71</time>
   <energy>
    <i name="e_fr_energy">   -223.77736663 </i>
    <i name="e_wo_entrp">   -223.77736663 </i>
    <i name="e_0_energy">   -223.77736663 </i>
   </energy>
  </scstep>
  <scstep>
   <time name="dav">    8.19    8.23</time>
   <time name="total">    8.53    8.58</time>
   <energy>
    <i name="e_fr_energy">   -223.90264288 </i>
    <i name="e_wo_entrp">   -223.90264288 </i>
    <i name="e_0_energy">   -223.90264288 </i>
   </energy>
  </scstep>
  <scstep>
   <time name="dav">    8.64    8.69</time>
   <time name="total">    8.99    9.04</time>
   <energy>
    <i name="e_fr_energy">   -223.89709486 </i>
    <i name="e_wo_entrp">   -223.89709486 </i>
    <i name="e_0_energy">   -223.89709486 </i>
   </energy>
  </scstep>
  <scstep>
   <time name="dav">    8.19    8.23</time>
   <time name="total">    8.53    8.57</time>
   <energy>
    <i name="e_fr_energy">   -223.90143427 </i>
    <i name="e_wo_entrp">   -223.90143427 </i>
    <i name="e_0_energy">   -223.90143427 </i>
   </energy>
  </scstep>
  <scstep>
   <time name="dav">    8.89    8.93</time>
   <time name="total">    9.23    9.28</time>
   <energy>
    <i name="e_fr_energy">   -223.90068314 </i>
    <i name="e_wo_entrp">   -223.90068314 </i>
    <i name="e_0_energy">   -223.90068314 </i>
   </energy>
  </scstep>
  <scstep>
   <time name="dav">    8.88    8.93</time>
   <time name="total">    9.22    9.28</time>
   <energy>
    <i name="e_fr_energy">   -223.90064665 </i>
    <i name="e_wo_entrp">   -223.90064665 </i>
    <i name="e_0_energy">   -223.90064665 </i>
   </energy>
  </scstep>
  <scstep>
   <time name="dav">    8.37    8.41</time>
   <time name="total">    8.71    8.76</time>
   <energy>
    <i name="e_fr_energy">   -223.90065181 </i>
    <i name="e_wo_entrp">   -223.90065181 </i>
    <i name="e_0_energy">   -223.90065181 </i>
   </energy>
  </scstep>
  <scstep>
   <time name="dav">    9.15    9.20</time>
   <time name="total">    9.49    9.55</time>
   <energy>
    <i name="e_fr_energy">   -223.90065197 </i>
    <i name="e_wo_entrp">   -223.90065197 </i>
    <i name="e_0_energy">   -223.90065197 </i>
   </energy>
  </scstep>
  <scstep>
   <time name="dav">    8.16    8.20</time>
   <time name="total">    8.50    8.55</time>
   <energy>
    <i name="e_fr_energy">   -223.90065346 </i>
    <i name="e_wo_entrp">   -223.90065346 </i>
    <i name="e_0_energy">   -223.90065346 </i>
   </energy>
  </scstep>
  <scstep>
   <time name="dav">    8.30    8.34</time>
   <time name="total">    8.64    8.68</time>
   <energy>
    <i name="e_fr_energy">   -223.90065386 </i>
    <i name="e_wo_entrp">   -223.90065386 </i>
    <i name="e_0_energy">   -223.90065386 </i>
   </energy>
  </scstep>
  <scstep>
   <time name="dav">    6.42    6.46</time>
   <time name="total">    6.76    6.80</time>
   <energy>
    <i name="e_fr_energy">   -223.90065383 </i>
    <i name="e_wo_entrp">   -223.90065383 </i>
    <i name="e_0_energy">   -223.90065383 </i>
   </energy>
  </scstep>
  <scstep>
   <time name="dav">    5.58    5.61</time>
   <time name="total">    5.92    5.96</time>
   <energy>
    <i name="e_fr_energy">   -223.90065384 </i>
    <i name="e_wo_entrp">   -223.90065384 </i>
    <i name="e_0_energy">   -223.90065384 </i>
   </energy>
  </scstep>
  <scstep>
   <time name="dav">    5.82    5.86</time>
   <time name="total">    6.16    6.20</time>
   <energy>
    <i name="e_fr_energy">   -223.90065382 </i>
    <i name="e_wo_entrp">   -223.90065382 </i>
    <i name="e_0_energy">   -223.90065382 </i>
   </energy>
  </scstep>
  <scstep>
   <time name="dav">    5.73    5.76</time>
   <time name="total">    6.07    6.11</time>
   <energy>
    <i name="e_fr_energy">   -223.90065378 </i>
    <i name="e_wo_entrp">   -223.90065378 </i>
    <i name="e_0_energy">   -223.90065378 </i>
   </energy>
  </scstep>
  <scstep>
   <time name="dav">    5.54    5.58</time>
   <time name="total">    5.61    5.64</time>
   <energy>
    <i name="alphaZ">    751.52672365 </i>
    <i name="ewald"> -22871.32626174 </i>
    <i name="hartreedc">  -9078.16632216 </i>
    <i name="XCdc">   1472.51331162 </i>
    <i name="pawpsdc">  29498.28054701 </i>
    <i name="pawaedc"> -32317.64536267 </i>
    <i name="eentropy">     -0.00000000 </i>
    <i name="bandstr">  -5211.26275942 </i>
    <i name="atom">  37532.17946992 </i>
    <i name="e_fr_energy">   -223.90065378 </i>
    <i name="e_wo_entrp">   -223.90065378 </i>
    <i name="e_0_energy">   -223.90065378 </i>
   </energy>
  </scstep>
  <structure>
   <crystal>
    <varray name="basis" >
     <v>      11.20400236       0.00000000       0.00000000 </v>
     <v>       0.00000000      11.20400236       0.00000000 </v>
     <v>       0.00000000       0.00000000      11.20400236 </v>
    </varray>
    <i name="volume">   1406.43470641 </i>
    <varray name="rec_basis" >
     <v>       0.08925382       0.00000000       0.00000000 </v>
     <v>       0.00000000       0.08925382       0.00000000 </v>
     <v>       0.00000000       0.00000000       0.08925382 </v>
    </varray>
   </crystal>
   <varray name="positions" >
    <v>       0.99732239       0.00000000       0.00000000 </v>
    <v>       0.25000000       0.25267761       0.00000000 </v>
    <v>       0.25000000       0.00000000       0.25000000 </v>
    <v>       0.00000000       0.25000000       0.25000000 </v>
    <v>       0.00000000       0.00000000       0.50000000 </v>
    <v>       0.25000000       0.25000000       0.50000000 </v>
    <v>       0.25000000       0.00000000       0.75000000 </v>
    <v>       0.00000000       0.25000000       0.75000000 </v>
    <v>       0.00000000       0.50000000       0.00000000 </v>
    <v>       0.25000000       0.75000000       0.00000000 </v>
    <v>       0.25000000       0.50000000       0.25000000 </v>
    <v>       0.00000000       0.75000000       0.25000000 </v>
    <v>       0.00000000       0.50000000       0.50000000 </v>
    <v>       0.25000000       0.75000000       0.50000000 </v>
    <v>       0.25000000       0.50000000       0.75000000 </v>
    <v>       0.00000000       0.75000000       0.75000000 </v>
    <v>       0.50000000       0.00000000       0.00000000 </v>
    <v>       0.75000000       0.25000000       0.00000000 </v>
    <v>       0.75000000       0.00000000       0.25000000 </v>
    <v>       0.50000000       0.25000000       0.25000000 </v>
    <v>       0.50000000       0.00000000       0.50000000 </v>
    <v>       0.75000000       0.25000000       0.50000000 </v>
    <v>       0.75000000       0.00000000       0.75000000 </v>
    <v>       0.50000000       0.25000000       0.75000000 </v>
    <v>       0.50000000       0.50000000       0.00000000 </v>
    <v>       0.75000000       0.75000000       0.00000000 </v>
    <v>       0.75000000       0.50000000       0.25000000 </v>
    <v>       0.50000000       0.75000000       0.25000000 </v>
    <v>       0.50000000       0.50000000       0.50000000 </v>
    <v>       0.75000000       0.75000000       0.50000000 </v>
    <v>       0.75000000       0.50000000       0.75000000 </v>
    <v>       0.50000000       0.75000000       0.75000000 </v>
    <v>       0.25000000       0.25000000       0.25000000 </v>
    <v>       0.00000000       0.00000000       0.25000000 </v>
    <v>       0.00000000       0.25000000       0.00000000 </v>
    <v>       0.25000000       0.00000000       0.00000000 </v>
    <v>       0.25000000       0.25000000       0.75000000 </v>
    <v>       0.00000000       0.00000000       0.75000000 </v>
    <v>       0.00000000       0.25000000       0.50000000 </v>
    <v>       0.25000000       0.00000000       0.50000000 </v>
    <v>       0.25000000       0.75000000       0.25000000 </v>
    <v>       0.00000000       0.50000000       0.25000000 </v>
    <v>       0.00000000       0.75000000       0.00000000 </v>
    <v>       0.25000000       0.50000000       0.00000000 </v>
    <v>       0.25000000       0.75000000       0.75000000 </v>
    <v>       0.00000000       0.50000000       0.75000000 </v>
    <v>       0.00000000       0.75000000       0.50000000 </v>
    <v>       0.25000000       0.50000000       0.50000000 </v>
    <v>       0.75000000       0.25000000       0.25000000 </v>
    <v>       0.50000000       0.00000000       0.25000000 </v>
    <v>       0.50000000       0.25000000       0.00000000 </v>
    <v>       0.75000000       0.00000000       0.00000000 </v>
    <v>       0.75000000       0.25000000       0.75000000 </v>
    <v>       0.50000000       0.00000000       0.75000000 </v>
    <v>       0.50000000       0.25000000       0.50000000 </v>
    <v>       0.75000000       0.00000000       0.50000000 </v>
    <v>       0.75000000       0.75000000       0.25000000 </v>
    <v>       0.50000000       0.50000000       0.25000000 </v>
    <v>       0.50000000       0.75000000       0.00000000 </v>
    <v>       0.75000000       0.50000000       0.00000000 </v>
    <v>       0.75000000       0.75000000       0.75000000 </v>
    <v>       0.50000000       0.50000000       0.75000000 </v>
    <v>       0.50000000       0.75000000       0.50000000 </v>
    <v>       0.75000000       0.50000000       0.50000000 </v>
   </varray>
  </structure>
  <varray name="forces" >
   <v>       0.06849414       0.00142334      -0.00000000 </v>
   <v>      -0.00142334      -0.06849414      -0.00000000 </v>
   <v>      -0.00150787       0.00150787      -0.01160319 </v>
   <v>       0.00168433      -0.00168433      -0.00003973 </v>
   <v>      -0.00002378      -0.00002100      -0.00000000 </v>
   <v>       0.00002100       0.00002378      -0.00000000 </v>
   <v>      -0.00150787       0.00150787       0.01160319 </v>
   <v>       0.00168433      -0.00168433       0.00003973 </v>
   <v>      -0.00587253       0.00151398      -0.00000000 </v>
   <v>      -0.00150679       0.01471557      -0.00000000 </v>
   <v>       0.00002094       0.00151408       0.00599944 </v>
   <v>       0.00166003       0.00118298      -0.00001505 </v>
   <v>       0.00053122      -0.00003333      -0.00000000 </v>
   <v>       0.00002080       0.00023594      -0.00000000 </v>
   <v>       0.00002094       0.00151408      -0.00599944 </v>
   <v>       0.00166003       0.00118298       0.00001505 </v>
   <v>      -0.01471557       0.00150679      -0.00000000 </v>
   <v>      -0.00151398       0.00587253      -0.00000000 </v>
   <v>      -0.00151408      -0.00002094       0.00599944 </v>
   <v>      -0.00118298      -0.00166003      -0.00001505 </v>
   <v>      -0.00023594      -0.00002080      -0.00000000 </v>
   <v>       0.00003333      -0.00053122      -0.00000000 </v>
   <v>      -0.00151408      -0.00002094      -0.00599944 </v>
   <v>      -0.00118298      -0.00166003       0.00001505 </v>
   <v>       0.00561673       0.00151442      -0.00000000 </v>
   <v>      -0.00151442      -0.00561673      -0.00000000 </v>
   <v>       0.00003335      -0.00003335      -0.00015486 </v>
   <v>      -0.00115954       0.00115954       0.00000811 </v>
   <v>      -0.00051901      -0.00003343      -0.00000000 </v>
   <v>       0.00003343       0.00051901      -0.00000000 </v>
   <v>       0.00003335      -0.00003335       0.00015486 </v>
   <v>      -0.00115954       0.00115954      -0.00000811 </v>
   <v>       0.00023968       0.00627820       0.00115312 </v>
   <v>      -0.00627820      -0.00023968       0.00115312 </v>
   <v>      -0.00485234       0.00485234      -0.00000000 </v>
   <v>      -0.01616876       0.01616876      -0.00000000 </v>
   <v>       0.00023968       0.00627820      -0.00115312 </v>
   <v>      -0.00627820      -0.00023968      -0.00115312 </v>
   <v>      -0.00060667       0.00060667      -0.00000000 </v>
   <v>      -0.00014074       0.00014074      -0.00000000 </v>
   <v>       0.00023971      -0.00411738       0.00127038 </v>
   <v>       0.00070816      -0.00021970      -0.00129564 </v>
   <v>      -0.00498033      -0.00270541      -0.00000000 </v>
   <v>      -0.00014057       0.02022680      -0.00000000 </v>
   <v>       0.00023971      -0.00411738      -0.00127038 </v>
   <v>       0.00070816      -0.00021970       0.00129564 </v>
   <v>      -0.00059594      -0.00068054      -0.00000000 </v>
   <v>       0.00001122       0.00016940      -0.00000000 </v>
   <v>       0.00021970      -0.00070816      -0.00129564 </v>
   <v>       0.00411738      -0.00023971       0.00127038 </v>
   <v>       0.00270541       0.00498033      -0.00000000 </v>
   <v>      -0.02022680       0.00014057      -0.00000000 </v>
   <v>       0.00021970      -0.00070816       0.00129564 </v>
   <v>       0.00411738      -0.00023971      -0.00127038 </v>
   <v>       0.00068054       0.00059594      -0.00000000 </v>
   <v>      -0.00016940      -0.00001122      -0.00000000 </v>
   <v>       0.00021988       0.00063369      -0.00130594 </v>
   <v>      -0.00063369      -0.00021988      -0.00130594 </v>
   <v>       0.00282364      -0.00282364      -0.00000000 </v>
   <v>      -0.00016946       0.00016946      -0.00000000 </v>
   <v>       0.00021988       0.00063369       0.00130594 </v>
   <v>      -0.00063369      -0.00021988       0.00130594 </v>
   <v>       0.00067060      -0.00067060      -0.00000000 </v>
   <v>       0.00000072      -0.00000072      -0.00000000 </v>
  </varray>
  <varray name="stress" >
   <v>      -0.36762047       0.00025108       0.00000000 </v>
   <v>       0.00025108      -0.36762047       0.00000000 </v>
   <v>       0.00000000       0.00000000      -0.37936952 </v>
  </varray>
  <energy>
   <i name="e_fr_energy">   -223.90065378 </i>
   <i name="e_wo_entrp">   -223.90065378 </i>
   <i name="e_0_energy">   -223.90065378 </i>
  </energy>
  <time name="totalsc">  181.24  182.37</time>
  <eigenvalues>
   <array>
    <dimension dim="1">band</dimension>
    <dimension dim="2">kpoint</dimension>
    <dimension dim="3">spin</dimension>
    <field>eigene</field>
    <field>occ</field>
    <set>
     <set comment="spin 1">
      <set comment="kpoint 1">
       <r>  -21.3052    1.0000 </r>
       <r>  -21.3045    1.0000 </r>
       <r>  -21.3045    1.0000 </r>
       <r>  -21.3040    1.0000 </r>
       <r>  -21.2961    1.0000 </r>
       <r>  -21.2951    1.0000 </r>
       <r>  -21.2951    1.0000 </r>
       <r>  -21.2950    1.0000 </r>
       <r>  -21.2947    1.0000 </r>
       <r>  -21.2942    1.0000 </r>
       <r>  -21.2939    1.0000 </r>
       <r>  -21.2939    1.0000 </r>
       <r>  -21.2938    1.0000 </r>
       <r>  -21.2938    1.0000 </r>
       <r>  -21.2937    1.0000 </r>
       <r>  -21.2927    1.0000 </r>
       <r>  -21.2927    1.0000 </r>
       <r>  -21.2927    1.0000 </r>
       <r>  -21.2909    1.0000 </r>
       <r>  -21.2890    1.0000 </r>
       <r>  -21.2882    1.0000 </r>
       <r>  -21.2882    1.0000 </r>
       <r>  -21.2868    1.0000 </r>
       <r>  -21.2868    1.0000 </r>
       <r>  -21.2866    1.0000 </r>
       <r>  -21.2866    1.0000 </r>
       <r>  -21.2865    1.0000 </r>
       <r>  -21.2865    1.0000 </r>
       <r>  -21.2863    1.0000 </r>
       <r>  -21.2859    1.0000 </r>
       <r>  -21.2849    1.0000 </r>
       <r>  -21.2847    1.0000 </r>
       <r>  -21.2839    1.0000 </r>
       <r>  -21.2837    1.0000 </r>
       <r>  -21.2837    1.0000 </r>
       <r>  -21.2836    1.0000 </r>
       <r>  -21.2828    1.0000 </r>
       <r>  -21.2821    1.0000 </r>
       <r>  -21.2821    1.0000 </r>
       <r>  -21.2819    1.0000 </r>
       <r>  -21.2818    1.0000 </r>
       <r>  -21.2817    1.0000 </r>
       <r>  -21.2816    1.0000 </r>
       <r>  -21.2815    1.0000 </r>
       <r>  -21.2809    1.0000 </r>
       <r>  -21.2809    1.0000 </r>
       <r>  -21.2808    1.0000 </r>
       <r>  -21.2808    1.0000 </r>
       <r>  -21.2799    1.0000 </r>
       <r>  -21.2799    1.0000 </r>
       <r>  -21.2799    1.0000 </r>
       <r>  -21.2798    1.0000 </r>
       <r>  -21.2798    1.0000 </r>
       <r>  -21.2796    1.0000 </r>
       <r>  -21.2796    1.0000 </r>
       <r>  -21.2796    1.0000 </r>
       <r>  -21.2783    1.0000 </r>
       <r>  -21.2783    1.0000 </r>
       <r>  -21.2774    1.0000 </r>
       <r>  -21.2774    1.0000 </r>
       <r>  -21.2774    1.0000 </r>
       <r>  -21.2757    1.0000 </r>
       <r>  -21.2755    1.0000 </r>
       <r>  -21.2755    1.0000 </r>
       <r>  -21.2753    1.0000 </r>
       <r>  -21.2749    1.0000 </r>
       <r>  -21.2749    1.0000 </r>
       <r>  -21.2749    1.0000 </r>
       <r>  -21.2748    1.0000 </r>
       <r>  -21.2748    1.0000 </r>
       <r>  -21.2743    1.0000 </r>
       <r>  -21.2741    1.0000 </r>
       <r>  -21.2735    1.0000 </r>
       <r>  -21.2735    1.0000 </r>
       <r>  -21.2728    1.0000 </r>
       <r>  -21.2728    1.0000 </r>
       <r>  -21.2726    1.0000 </r>
       <r>  -21.2716    1.0000 </r>
       <r>  -21.2716    1.0000 </r>
       <r>  -21.2716    1.0000 </r>
       <r>  -21.2716    1.0000 </r>
       <r>  -21.2709    1.0000 </r>
       <r>  -21.2707    1.0000 </r>
       <r>  -21.2707    1.0000 </r>
       <r>  -21.2706    1.0000 </r>
       <r>  -21.2706    1.0000 </r>
       <r>  -21.2697    1.0000 </r>
       <r>  -21.2697    1.0000 </r>
       <r>  -21.2689    1.0000 </r>
       <r>  -21.2686    1.0000 </r>
       <r>  -21.2654    1.0000 </r>
       <r>  -21.2654    1.0000 </r>
       <r>  -21.2650    1.0000 </r>
       <r>  -21.2650    1.0000 </r>
       <r>  -21.2646    1.0000 </r>
       <r>  -21.2641    1.0000 </r>
       <r>  -13.3583    1.0000 </r>
       <r>  -13.1446    1.0000 </r>
       <r>  -13.1401    1.0000 </r>
       <r>  -13.1373    1.0000 </r>
       <r>  -13.1373    1.0000 </r>
       <r>  -13.1373    1.0000 </r>
       <r>  -13.1311    1.0000 </r>
       <r>  -13.0238    1.0000 </r>
       <r>  -13.0175    1.0000 </r>
       <r>  -13.0115    1.0000 </r>
       <r>  -13.0115    1.0000 </r>
       <r>  -13.0113    1.0000 </r>
       <r>  -13.0112    1.0000 </r>
       <r>  -13.0112    1.0000 </r>
       <r>  -13.0111    1.0000 </r>
       <r>  -13.0111    1.0000 </r>
       <r>  -13.0111    1.0000 </r>
       <r>  -13.0110    1.0000 </r>
       <r>  -13.0014    1.0000 </r>
       <r>  -12.9900    1.0000 </r>
       <r>  -12.9897    1.0000 </r>
       <r>  -12.9897    1.0000 </r>
       <r>  -12.9884    1.0000 </r>
       <r>  -12.9411    1.0000 </r>
       <r>  -12.9409    1.0000 </r>
       <r>  -12.9394    1.0000 </r>
       <r>  -12.9266    1.0000 </r>
       <r>  -12.9229    1.0000 </r>
       <r>  -12.9214    1.0000 </r>
       <r>  -12.9214    1.0000 </r>
       <r>  -12.9214    1.0000 </r>
       <r>  -12.9049    1.0000 </r>
       <r>   -2.7002    1.0000 </r>
       <r>   -2.7002    1.0000 </r>
       <r>   -2.7002    1.0000 </r>
       <r>   -2.6999    1.0000 </r>
       <r>   -2.4241    1.0000 </r>
       <r>   -2.4241    1.0000 </r>
       <r>   -2.4240    1.0000 </r>
       <r>   -2.2105    1.0000 </r>
       <r>   -2.2074    1.0000 </r>
       <r>   -2.2073    1.0000 </r>
       <r>   -2.2055    1.0000 </r>
       <r>   -2.2047    1.0000 </r>
       <r>   -2.2042    1.0000 </r>
       <r>   -2.2042    1.0000 </r>
       <r>   -2.2042    1.0000 </r>
       <r>   -2.2028    1.0000 </r>
       <r>   -2.2018    1.0000 </r>
       <r>   -2.2016    1.0000 </r>
       <r>   -2.1985    1.0000 </r>
       <r>   -1.9305    1.0000 </r>
       <r>   -1.9277    1.0000 </r>
       <r>   -1.9277    1.0000 </r>
       <r>   -1.9256    1.0000 </r>
       <r>   -1.9252    1.0000 </r>
       <r>   -1.9251    1.0000 </r>
       <r>   -1.9241    1.0000 </r>
       <r>   -1.9241    1.0000 </r>
       <r>   -1.9236    1.0000 </r>
       <r>   -1.9219    1.0000 </r>
       <r>   -1.9218    1.0000 </r>
       <r>   -1.9189    1.0000 </r>
       <r>   -1.7981    1.0000 </r>
       <r>   -1.7972    1.0000 </r>
       <r>   -1.7968    1.0000 </r>
       <r>   -1.7966    1.0000 </r>
       <r>   -1.7966    1.0000 </r>
       <r>   -1.7946    1.0000 </r>
       <r>   -1.5073    1.0000 </r>
       <r>   -1.5071    1.0000 </r>
       <r>   -1.5070    1.0000 </r>
       <r>   -1.5068    1.0000 </r>
       <r>   -1.5061    1.0000 </r>
       <r>   -1.5061    1.0000 </r>
       <r>   -1.5056    1.0000 </r>
       <r>   -1.5053    1.0000 </r>
       <r>   -1.5049    1.0000 </r>
       <r>   -1.5044    1.0000 </r>
       <r>   -1.5043    1.0000 </r>
       <r>   -1.5035    1.0000 </r>
       <r>   -1.4643    1.0000 </r>
       <r>   -1.4625    1.0000 </r>
       <r>   -1.4618    1.0000 </r>
       <r>   -1.4615    1.0000 </r>
       <r>   -1.4612    1.0000 </r>
       <r>   -1.4612    1.0000 </r>
       <r>   -1.2948    1.0000 </r>
       <r>   -1.2948    1.0000 </r>
       <r>   -1.2947    1.0000 </r>
       <r>   -1.2947    1.0000 </r>
       <r>   -1.2947    1.0000 </r>
       <r>   -1.2946    1.0000 </r>
       <r>   -1.0072    1.0000 </r>
       <r>   -1.0040    1.0000 </r>
       <r>   -1.0040    1.0000 </r>
       <r>   -1.0017    1.0000 </r>
       <r>   -1.0014    1.0000 </r>
       <r>   -1.0013    1.0000 </r>
       <r>   -1.0011    1.0000 </r>
       <r>   -1.0011    1.0000 </r>
       <r>   -1.0002    1.0000 </r>
       <r>   -1.0002    1.0000 </r>
       <r>   -0.9998    1.0000 </r>
       <r>   -0.9959    1.0000 </r>
       <r>   -0.9535    1.0000 </r>
       <r>   -0.9526    1.0000 </r>
       <r>   -0.9526    1.0000 </r>
       <r>   -0.9509    1.0000 </r>
       <r>   -0.9492    1.0000 </r>
       <r>   -0.9478    1.0000 </r>
       <r>   -0.9478    1.0000 </r>
       <r>   -0.9478    1.0000 </r>
       <r>   -0.9476    1.0000 </r>
       <r>   -0.9473    1.0000 </r>
       <r>   -0.9471    1.0000 </r>
       <r>   -0.9469    1.0000 </r>
       <r>   -0.9458    1.0000 </r>
       <r>   -0.9458    1.0000 </r>
       <r>   -0.9455    1.0000 </r>
       <r>   -0.9454    1.0000 </r>
       <r>   -0.9452    1.0000 </r>
       <r>   -0.9373    1.0000 </r>
       <r>   -0.9373    1.0000 </r>
       <r>   -0.9357    1.0000 </r>
       <r>   -0.6647    1.0000 </r>
       <r>   -0.6646    1.0000 </r>
       <r>   -0.6646    1.0000 </r>
       <r>    4.3403    0.0000 </r>
       <r>    6.3646    0.0000 </r>
       <r>    6.3668    0.0000 </r>
       <r>    6.3682    0.0000 </r>
       <r>    6.3682    0.0000 </r>
       <r>    6.3682    0.0000 </r>
       <r>    6.3729    0.0000 </r>
       <r>    6.4445    0.0000 </r>
       <r>    6.4445    0.0000 </r>
       <r>    6.4446    0.0000 </r>
       <r>    6.4448    0.0000 </r>
       <r>    6.8279    0.0000 </r>
       <r>    6.8280    0.0000 </r>
       <r>    6.8280    0.0000 </r>
       <r>    7.2068    0.0000 </r>
       <r>    7.2068    0.0000 </r>
       <r>    7.2068    0.0000 </r>
       <r>    7.4600    0.0000 </r>
       <r>    7.4608    0.0000 </r>
       <r>    7.4621    0.0000 </r>
       <r>    7.4626    0.0000 </r>
       <r>    7.4628    0.0000 </r>
       <r>    7.4640    0.0000 </r>
       <r>    7.4642    0.0000 </r>
       <r>    7.4643    0.0000 </r>
       <r>    7.4658    0.0000 </r>
       <r>    7.4660    0.0000 </r>
       <r>    7.4676    0.0000 </r>
       <r>    7.4700    0.0000 </r>
       <r>    8.1650    0.0000 </r>
       <r>    8.1684    0.0000 </r>
       <r>    8.1684    0.0000 </r>
       <r>    8.1684    0.0000 </r>
       <r>    8.1693    0.0000 </r>
       <r>    8.1709    0.0000 </r>
       <r>    8.2760    0.0000 </r>
       <r>    8.2782    0.0000 </r>
       <r>    8.2795    0.0000 </r>
       <r>    8.2795    0.0000 </r>
       <r>    8.2798    0.0000 </r>
       <r>    8.2841    0.0000 </r>
       <r>    8.8916    0.0000 </r>
       <r>    8.8962    0.0000 </r>
       <r>    8.8968    0.0000 </r>
       <r>    8.8974    0.0000 </r>
       <r>    8.8982    0.0000 </r>
       <r>    8.9003    0.0000 </r>
       <r>    8.9006    0.0000 </r>
       <r>    8.9008    0.0000 </r>
       <r>    8.9011    0.0000 </r>
       <r>    8.9029    0.0000 </r>
       <r>    8.9053    0.0000 </r>
       <r>    8.9069    0.0000 </r>
       <r>    8.9116    0.0000 </r>
       <r>    8.9129    0.0000 </r>
       <r>    8.9142    0.0000 </r>
       <r>    8.9148    0.0000 </r>
       <r>    8.9154    0.0000 </r>
       <r>    8.9159    0.0000 </r>
       <r>    8.9189    0.0000 </r>
       <r>    8.9200    0.0000 </r>
       <r>    8.9238    0.0000 </r>
       <r>    8.9256    0.0000 </r>
       <r>    8.9266    0.0000 </r>
      </set>
      <set comment="kpoint 2">
       <r>  -21.3024    1.0000 </r>
       <r>  -21.3019    1.0000 </r>
       <r>  -21.3006    1.0000 </r>
       <r>  -21.3005    1.0000 </r>
       <r>  -21.3000    1.0000 </r>
       <r>  -21.2993    1.0000 </r>
       <r>  -21.2988    1.0000 </r>
       <r>  -21.2979    1.0000 </r>
       <r>  -21.2940    1.0000 </r>
       <r>  -21.2936    1.0000 </r>
       <r>  -21.2935    1.0000 </r>
       <r>  -21.2935    1.0000 </r>
       <r>  -21.2927    1.0000 </r>
       <r>  -21.2927    1.0000 </r>
       <r>  -21.2924    1.0000 </r>
       <r>  -21.2922    1.0000 </r>
       <r>  -21.2918    1.0000 </r>
       <r>  -21.2917    1.0000 </r>
       <r>  -21.2915    1.0000 </r>
       <r>  -21.2913    1.0000 </r>
       <r>  -21.2911    1.0000 </r>
       <r>  -21.2904    1.0000 </r>
       <r>  -21.2891    1.0000 </r>
       <r>  -21.2884    1.0000 </r>
       <r>  -21.2883    1.0000 </r>
       <r>  -21.2882    1.0000 </r>
       <r>  -21.2876    1.0000 </r>
       <r>  -21.2871    1.0000 </r>
       <r>  -21.2867    1.0000 </r>
       <r>  -21.2864    1.0000 </r>
       <r>  -21.2863    1.0000 </r>
       <r>  -21.2862    1.0000 </r>
       <r>  -21.2860    1.0000 </r>
       <r>  -21.2851    1.0000 </r>
       <r>  -21.2837    1.0000 </r>
       <r>  -21.2834    1.0000 </r>
       <r>  -21.2834    1.0000 </r>
       <r>  -21.2833    1.0000 </r>
       <r>  -21.2825    1.0000 </r>
       <r>  -21.2823    1.0000 </r>
       <r>  -21.2818    1.0000 </r>
       <r>  -21.2813    1.0000 </r>
       <r>  -21.2810    1.0000 </r>
       <r>  -21.2804    1.0000 </r>
       <r>  -21.2802    1.0000 </r>
       <r>  -21.2801    1.0000 </r>
       <r>  -21.2796    1.0000 </r>
       <r>  -21.2788    1.0000 </r>
       <r>  -21.2782    1.0000 </r>
       <r>  -21.2782    1.0000 </r>
       <r>  -21.2782    1.0000 </r>
       <r>  -21.2780    1.0000 </r>
       <r>  -21.2777    1.0000 </r>
       <r>  -21.2775    1.0000 </r>
       <r>  -21.2774    1.0000 </r>
       <r>  -21.2772    1.0000 </r>
       <r>  -21.2768    1.0000 </r>
       <r>  -21.2768    1.0000 </r>
       <r>  -21.2765    1.0000 </r>
       <r>  -21.2764    1.0000 </r>
       <r>  -21.2763    1.0000 </r>
       <r>  -21.2762    1.0000 </r>
       <r>  -21.2760    1.0000 </r>
       <r>  -21.2759    1.0000 </r>
       <r>  -21.2756    1.0000 </r>
       <r>  -21.2750    1.0000 </r>
       <r>  -21.2749    1.0000 </r>
       <r>  -21.2747    1.0000 </r>
       <r>  -21.2745    1.0000 </r>
       <r>  -21.2744    1.0000 </r>
       <r>  -21.2744    1.0000 </r>
       <r>  -21.2740    1.0000 </r>
       <r>  -21.2738    1.0000 </r>
       <r>  -21.2736    1.0000 </r>
       <r>  -21.2735    1.0000 </r>
       <r>  -21.2733    1.0000 </r>
       <r>  -21.2731    1.0000 </r>
       <r>  -21.2726    1.0000 </r>
       <r>  -21.2723    1.0000 </r>
       <r>  -21.2723    1.0000 </r>
       <r>  -21.2723    1.0000 </r>
       <r>  -21.2719    1.0000 </r>
       <r>  -21.2715    1.0000 </r>
       <r>  -21.2708    1.0000 </r>
       <r>  -21.2705    1.0000 </r>
       <r>  -21.2704    1.0000 </r>
       <r>  -21.2701    1.0000 </r>
       <r>  -21.2699    1.0000 </r>
       <r>  -21.2692    1.0000 </r>
       <r>  -21.2691    1.0000 </r>
       <r>  -21.2661    1.0000 </r>
       <r>  -21.2655    1.0000 </r>
       <r>  -21.2653    1.0000 </r>
       <r>  -21.2650    1.0000 </r>
       <r>  -21.2647    1.0000 </r>
       <r>  -21.2642    1.0000 </r>
       <r>  -13.2938    1.0000 </r>
       <r>  -13.2894    1.0000 </r>
       <r>  -13.1046    1.0000 </r>
       <r>  -13.1036    1.0000 </r>
       <r>  -13.0983    1.0000 </r>
       <r>  -13.0982    1.0000 </r>
       <r>  -13.0973    1.0000 </r>
       <r>  -13.0955    1.0000 </r>
       <r>  -13.0954    1.0000 </r>
       <r>  -13.0867    1.0000 </r>
       <r>  -13.0091    1.0000 </r>
       <r>  -13.0042    1.0000 </r>
       <r>  -13.0034    1.0000 </r>
       <r>  -13.0007    1.0000 </r>
       <r>  -13.0006    1.0000 </r>
       <r>  -13.0006    1.0000 </r>
       <r>  -13.0005    1.0000 </r>
       <r>  -12.9978    1.0000 </r>
       <r>  -12.9970    1.0000 </r>
       <r>  -12.9874    1.0000 </r>
       <r>  -12.9505    1.0000 </r>
       <r>  -12.9491    1.0000 </r>
       <r>  -12.9451    1.0000 </r>
       <r>  -12.9450    1.0000 </r>
       <r>  -12.9442    1.0000 </r>
       <r>  -12.9424    1.0000 </r>
       <r>  -12.9423    1.0000 </r>
       <r>  -12.9366    1.0000 </r>
       <r>  -12.9349    1.0000 </r>
       <r>  -12.9311    1.0000 </r>
       <r>  -12.9310    1.0000 </r>
       <r>  -12.9118    1.0000 </r>
       <r>   -2.5081    1.0000 </r>
       <r>   -2.5081    1.0000 </r>
       <r>   -2.5064    1.0000 </r>
       <r>   -2.5050    1.0000 </r>
       <r>   -2.5036    1.0000 </r>
       <r>   -2.5027    1.0000 </r>
       <r>   -2.5012    1.0000 </r>
       <r>   -2.5011    1.0000 </r>
       <r>   -2.2901    1.0000 </r>
       <r>   -2.2901    1.0000 </r>
       <r>   -2.2853    1.0000 </r>
       <r>   -2.2852    1.0000 </r>
       <r>   -2.2768    1.0000 </r>
       <r>   -2.2718    1.0000 </r>
       <r>   -2.1416    1.0000 </r>
       <r>   -2.1412    1.0000 </r>
       <r>   -2.1366    1.0000 </r>
       <r>   -2.1365    1.0000 </r>
       <r>   -2.1364    1.0000 </r>
       <r>   -2.1363    1.0000 </r>
       <r>   -2.1359    1.0000 </r>
       <r>   -2.1271    1.0000 </r>
       <r>   -1.9878    1.0000 </r>
       <r>   -1.9877    1.0000 </r>
       <r>   -1.9872    1.0000 </r>
       <r>   -1.9862    1.0000 </r>
       <r>   -1.9841    1.0000 </r>
       <r>   -1.9839    1.0000 </r>
       <r>   -1.9835    1.0000 </r>
       <r>   -1.9835    1.0000 </r>
       <r>   -1.8122    1.0000 </r>
       <r>   -1.8121    1.0000 </r>
       <r>   -1.8105    1.0000 </r>
       <r>   -1.8101    1.0000 </r>
       <r>   -1.8084    1.0000 </r>
       <r>   -1.8060    1.0000 </r>
       <r>   -1.8051    1.0000 </r>
       <r>   -1.8050    1.0000 </r>
       <r>   -1.5000    1.0000 </r>
       <r>   -1.5000    1.0000 </r>
       <r>   -1.4957    1.0000 </r>
       <r>   -1.4956    1.0000 </r>
       <r>   -1.3859    1.0000 </r>
       <r>   -1.3804    1.0000 </r>
       <r>   -1.3803    1.0000 </r>
       <r>   -1.3759    1.0000 </r>
       <r>   -1.2150    1.0000 </r>
       <r>   -1.2148    1.0000 </r>
       <r>   -1.2121    1.0000 </r>
       <r>   -1.2105    1.0000 </r>
       <r>   -1.1935    1.0000 </r>
       <r>   -1.1932    1.0000 </r>
       <r>   -1.1929    1.0000 </r>
       <r>   -1.1919    1.0000 </r>
       <r>   -1.1917    1.0000 </r>
       <r>   -1.1914    1.0000 </r>
       <r>   -1.1901    1.0000 </r>
       <r>   -1.1895    1.0000 </r>
       <r>   -1.1798    1.0000 </r>
       <r>   -1.1760    1.0000 </r>
       <r>   -1.1755    1.0000 </r>
       <r>   -1.1755    1.0000 </r>
       <r>   -1.1751    1.0000 </r>
       <r>   -1.1727    1.0000 </r>
       <r>   -1.1725    1.0000 </r>
       <r>   -1.1665    1.0000 </r>
       <r>   -1.1624    1.0000 </r>
       <r>   -1.1623    1.0000 </r>
       <r>   -1.1611    1.0000 </r>
       <r>   -1.1610    1.0000 </r>
       <r>   -1.1593    1.0000 </r>
       <r>   -1.1574    1.0000 </r>
       <r>   -1.1539    1.0000 </r>
       <r>   -1.1523    1.0000 </r>
       <r>   -1.0855    1.0000 </r>
       <r>   -1.0802    1.0000 </r>
       <r>   -0.9518    1.0000 </r>
       <r>   -0.9517    1.0000 </r>
       <r>   -0.9470    1.0000 </r>
       <r>   -0.9469    1.0000 </r>
       <r>   -0.9468    1.0000 </r>
       <r>   -0.9468    1.0000 </r>
       <r>   -0.9437    1.0000 </r>
       <r>   -0.9417    1.0000 </r>
       <r>   -0.9383    1.0000 </r>
       <r>   -0.9373    1.0000 </r>
       <r>   -0.9323    1.0000 </r>
       <r>   -0.9323    1.0000 </r>
       <r>   -0.9322    1.0000 </r>
       <r>   -0.9317    1.0000 </r>
       <r>   -0.9305    1.0000 </r>
       <r>   -0.9205    1.0000 </r>
       <r>   -0.7707    1.0000 </r>
       <r>   -0.7707    1.0000 </r>
       <r>   -0.7655    1.0000 </r>
       <r>   -0.7653    1.0000 </r>
       <r>    5.0205    0.0000 </r>
       <r>    5.0242    0.0000 </r>
       <r>    6.7157    0.0000 </r>
       <r>    6.7161    0.0000 </r>
       <r>    6.7165    0.0000 </r>
       <r>    6.7166    0.0000 </r>
       <r>    6.7173    0.0000 </r>
       <r>    6.7201    0.0000 </r>
       <r>    6.7201    0.0000 </r>
       <r>    6.7241    0.0000 </r>
       <r>    6.8402    0.0000 </r>
       <r>    6.8403    0.0000 </r>
       <r>    6.8417    0.0000 </r>
       <r>    6.8417    0.0000 </r>
       <r>    6.8446    0.0000 </r>
       <r>    6.8446    0.0000 </r>
       <r>    6.8461    0.0000 </r>
       <r>    6.8464    0.0000 </r>
       <r>    6.9696    0.0000 </r>
       <r>    6.9726    0.0000 </r>
       <r>    7.3591    0.0000 </r>
       <r>    7.3623    0.0000 </r>
       <r>    7.3628    0.0000 </r>
       <r>    7.3659    0.0000 </r>
       <r>    7.4774    0.0000 </r>
       <r>    7.4831    0.0000 </r>
       <r>    7.7116    0.0000 </r>
       <r>    7.7116    0.0000 </r>
       <r>    7.7175    0.0000 </r>
       <r>    7.7175    0.0000 </r>
       <r>    8.2629    0.0000 </r>
       <r>    8.2636    0.0000 </r>
       <r>    8.2637    0.0000 </r>
       <r>    8.2643    0.0000 </r>
       <r>    8.2649    0.0000 </r>
       <r>    8.2679    0.0000 </r>
       <r>    8.2680    0.0000 </r>
       <r>    8.2718    0.0000 </r>
       <r>    8.5343    0.0000 </r>
       <r>    8.5343    0.0000 </r>
       <r>    8.5356    0.0000 </r>
       <r>    8.5364    0.0000 </r>
       <r>    8.5365    0.0000 </r>
       <r>    8.5365    0.0000 </r>
       <r>    8.5369    0.0000 </r>
       <r>    8.5372    0.0000 </r>
       <r>    8.5384    0.0000 </r>
       <r>    8.5387    0.0000 </r>
       <r>    8.5400    0.0000 </r>
       <r>    8.5405    0.0000 </r>
       <r>    8.5408    0.0000 </r>
       <r>    8.5421    0.0000 </r>
       <r>    8.5429    0.0000 </r>
       <r>    8.5449    0.0000 </r>
       <r>    8.9456    0.0000 </r>
       <r>    8.9465    0.0000 </r>
       <r>    8.9485    0.0000 </r>
       <r>    8.9485    0.0000 </r>
       <r>    8.9497    0.0000 </r>
       <r>    8.9533    0.0000 </r>
       <r>    8.9534    0.0000 </r>
       <r>    8.9619    0.0000 </r>
       <r>    9.4871    0.0000 </r>
       <r>    9.5027    0.0000 </r>
      </set>
      <set comment="kpoint 3">
       <r>  -21.3018    1.0000 </r>
       <r>  -21.3006    1.0000 </r>
       <r>  -21.3006    1.0000 </r>
       <r>  -21.3004    1.0000 </r>
       <r>  -21.2999    1.0000 </r>
       <r>  -21.2999    1.0000 </r>
       <r>  -21.2999    1.0000 </r>
       <r>  -21.2992    1.0000 </r>
       <r>  -21.2943    1.0000 </r>
       <r>  -21.2939    1.0000 </r>
       <r>  -21.2937    1.0000 </r>
       <r>  -21.2934    1.0000 </r>
       <r>  -21.2934    1.0000 </r>
       <r>  -21.2923    1.0000 </r>
       <r>  -21.2921    1.0000 </r>
       <r>  -21.2921    1.0000 </r>
       <r>  -21.2917    1.0000 </r>
       <r>  -21.2917    1.0000 </r>
       <r>  -21.2910    1.0000 </r>
       <r>  -21.2910    1.0000 </r>
       <r>  -21.2897    1.0000 </r>
       <r>  -21.2894    1.0000 </r>
       <r>  -21.2894    1.0000 </r>
       <r>  -21.2893    1.0000 </r>
       <r>  -21.2892    1.0000 </r>
       <r>  -21.2888    1.0000 </r>
       <r>  -21.2888    1.0000 </r>
       <r>  -21.2881    1.0000 </r>
       <r>  -21.2873    1.0000 </r>
       <r>  -21.2858    1.0000 </r>
       <r>  -21.2854    1.0000 </r>
       <r>  -21.2841    1.0000 </r>
       <r>  -21.2840    1.0000 </r>
       <r>  -21.2838    1.0000 </r>
       <r>  -21.2838    1.0000 </r>
       <r>  -21.2837    1.0000 </r>
       <r>  -21.2837    1.0000 </r>
       <r>  -21.2836    1.0000 </r>
       <r>  -21.2819    1.0000 </r>
       <r>  -21.2819    1.0000 </r>
       <r>  -21.2812    1.0000 </r>
       <r>  -21.2812    1.0000 </r>
       <r>  -21.2812    1.0000 </r>
       <r>  -21.2809    1.0000 </r>
       <r>  -21.2802    1.0000 </r>
       <r>  -21.2801    1.0000 </r>
       <r>  -21.2797    1.0000 </r>
       <r>  -21.2796    1.0000 </r>
       <r>  -21.2792    1.0000 </r>
       <r>  -21.2792    1.0000 </r>
       <r>  -21.2792    1.0000 </r>
       <r>  -21.2786    1.0000 </r>
       <r>  -21.2776    1.0000 </r>
       <r>  -21.2776    1.0000 </r>
       <r>  -21.2775    1.0000 </r>
       <r>  -21.2775    1.0000 </r>
       <r>  -21.2769    1.0000 </r>
       <r>  -21.2769    1.0000 </r>
       <r>  -21.2766    1.0000 </r>
       <r>  -21.2766    1.0000 </r>
       <r>  -21.2763    1.0000 </r>
       <r>  -21.2763    1.0000 </r>
       <r>  -21.2760    1.0000 </r>
       <r>  -21.2759    1.0000 </r>
       <r>  -21.2759    1.0000 </r>
       <r>  -21.2752    1.0000 </r>
       <r>  -21.2752    1.0000 </r>
       <r>  -21.2748    1.0000 </r>
       <r>  -21.2747    1.0000 </r>
       <r>  -21.2741    1.0000 </r>
       <r>  -21.2741    1.0000 </r>
       <r>  -21.2738    1.0000 </r>
       <r>  -21.2735    1.0000 </r>
       <r>  -21.2735    1.0000 </r>
       <r>  -21.2733    1.0000 </r>
       <r>  -21.2728    1.0000 </r>
       <r>  -21.2723    1.0000 </r>
       <r>  -21.2723    1.0000 </r>
       <r>  -21.2722    1.0000 </r>
       <r>  -21.2720    1.0000 </r>
       <r>  -21.2720    1.0000 </r>
       <r>  -21.2717    1.0000 </r>
       <r>  -21.2716    1.0000 </r>
       <r>  -21.2712    1.0000 </r>
       <r>  -21.2707    1.0000 </r>
       <r>  -21.2707    1.0000 </r>
       <r>  -21.2701    1.0000 </r>
       <r>  -21.2701    1.0000 </r>
       <r>  -21.2689    1.0000 </r>
       <r>  -21.2687    1.0000 </r>
       <r>  -21.2654    1.0000 </r>
       <r>  -21.2654    1.0000 </r>
       <r>  -21.2654    1.0000 </r>
       <r>  -21.2654    1.0000 </r>
       <r>  -21.2649    1.0000 </r>
       <r>  -21.2647    1.0000 </r>
       <r>  -13.2920    1.0000 </r>
       <r>  -13.2912    1.0000 </r>
       <r>  -13.1106    1.0000 </r>
       <r>  -13.0969    1.0000 </r>
       <r>  -13.0969    1.0000 </r>
       <r>  -13.0968    1.0000 </r>
       <r>  -13.0968    1.0000 </r>
       <r>  -13.0968    1.0000 </r>
       <r>  -13.0968    1.0000 </r>
       <r>  -13.0873    1.0000 </r>
       <r>  -13.0129    1.0000 </r>
       <r>  -13.0006    1.0000 </r>
       <r>  -13.0006    1.0000 </r>
       <r>  -13.0006    1.0000 </r>
       <r>  -13.0006    1.0000 </r>
       <r>  -13.0006    1.0000 </r>
       <r>  -13.0006    1.0000 </r>
       <r>  -13.0005    1.0000 </r>
       <r>  -12.9955    1.0000 </r>
       <r>  -12.9892    1.0000 </r>
       <r>  -12.9556    1.0000 </r>
       <r>  -12.9440    1.0000 </r>
       <r>  -12.9438    1.0000 </r>
       <r>  -12.9437    1.0000 </r>
       <r>  -12.9437    1.0000 </r>
       <r>  -12.9437    1.0000 </r>
       <r>  -12.9437    1.0000 </r>
       <r>  -12.9400    1.0000 </r>
       <r>  -12.9311    1.0000 </r>
       <r>  -12.9310    1.0000 </r>
       <r>  -12.9308    1.0000 </r>
       <r>  -12.9130    1.0000 </r>
       <r>   -2.5052    1.0000 </r>
       <r>   -2.5050    1.0000 </r>
       <r>   -2.5049    1.0000 </r>
       <r>   -2.5043    1.0000 </r>
       <r>   -2.5043    1.0000 </r>
       <r>   -2.5043    1.0000 </r>
       <r>   -2.5041    1.0000 </r>
       <r>   -2.5041    1.0000 </r>
       <r>   -2.2876    1.0000 </r>
       <r>   -2.2876    1.0000 </r>
       <r>   -2.2876    1.0000 </r>
       <r>   -2.2876    1.0000 </r>
       <r>   -2.2744    1.0000 </r>
       <r>   -2.2741    1.0000 </r>
       <r>   -2.1453    1.0000 </r>
       <r>   -2.1368    1.0000 </r>
       <r>   -2.1366    1.0000 </r>
       <r>   -2.1364    1.0000 </r>
       <r>   -2.1364    1.0000 </r>
       <r>   -2.1363    1.0000 </r>
       <r>   -2.1361    1.0000 </r>
       <r>   -2.1278    1.0000 </r>
       <r>   -1.9881    1.0000 </r>
       <r>   -1.9879    1.0000 </r>
       <r>   -1.9864    1.0000 </r>
       <r>   -1.9863    1.0000 </r>
       <r>   -1.9854    1.0000 </r>
       <r>   -1.9854    1.0000 </r>
       <r>   -1.9827    1.0000 </r>
       <r>   -1.9827    1.0000 </r>
       <r>   -1.8107    1.0000 </r>
       <r>   -1.8089    1.0000 </r>
       <r>   -1.8088    1.0000 </r>
       <r>   -1.8087    1.0000 </r>
       <r>   -1.8086    1.0000 </r>
       <r>   -1.8082    1.0000 </r>
       <r>   -1.8081    1.0000 </r>
       <r>   -1.8066    1.0000 </r>
       <r>   -1.4980    1.0000 </r>
       <r>   -1.4980    1.0000 </r>
       <r>   -1.4977    1.0000 </r>
       <r>   -1.4977    1.0000 </r>
       <r>   -1.3814    1.0000 </r>
       <r>   -1.3804    1.0000 </r>
       <r>   -1.3804    1.0000 </r>
       <r>   -1.3804    1.0000 </r>
       <r>   -1.2140    1.0000 </r>
       <r>   -1.2140    1.0000 </r>
       <r>   -1.2123    1.0000 </r>
       <r>   -1.2123    1.0000 </r>
       <r>   -1.1942    1.0000 </r>
       <r>   -1.1942    1.0000 </r>
       <r>   -1.1941    1.0000 </r>
       <r>   -1.1928    1.0000 </r>
       <r>   -1.1909    1.0000 </r>
       <r>   -1.1909    1.0000 </r>
       <r>   -1.1905    1.0000 </r>
       <r>   -1.1891    1.0000 </r>
       <r>   -1.1754    1.0000 </r>
       <r>   -1.1753    1.0000 </r>
       <r>   -1.1743    1.0000 </r>
       <r>   -1.1743    1.0000 </r>
       <r>   -1.1741    1.0000 </r>
       <r>   -1.1741    1.0000 </r>
       <r>   -1.1740    1.0000 </r>
       <r>   -1.1721    1.0000 </r>
       <r>   -1.1614    1.0000 </r>
       <r>   -1.1599    1.0000 </r>
       <r>   -1.1597    1.0000 </r>
       <r>   -1.1597    1.0000 </r>
       <r>   -1.1595    1.0000 </r>
       <r>   -1.1580    1.0000 </r>
       <r>   -1.1544    1.0000 </r>
       <r>   -1.1543    1.0000 </r>
       <r>   -1.0833    1.0000 </r>
       <r>   -1.0825    1.0000 </r>
       <r>   -0.9473    1.0000 </r>
       <r>   -0.9472    1.0000 </r>
       <r>   -0.9469    1.0000 </r>
       <r>   -0.9469    1.0000 </r>
       <r>   -0.9469    1.0000 </r>
       <r>   -0.9468    1.0000 </r>
       <r>   -0.9468    1.0000 </r>
       <r>   -0.9468    1.0000 </r>
       <r>   -0.9414    1.0000 </r>
       <r>   -0.9326    1.0000 </r>
       <r>   -0.9325    1.0000 </r>
       <r>   -0.9325    1.0000 </r>
       <r>   -0.9323    1.0000 </r>
       <r>   -0.9315    1.0000 </r>
       <r>   -0.9314    1.0000 </r>
       <r>   -0.9224    1.0000 </r>
       <r>   -0.7684    1.0000 </r>
       <r>   -0.7684    1.0000 </r>
       <r>   -0.7674    1.0000 </r>
       <r>   -0.7674    1.0000 </r>
       <r>    5.0223    0.0000 </r>
       <r>    5.0224    0.0000 </r>
       <r>    6.7119    0.0000 </r>
       <r>    6.7175    0.0000 </r>
       <r>    6.7182    0.0000 </r>
       <r>    6.7183    0.0000 </r>
       <r>    6.7183    0.0000 </r>
       <r>    6.7184    0.0000 </r>
       <r>    6.7193    0.0000 </r>
       <r>    6.7246    0.0000 </r>
       <r>    6.8420    0.0000 </r>
       <r>    6.8422    0.0000 </r>
       <r>    6.8431    0.0000 </r>
       <r>    6.8432    0.0000 </r>
       <r>    6.8432    0.0000 </r>
       <r>    6.8433    0.0000 </r>
       <r>    6.8441    0.0000 </r>
       <r>    6.8443    0.0000 </r>
       <r>    6.9711    0.0000 </r>
       <r>    6.9711    0.0000 </r>
       <r>    7.3625    0.0000 </r>
       <r>    7.3625    0.0000 </r>
       <r>    7.3626    0.0000 </r>
       <r>    7.3626    0.0000 </r>
       <r>    7.4802    0.0000 </r>
       <r>    7.4803    0.0000 </r>
       <r>    7.7145    0.0000 </r>
       <r>    7.7145    0.0000 </r>
       <r>    7.7146    0.0000 </r>
       <r>    7.7146    0.0000 </r>
       <r>    8.2600    0.0000 </r>
       <r>    8.2638    0.0000 </r>
       <r>    8.2650    0.0000 </r>
       <r>    8.2660    0.0000 </r>
       <r>    8.2660    0.0000 </r>
       <r>    8.2661    0.0000 </r>
       <r>    8.2681    0.0000 </r>
       <r>    8.2718    0.0000 </r>
       <r>    8.5325    0.0000 </r>
       <r>    8.5344    0.0000 </r>
       <r>    8.5363    0.0000 </r>
       <r>    8.5367    0.0000 </r>
       <r>    8.5369    0.0000 </r>
       <r>    8.5377    0.0000 </r>
       <r>    8.5379    0.0000 </r>
       <r>    8.5383    0.0000 </r>
       <r>    8.5384    0.0000 </r>
       <r>    8.5391    0.0000 </r>
       <r>    8.5399    0.0000 </r>
       <r>    8.5402    0.0000 </r>
       <r>    8.5403    0.0000 </r>
       <r>    8.5404    0.0000 </r>
       <r>    8.5423    0.0000 </r>
       <r>    8.5451    0.0000 </r>
       <r>    8.9391    0.0000 </r>
       <r>    8.9498    0.0000 </r>
       <r>    8.9503    0.0000 </r>
       <r>    8.9508    0.0000 </r>
       <r>    8.9510    0.0000 </r>
       <r>    8.9514    0.0000 </r>
       <r>    8.9520    0.0000 </r>
       <r>    8.9627    0.0000 </r>
       <r>    9.4905    0.0000 </r>
       <r>    9.5121    0.0000 </r>
      </set>
      <set comment="kpoint 4">
       <r>  -21.2996    1.0000 </r>
       <r>  -21.2993    1.0000 </r>
       <r>  -21.2988    1.0000 </r>
       <r>  -21.2988    1.0000 </r>
       <r>  -21.2981    1.0000 </r>
       <r>  -21.2979    1.0000 </r>
       <r>  -21.2979    1.0000 </r>
       <r>  -21.2976    1.0000 </r>
       <r>  -21.2970    1.0000 </r>
       <r>  -21.2952    1.0000 </r>
       <r>  -21.2952    1.0000 </r>
       <r>  -21.2939    1.0000 </r>
       <r>  -21.2939    1.0000 </r>
       <r>  -21.2937    1.0000 </r>
       <r>  -21.2935    1.0000 </r>
       <r>  -21.2933    1.0000 </r>
       <r>  -21.2933    1.0000 </r>
       <r>  -21.2927    1.0000 </r>
       <r>  -21.2925    1.0000 </r>
       <r>  -21.2914    1.0000 </r>
       <r>  -21.2914    1.0000 </r>
       <r>  -21.2910    1.0000 </r>
       <r>  -21.2908    1.0000 </r>
       <r>  -21.2908    1.0000 </r>
       <r>  -21.2898    1.0000 </r>
       <r>  -21.2898    1.0000 </r>
       <r>  -21.2891    1.0000 </r>
       <r>  -21.2876    1.0000 </r>
       <r>  -21.2869    1.0000 </r>
       <r>  -21.2867    1.0000 </r>
       <r>  -21.2867    1.0000 </r>
       <r>  -21.2855    1.0000 </r>
       <r>  -21.2832    1.0000 </r>
       <r>  -21.2823    1.0000 </r>
       <r>  -21.2821    1.0000 </r>
       <r>  -21.2820    1.0000 </r>
       <r>  -21.2820    1.0000 </r>
       <r>  -21.2820    1.0000 </r>
       <r>  -21.2813    1.0000 </r>
       <r>  -21.2809    1.0000 </r>
       <r>  -21.2806    1.0000 </r>
       <r>  -21.2803    1.0000 </r>
       <r>  -21.2803    1.0000 </r>
       <r>  -21.2799    1.0000 </r>
[...]
      </set>
     </set>
    </set>
   </array>
  </eigenvalues>
  <separator name="orbital magnetization" >
   <v name="MAGDIPOLOUT">      0.00000000      0.00000000      0.00000000</v>
  </separator>
  <dos>
   <i name="efermi">     -0.55747702 </i>
   <total>
    <array>
     <dimension dim="1">gridpoints</dimension>
     <dimension dim="2">spin</dimension>
     <field>energy</field>
     <field>total</field>
     <field>integrated</field>
     <set>
      <set comment="spin 1">
       <r>   -22.8461     0.0000     0.0000 </r>
       <r>   -22.7331     0.0000     0.0000 </r>
       <r>   -22.6201     0.0000     0.0000 </r>
       <r>   -22.5071     0.0000     0.0000 </r>
       <r>   -22.3941     0.0000     0.0000 </r>
       <r>   -22.2811     0.0000     0.0000 </r>
       <r>   -22.1681     0.0000     0.0000 </r>
       <r>   -22.0551     0.0000     0.0000 </r>
       <r>   -21.9421     0.0000     0.0000 </r>
       <r>   -21.8291     0.0000     0.0000 </r>
       <r>   -21.7161     0.0000     0.0000 </r>
       <r>   -21.6031     0.0000     0.0000 </r>
       <r>   -21.4901     0.0000     0.0000 </r>
       <r>   -21.3771     0.0000     0.0000 </r>
       <r>   -21.2641  1426.5241   161.1924 </r>
       <r>   -21.1511   272.6419   192.0000 </r>
       <r>   -21.0381     0.0000   192.0000 </r>
       <r>   -20.9251     0.0000   192.0000 </r>
       <r>   -20.8121     0.0000   192.0000 </r>
       <r>   -20.6991     0.0000   192.0000 </r>
       <r>   -20.5861     0.0000   192.0000 </r>
       <r>   -20.4731     0.0000   192.0000 </r>
       <r>   -20.3601     0.0000   192.0000 </r>
       <r>   -20.2471     0.0000   192.0000 </r>
       <r>   -20.1341     0.0000   192.0000 </r>
       <r>   -20.0211     0.0000   192.0000 </r>
       <r>   -19.9081     0.0000   192.0000 </r>
       <r>   -19.7952     0.0000   192.0000 </r>
       <r>   -19.6822     0.0000   192.0000 </r>
       <r>   -19.5692     0.0000   192.0000 </r>
       <r>   -19.4562     0.0000   192.0000 </r>
       <r>   -19.3432     0.0000   192.0000 </r>
       <r>   -19.2302     0.0000   192.0000 </r>
       <r>   -19.1172     0.0000   192.0000 </r>
       <r>   -19.0042     0.0000   192.0000 </r>
       <r>   -18.8912     0.0000   192.0000 </r>
       <r>   -18.7782     0.0000   192.0000 </r>
       <r>   -18.6652     0.0000   192.0000 </r>
       <r>   -18.5522     0.0000   192.0000 </r>
       <r>   -18.4392     0.0000   192.0000 </r>
       <r>   -18.3262     0.0000   192.0000 </r>
       <r>   -18.2132     0.0000   192.0000 </r>
       <r>   -18.1002     0.0000   192.0000 </r>
       <r>   -17.9872     0.0000   192.0000 </r>
       <r>   -17.8742     0.0000   192.0000 </r>
       <r>   -17.7612     0.0000   192.0000 </r>
       <r>   -17.6482     0.0000   192.0000 </r>
       <r>   -17.5352     0.0000   192.0000 </r>
       <r>   -17.4222     0.0000   192.0000 </r>
       <r>   -17.3092     0.0000   192.0000 </r>
       <r>   -17.1962     0.0000   192.0000 </r>
       <r>   -17.0832     0.0000   192.0000 </r>
       <r>   -16.9702     0.0000   192.0000 </r>
       <r>   -16.8572     0.0000   192.0000 </r>
       <r>   -16.7442     0.0000   192.0000 </r>
       <r>   -16.6312     0.0000   192.0000 </r>
       <r>   -16.5182     0.0000   192.0000 </r>
       <r>   -16.4053     0.0000   192.0000 </r>
       <r>   -16.2923     0.0000   192.0000 </r>
       <r>   -16.1793     0.0000   192.0000 </r>
       <r>   -16.0663     0.0000   192.0000 </r>
       <r>   -15.9533     0.0000   192.0000 </r>
       <r>   -15.8403     0.0000   192.0000 </r>
       <r>   -15.7273     0.0000   192.0000 </r>
       <r>   -15.6143     0.0000   192.0000 </r>
       <r>   -15.5013     0.0000   192.0000 </r>
       <r>   -15.3883     0.0000   192.0000 </r>
       <r>   -15.2753     0.0000   192.0000 </r>
       <r>   -15.1623     0.0000   192.0000 </r>
       <r>   -15.0493     0.0000   192.0000 </r>
       <r>   -14.9363     0.0000   192.0000 </r>
       <r>   -14.8233     0.0000   192.0000 </r>
       <r>   -14.7103     0.0000   192.0000 </r>
       <r>   -14.5973     0.0000   192.0000 </r>
       <r>   -14.4843     0.0000   192.0000 </r>
       <r>   -14.3713     0.0000   192.0000 </r>
       <r>   -14.2583     0.0000   192.0000 </r>
       <r>   -14.1453     0.0000   192.0000 </r>
       <r>   -14.0323     0.0000   192.0000 </r>
       <r>   -13.9193     0.0000   192.0000 </r>
       <r>   -13.8063     0.0000   192.0000 </r>
       <r>   -13.6933     0.0000   192.0000 </r>
       <r>   -13.5803     0.0000   192.0000 </r>
       <r>   -13.4673     0.0000   192.0000 </r>
       <r>   -13.3543     1.3488   192.1524 </r>
       <r>   -13.2413    21.1005   194.5367 </r>
       <r>   -13.1284    48.2397   199.9879 </r>
       <r>   -13.0154   130.4413   214.7275 </r>
       <r>   -12.9024   359.4486   255.3450 </r>
       <r>   -12.7894     5.7921   256.0000 </r>
       <r>   -12.6764     0.0000   256.0000 </r>
       <r>   -12.5634     0.0000   256.0000 </r>
       <r>   -12.4504     0.0000   256.0000 </r>
       <r>   -12.3374     0.0000   256.0000 </r>
       <r>   -12.2244     0.0000   256.0000 </r>
       <r>   -12.1114     0.0000   256.0000 </r>
       <r>   -11.9984     0.0000   256.0000 </r>
       <r>   -11.8854     0.0000   256.0000 </r>
       <r>   -11.7724     0.0000   256.0000 </r>
       <r>   -11.6594     0.0000   256.0000 </r>
       <r>   -11.5464     0.0000   256.0000 </r>
       <r>   -11.4334     0.0000   256.0000 </r>
       <r>   -11.3204     0.0000   256.0000 </r>
       <r>   -11.2074     0.0000   256.0000 </r>
       <r>   -11.0944     0.0000   256.0000 </r>
       <r>   -10.9814     0.0000   256.0000 </r>
       <r>   -10.8684     0.0000   256.0000 </r>
       <r>   -10.7554     0.0000   256.0000 </r>
       <r>   -10.6424     0.0000   256.0000 </r>
       <r>   -10.5294     0.0000   256.0000 </r>
       <r>   -10.4164     0.0000   256.0000 </r>
       <r>   -10.3034     0.0000   256.0000 </r>
       <r>   -10.1904     0.0000   256.0000 </r>
       <r>   -10.0774     0.0000   256.0000 </r>
       <r>    -9.9644     0.0000   256.0000 </r>
       <r>    -9.8514     0.0000   256.0000 </r>
       <r>    -9.7385     0.0000   256.0000 </r>
       <r>    -9.6255     0.0000   256.0000 </r>
       <r>    -9.5125     0.0000   256.0000 </r>
       <r>    -9.3995     0.0000   256.0000 </r>
       <r>    -9.2865     0.0000   256.0000 </r>
       <r>    -9.1735     0.0000   256.0000 </r>
       <r>    -9.0605     0.0000   256.0000 </r>
       <r>    -8.9475     0.0000   256.0000 </r>
       <r>    -8.8345     0.0000   256.0000 </r>
       <r>    -8.7215     0.0000   256.0000 </r>
       <r>    -8.6085     0.0000   256.0000 </r>
       <r>    -8.4955     0.0000   256.0000 </r>
       <r>    -8.3825     0.0000   256.0000 </r>
       <r>    -8.2695     0.0000   256.0000 </r>
       <r>    -8.1565     0.0000   256.0000 </r>
       <r>    -8.0435     0.0000   256.0000 </r>
       <r>    -7.9305     0.0000   256.0000 </r>
       <r>    -7.8175     0.0000   256.0000 </r>
       <r>    -7.7045     0.0000   256.0000 </r>
       <r>    -7.5915     0.0000   256.0000 </r>
       <r>    -7.4785     0.0000   256.0000 </r>
       <r>    -7.3655     0.0000   256.0000 </r>
       <r>    -7.2525     0.0000   256.0000 </r>
       <r>    -7.1395     0.0000   256.0000 </r>
       <r>    -7.0265     0.0000   256.0000 </r>
       <r>    -6.9135     0.0000   256.0000 </r>
       <r>    -6.8005     0.0000   256.0000 </r>
       <r>    -6.6875     0.0000   256.0000 </r>
       <r>    -6.5745     0.0000   256.0000 </r>
       <r>    -6.4616     0.0000   256.0000 </r>
       <r>    -6.3486     0.0000   256.0000 </r>
       <r>    -6.2356     0.0000   256.0000 </r>
       <r>    -6.1226     0.0000   256.0000 </r>
       <r>    -6.0096     0.0000   256.0000 </r>
       <r>    -5.8966     0.0000   256.0000 </r>
       <r>    -5.7836     0.0000   256.0000 </r>
       <r>    -5.6706     0.0000   256.0000 </r>
       <r>    -5.5576     0.0000   256.0000 </r>
       <r>    -5.4446     0.0000   256.0000 </r>
       <r>    -5.3316     0.0000   256.0000 </r>
       <r>    -5.2186     0.0000   256.0000 </r>
       <r>    -5.1056     0.0000   256.0000 </r>
       <r>    -4.9926     0.0000   256.0000 </r>
       <r>    -4.8796     0.0000   256.0000 </r>
       <r>    -4.7666     0.0000   256.0000 </r>
       <r>    -4.6536     0.0000   256.0000 </r>
       <r>    -4.5406     0.0000   256.0000 </r>
       <r>    -4.4276     0.0000   256.0000 </r>
       <r>    -4.3146     0.0000   256.0000 </r>
       <r>    -4.2016     0.0000   256.0000 </r>
       <r>    -4.0886     0.0000   256.0000 </r>
       <r>    -3.9756     0.0000   256.0000 </r>
       <r>    -3.8626     0.0000   256.0000 </r>
       <r>    -3.7496     0.0000   256.0000 </r>
       <r>    -3.6366     0.0000   256.0000 </r>
       <r>    -3.5236     0.0000   256.0000 </r>
       <r>    -3.4106     0.0000   256.0000 </r>
       <r>    -3.2976     0.0000   256.0000 </r>
       <r>    -3.1846     0.0000   256.0000 </r>
       <r>    -3.0717     0.0000   256.0000 </r>
       <r>    -2.9587     0.0000   256.0000 </r>
       <r>    -2.8457     0.0000   256.0000 </r>
       <r>    -2.7327     0.0946   256.0107 </r>
       <r>    -2.6197     8.7552   257.0000 </r>
       <r>    -2.5067    23.3839   259.6423 </r>
       <r>    -2.3937    84.6909   269.2121 </r>
       <r>    -2.2807    81.7538   278.4500 </r>
       <r>    -2.1677   155.1309   295.9800 </r>
       <r>    -2.0547    73.1878   304.2500 </r>
       <r>    -1.9417    56.2272   310.6035 </r>
       <r>    -1.8287    60.7588   317.4690 </r>
       <r>    -1.7157    73.2851   325.7500 </r>
       <r>    -1.6027     0.0000   325.7500 </r>
       <r>    -1.4897    67.8889   333.4212 </r>
       <r>    -1.3767   198.6102   355.8635 </r>
       <r>    -1.2637    25.6527   358.7622 </r>
       <r>    -1.1507   250.2349   387.0379 </r>
       <r>    -1.0377   139.2889   402.7771 </r>
       <r>    -0.9247   255.6230   431.6618 </r>
       <r>    -0.8117    65.5200   439.0663 </r>
       <r>    -0.6987    72.4048   447.2478 </r>
       <r>    -0.5857     6.6568   448.0000 </r>
       <r>    -0.4727     0.0000   448.0000 </r>
       <r>    -0.3597     0.0000   448.0000 </r>
       <r>    -0.2467     0.0000   448.0000 </r>
       <r>    -0.1337     0.0000   448.0000 </r>
       <r>    -0.0207     0.0000   448.0000 </r>
       <r>     0.0923     0.0000   448.0000 </r>
       <r>     0.2053     0.0000   448.0000 </r>
       <r>     0.3182     0.0000   448.0000 </r>
       <r>     0.4312     0.0000   448.0000 </r>
       <r>     0.5442     0.0000   448.0000 </r>
       <r>     0.6572     0.0000   448.0000 </r>
       <r>     0.7702     0.0000   448.0000 </r>
       <r>     0.8832     0.0000   448.0000 </r>
       <r>     0.9962     0.0000   448.0000 </r>
       <r>     1.1092     0.0000   448.0000 </r>
       <r>     1.2222     0.0000   448.0000 </r>
       <r>     1.3352     0.0000   448.0000 </r>
       <r>     1.4482     0.0000   448.0000 </r>
       <r>     1.5612     0.0000   448.0000 </r>
       <r>     1.6742     0.0000   448.0000 </r>
       <r>     1.7872     0.0000   448.0000 </r>
       <r>     1.9002     0.0000   448.0000 </r>
       <r>     2.0132     0.0000   448.0000 </r>
       <r>     2.1262     0.0000   448.0000 </r>
       <r>     2.2392     0.0000   448.0000 </r>
       <r>     2.3522     0.0000   448.0000 </r>
       <r>     2.4652     0.0000   448.0000 </r>
       <r>     2.5782     0.0000   448.0000 </r>
       <r>     2.6912     0.0000   448.0000 </r>
       <r>     2.8042     0.0000   448.0000 </r>
       <r>     2.9172     0.0000   448.0000 </r>
       <r>     3.0302     0.0000   448.0000 </r>
       <r>     3.1432     0.0000   448.0000 </r>
       <r>     3.2562     0.0000   448.0000 </r>
       <r>     3.3692     0.0000   448.0000 </r>
       <r>     3.4822     0.0000   448.0000 </r>
       <r>     3.5951     0.0000   448.0000 </r>
       <r>     3.7081     0.0000   448.0000 </r>
       <r>     3.8211     0.0000   448.0000 </r>
       <r>     3.9341     0.0000   448.0000 </r>
       <r>     4.0471     0.0000   448.0000 </r>
       <r>     4.1601     0.0000   448.0000 </r>
       <r>     4.2731     0.0000   448.0000 </r>
       <r>     4.3861     2.2111   448.2499 </r>
       <r>     4.4991     0.0013   448.2500 </r>
       <r>     4.6121     0.0000   448.2500 </r>
       <r>     4.7251     0.0000   448.2500 </r>
       <r>     4.8381     0.0000   448.2500 </r>
       <r>     4.9511     0.0000   448.2500 </r>
       <r>     5.0641    13.2526   449.7475 </r>
       <r>     5.1771     0.0221   449.7500 </r>
       <r>     5.2901     0.0000   449.7500 </r>
       <r>     5.4031     0.0000   449.7500 </r>
       <r>     5.5161     1.3697   449.9048 </r>
       <r>     5.6291    25.1798   452.7500 </r>
       <r>     5.7421     0.0000   452.7500 </r>
       <r>     5.8551    16.7459   454.6422 </r>
       <r>     5.9681     0.9538   454.7500 </r>
       <r>     6.0811     0.0000   454.7500 </r>
       <r>     6.1941     0.0000   454.7500 </r>
       <r>     6.3071     0.0001   454.7500 </r>
       <r>     6.4201    13.6374   456.2910 </r>
       <r>     6.5331     8.4850   457.2500 </r>
       <r>     6.6461    36.4524   461.3690 </r>
       <r>     6.7591    69.6172   469.2355 </r>
       <r>     6.8721    58.7081   475.8694 </r>
       <r>     6.9850    12.2733   477.2563 </r>
       <r>     7.0980     2.1570   477.5000 </r>
       <r>     7.2110     4.0976   477.9630 </r>
       <r>     7.3240     2.6327   478.2605 </r>
       <r>     7.4370    80.1596   487.3183 </r>
       <r>     7.5500   166.7853   506.1644 </r>
       <r>     7.6630     5.1863   506.7505 </r>
       <r>     7.7760    26.5449   509.7500 </r>
       <r>     7.8890     0.0562   509.7563 </r>
       <r>     8.0020    53.0426   515.7500 </r>
       <r>     8.1150     0.0012   515.7501 </r>
       <r>     8.2280    13.5056   517.2762 </r>
       <r>     8.3410    92.6586   527.7464 </r>
       <r>     8.4540     0.0321   527.7500 </r>
       <r>     8.5670   143.0372   543.9127 </r>
       <r>     8.6800    16.2596   545.7500 </r>
       <r>     8.7930     0.0000   545.7500 </r>
       <r>     8.9060    74.5441   554.1732 </r>
       <r>     9.0190   128.2277   568.6625 </r>
       <r>     9.1320     7.4112   569.5000 </r>
       <r>     9.2450    18.8610   571.6312 </r>
       <r>     9.3580    25.3882   574.5000 </r>
       <r>     9.4710     0.8078   574.5913 </r>
       <r>     9.5840    12.4670   576.0000 </r>
       <r>     9.6970     0.0000   576.0000 </r>
       <r>     9.8100     0.0000   576.0000 </r>
       <r>     9.9230     0.0000   576.0000 </r>
       <r>    10.0360     0.0000   576.0000 </r>
       <r>    10.1490     0.0000   576.0000 </r>
       <r>    10.2619     0.0000   576.0000 </r>
       <r>    10.3749     0.0000   576.0000 </r>
       <r>    10.4879     0.0000   576.0000 </r>
       <r>    10.6009     0.0000   576.0000 </r>
       <r>    10.7139     0.0000   576.0000 </r>
       <r>    10.8269     0.0000   576.0000 </r>
       <r>    10.9399     0.0000   576.0000 </r>
       <r>    11.0529     0.0000   576.0000 </r>
      </set>
     </set>
    </array>
   </total>
  </dos>
 </calculation>
 <structure name="finalpos" >
  <crystal>
   <varray name="basis" >
    <v>      11.20400236       0.00000000       0.00000000 </v>
    <v>       0.00000000      11.20400236       0.00000000 </v>
    <v>       0.00000000       0.00000000      11.20400236 </v>
   </varray>
   <i name="volume">   1406.43470641 </i>
   <varray name="rec_basis" >
    <v>       0.08925382       0.00000000       0.00000000 </v>
    <v>       0.00000000       0.08925382       0.00000000 </v>
    <v>       0.00000000       0.00000000       0.08925382 </v>
   </varray>
  </crystal>
  <varray name="positions" >
   <v>       0.99732239       0.00000000       0.00000000 </v>
   <v>       0.25000000       0.25267761       0.00000000 </v>
   <v>       0.25000000       0.00000000       0.25000000 </v>
   <v>       0.00000000       0.25000000       0.25000000 </v>
   <v>       0.00000000       0.00000000       0.50000000 </v>
   <v>       0.25000000       0.25000000       0.50000000 </v>
   <v>       0.25000000       0.00000000       0.75000000 </v>
   <v>       0.00000000       0.25000000       0.75000000 </v>
   <v>       0.00000000       0.50000000       0.00000000 </v>
   <v>       0.25000000       0.75000000       0.00000000 </v>
   <v>       0.25000000       0.50000000       0.25000000 </v>
   <v>       0.00000000       0.75000000       0.25000000 </v>
   <v>       0.00000000       0.50000000       0.50000000 </v>
   <v>       0.25000000       0.75000000       0.50000000 </v>
   <v>       0.25000000       0.50000000       0.75000000 </v>
   <v>       0.00000000       0.75000000       0.75000000 </v>
   <v>       0.50000000       0.00000000       0.00000000 </v>
   <v>       0.75000000       0.25000000       0.00000000 </v>
   <v>       0.75000000       0.00000000       0.25000000 </v>
   <v>       0.50000000       0.25000000       0.25000000 </v>
   <v>       0.50000000       0.00000000       0.50000000 </v>
   <v>       0.75000000       0.25000000       0.50000000 </v>
   <v>       0.75000000       0.00000000       0.75000000 </v>
   <v>       0.50000000       0.25000000       0.75000000 </v>
   <v>       0.50000000       0.50000000       0.00000000 </v>
   <v>       0.75000000       0.75000000       0.00000000 </v>
   <v>       0.75000000       0.50000000       0.25000000 </v>
   <v>       0.50000000       0.75000000       0.25000000 </v>
   <v>       0.50000000       0.50000000       0.50000000 </v>
   <v>       0.75000000       0.75000000       0.50000000 </v>
   <v>       0.75000000       0.50000000       0.75000000 </v>
   <v>       0.50000000       0.75000000       0.75000000 </v>
   <v>       0.25000000       0.25000000       0.25000000 </v>
   <v>       0.00000000       0.00000000       0.25000000 </v>
   <v>       0.00000000       0.25000000       0.00000000 </v>
   <v>       0.25000000       0.00000000       0.00000000 </v>
   <v>       0.25000000       0.25000000       0.75000000 </v>
   <v>       0.00000000       0.00000000       0.75000000 </v>
   <v>       0.00000000       0.25000000       0.50000000 </v>
   <v>       0.25000000       0.00000000       0.50000000 </v>
   <v>       0.25000000       0.75000000       0.25000000 </v>
   <v>       0.00000000       0.50000000       0.25000000 </v>
   <v>       0.00000000       0.75000000       0.00000000 </v>
   <v>       0.25000000       0.50000000       0.00000000 </v>
   <v>       0.25000000       0.75000000       0.75000000 </v>
   <v>       0.00000000       0.50000000       0.75000000 </v>
   <v>       0.00000000       0.75000000       0.50000000 </v>
   <v>       0.25000000       0.50000000       0.50000000 </v>
   <v>       0.75000000       0.25000000       0.25000000 </v>
   <v>       0.50000000       0.00000000       0.25000000 </v>
   <v>       0.50000000       0.25000000       0.00000000 </v>
   <v>       0.75000000       0.00000000       0.00000000 </v>
   <v>       0.75000000       0.25000000       0.75000000 </v>
   <v>       0.50000000       0.00000000       0.75000000 </v>
   <v>       0.50000000       0.25000000       0.50000000 </v>
   <v>       0.75000000       0.00000000       0.50000000 </v>
   <v>       0.75000000       0.75000000       0.25000000 </v>
   <v>       0.50000000       0.50000000       0.25000000 </v>
   <v>       0.50000000       0.75000000       0.00000000 </v>
   <v>       0.75000000       0.50000000       0.00000000 </v>
   <v>       0.75000000       0.75000000       0.75000000 </v>
   <v>       0.50000000       0.50000000       0.75000000 </v>
   <v>       0.50000000       0.75000000       0.50000000 </v>
   <v>       0.75000000       0.50000000       0.50000000 </v>
  </varray>
 </structure>
</modeling>
