  64  64   0   0
  0.2197554E+02  0.1120400E-08  0.1120400E-08  0.1120400E-08  0.5000000E-15
  1.000000000000000E-004
  CAR 
 unknown system                          
     11.06788684    -22.85153649  301     -0.54951565      1.00000000
    -22.852  0.0000E+00  0.0000E+00
    -22.738  0.0000E+00  0.0000E+00
    -22.625  0.0000E+00  0.0000E+00
    -22.512  0.0000E+00  0.0000E+00
    -22.399  0.0000E+00  0.0000E+00
    -22.286  0.0000E+00  0.0000E+00
    -22.173  0.0000E+00  0.0000E+00
    -22.060  0.0000E+00  0.0000E+00
    -21.947  0.0000E+00  0.0000E+00
    -21.834  0.0000E+00  0.0000E+00
    -21.721  0.0000E+00  0.0000E+00
    -21.608  0.0000E+00  0.0000E+00
    -21.495  0.0000E+00  0.0000E+00
    -21.382  0.5906E-05  0.6678E-06
    -21.269  0.1286E+04  0.1454E+03
    -21.156  0.4120E+03  0.1920E+03
    -21.043  0.0000E+00  0.1920E+03
    -20.929  0.0000E+00  0.1920E+03
    -20.816  0.0000E+00  0.1920E+03
    -20.703  0.0000E+00  0.1920E+03
    -20.590  0.0000E+00  0.1920E+03
    -20.477  0.0000E+00  0.1920E+03
    -20.364  0.0000E+00  0.1920E+03
    -20.251  0.0000E+00  0.1920E+03
    -20.138  0.0000E+00  0.1920E+03
    -20.025  0.0000E+00  0.1920E+03
    -19.912  0.0000E+00  0.1920E+03
    -19.799  0.0000E+00  0.1920E+03
    -19.686  0.0000E+00  0.1920E+03
    -19.573  0.0000E+00  0.1920E+03
    -19.460  0.0000E+00  0.1920E+03
    -19.347  0.0000E+00  0.1920E+03
    -19.233  0.0000E+00  0.1920E+03
    -19.120  0.0000E+00  0.1920E+03
    -19.007  0.0000E+00  0.1920E+03
    -18.894  0.0000E+00  0.1920E+03
    -18.781  0.0000E+00  0.1920E+03
    -18.668  0.0000E+00  0.1920E+03
    -18.555  0.0000E+00  0.1920E+03
    -18.442  0.0000E+00  0.1920E+03
    -18.329  0.0000E+00  0.1920E+03
    -18.216  0.0000E+00  0.1920E+03
    -18.103  0.0000E+00  0.1920E+03
    -17.990  0.0000E+00  0.1920E+03
    -17.877  0.0000E+00  0.1920E+03
    -17.764  0.0000E+00  0.1920E+03
    -17.651  0.0000E+00  0.1920E+03
    -17.537  0.0000E+00  0.1920E+03
    -17.424  0.0000E+00  0.1920E+03
    -17.311  0.0000E+00  0.1920E+03
    -17.198  0.0000E+00  0.1920E+03
    -17.085  0.0000E+00  0.1920E+03
    -16.972  0.0000E+00  0.1920E+03
    -16.859  0.0000E+00  0.1920E+03
    -16.746  0.0000E+00  0.1920E+03
    -16.633  0.0000E+00  0.1920E+03
    -16.520  0.0000E+00  0.1920E+03
    -16.407  0.0000E+00  0.1920E+03
    -16.294  0.0000E+00  0.1920E+03
    -16.181  0.0000E+00  0.1920E+03
    -16.068  0.0000E+00  0.1920E+03
    -15.955  0.0000E+00  0.1920E+03
    -15.842  0.0000E+00  0.1920E+03
    -15.728  0.0000E+00  0.1920E+03
    -15.615  0.0000E+00  0.1920E+03
    -15.502  0.0000E+00  0.1920E+03
    -15.389  0.0000E+00  0.1920E+03
    -15.276  0.0000E+00  0.1920E+03
    -15.163  0.0000E+00  0.1920E+03
    -15.050  0.0000E+00  0.1920E+03
    -14.937  0.0000E+00  0.1920E+03
    -14.824  0.0000E+00  0.1920E+03
    -14.711  0.0000E+00  0.1920E+03
    -14.598  0.0000E+00  0.1920E+03
    -14.485  0.0000E+00  0.1920E+03
    -14.372  0.0000E+00  0.1920E+03
    -14.259  0.0000E+00  0.1920E+03
    -14.146  0.0000E+00  0.1920E+03
    -14.032  0.0000E+00  0.1920E+03
    -13.919  0.0000E+00  0.1920E+03
    -13.806  0.0000E+00  0.1920E+03
    -13.693  0.0000E+00  0.1920E+03
    -13.580  0.0000E+00  0.1920E+03
    -13.467  0.1375E-13  0.1920E+03
    -13.354  0.1352E+01  0.1922E+03
    -13.241  0.2108E+02  0.1945E+03
    -13.128  0.4816E+02  0.2000E+03
    -13.015  0.1304E+03  0.2147E+03
    -12.902  0.3624E+03  0.2557E+03
    -12.789  0.2718E+01  0.2560E+03
    -12.676  0.0000E+00  0.2560E+03
    -12.563  0.0000E+00  0.2560E+03
    -12.450  0.0000E+00  0.2560E+03
    -12.337  0.0000E+00  0.2560E+03
    -12.223  0.0000E+00  0.2560E+03
    -12.110  0.0000E+00  0.2560E+03
    -11.997  0.0000E+00  0.2560E+03
    -11.884  0.0000E+00  0.2560E+03
    -11.771  0.0000E+00  0.2560E+03
    -11.658  0.0000E+00  0.2560E+03
    -11.545  0.0000E+00  0.2560E+03
    -11.432  0.0000E+00  0.2560E+03
    -11.319  0.0000E+00  0.2560E+03
    -11.206  0.0000E+00  0.2560E+03
    -11.093  0.0000E+00  0.2560E+03
    -10.980  0.0000E+00  0.2560E+03
    -10.867  0.0000E+00  0.2560E+03
    -10.754  0.0000E+00  0.2560E+03
    -10.641  0.0000E+00  0.2560E+03
    -10.527  0.0000E+00  0.2560E+03
    -10.414  0.0000E+00  0.2560E+03
    -10.301  0.0000E+00  0.2560E+03
    -10.188  0.0000E+00  0.2560E+03
    -10.075  0.0000E+00  0.2560E+03
     -9.962  0.0000E+00  0.2560E+03
     -9.849  0.0000E+00  0.2560E+03
     -9.736  0.0000E+00  0.2560E+03
     -9.623  0.0000E+00  0.2560E+03
     -9.510  0.0000E+00  0.2560E+03
     -9.397  0.0000E+00  0.2560E+03
     -9.284  0.0000E+00  0.2560E+03
     -9.171  0.0000E+00  0.2560E+03
     -9.058  0.0000E+00  0.2560E+03
     -8.945  0.0000E+00  0.2560E+03
     -8.832  0.0000E+00  0.2560E+03
     -8.718  0.0000E+00  0.2560E+03
     -8.605  0.0000E+00  0.2560E+03
     -8.492  0.0000E+00  0.2560E+03
     -8.379  0.0000E+00  0.2560E+03
     -8.266  0.0000E+00  0.2560E+03
     -8.153  0.0000E+00  0.2560E+03
     -8.040  0.0000E+00  0.2560E+03
     -7.927  0.0000E+00  0.2560E+03
     -7.814  0.0000E+00  0.2560E+03
     -7.701  0.0000E+00  0.2560E+03
     -7.588  0.0000E+00  0.2560E+03
     -7.475  0.0000E+00  0.2560E+03
     -7.362  0.0000E+00  0.2560E+03
     -7.249  0.0000E+00  0.2560E+03
     -7.136  0.0000E+00  0.2560E+03
     -7.022  0.0000E+00  0.2560E+03
     -6.909  0.0000E+00  0.2560E+03
     -6.796  0.0000E+00  0.2560E+03
     -6.683  0.0000E+00  0.2560E+03
     -6.570  0.0000E+00  0.2560E+03
     -6.457  0.0000E+00  0.2560E+03
     -6.344  0.0000E+00  0.2560E+03
     -6.231  0.0000E+00  0.2560E+03
     -6.118  0.0000E+00  0.2560E+03
     -6.005  0.0000E+00  0.2560E+03
     -5.892  0.0000E+00  0.2560E+03
     -5.779  0.0000E+00  0.2560E+03
     -5.666  0.0000E+00  0.2560E+03
     -5.553  0.0000E+00  0.2560E+03
     -5.440  0.0000E+00  0.2560E+03
     -5.327  0.0000E+00  0.2560E+03
     -5.213  0.0000E+00  0.2560E+03
     -5.100  0.0000E+00  0.2560E+03
     -4.987  0.0000E+00  0.2560E+03
     -4.874  0.0000E+00  0.2560E+03
     -4.761  0.0000E+00  0.2560E+03
     -4.648  0.0000E+00  0.2560E+03
     -4.535  0.0000E+00  0.2560E+03
     -4.422  0.0000E+00  0.2560E+03
     -4.309  0.0000E+00  0.2560E+03
     -4.196  0.0000E+00  0.2560E+03
     -4.083  0.0000E+00  0.2560E+03
     -3.970  0.0000E+00  0.2560E+03
     -3.857  0.0000E+00  0.2560E+03
     -3.744  0.0000E+00  0.2560E+03
     -3.631  0.0000E+00  0.2560E+03
     -3.517  0.0000E+00  0.2560E+03
     -3.404  0.0000E+00  0.2560E+03
     -3.291  0.0000E+00  0.2560E+03
     -3.178  0.0000E+00  0.2560E+03
     -3.065  0.0000E+00  0.2560E+03
     -2.952  0.0000E+00  0.2560E+03
     -2.839  0.0000E+00  0.2560E+03
     -2.726  0.2918E+00  0.2560E+03
     -2.613  0.8553E+01  0.2570E+03
     -2.500  0.3310E+02  0.2607E+03
     -2.387  0.7788E+02  0.2695E+03
     -2.274  0.8768E+02  0.2795E+03
     -2.161  0.1521E+03  0.2967E+03
     -2.048  0.6714E+02  0.3043E+03
     -1.935  0.5956E+02  0.3110E+03
     -1.821  0.6832E+02  0.3187E+03
     -1.708  0.6227E+02  0.3257E+03
     -1.595  0.4097E-08  0.3258E+03
     -1.482  0.9430E+02  0.3364E+03
     -1.369  0.1780E+03  0.3565E+03
     -1.256  0.2067E+02  0.3589E+03
     -1.143  0.2641E+03  0.3887E+03
     -1.030  0.1308E+03  0.4035E+03
     -0.917  0.2629E+03  0.4333E+03
     -0.804  0.5876E+02  0.4399E+03
     -0.691  0.6527E+02  0.4473E+03
     -0.578  0.6420E+01  0.4480E+03
     -0.465  0.0000E+00  0.4480E+03
     -0.352  0.0000E+00  0.4480E+03
     -0.239  0.0000E+00  0.4480E+03
     -0.126  0.0000E+00  0.4480E+03
     -0.012  0.0000E+00  0.4480E+03
      0.101  0.0000E+00  0.4480E+03
      0.214  0.0000E+00  0.4480E+03
      0.327  0.0000E+00  0.4480E+03
      0.440  0.0000E+00  0.4480E+03
      0.553  0.0000E+00  0.4480E+03
      0.666  0.0000E+00  0.4480E+03
      0.779  0.0000E+00  0.4480E+03
      0.892  0.0000E+00  0.4480E+03
      1.005  0.0000E+00  0.4480E+03
      1.118  0.0000E+00  0.4480E+03
      1.231  0.0000E+00  0.4480E+03
      1.344  0.0000E+00  0.4480E+03
      1.457  0.0000E+00  0.4480E+03
      1.570  0.0000E+00  0.4480E+03
      1.684  0.0000E+00  0.4480E+03
      1.797  0.0000E+00  0.4480E+03
      1.910  0.0000E+00  0.4480E+03
      2.023  0.0000E+00  0.4480E+03
      2.136  0.0000E+00  0.4480E+03
      2.249  0.0000E+00  0.4480E+03
      2.362  0.0000E+00  0.4480E+03
      2.475  0.0000E+00  0.4480E+03
      2.588  0.0000E+00  0.4480E+03
      2.701  0.0000E+00  0.4480E+03
      2.814  0.0000E+00  0.4480E+03
      2.927  0.0000E+00  0.4480E+03
      3.040  0.0000E+00  0.4480E+03
      3.153  0.0000E+00  0.4480E+03
      3.266  0.0000E+00  0.4480E+03
      3.379  0.0000E+00  0.4480E+03
      3.493  0.0000E+00  0.4480E+03
      3.606  0.0000E+00  0.4480E+03
      3.719  0.0000E+00  0.4480E+03
      3.832  0.0000E+00  0.4480E+03
      3.945  0.0000E+00  0.4480E+03
      4.058  0.0000E+00  0.4480E+03
      4.171  0.0000E+00  0.4480E+03
      4.284  0.7643E-04  0.4480E+03
      4.397  0.2211E+01  0.4482E+03
      4.510  0.0000E+00  0.4482E+03
      4.623  0.0000E+00  0.4482E+03
      4.736  0.0000E+00  0.4482E+03
      4.849  0.0000E+00  0.4482E+03
      4.962  0.1904E-03  0.4483E+03
      5.075  0.1327E+02  0.4497E+03
      5.189  0.0000E+00  0.4498E+03
      5.302  0.0000E+00  0.4498E+03
      5.415  0.1227E-15  0.4498E+03
      5.528  0.5638E+01  0.4504E+03
      5.641  0.2090E+02  0.4527E+03
      5.754  0.2957E-05  0.4528E+03
      5.867  0.1753E+02  0.4547E+03
      5.980  0.1555E+00  0.4548E+03
      6.093  0.0000E+00  0.4548E+03
      6.206  0.0000E+00  0.4548E+03
      6.319  0.6569E-02  0.4548E+03
      6.432  0.1493E+02  0.4564E+03
      6.545  0.7177E+01  0.4573E+03
      6.658  0.4813E+02  0.4627E+03
      6.771  0.5800E+02  0.4692E+03
      6.884  0.5958E+02  0.4760E+03
      6.998  0.1296E+02  0.4775E+03
      7.111  0.4273E+00  0.4775E+03
      7.224  0.5861E+01  0.4782E+03
      7.337  0.1755E+01  0.4784E+03
      7.450  0.8477E+02  0.4879E+03
      7.563  0.1655E+03  0.5067E+03
      7.676  0.9356E+00  0.5068E+03
      7.789  0.2644E+02  0.5097E+03
      7.902  0.8186E+00  0.5098E+03
      8.015  0.5225E+02  0.5157E+03
      8.128  0.3792E-01  0.5158E+03
      8.241  0.1589E+02  0.5176E+03
      8.354  0.9021E+02  0.5277E+03
      8.467  0.1279E-03  0.5278E+03
      8.580  0.1548E+03  0.5453E+03
      8.694  0.4358E+01  0.5458E+03
      8.807  0.2332E-04  0.5458E+03
      8.920  0.9105E+02  0.5560E+03
      9.033  0.1177E+03  0.5694E+03
      9.146  0.1306E+01  0.5695E+03
      9.259  0.2872E+02  0.5727E+03
      9.372  0.1348E+02  0.5743E+03
      9.485  0.4800E+01  0.5748E+03
      9.598  0.1049E+02  0.5760E+03
      9.711  0.0000E+00  0.5760E+03
      9.824  0.0000E+00  0.5760E+03
      9.937  0.0000E+00  0.5760E+03
     10.050  0.0000E+00  0.5760E+03
     10.163  0.0000E+00  0.5760E+03
     10.276  0.0000E+00  0.5760E+03
     10.389  0.0000E+00  0.5760E+03
     10.503  0.0000E+00  0.5760E+03
     10.616  0.0000E+00  0.5760E+03
     10.729  0.0000E+00  0.5760E+03
     10.842  0.0000E+00  0.5760E+03
     10.955  0.0000E+00  0.5760E+03
     11.068  0.0000E+00  0.5760E+03
