       N       E                     dE             d eps       ncg     rms          rms(c)
DAV:   1     0.432194262088E+04    0.43219E+04   -0.17164E+05  4608   0.125E+03
DAV:   2     0.363893984693E+03   -0.39580E+04   -0.37659E+04  5120   0.368E+02
DAV:   3    -0.206174367001E+03   -0.57007E+03   -0.56581E+03  5600   0.156E+02
DAV:   4    -0.228192009615E+03   -0.22018E+02   -0.21916E+02  5568   0.331E+01
DAV:   5    -0.229004423231E+03   -0.81241E+00   -0.81102E+00  5728   0.616E+00    0.106E+01
DAV:   6    -0.224138824553E+03    0.48656E+01   -0.94761E+00  5728   0.530E+00    0.776E+00
DAV:   7    -0.223777362961E+03    0.36146E+00   -0.20699E+00  6336   0.235E+00    0.533E+00
DAV:   8    -0.223902644680E+03   -0.12528E+00   -0.26664E-01  5312   0.124E+00    0.142E+00
DAV:   9    -0.223897056801E+03    0.55879E-02   -0.11414E-02  5664   0.260E-01    0.597E-01
DAV:  10    -0.223901376678E+03   -0.43199E-02   -0.18281E-02  5344   0.229E-01    0.285E-01
DAV:  11    -0.223900655845E+03    0.72083E-03   -0.15763E-03  5984   0.817E-02    0.870E-02
DAV:  12    -0.223900616064E+03    0.39781E-04   -0.15464E-04  5920   0.234E-02    0.134E-02
DAV:  13    -0.223900617669E+03   -0.16056E-05   -0.19601E-05  5664   0.764E-03    0.356E-03
DAV:  14    -0.223900618639E+03   -0.96975E-06   -0.18791E-06  5568   0.330E-03    0.919E-03
DAV:  15    -0.223900620031E+03   -0.13923E-05   -0.48822E-07  5504   0.176E-03    0.326E-03
DAV:  16    -0.223900620552E+03   -0.52057E-06   -0.14541E-07  5664   0.879E-04    0.492E-04
DAV:  17    -0.223900620544E+03    0.77198E-08   -0.71781E-09  3680   0.677E-04
   1 F= -.22390062E+03 E0= -.22390062E+03  d E =-.154604E-16
