 vasp.6.3.2 27Jun22 (build Oct 14 2022 12:13:54) complex                        
  
 executed on             LinuxIFC date 2025.08.28  22:04:13
 running on   32 total cores
 distrk:  each k-point on   32 cores,    1 groups
 distr:  one band on NCORE=   1 cores,   32 groups


--------------------------------------------------------------------------------------------------------


 INCAR:
   ENCUT = 341.213600
   SIGMA = 0.020000
   EDIFF = 1.00e-08
   GGA = PS
   PREC = Accurate
   IALGO = 38
   IBRION = -1
   ISMEAR = 0
   NELMIN = 5
   ADDGRID = .TRUE.
   LCHARG = .FALSE.
   LWAVE = .FALSE.
   LREAL = .FALSE.

 POTCAR:    PAW_PBE Na_pv 19Sep2006               
 POTCAR:    PAW_PBE Cl 06Sep2000                  
 -----------------------------------------------------------------------------
|                                                                             |
|           W    W    AA    RRRRR   N    N  II  N    N   GGGG   !!!           |
|           W    W   A  A   R    R  NN   N  II  NN   N  G    G  !!!           |
|           W    W  A    A  R    R  N N  N  II  N N  N  G       !!!           |
|           W WW W  AAAAAA  RRRRR   N  N N  II  N  N N  G  GGG   !            |
|           WW  WW  A    A  R   R   N   NN  II  N   NN  G    G                |
|           W    W  A    A  R    R  N    N  II  N    N   GGGG   !!!           |
|                                                                             |
|     For optimal performance we recommend to set                             |
|       NCORE = 2 up to number-of-cores-per-socket                            |
|     NCORE specifies how many cores store one orbital (NPAR=cpu/NCORE).      |
|     This setting can greatly improve the performance of VASP for DFT.       |
|     The default, NCORE=1 might be grossly inefficient on modern             |
|     multi-core architectures or massively parallel machines. Do your        |
|     own testing! More info at https://www.vasp.at/wiki/index.php/NCORE      |
|     Unfortunately you need to use the default for GW and RPA                |
|     calculations (for HF NCORE is supported but not extensively tested      |
|     yet).                                                                   |
|                                                                             |
 -----------------------------------------------------------------------------

 POTCAR:    PAW_PBE Na_pv 19Sep2006               
   SHA256 =  6a2f546d9e11350984debacf3dc457d8cffc0868e817d445faca461816a32b94 Na_pv/POTCAR          
   COPYR  = (c) Copyright 19Sep2006 Georg Kresse                                                    
   COPYR  = This file is part of the software VASP. Any use, copying, and all other rights are regul
   COPYR  = If you do not have a valid VASP license, you may not use, copy or distribute this file. 
   VRHFIN =Na: p6s1                                                                                 
   LEXCH  = PE                                                                                      
   EATOM  =   766.0439 eV,   56.3026 Ry                                                             
                                                                                                    
   TITEL  = PAW_PBE Na_pv 19Sep2006                                                                 
   LULTRA =        F    use ultrasoft PP ?                                                          
   IUNSCR =        1    unscreen: 0-lin 1-nonlin 2-no                                               
   RPACOR =    1.800    partial core radius                                                         
   POMASS =   22.990; ZVAL   =    7.000    mass and valenz                                          
   RCORE  =    2.200    outmost cutoff radius                                                       
   RWIGS  =    2.200; RWIGS  =    1.164    wigner-seitz radius (au A)                               
   ENMAX  =  259.561; ENMIN  =  194.671 eV                                                          
   ICORE  =        2    local potential                                                             
   LCOR   =        T    correct aug charges                                                         
   LPAW   =        T    paw PP                                                                      
   EAUG   =  368.056                                                                                
   DEXC   =    0.000                                                                                
   RMAX   =    2.245    core radius for proj-oper                                                   
   RAUG   =    1.300    factor for augmentation sphere                                              
   RDEP   =    2.259    radius for radial grids                                                     
   RDEPT  =    1.738    core radius for aug-charge                                                  
                                                                                                    
   Atomic configuration                                                                             
    5 entries                                                                                       
     n  l   j            E        occ.                                                              
     1  0  0.50     -1033.6933   2.0000                                                             
     2  0  0.50       -56.7526   2.0000                                                             
     2  1  1.50       -28.6721   6.0000                                                             
     3  0  0.50        -2.7440   1.0000                                                             
     3  2  1.50        -1.3606   0.0000                                                             
   Description                                                                                      
     l       E           TYP  RCUT    TYP  RCUT                                                     
     1    -28.6720912     23  2.000                                                                 
     1      6.8029130     23  2.000                                                                 
     0     -2.7439560     23  2.200                                                                 
     0     34.0145650     23  2.200                                                                 
     2     -1.3605826     23  2.200                                                                 
  local pseudopotential read in
  partial core-charges read in
  partial kinetic energy density read in
  atomic valenz-charges read in
  non local Contribution for L=           1  read in
    real space projection operators read in
  non local Contribution for L=           1  read in
    real space projection operators read in
  non local Contribution for L=           0  read in
    real space projection operators read in
  non local Contribution for L=           0  read in
    real space projection operators read in
    PAW grid and wavefunctions read in
 
   number of l-projection  operators is LMAX  =           4
   number of lm-projection operators is LMMAX =           8
 
 POTCAR:    PAW_PBE Cl 06Sep2000                  
   SHA256 =  9f1b6e6ed4247ac726a768b330d26d7667cc3c95a39ff49c1d064c2d9dcce931 Cl/POTCAR             
   COPYR  = (c) Copyright 06Sep2000 Georg Kresse                                                    
   COPYR  = This file is part of the software VASP. Any use, copying, and all other rights are regul
   COPYR  = If you do not have a valid VASP license, you may not use, copy or distribute this file. 
   VRHFIN =Cl: s2p5                                                                                 
   LEXCH  = PE                                                                                      
   EATOM  =   409.7259 eV,   30.1140 Ry                                                             
                                                                                                    
   TITEL  = PAW_PBE Cl 06Sep2000                                                                    
   LULTRA =        F    use ultrasoft PP ?                                                          
   IUNSCR =        1    unscreen: 0-lin 1-nonlin 2-no                                               
   RPACOR =    1.500    partial core radius                                                         
   POMASS =   35.453; ZVAL   =    7.000    mass and valenz                                          
   RCORE  =    1.900    outmost cutoff radius                                                       
   RWIGS  =    2.100; RWIGS  =    1.111    wigner-seitz radius (au A)                               
   ENMAX  =  262.472; ENMIN  =  196.854 eV                                                          
   ICORE  =        2    local potential                                                             
   LCOR   =        T    correct aug charges                                                         
   LPAW   =        T    paw PP                                                                      
   EAUG   =  356.192                                                                                
   DEXC   =    0.000                                                                                
   RMAX   =    1.945    core radius for proj-oper                                                   
   RAUG   =    1.300    factor for augmentation sphere                                              
   RDEP   =    2.020    radius for radial grids                                                     
   RDEPT  =    1.678    core radius for aug-charge                                                  
                                                                                                    
   Atomic configuration                                                                             
    6 entries                                                                                       
     n  l   j            E        occ.                                                              
     1  0  0.50     -2751.1850   2.0000                                                             
     2  0  0.50      -252.6861   2.0000                                                             
     2  1  1.50      -191.6157   6.0000                                                             
     3  0  0.50       -20.6916   2.0000                                                             
     3  1  0.50        -8.5949   5.0000                                                             
     3  2  1.50        -8.1635   0.0000                                                             
   Description                                                                                      
     l       E           TYP  RCUT    TYP  RCUT                                                     
     0    -20.6915656     23  1.900                                                                 
     0    -22.0521482     23  1.900                                                                 
     1     -8.5948577     23  1.900                                                                 
     1     -5.3847331     23  1.900                                                                 
     2     -8.1634956     23  1.900                                                                 
  local pseudopotential read in
  partial core-charges read in
  partial kinetic energy density read in
  atomic valenz-charges read in
  non local Contribution for L=           0  read in
    real space projection operators read in
  non local Contribution for L=           0  read in
    real space projection operators read in
  non local Contribution for L=           1  read in
    real space projection operators read in
  non local Contribution for L=           1  read in
    real space projection operators read in
    PAW grid and wavefunctions read in
 
   number of l-projection  operators is LMAX  =           4
   number of lm-projection operators is LMMAX =           8
 
 -----------------------------------------------------------------------------
|                                                                             |
|               ----> ADVICE to this user running VASP <----                  |
|                                                                             |
|     You have a (more or less) 'large supercell' and for larger cells it     |
|     might be more efficient to use real-space projection operators.         |
|     Therefore, try LREAL= Auto in the INCAR file.                           |
|     Mind: For very accurate calculation, you might also keep the            |
|     reciprocal projection scheme (i.e. LREAL=.FALSE.).                      |
|                                                                             |
 -----------------------------------------------------------------------------

 -----------------------------------------------------------------------------
|                                                                             |
|               ----> ADVICE to this user running VASP <----                  |
|                                                                             |
|     You enforced a specific xc type in the INCAR file but a different       |
|     type was found in the POTCAR file.                                      |
|     I HOPE YOU KNOW WHAT YOU ARE DOING!                                     |
|                                                                             |
 -----------------------------------------------------------------------------

  PAW_PBE Na_pv 19Sep2006               :
 energy of atom  1       EATOM= -766.0439
 kinetic energy error for atom=    0.0189 (will be added to EATOM!!)
  PAW_PBE Cl 06Sep2000                  :
 energy of atom  2       EATOM= -409.7259
 kinetic energy error for atom=    0.0106 (will be added to EATOM!!)
 
 
 POSCAR: Na Cl
  positions in cartesian coordinates
  No initial velocities read in
 exchange correlation table for  LEXCH =       14
   RHO(1)=    0.500       N(1)  =     2000
   RHO(2)=  100.500       N(2)  =     4000
 


--------------------------------------------------------------------------------------------------------


 ion  position               nearest neighbor table
   1  0.003  0.000  0.000-
   2  0.250  0.250  0.000-
   3  0.250  0.000  0.250-
   4  0.000  0.250  0.250-
   5  0.000  0.000  0.500-
   6  0.250  0.250  0.500-
   7  0.250  0.000  0.750-
   8  0.000  0.250  0.750-
   9  0.000  0.500  0.000-
  10  0.250  0.750  0.000-
  11  0.250  0.500  0.250-
  12  0.000  0.750  0.250-
  13  0.000  0.500  0.500-
  14  0.250  0.750  0.500-
  15  0.250  0.500  0.750-
  16  0.000  0.750  0.750-
  17  0.500  0.000  0.000-
  18  0.750  0.250  0.000-
  19  0.750  0.000  0.250-
  20  0.500  0.250  0.250-
  21  0.500  0.000  0.500-
  22  0.750  0.250  0.500-
  23  0.750  0.000  0.750-
  24  0.500  0.250  0.750-
  25  0.500  0.500  0.000-
  26  0.750  0.750  0.000-
  27  0.750  0.500  0.250-
  28  0.500  0.750  0.250-
  29  0.500  0.500  0.500-
  30  0.750  0.750  0.500-
  31  0.750  0.500  0.750-
  32  0.500  0.750  0.750-
  33  0.250  0.250  0.250-
  34  0.000  0.000  0.253-
  35  0.000  0.250  0.000-
  36  0.250  0.000  0.000-
  37  0.250  0.250  0.750-
  38  0.000  0.000  0.750-
  39  0.000  0.250  0.500-
  40  0.250  0.000  0.500-
  41  0.250  0.750  0.250-
  42  0.000  0.500  0.250-
  43  0.000  0.750  0.000-
  44  0.250  0.500  0.000-
  45  0.250  0.750  0.750-
  46  0.000  0.500  0.750-
  47  0.000  0.750  0.500-
  48  0.250  0.500  0.500-
  49  0.750  0.250  0.250-
  50  0.500  0.000  0.250-
  51  0.500  0.250  0.000-
  52  0.750  0.000  0.000-
  53  0.750  0.250  0.750-
  54  0.500  0.000  0.750-
  55  0.500  0.250  0.500-
  56  0.750  0.000  0.500-
  57  0.750  0.750  0.250-
  58  0.500  0.500  0.250-
  59  0.500  0.750  0.000-
  60  0.750  0.500  0.000-
  61  0.750  0.750  0.750-
  62  0.500  0.500  0.750-
  63  0.500  0.750  0.500-
  64  0.750  0.500  0.500-
 
  LATTYP: Found a simple cubic cell.
 ALAT       =    11.2040023600
  
  Lattice vectors:
  
 A1 = (  11.2040023600,   0.0000000000,   0.0000000000)
 A2 = (   0.0000000000,  11.2040023600,   0.0000000000)
 A3 = (   0.0000000000,   0.0000000000,  11.2040023600)


Analysis of symmetry for initial positions (statically):
=====================================================================
 Subroutine PRICEL returns:
 Original cell was already a primitive cell.
 

 Routine SETGRP: Setting up the symmetry group for a 
 simple cubic supercell.


 Subroutine GETGRP returns: Found  2 space group operations
 (whereof  2 operations were pure point group operations)
 out of a pool of 48 trial point group operations.


The static configuration has the point symmetry C_1h.


Analysis of symmetry for dynamics (positions and initial velocities):
=====================================================================
 Subroutine PRICEL returns:
 Original cell was already a primitive cell.
 

 Routine SETGRP: Setting up the symmetry group for a 
 simple cubic supercell.


 Subroutine GETGRP returns: Found  2 space group operations
 (whereof  2 operations were pure point group operations)
 out of a pool of 48 trial point group operations.


The dynamic configuration has the point symmetry C_1h.


 Subroutine INISYM returns: Found  2 space group operations
 (whereof  2 operations are pure point group operations),
 and found     1 'primitive' translations


----------------------------------------------------------------------------------------

                                     Primitive cell                                     

  volume of cell :    1406.4347

  direct lattice vectors                    reciprocal lattice vectors
    11.204002360  0.000000000  0.000000000     0.089253819  0.000000000  0.000000000
     0.000000000 11.204002360  0.000000000     0.000000000  0.089253819  0.000000000
     0.000000000  0.000000000 11.204002360     0.000000000  0.000000000  0.089253819

  length of vectors
    11.204002360 11.204002360 11.204002360     0.089253819  0.089253819  0.089253819

  position of ions in fractional coordinates (direct lattice)
     0.002677615  0.000000000  0.000000000
     0.250000000  0.250000000  0.000000000
     0.250000000  0.000000000  0.250000000
     0.000000000  0.250000000  0.250000000
     0.000000000  0.000000000  0.500000000
     0.250000000  0.250000000  0.500000000
     0.250000000  0.000000000  0.750000000
     0.000000000  0.250000000  0.750000000
     0.000000000  0.500000000  0.000000000
     0.250000000  0.750000000  0.000000000
     0.250000000  0.500000000  0.250000000
     0.000000000  0.750000000  0.250000000
     0.000000000  0.500000000  0.500000000
     0.250000000  0.750000000  0.500000000
     0.250000000  0.500000000  0.750000000
     0.000000000  0.750000000  0.750000000
     0.500000000  0.000000000  0.000000000
     0.750000000  0.250000000  0.000000000
     0.750000000  0.000000000  0.250000000
     0.500000000  0.250000000  0.250000000
     0.500000000  0.000000000  0.500000000
     0.750000000  0.250000000  0.500000000
     0.750000000  0.000000000  0.750000000
     0.500000000  0.250000000  0.750000000
     0.500000000  0.500000000  0.000000000
     0.750000000  0.750000000  0.000000000
     0.750000000  0.500000000  0.250000000
     0.500000000  0.750000000  0.250000000
     0.500000000  0.500000000  0.500000000
     0.750000000  0.750000000  0.500000000
     0.750000000  0.500000000  0.750000000
     0.500000000  0.750000000  0.750000000
     0.250000000  0.250000000  0.250000000
     0.000000000  0.000000000  0.252677615
     0.000000000  0.250000000  0.000000000
     0.250000000  0.000000000  0.000000000
     0.250000000  0.250000000  0.750000000
     0.000000000  0.000000000  0.750000000
     0.000000000  0.250000000  0.500000000
     0.250000000  0.000000000  0.500000000
     0.250000000  0.750000000  0.250000000
     0.000000000  0.500000000  0.250000000
     0.000000000  0.750000000  0.000000000
     0.250000000  0.500000000  0.000000000
     0.250000000  0.750000000  0.750000000
     0.000000000  0.500000000  0.750000000
     0.000000000  0.750000000  0.500000000
     0.250000000  0.500000000  0.500000000
     0.750000000  0.250000000  0.250000000
     0.500000000  0.000000000  0.250000000
     0.500000000  0.250000000  0.000000000
     0.750000000  0.000000000  0.000000000
     0.750000000  0.250000000  0.750000000
     0.500000000  0.000000000  0.750000000
     0.500000000  0.250000000  0.500000000
     0.750000000  0.000000000  0.500000000
     0.750000000  0.750000000  0.250000000
     0.500000000  0.500000000  0.250000000
     0.500000000  0.750000000  0.000000000
     0.750000000  0.500000000  0.000000000
     0.750000000  0.750000000  0.750000000
     0.500000000  0.500000000  0.750000000
     0.500000000  0.750000000  0.500000000
     0.750000000  0.500000000  0.500000000

  ion indices of the primitive-cell ions
   primitive index   ion index
                 1           1
                 2           2
                 3           3
                 4           4
                 5           5
                 6           6
                 7           7
                 8           8
                 9           9
                10          10
                11          11
                12          12
                13          13
                14          14
                15          15
                16          16
                17          17
                18          18
                19          19
                20          20
                21          21
                22          22
                23          23
                24          24
                25          25
                26          26
                27          27
                28          28
                29          29
                30          30
                31          31
                32          32
                33          33
                34          34
                35          35
                36          36
                37          37
                38          38
                39          39
                40          40
                41          41
                42          42
                43          43
                44          44
                45          45
                46          46
                47          47
                48          48
                49          49
                50          50
                51          51
                52          52
                53          53
                54          54
                55          55
                56          56
                57          57
                58          58
                59          59
                60          60
                61          61
                62          62
                63          63
                64          64

----------------------------------------------------------------------------------------

 
 
 KPOINTS: KPOINTS created by Atomic Simulation Env

Automatic generation of k-mesh.
 Grid dimensions read from file:
 generate k-points for:    2    2    2

 Generating k-lattice:

  Cartesian coordinates                     Fractional coordinates (reciprocal lattice)
     0.044626910  0.000000000  0.000000000     0.500000000  0.000000000  0.000000000
     0.000000000  0.044626910  0.000000000     0.000000000  0.500000000  0.000000000
     0.000000000  0.000000000  0.044626910     0.000000000  0.000000000  0.500000000

  Length of vectors
     0.044626910  0.044626910  0.044626910

  Shift w.r.t. Gamma in fractional coordinates (k-lattice)
     0.000000000  0.000000000  0.000000000

 
 Subroutine IBZKPT returns following result:
 ===========================================
 
 Found      8 irreducible k-points:
 
 Following reciprocal coordinates:
            Coordinates               Weight
  0.000000  0.000000  0.000000      1.000000
  0.500000  0.000000  0.000000      1.000000
  0.000000  0.500000  0.000000      1.000000
  0.000000  0.000000  0.500000      1.000000
  0.500000  0.500000  0.000000      1.000000
  0.000000  0.500000  0.500000      1.000000
  0.500000  0.000000  0.500000      1.000000
  0.500000  0.500000  0.500000      1.000000
 
 Following cartesian coordinates:
            Coordinates               Weight
  0.000000  0.000000  0.000000      1.000000
  0.044627  0.000000  0.000000      1.000000
  0.000000  0.044627  0.000000      1.000000
  0.000000  0.000000  0.044627      1.000000
  0.044627  0.044627  0.000000      1.000000
  0.000000  0.044627  0.044627      1.000000
  0.044627  0.000000  0.044627      1.000000
  0.044627  0.044627  0.044627      1.000000
 


--------------------------------------------------------------------------------------------------------




 Dimension of arrays:
   k-points           NKPTS =      8   k-points in BZ     NKDIM =      8   number of bands    NBANDS=    288
   number of dos      NEDOS =    301   number of ions     NIONS =     64
   non local maximal  LDIM  =      4   non local SUM 2l+1 LMDIM =      8
   total plane-waves  NPLWV = 343000
   max r-space proj   IRMAX =      1   max aug-charges    IRDMAX=  56280
   dimension x,y,z NGX =    70 NGY =   70 NGZ =   70
   dimension x,y,z NGXF=   140 NGYF=  140 NGZF=  140
   support grid    NGXF=   280 NGYF=  280 NGZF=  280
   ions per type =              32  32
   NGX,Y,Z   is equivalent  to a cutoff of  10.39, 10.39, 10.39 a.u.
   NGXF,Y,Z  is equivalent  to a cutoff of  20.77, 20.77, 20.77 a.u.

 SYSTEM =  unknown system                          
 POSCAR =  Na Cl                                   

 Startparameter for this run:
   NWRITE =      2    write-flag & timer
   PREC   = accura    normal or accurate (medium, high low for compatibility)
   ISTART =      0    job   : 0-new  1-cont  2-samecut
   ICHARG =      2    charge: 1-file 2-atom 10-const
   ISPIN  =      1    spin polarized calculation?
   LNONCOLLINEAR =      F non collinear calculations
   LSORBIT =      F    spin-orbit coupling
   INIWAV =      1    electr: 0-lowe 1-rand  2-diag
   LASPH  =      F    aspherical Exc in radial PAW
 Electronic Relaxation 1
   ENCUT  =  341.2 eV  25.08 Ry    5.01 a.u.  16.87 16.87 16.87*2*pi/ulx,y,z
   ENINI  =  341.2     initial cutoff
   ENAUG  =  368.1 eV  augmentation charge cutoff
   NELM   =     60;   NELMIN=  5; NELMDL= -5     # of ELM steps 
   EDIFF  = 0.1E-07   stopping-criterion for ELM
   LREAL  =      F    real-space projection
   NLSPLINE    = F    spline interpolate recip. space projectors
   LCOMPAT=      F    compatible to vasp.4.4
   GGA_COMPAT  = T    GGA compatible to vasp.4.4-vasp.4.6
   LMAXPAW     = -100 max onsite density
   LMAXMIX     =    2 max onsite mixed and CHGCAR
   VOSKOWN=      0    Vosko Wilk Nusair interpolation
   ROPT   =    0.00000   0.00000
 Ionic relaxation
   EDIFFG = 0.1E-06   stopping-criterion for IOM
   NSW    =      0    number of steps for IOM
   NBLOCK =      1;   KBLOCK =      1    inner block; outer block 
   IBRION =     -1    ionic relax: 0-MD 1-quasi-New 2-CG
   NFREE  =      0    steps in history (QN), initial steepest desc. (CG)
   ISIF   =      2    stress and relaxation
   IWAVPR =     10    prediction:  0-non 1-charg 2-wave 3-comb
   ISYM   =      2    0-nonsym 1-usesym 2-fastsym
   LCORR  =      T    Harris-Foulkes like correction to forces

   POTIM  = 0.5000    time-step for ionic-motion
   TEIN   =    0.0    initial temperature
   TEBEG  =    0.0;   TEEND  =   0.0 temperature during run
   SMASS  =  -3.00    Nose mass-parameter (am)
   estimated Nose-frequenzy (Omega)   =  0.10E-29 period in steps = 0.13E+47 mass=  -0.287E-26a.u.
   SCALEE = 1.0000    scale energy and forces
   NPACO  =    256;   APACO  = 10.0  distance and # of slots for P.C.
   PSTRESS=    0.0 pullay stress

  Mass of Ions in am
   POMASS =  22.99 35.45
  Ionic Valenz
   ZVAL   =   7.00  7.00
  Atomic Wigner-Seitz radii
   RWIGS  =  -1.00 -1.00
  virtual crystal weights 
   VCA    =   1.00  1.00
   NELECT =     448.0000    total number of electrons
   NUPDOWN=      -1.0000    fix difference up-down

 DOS related values:
   EMIN   =  10.00;   EMAX   =-10.00  energy-range for DOS
   EFERMI =   0.00
   ISMEAR =     0;   SIGMA  =   0.02  broadening in eV -4-tet -1-fermi 0-gaus

 Electronic relaxation 2 (details)
   IALGO  =     38    algorithm
   LDIAG  =      T    sub-space diagonalisation (order eigenvalues)
   LSUBROT=      F    optimize rotation matrix (better conditioning)
   TURBO    =      0    0=normal 1=particle mesh
   IRESTART =      0    0=no restart 2=restart with 2 vectors
   NREBOOT  =      0    no. of reboots
   NMIN     =      0    reboot dimension
   EREF     =   0.00    reference energy to select bands
   IMIX   =      4    mixing-type and parameters
     AMIX     =   0.40;   BMIX     =  1.00
     AMIX_MAG =   1.60;   BMIX_MAG =  1.00
     AMIN     =   0.10
     WC   =   100.;   INIMIX=   1;  MIXPRE=   1;  MAXMIX= -45

 Intra band minimization:
   WEIMIN = 0.0000     energy-eigenvalue tresh-hold
   EBREAK =  0.87E-11  absolut break condition
   DEPER  =   0.30     relativ break condition  

   TIME   =   0.40     timestep for ELM

  volume/ion in A,a.u.               =      21.98       148.30
  Fermi-wavevector in a.u.,A,eV,Ry     =   1.118049  2.112807 17.007750  1.250034
  Thomas-Fermi vector in A             =   2.254677
 
 Write flags
   LWAVE        =      F    write WAVECAR
   LDOWNSAMPLE  =      F    k-point downsampling of WAVECAR
   LCHARG       =      F    write CHGCAR
   LVTOT        =      F    write LOCPOT, total local potential
   LVHAR        =      F    write LOCPOT, Hartree potential only
   LELF         =      F    write electronic localiz. function (ELF)
   LORBIT       =      0    0 simple, 1 ext, 2 COOP (PROOUT), +10 PAW based schemes


 Dipole corrections
   LMONO  =      F    monopole corrections only (constant potential shift)
   LDIPOL =      F    correct potential (dipole corrections)
   IDIPOL =      0    1-x, 2-y, 3-z, 4-all directions 
   EPSILON=  1.0000000 bulk dielectric constant

 Exchange correlation treatment:
   GGA     =    PS    GGA type
   LEXCH   =    14    internal setting for exchange type
   LIBXC   =     F    Libxc                    
   VOSKOWN =     0    Vosko Wilk Nusair interpolation
   LHFCALC =     F    Hartree Fock is set to
   LHFONE  =     F    Hartree Fock one center treatment
   AEXX    =    0.0000 exact exchange contribution

 Linear response parameters
   LEPSILON=     F    determine dielectric tensor
   LRPA    =     F    only Hartree local field effects (RPA)
   LNABLA  =     F    use nabla operator in PAW spheres
   LVEL    =     F    velocity operator in full k-point grid
   CSHIFT  =0.1000    complex shift for real part using Kramers Kronig
   OMEGAMAX=  -1.0    maximum frequency
   DEG_THRESHOLD= 0.2000000E-02 threshold for treating states as degnerate
   RTIME   =   -0.100 relaxation time in fs
  (WPLASMAI=    0.000 imaginary part of plasma frequency in eV, 0.658/RTIME)
   DFIELD  = 0.0000000 0.0000000 0.0000000 field for delta impulse in time
 
  Optional k-point grid parameters
   LKPOINTS_OPT  =     F    use optional k-point grid
   KPOINTS_OPT_MODE=     1    mode for optional k-point grid
 
 Orbital magnetization related:
   ORBITALMAG=     F  switch on orbital magnetization
   LCHIMAG   =     F  perturbation theory with respect to B field
   DQ        =  0.001000  dq finite difference perturbation B field
   LLRAUG    =     F  two centre corrections for induced B field



--------------------------------------------------------------------------------------------------------


 Static calculation
 charge density and potential will be updated during run
 non-spin polarized calculation
 Variant of blocked Davidson
 Davidson routine will perform the subspace rotation
 perform sub-space diagonalisation
    after iterative eigenvector-optimisation
 modified Broyden-mixing scheme, WC =      100.0
 initial mixing is a Kerker type mixing with AMIX =  0.4000 and BMIX =      1.0000
 Hartree-type preconditioning will be used
 using additional bands           64
 reciprocal scheme for non local part
 use partial core corrections
 calculate Harris-corrections to forces 
   (improved forces if not selfconsistent)
 use gradient corrections 
 use of overlap-Matrix (Vanderbilt PP)
 Gauss-broadening in eV      SIGMA  =   0.02


--------------------------------------------------------------------------------------------------------


  energy-cutoff  :      341.21
  volume of cell :     1406.43
      direct lattice vectors                 reciprocal lattice vectors
    11.204002360  0.000000000  0.000000000     0.089253819  0.000000000  0.000000000
     0.000000000 11.204002360  0.000000000     0.000000000  0.089253819  0.000000000
     0.000000000  0.000000000 11.204002360     0.000000000  0.000000000  0.089253819

  length of vectors
    11.204002360 11.204002360 11.204002360     0.089253819  0.089253819  0.089253819


 
 k-points in units of 2pi/SCALE and weight: KPOINTS created by Atomic Simulation Env
   0.00000000  0.00000000  0.00000000       0.125
   0.04462691  0.00000000  0.00000000       0.125
   0.00000000  0.04462691  0.00000000       0.125
   0.00000000  0.00000000  0.04462691       0.125
   0.04462691  0.04462691  0.00000000       0.125
   0.00000000  0.04462691  0.04462691       0.125
   0.04462691  0.00000000  0.04462691       0.125
   0.04462691  0.04462691  0.04462691       0.125
 
 k-points in reciprocal lattice and weights: KPOINTS created by Atomic Simulation Env
   0.00000000  0.00000000  0.00000000       0.125
   0.50000000  0.00000000  0.00000000       0.125
   0.00000000  0.50000000  0.00000000       0.125
   0.00000000  0.00000000  0.50000000       0.125
   0.50000000  0.50000000  0.00000000       0.125
   0.00000000  0.50000000  0.50000000       0.125
   0.50000000  0.00000000  0.50000000       0.125
   0.50000000  0.50000000  0.50000000       0.125
 
 position of ions in fractional coordinates (direct lattice) 
   0.00267761  0.00000000  0.00000000
   0.25000000  0.25000000  0.00000000
   0.25000000  0.00000000  0.25000000
   0.00000000  0.25000000  0.25000000
   0.00000000  0.00000000  0.50000000
   0.25000000  0.25000000  0.50000000
   0.25000000  0.00000000  0.75000000
   0.00000000  0.25000000  0.75000000
   0.00000000  0.50000000  0.00000000
   0.25000000  0.75000000  0.00000000
   0.25000000  0.50000000  0.25000000
   0.00000000  0.75000000  0.25000000
   0.00000000  0.50000000  0.50000000
   0.25000000  0.75000000  0.50000000
   0.25000000  0.50000000  0.75000000
   0.00000000  0.75000000  0.75000000
   0.50000000  0.00000000  0.00000000
   0.75000000  0.25000000  0.00000000
   0.75000000  0.00000000  0.25000000
   0.50000000  0.25000000  0.25000000
   0.50000000  0.00000000  0.50000000
   0.75000000  0.25000000  0.50000000
   0.75000000  0.00000000  0.75000000
   0.50000000  0.25000000  0.75000000
   0.50000000  0.50000000  0.00000000
   0.75000000  0.75000000  0.00000000
   0.75000000  0.50000000  0.25000000
   0.50000000  0.75000000  0.25000000
   0.50000000  0.50000000  0.50000000
   0.75000000  0.75000000  0.50000000
   0.75000000  0.50000000  0.75000000
   0.50000000  0.75000000  0.75000000
   0.25000000  0.25000000  0.25000000
   0.00000000  0.00000000  0.25267761
   0.00000000  0.25000000  0.00000000
   0.25000000  0.00000000  0.00000000
   0.25000000  0.25000000  0.75000000
   0.00000000  0.00000000  0.75000000
   0.00000000  0.25000000  0.50000000
   0.25000000  0.00000000  0.50000000
   0.25000000  0.75000000  0.25000000
   0.00000000  0.50000000  0.25000000
   0.00000000  0.75000000  0.00000000
   0.25000000  0.50000000  0.00000000
   0.25000000  0.75000000  0.75000000
   0.00000000  0.50000000  0.75000000
   0.00000000  0.75000000  0.50000000
   0.25000000  0.50000000  0.50000000
   0.75000000  0.25000000  0.25000000
   0.50000000  0.00000000  0.25000000
   0.50000000  0.25000000  0.00000000
   0.75000000  0.00000000  0.00000000
   0.75000000  0.25000000  0.75000000
   0.50000000  0.00000000  0.75000000
   0.50000000  0.25000000  0.50000000
   0.75000000  0.00000000  0.50000000
   0.75000000  0.75000000  0.25000000
   0.50000000  0.50000000  0.25000000
   0.50000000  0.75000000  0.00000000
   0.75000000  0.50000000  0.00000000
   0.75000000  0.75000000  0.75000000
   0.50000000  0.50000000  0.75000000
   0.50000000  0.75000000  0.50000000
   0.75000000  0.50000000  0.50000000
 
 position of ions in cartesian coordinates  (Angst):
   0.03000000  0.00000000  0.00000000
   2.80100059  2.80100059  0.00000000
   2.80100059  0.00000000  2.80100059
   0.00000000  2.80100059  2.80100059
   0.00000000  0.00000000  5.60200118
   2.80100059  2.80100059  5.60200118
   2.80100059  0.00000000  8.40300177
   0.00000000  2.80100059  8.40300177
   0.00000000  5.60200118  0.00000000
   2.80100059  8.40300177  0.00000000
   2.80100059  5.60200118  2.80100059
   0.00000000  8.40300177  2.80100059
   0.00000000  5.60200118  5.60200118
   2.80100059  8.40300177  5.60200118
   2.80100059  5.60200118  8.40300177
   0.00000000  8.40300177  8.40300177
   5.60200118  0.00000000  0.00000000
   8.40300177  2.80100059  0.00000000
   8.40300177  0.00000000  2.80100059
   5.60200118  2.80100059  2.80100059
   5.60200118  0.00000000  5.60200118
   8.40300177  2.80100059  5.60200118
   8.40300177  0.00000000  8.40300177
   5.60200118  2.80100059  8.40300177
   5.60200118  5.60200118  0.00000000
   8.40300177  8.40300177  0.00000000
   8.40300177  5.60200118  2.80100059
   5.60200118  8.40300177  2.80100059
   5.60200118  5.60200118  5.60200118
   8.40300177  8.40300177  5.60200118
   8.40300177  5.60200118  8.40300177
   5.60200118  8.40300177  8.40300177
   2.80100059  2.80100059  2.80100059
   0.00000000  0.00000000  2.83100059
   0.00000000  2.80100059  0.00000000
   2.80100059  0.00000000  0.00000000
   2.80100059  2.80100059  8.40300177
   0.00000000  0.00000000  8.40300177
   0.00000000  2.80100059  5.60200118
   2.80100059  0.00000000  5.60200118
   2.80100059  8.40300177  2.80100059
   0.00000000  5.60200118  2.80100059
   0.00000000  8.40300177  0.00000000
   2.80100059  5.60200118  0.00000000
   2.80100059  8.40300177  8.40300177
   0.00000000  5.60200118  8.40300177
   0.00000000  8.40300177  5.60200118
   2.80100059  5.60200118  5.60200118
   8.40300177  2.80100059  2.80100059
   5.60200118  0.00000000  2.80100059
   5.60200118  2.80100059  0.00000000
   8.40300177  0.00000000  0.00000000
   8.40300177  2.80100059  8.40300177
   5.60200118  0.00000000  8.40300177
   5.60200118  2.80100059  5.60200118
   8.40300177  0.00000000  5.60200118
   8.40300177  8.40300177  2.80100059
   5.60200118  5.60200118  2.80100059
   5.60200118  8.40300177  0.00000000
   8.40300177  5.60200118  0.00000000
   8.40300177  8.40300177  8.40300177
   5.60200118  5.60200118  8.40300177
   5.60200118  8.40300177  5.60200118
   8.40300177  5.60200118  5.60200118
 


--------------------------------------------------------------------------------------------------------


 k-point   1 :   0.0000 0.0000 0.0000  plane waves:   20005
 k-point   2 :   0.5000 0.0000 0.0000  plane waves:   20138
 k-point   3 :   0.0000 0.5000 0.0000  plane waves:   20138
 k-point   4 :   0.0000 0.0000 0.5000  plane waves:   20138
 k-point   5 :   0.5000 0.5000 0.0000  plane waves:   20160
 k-point   6 :   0.0000 0.5000 0.5000  plane waves:   20160
 k-point   7 :   0.5000 0.0000 0.5000  plane waves:   20160
 k-point   8 :   0.5000 0.5000 0.5000  plane waves:   20336

 maximum and minimum number of plane-waves per node :     20336    20005

 maximum number of plane-waves:     20336
 maximum index in each direction: 
   IXMAX=   16   IYMAX=   16   IZMAX=   16
   IXMIN=  -17   IYMIN=  -17   IZMIN=  -17


 serial   3D FFT for wavefunctions
 parallel 3D FFT for charge:
    minimum data exchange during FFTs selected (reduces bandwidth)


 total amount of memory used by VASP MPI-rank0   129658. kBytes
=======================================================================

   base      :      30000. kBytes
   nonl-proj :      41680. kBytes
   fftplans  :      14405. kBytes
   grid      :      19342. kBytes
   one-center:        196. kBytes
   wavefun   :      24035. kBytes
 
     INWAV:  cpu time      0.0000: real time      0.0000
 Broyden mixing: mesh for mixing (old mesh)
   NGX = 33   NGY = 33   NGZ = 33
  (NGX  =140   NGY  =140   NGZ  =140)
  gives a total of  35937 points

 initial charge density was supplied:
 charge density of overlapping atoms calculated
 number of electron     448.0000000 magnetization 
 keeping initial charge density in first step


--------------------------------------------------------------------------------------------------------


 Maximum index for augmentation-charges         1834 (set IRDMAX)


--------------------------------------------------------------------------------------------------------


 First call to EWALD:  gamma=   0.158
 Maximum number of real-space cells 3x 3x 3
 Maximum number of reciprocal cells 3x 3x 3

    FEWALD:  cpu time      0.0014: real time      0.0014


--------------------------------------- Iteration      1(   1)  ---------------------------------------


    POTLOK:  cpu time      0.0408: real time      0.0414
    SETDIJ:  cpu time      0.0320: real time      0.0321
     EDDAV:  cpu time      9.8820: real time      9.9346
       DOS:  cpu time      0.0012: real time      0.0012
    --------------------------------------------
      LOOP:  cpu time      9.9560: real time     10.0093

 eigenvalue-minimisations  :  4608
 total energy-change (2. order) : 0.4321943E+04  (-0.1716434E+05)
 number of electron     448.0000000 magnetization 
 augmentation part      448.0000000 magnetization 

 Free energy of the ion-electron system (eV)
  ---------------------------------------------------
  alpha Z        PSCENC =       751.52672365
  Ewald energy   TEWEN  =    -22871.33979096
  -Hartree energ DENC   =     -8992.24677695
  -exchange      EXHF   =         0.00000000
  -V(xc)+E(xc)   XCENC  =      1456.53426572
  PAW double counting   =     26466.43774078   -29286.08056155
  entropy T*S    EENTRO =        -0.00242481
  eigenvalues    EBANDS =      -735.06602492
  atomic energy  EATOM  =     37532.17946992
  Solvation  Ediel_sol  =         0.00000000
  ---------------------------------------------------
  free energy    TOTEN  =      4321.94262088 eV

  energy without entropy =     4321.94504569  energy(sigma->0) =     4321.94383329


--------------------------------------------------------------------------------------------------------




--------------------------------------- Iteration      1(   2)  ---------------------------------------


     EDDAV:  cpu time     10.7522: real time     10.8122
       DOS:  cpu time      0.0005: real time      0.0005
    --------------------------------------------
      LOOP:  cpu time     10.7526: real time     10.8127

 eigenvalue-minimisations  :  5120
 total energy-change (2. order) :-0.3958049E+04  (-0.3765896E+04)
 number of electron     448.0000000 magnetization 
 augmentation part      448.0000000 magnetization 

 Free energy of the ion-electron system (eV)
  ---------------------------------------------------
  alpha Z        PSCENC =       751.52672365
  Ewald energy   TEWEN  =    -22871.33979096
  -Hartree energ DENC   =     -8992.24677695
  -exchange      EXHF   =         0.00000000
  -V(xc)+E(xc)   XCENC  =      1456.53426572
  PAW double counting   =     26466.43774078   -29286.08056155
  entropy T*S    EENTRO =        -0.00000000
  eigenvalues    EBANDS =     -4693.11708592
  atomic energy  EATOM  =     37532.17946992
  Solvation  Ediel_sol  =         0.00000000
  ---------------------------------------------------
  free energy    TOTEN  =       363.89398469 eV

  energy without entropy =      363.89398469  energy(sigma->0) =      363.89398469


--------------------------------------------------------------------------------------------------------




--------------------------------------- Iteration      1(   3)  ---------------------------------------


     EDDAV:  cpu time     11.5743: real time     11.6350
       DOS:  cpu time      0.0004: real time      0.0004
    --------------------------------------------
      LOOP:  cpu time     11.5747: real time     11.6354

 eigenvalue-minimisations  :  5600
 total energy-change (2. order) :-0.5700684E+03  (-0.5658099E+03)
 number of electron     448.0000000 magnetization 
 augmentation part      448.0000000 magnetization 

 Free energy of the ion-electron system (eV)
  ---------------------------------------------------
  alpha Z        PSCENC =       751.52672365
  Ewald energy   TEWEN  =    -22871.33979096
  -Hartree energ DENC   =     -8992.24677695
  -exchange      EXHF   =         0.00000000
  -V(xc)+E(xc)   XCENC  =      1456.53426572
  PAW double counting   =     26466.43774078   -29286.08056155
  entropy T*S    EENTRO =        -0.00000000
  eigenvalues    EBANDS =     -5263.18543761
  atomic energy  EATOM  =     37532.17946992
  Solvation  Ediel_sol  =         0.00000000
  ---------------------------------------------------
  free energy    TOTEN  =      -206.17436700 eV

  energy without entropy =     -206.17436700  energy(sigma->0) =     -206.17436700


--------------------------------------------------------------------------------------------------------




--------------------------------------- Iteration      1(   4)  ---------------------------------------


     EDDAV:  cpu time     11.5271: real time     11.5870
       DOS:  cpu time      0.0005: real time      0.0005
    --------------------------------------------
      LOOP:  cpu time     11.5275: real time     11.5874

 eigenvalue-minimisations  :  5568
 total energy-change (2. order) :-0.2201764E+02  (-0.2191615E+02)
 number of electron     448.0000000 magnetization 
 augmentation part      448.0000000 magnetization 

 Free energy of the ion-electron system (eV)
  ---------------------------------------------------
  alpha Z        PSCENC =       751.52672365
  Ewald energy   TEWEN  =    -22871.33979096
  -Hartree energ DENC   =     -8992.24677695
  -exchange      EXHF   =         0.00000000
  -V(xc)+E(xc)   XCENC  =      1456.53426572
  PAW double counting   =     26466.43774078   -29286.08056155
  entropy T*S    EENTRO =        -0.00000000
  eigenvalues    EBANDS =     -5285.20308022
  atomic energy  EATOM  =     37532.17946992
  Solvation  Ediel_sol  =         0.00000000
  ---------------------------------------------------
  free energy    TOTEN  =      -228.19200962 eV

  energy without entropy =     -228.19200962  energy(sigma->0) =     -228.19200962


--------------------------------------------------------------------------------------------------------




--------------------------------------- Iteration      1(   5)  ---------------------------------------


     EDDAV:  cpu time     11.7850: real time     11.8491
       DOS:  cpu time      0.0005: real time      0.0005
    CHARGE:  cpu time      0.3372: real time      0.3390
    MIXING:  cpu time      0.0011: real time      0.0012
    --------------------------------------------
      LOOP:  cpu time     12.1238: real time     12.1897

 eigenvalue-minimisations  :  5728
 total energy-change (2. order) :-0.8124136E+00  (-0.8110248E+00)
 number of electron     448.0000022 magnetization 
 augmentation part      111.6443376 magnetization 

 Broyden mixing:
  rms(total) = 0.10608E+01    rms(broyden)= 0.10604E+01
  rms(prec ) = 0.14937E+01
  weight for this iteration     100.00

 Free energy of the ion-electron system (eV)
  ---------------------------------------------------
  alpha Z        PSCENC =       751.52672365
  Ewald energy   TEWEN  =    -22871.33979096
  -Hartree energ DENC   =     -8992.24677695
  -exchange      EXHF   =         0.00000000
  -V(xc)+E(xc)   XCENC  =      1456.53426572
  PAW double counting   =     26466.43774078   -29286.08056155
  entropy T*S    EENTRO =        -0.00000000
  eigenvalues    EBANDS =     -5286.01549384
  atomic energy  EATOM  =     37532.17946992
  Solvation  Ediel_sol  =         0.00000000
  ---------------------------------------------------
  free energy    TOTEN  =      -229.00442323 eV

  energy without entropy =     -229.00442323  energy(sigma->0) =     -229.00442323


--------------------------------------------------------------------------------------------------------




--------------------------------------- Iteration      1(   6)  ---------------------------------------


    POTLOK:  cpu time      0.0368: real time      0.0379
    SETDIJ:  cpu time      0.0299: real time      0.0300
     EDDAV:  cpu time     11.8016: real time     11.8635
       DOS:  cpu time      0.0005: real time      0.0005
    CHARGE:  cpu time      0.3368: real time      0.3387
    MIXING:  cpu time      0.0011: real time      0.0011
    --------------------------------------------
      LOOP:  cpu time     12.2067: real time     12.2718

 eigenvalue-minimisations  :  5728
 total energy-change (2. order) : 0.4865599E+01  (-0.9476122E+00)
 number of electron     448.0000022 magnetization 
 augmentation part      112.4574601 magnetization 

 Broyden mixing:
  rms(total) = 0.77579E+00    rms(broyden)= 0.77573E+00
  rms(prec ) = 0.89186E+00
  weight for this iteration     100.00

 eigenvalues of (default mixing * dielectric matrix)
  average eigenvalue GAMMA=   1.0757
  1.0757

 Free energy of the ion-electron system (eV)
  ---------------------------------------------------
  alpha Z        PSCENC =       751.52672365
  Ewald energy   TEWEN  =    -22871.33979096
  -Hartree energ DENC   =     -9061.78382012
  -exchange      EXHF   =         0.00000000
  -V(xc)+E(xc)   XCENC  =      1465.43094076
  PAW double counting   =     27291.26964053   -30103.26362177
  entropy T*S    EENTRO =        -0.00000000
  eigenvalues    EBANDS =     -5228.15836657
  atomic energy  EATOM  =     37532.17946992
  Solvation  Ediel_sol  =         0.00000000
  ---------------------------------------------------
  free energy    TOTEN  =      -224.13882455 eV

  energy without entropy =     -224.13882455  energy(sigma->0) =     -224.13882455


--------------------------------------------------------------------------------------------------------




--------------------------------------- Iteration      1(   7)  ---------------------------------------


    POTLOK:  cpu time      0.0365: real time      0.0368
    SETDIJ:  cpu time      0.0300: real time      0.0301
     EDDAV:  cpu time     12.8123: real time     12.8796
       DOS:  cpu time      0.0005: real time      0.0005
    CHARGE:  cpu time      0.3366: real time      0.3382
    MIXING:  cpu time      0.0014: real time      0.0014
    --------------------------------------------
      LOOP:  cpu time     13.2173: real time     13.2866

 eigenvalue-minimisations  :  6336
 total energy-change (2. order) : 0.3614616E+00  (-0.2069869E+00)
 number of electron     448.0000022 magnetization 
 augmentation part      112.8274445 magnetization 

 Broyden mixing:
  rms(total) = 0.53312E+00    rms(broyden)= 0.53309E+00
  rms(prec ) = 0.56309E+00
  weight for this iteration     100.00

 eigenvalues of (default mixing * dielectric matrix)
  average eigenvalue GAMMA=   2.1552
  1.4396  2.8708

 Free energy of the ion-electron system (eV)
  ---------------------------------------------------
  alpha Z        PSCENC =       751.52672365
  Ewald energy   TEWEN  =    -22871.33979096
  -Hartree energ DENC   =     -9085.84903168
  -exchange      EXHF   =         0.00000000
  -V(xc)+E(xc)   XCENC  =      1470.12778014
  PAW double counting   =     28330.14673617   -31142.87466939
  entropy T*S    EENTRO =        -0.00000000
  eigenvalues    EBANDS =     -5207.69458081
  atomic energy  EATOM  =     37532.17946992
  Solvation  Ediel_sol  =         0.00000000
  ---------------------------------------------------
  free energy    TOTEN  =      -223.77736296 eV

  energy without entropy =     -223.77736296  energy(sigma->0) =     -223.77736296


--------------------------------------------------------------------------------------------------------




--------------------------------------- Iteration      1(   8)  ---------------------------------------


    POTLOK:  cpu time      0.0371: real time      0.0409
    SETDIJ:  cpu time      0.0300: real time      0.0302
     EDDAV:  cpu time     11.0875: real time     11.1467
       DOS:  cpu time      0.0006: real time      0.0006
    CHARGE:  cpu time      0.3408: real time      0.3424
    MIXING:  cpu time      0.0013: real time      0.0013
    --------------------------------------------
      LOOP:  cpu time     11.4974: real time     11.5621

 eigenvalue-minimisations  :  5312
 total energy-change (2. order) :-0.1252817E+00  (-0.2666413E-01)
 number of electron     448.0000022 magnetization 
 augmentation part      112.8092998 magnetization 

 Broyden mixing:
  rms(total) = 0.14184E+00    rms(broyden)= 0.14183E+00
  rms(prec ) = 0.14474E+00
  weight for this iteration     100.00

 eigenvalues of (default mixing * dielectric matrix)
  average eigenvalue GAMMA=   1.5563
  2.5210  1.3854  0.7626

 Free energy of the ion-electron system (eV)
  ---------------------------------------------------
  alpha Z        PSCENC =       751.52672365
  Ewald energy   TEWEN  =    -22871.33979096
  -Hartree energ DENC   =     -9075.19494288
  -exchange      EXHF   =         0.00000000
  -V(xc)+E(xc)   XCENC  =      1472.33734636
  PAW double counting   =     29809.32698160   -32629.17272715
  entropy T*S    EENTRO =        -0.00000000
  eigenvalues    EBANDS =     -5213.56570522
  atomic energy  EATOM  =     37532.17946992
  Solvation  Ediel_sol  =         0.00000000
  ---------------------------------------------------
  free energy    TOTEN  =      -223.90264468 eV

  energy without entropy =     -223.90264468  energy(sigma->0) =     -223.90264468


--------------------------------------------------------------------------------------------------------




--------------------------------------- Iteration      1(   9)  ---------------------------------------


    POTLOK:  cpu time      0.0368: real time      0.0373
    SETDIJ:  cpu time      0.0299: real time      0.0300
     EDDAV:  cpu time     11.6836: real time     11.7451
       DOS:  cpu time      0.0006: real time      0.0006
    CHARGE:  cpu time      0.3374: real time      0.3393
    MIXING:  cpu time      0.0013: real time      0.0013
    --------------------------------------------
      LOOP:  cpu time     12.0896: real time     12.1535

 eigenvalue-minimisations  :  5664
 total energy-change (2. order) : 0.5587879E-02  (-0.1141430E-02)
 number of electron     448.0000022 magnetization 
 augmentation part      112.8315194 magnetization 

 Broyden mixing:
  rms(total) = 0.59738E-01    rms(broyden)= 0.59737E-01
  rms(prec ) = 0.61809E-01
  weight for this iteration     100.00

 eigenvalues of (default mixing * dielectric matrix)
  average eigenvalue GAMMA=   2.0041
  2.8297  2.7946  0.9991  1.3929

 Free energy of the ion-electron system (eV)
  ---------------------------------------------------
  alpha Z        PSCENC =       751.52672365
  Ewald energy   TEWEN  =    -22871.33979096
  -Hartree energ DENC   =     -9077.95082047
  -exchange      EXHF   =         0.00000000
  -V(xc)+E(xc)   XCENC  =      1472.35648763
  PAW double counting   =     29629.14445506   -32448.14114122
  entropy T*S    EENTRO =        -0.00000000
  eigenvalues    EBANDS =     -5211.67244042
  atomic energy  EATOM  =     37532.17946992
  Solvation  Ediel_sol  =         0.00000000
  ---------------------------------------------------
  free energy    TOTEN  =      -223.89705680 eV

  energy without entropy =     -223.89705680  energy(sigma->0) =     -223.89705680


--------------------------------------------------------------------------------------------------------




--------------------------------------- Iteration      1(  10)  ---------------------------------------


    POTLOK:  cpu time      0.0367: real time      0.0387
    SETDIJ:  cpu time      0.0301: real time      0.0302
     EDDAV:  cpu time     11.1569: real time     11.2156
       DOS:  cpu time      0.0006: real time      0.0006
    CHARGE:  cpu time      0.3379: real time      0.3397
    MIXING:  cpu time      0.0021: real time      0.0021
    --------------------------------------------
      LOOP:  cpu time     11.5643: real time     11.6269

 eigenvalue-minimisations  :  5344
 total energy-change (2. order) :-0.4319877E-02  (-0.1828098E-02)
 number of electron     448.0000022 magnetization 
 augmentation part      112.8608109 magnetization 

 Broyden mixing:
  rms(total) = 0.28502E-01    rms(broyden)= 0.28500E-01
  rms(prec ) = 0.30558E-01
  weight for this iteration     100.00

 eigenvalues of (default mixing * dielectric matrix)
  average eigenvalue GAMMA=   1.7106
  2.9404  2.5104  1.2956  1.0213  0.7854

 Free energy of the ion-electron system (eV)
  ---------------------------------------------------
  alpha Z        PSCENC =       751.52672365
  Ewald energy   TEWEN  =    -22871.33979096
  -Hartree energ DENC   =     -9079.43977539
  -exchange      EXHF   =         0.00000000
  -V(xc)+E(xc)   XCENC  =      1472.60643486
  PAW double counting   =     29456.19296722   -32275.42610295
  entropy T*S    EENTRO =        -0.00000000
  eigenvalues    EBANDS =     -5210.20130303
  atomic energy  EATOM  =     37532.17946992
  Solvation  Ediel_sol  =         0.00000000
  ---------------------------------------------------
  free energy    TOTEN  =      -223.90137668 eV

  energy without entropy =     -223.90137668  energy(sigma->0) =     -223.90137668


--------------------------------------------------------------------------------------------------------




--------------------------------------- Iteration      1(  11)  ---------------------------------------


    POTLOK:  cpu time      0.0363: real time      0.0373
    SETDIJ:  cpu time      0.0298: real time      0.0300
     EDDAV:  cpu time     12.2092: real time     12.2733
       DOS:  cpu time      0.0005: real time      0.0005
    CHARGE:  cpu time      0.3365: real time      0.3382
    MIXING:  cpu time      0.0013: real time      0.0013
    --------------------------------------------
      LOOP:  cpu time     12.6136: real time     12.6805

 eigenvalue-minimisations  :  5984
 total energy-change (2. order) : 0.7208329E-03  (-0.1576329E-03)
 number of electron     448.0000022 magnetization 
 augmentation part      112.8516092 magnetization 

 Broyden mixing:
  rms(total) = 0.86978E-02    rms(broyden)= 0.86977E-02
  rms(prec ) = 0.91319E-02
  weight for this iteration     100.00

 eigenvalues of (default mixing * dielectric matrix)
  average eigenvalue GAMMA=   1.5697
  2.9143  2.4397  1.3191  1.0117  0.8667  0.8667

 Free energy of the ion-electron system (eV)
  ---------------------------------------------------
  alpha Z        PSCENC =       751.52672365
  Ewald energy   TEWEN  =    -22871.33979096
  -Hartree energ DENC   =     -9078.34305600
  -exchange      EXHF   =         0.00000000
  -V(xc)+E(xc)   XCENC  =      1472.52985362
  PAW double counting   =     29487.27785262   -32306.65385297
  entropy T*S    EENTRO =        -0.00000000
  eigenvalues    EBANDS =     -5211.07785574
  atomic energy  EATOM  =     37532.17946992
  Solvation  Ediel_sol  =         0.00000000
  ---------------------------------------------------
  free energy    TOTEN  =      -223.90065584 eV

  energy without entropy =     -223.90065584  energy(sigma->0) =     -223.90065584


--------------------------------------------------------------------------------------------------------




--------------------------------------- Iteration      1(  12)  ---------------------------------------


    POTLOK:  cpu time      0.0355: real time      0.0358
    SETDIJ:  cpu time      0.0298: real time      0.0300
     EDDAV:  cpu time     12.1110: real time     12.1759
       DOS:  cpu time      0.0006: real time      0.0006
    CHARGE:  cpu time      0.3340: real time      0.3360
    MIXING:  cpu time      0.0014: real time      0.0014
    --------------------------------------------
      LOOP:  cpu time     12.5123: real time     12.5796

 eigenvalue-minimisations  :  5920
 total energy-change (2. order) : 0.3978093E-04  (-0.1546379E-04)
 number of electron     448.0000022 magnetization 
 augmentation part      112.8487979 magnetization 

 Broyden mixing:
  rms(total) = 0.13419E-02    rms(broyden)= 0.13410E-02
  rms(prec ) = 0.16065E-02
  weight for this iteration     100.00

 eigenvalues of (default mixing * dielectric matrix)
  average eigenvalue GAMMA=   1.5938
  2.8884  2.4135  1.5805  1.1915  1.1915  1.0759  0.8153

 Free energy of the ion-electron system (eV)
  ---------------------------------------------------
  alpha Z        PSCENC =       751.52672365
  Ewald energy   TEWEN  =    -22871.33979096
  -Hartree energ DENC   =     -9078.17970482
  -exchange      EXHF   =         0.00000000
  -V(xc)+E(xc)   XCENC  =      1472.51815615
  PAW double counting   =     29498.80368410   -32318.17896626
  entropy T*S    EENTRO =        -0.00000000
  eigenvalues    EBANDS =     -5211.23018785
  atomic energy  EATOM  =     37532.17946992
  Solvation  Ediel_sol  =         0.00000000
  ---------------------------------------------------
  free energy    TOTEN  =      -223.90061606 eV

  energy without entropy =     -223.90061606  energy(sigma->0) =     -223.90061606


--------------------------------------------------------------------------------------------------------




--------------------------------------- Iteration      1(  13)  ---------------------------------------


    POTLOK:  cpu time      0.0364: real time      0.0401
    SETDIJ:  cpu time      0.0300: real time      0.0301
     EDDAV:  cpu time     11.6952: real time     11.7611
       DOS:  cpu time      0.0008: real time      0.0008
    CHARGE:  cpu time      0.3395: real time      0.3416
    MIXING:  cpu time      0.0014: real time      0.0015
    --------------------------------------------
      LOOP:  cpu time     12.1033: real time     12.1751

 eigenvalue-minimisations  :  5664
 total energy-change (2. order) :-0.1605615E-05  (-0.1960123E-05)
 number of electron     448.0000022 magnetization 
 augmentation part      112.8477717 magnetization 

 Broyden mixing:
  rms(total) = 0.35604E-03    rms(broyden)= 0.35542E-03
  rms(prec ) = 0.41985E-03
  weight for this iteration     100.00

 eigenvalues of (default mixing * dielectric matrix)
  average eigenvalue GAMMA=   1.6201
  2.9739  2.3458  2.3458  1.2572  0.9982  0.9982  1.0209  1.0209

 Free energy of the ion-electron system (eV)
  ---------------------------------------------------
  alpha Z        PSCENC =       751.52672365
  Ewald energy   TEWEN  =    -22871.33979096
  -Hartree energ DENC   =     -9078.11122587
  -exchange      EXHF   =         0.00000000
  -V(xc)+E(xc)   XCENC  =      1472.51079407
  PAW double counting   =     29498.72052215   -32318.09438607
  entropy T*S    EENTRO =        -0.00000000
  eigenvalues    EBANDS =     -5211.29272457
  atomic energy  EATOM  =     37532.17946992
  Solvation  Ediel_sol  =         0.00000000
  ---------------------------------------------------
  free energy    TOTEN  =      -223.90061767 eV

  energy without entropy =     -223.90061767  energy(sigma->0) =     -223.90061767


--------------------------------------------------------------------------------------------------------




--------------------------------------- Iteration      1(  14)  ---------------------------------------


    POTLOK:  cpu time      0.0361: real time      0.0363
    SETDIJ:  cpu time      0.0310: real time      0.0312
     EDDAV:  cpu time     11.5193: real time     11.5818
       DOS:  cpu time      0.0005: real time      0.0005
    CHARGE:  cpu time      0.3344: real time      0.3363
    MIXING:  cpu time      0.0015: real time      0.0015
    --------------------------------------------
      LOOP:  cpu time     11.9228: real time     11.9875

 eigenvalue-minimisations  :  5568
 total energy-change (2. order) :-0.9697542E-06  (-0.1879059E-06)
 number of electron     448.0000022 magnetization 
 augmentation part      112.8476632 magnetization 

 Broyden mixing:
  rms(total) = 0.91912E-03    rms(broyden)= 0.91906E-03
  rms(prec ) = 0.94307E-03
  weight for this iteration     100.00

 eigenvalues of (default mixing * dielectric matrix)
  average eigenvalue GAMMA=   1.6500
  3.0327  2.6073  2.6073  1.4040  1.2264  1.2264  0.9612  0.9612  0.8237

 Free energy of the ion-electron system (eV)
  ---------------------------------------------------
  alpha Z        PSCENC =       751.52672365
  Ewald energy   TEWEN  =    -22871.33979096
  -Hartree energ DENC   =     -9078.12072067
  -exchange      EXHF   =         0.00000000
  -V(xc)+E(xc)   XCENC  =      1472.51203775
  PAW double counting   =     29500.15085170   -32319.52072710
  entropy T*S    EENTRO =        -0.00000000
  eigenvalues    EBANDS =     -5211.28846294
  atomic energy  EATOM  =     37532.17946992
  Solvation  Ediel_sol  =         0.00000000
  ---------------------------------------------------
  free energy    TOTEN  =      -223.90061864 eV

  energy without entropy =     -223.90061864  energy(sigma->0) =     -223.90061864


--------------------------------------------------------------------------------------------------------




--------------------------------------- Iteration      1(  15)  ---------------------------------------


    POTLOK:  cpu time      0.0365: real time      0.0379
    SETDIJ:  cpu time      0.0302: real time      0.0303
     EDDAV:  cpu time     11.4084: real time     11.4683
       DOS:  cpu time      0.0007: real time      0.0007
    CHARGE:  cpu time      0.3365: real time      0.3384
    MIXING:  cpu time      0.0013: real time      0.0013
    --------------------------------------------
      LOOP:  cpu time     11.8135: real time     11.8768

 eigenvalue-minimisations  :  5504
 total energy-change (2. order) :-0.1392269E-05  (-0.4882187E-07)
 number of electron     448.0000022 magnetization 
 augmentation part      112.8477710 magnetization 

 Broyden mixing:
  rms(total) = 0.32595E-03    rms(broyden)= 0.32582E-03
  rms(prec ) = 0.33573E-03
  weight for this iteration     100.00

 eigenvalues of (default mixing * dielectric matrix)
  average eigenvalue GAMMA=   1.6127
  3.1093  2.7257  2.4411  1.4438  1.3106  1.3106  0.9713  0.9713  0.9648  0.8779

 Free energy of the ion-electron system (eV)
  ---------------------------------------------------
  alpha Z        PSCENC =       751.52672365
  Ewald energy   TEWEN  =    -22871.33979096
  -Hartree energ DENC   =     -9078.15066794
  -exchange      EXHF   =         0.00000000
  -V(xc)+E(xc)   XCENC  =      1472.51297189
  PAW double counting   =     29498.95889958   -32318.32433960
  entropy T*S    EENTRO =        -0.00000000
  eigenvalues    EBANDS =     -5211.26388658
  atomic energy  EATOM  =     37532.17946992
  Solvation  Ediel_sol  =         0.00000000
  ---------------------------------------------------
  free energy    TOTEN  =      -223.90062003 eV

  energy without entropy =     -223.90062003  energy(sigma->0) =     -223.90062003


--------------------------------------------------------------------------------------------------------




--------------------------------------- Iteration      1(  16)  ---------------------------------------


    POTLOK:  cpu time      0.0357: real time      0.0371
    SETDIJ:  cpu time      0.0304: real time      0.0305
     EDDAV:  cpu time     11.6922: real time     11.7531
       DOS:  cpu time      0.0006: real time      0.0006
    CHARGE:  cpu time      0.3368: real time      0.3386
    MIXING:  cpu time      0.0013: real time      0.0013
    --------------------------------------------
      LOOP:  cpu time     12.0969: real time     12.1612

 eigenvalue-minimisations  :  5664
 total energy-change (2. order) :-0.5205657E-06  (-0.1454136E-07)
 number of electron     448.0000022 magnetization 
 augmentation part      112.8478521 magnetization 

 Broyden mixing:
  rms(total) = 0.49151E-04    rms(broyden)= 0.48319E-04
  rms(prec ) = 0.55484E-04
  weight for this iteration     100.00

 eigenvalues of (default mixing * dielectric matrix)
  average eigenvalue GAMMA=   1.5799
  3.1294  2.7090  2.4402  1.3876  1.3876  1.3959  1.1426  1.1426  0.9422  0.8511
  0.8511

 Free energy of the ion-electron system (eV)
  ---------------------------------------------------
  alpha Z        PSCENC =       751.52672365
  Ewald energy   TEWEN  =    -22871.33979096
  -Hartree energ DENC   =     -9078.16000875
  -exchange      EXHF   =         0.00000000
  -V(xc)+E(xc)   XCENC  =      1472.51334734
  PAW double counting   =     29498.36179664   -32317.72664633
  entropy T*S    EENTRO =        -0.00000000
  eigenvalues    EBANDS =     -5211.25551207
  atomic energy  EATOM  =     37532.17946992
  Solvation  Ediel_sol  =         0.00000000
  ---------------------------------------------------
  free energy    TOTEN  =      -223.90062055 eV

  energy without entropy =     -223.90062055  energy(sigma->0) =     -223.90062055


--------------------------------------------------------------------------------------------------------




--------------------------------------- Iteration      1(  17)  ---------------------------------------


    POTLOK:  cpu time      0.0355: real time      0.0358
    SETDIJ:  cpu time      0.0301: real time      0.0302
     EDDAV:  cpu time      8.4888: real time      8.5328
       DOS:  cpu time      0.0004: real time      0.0004
    --------------------------------------------
      LOOP:  cpu time      8.5547: real time      8.5992

 eigenvalue-minimisations  :  3680
 total energy-change (2. order) : 0.7719791E-08  (-0.7178135E-09)
 number of electron     448.0000022 magnetization 
 augmentation part      112.8478521 magnetization 

 Free energy of the ion-electron system (eV)
  ---------------------------------------------------
  alpha Z        PSCENC =       751.52672365
  Ewald energy   TEWEN  =    -22871.33979096
  -Hartree energ DENC   =     -9078.16145869
  -exchange      EXHF   =         0.00000000
  -V(xc)+E(xc)   XCENC  =      1472.51340007
  PAW double counting   =     29498.28838944   -32317.65328327
  entropy T*S    EENTRO =        -0.00000000
  eigenvalues    EBANDS =     -5211.25407071
  atomic energy  EATOM  =     37532.17946992
  Solvation  Ediel_sol  =         0.00000000
  ---------------------------------------------------
  free energy    TOTEN  =      -223.90062054 eV

  energy without entropy =     -223.90062054  energy(sigma->0) =     -223.90062054


--------------------------------------------------------------------------------------------------------




 average (electrostatic) potential at core
  the test charge radii are     0.9254  0.9406
  (the norm of the test charge is              1.0000)
       1 -46.9726       2 -46.9582       3 -46.9554       4 -46.9497       5 -46.9261
       6 -46.9479       7 -46.9553       8 -46.9495       9 -46.9527      10 -46.9582
      11 -46.9509      12 -46.9497      13 -46.9464      14 -46.9479      15 -46.9508
      16 -46.9495      17 -46.9528      18 -46.9469      19 -46.9441      20 -46.9496
      21 -46.9464      22 -46.9455      23 -46.9440      24 -46.9496      25 -46.9506
      26 -46.9469      27 -46.9484      28 -46.9496      29 -46.9486      30 -46.9455
      31 -46.9484      32 -46.9496      33 -93.5910      34 -93.5878      35 -93.5957
      36 -93.6192      37 -93.5909      38 -93.5881      39 -93.5806      40 -93.5815
      41 -93.5910      42 -93.5882      43 -93.5957      44 -93.5905      45 -93.5909
      46 -93.5882      47 -93.5806      48 -93.5877      49 -93.5855      50 -93.5883
      51 -93.5897      52 -93.5726      53 -93.5855      54 -93.5882      55 -93.5868
      56 -93.5797      57 -93.5855      58 -93.5882      59 -93.5897      60 -93.5888
      61 -93.5855      62 -93.5882      63 -93.5868      64 -93.5857
 
 
 
 E-fermi :  -0.5495     XC(G=0):  -8.4227     alpha+bet : -8.2520

 Fermi energy:        -0.5495156523

 k-point     1 :       0.0000    0.0000    0.0000
  band No.  band energies     occupation 
      1     -21.3097      2.00000
      2     -21.3092      2.00000
      3     -21.3087      2.00000
      4     -21.3046      2.00000
      5     -21.3007      2.00000
      6     -21.3005      2.00000
      7     -21.3001      2.00000
      8     -21.2954      2.00000
      9     -21.2954      2.00000
     10     -21.2947      2.00000
     11     -21.2939      2.00000
     12     -21.2937      2.00000
     13     -21.2937      2.00000
     14     -21.2933      2.00000
     15     -21.2931      2.00000
     16     -21.2926      2.00000
     17     -21.2921      2.00000
     18     -21.2921      2.00000
     19     -21.2919      2.00000
     20     -21.2902      2.00000
     21     -21.2894      2.00000
     22     -21.2887      2.00000
     23     -21.2875      2.00000
     24     -21.2873      2.00000
     25     -21.2870      2.00000
     26     -21.2862      2.00000
     27     -21.2862      2.00000
     28     -21.2861      2.00000
     29     -21.2857      2.00000
     30     -21.2855      2.00000
     31     -21.2851      2.00000
     32     -21.2850      2.00000
     33     -21.2845      2.00000
     34     -21.2840      2.00000
     35     -21.2839      2.00000
     36     -21.2838      2.00000
     37     -21.2832      2.00000
     38     -21.2827      2.00000
     39     -21.2825      2.00000
     40     -21.2819      2.00000
     41     -21.2817      2.00000
     42     -21.2817      2.00000
     43     -21.2814      2.00000
     44     -21.2808      2.00000
     45     -21.2807      2.00000
     46     -21.2806      2.00000
     47     -21.2806      2.00000
     48     -21.2803      2.00000
     49     -21.2800      2.00000
     50     -21.2799      2.00000
     51     -21.2799      2.00000
     52     -21.2798      2.00000
     53     -21.2798      2.00000
     54     -21.2797      2.00000
     55     -21.2795      2.00000
     56     -21.2777      2.00000
     57     -21.2776      2.00000
     58     -21.2773      2.00000
     59     -21.2772      2.00000
     60     -21.2766      2.00000
     61     -21.2765      2.00000
     62     -21.2758      2.00000
     63     -21.2751      2.00000
     64     -21.2750      2.00000
     65     -21.2748      2.00000
     66     -21.2746      2.00000
     67     -21.2744      2.00000
     68     -21.2743      2.00000
     69     -21.2741      2.00000
     70     -21.2737      2.00000
     71     -21.2736      2.00000
     72     -21.2735      2.00000
     73     -21.2728      2.00000
     74     -21.2726      2.00000
     75     -21.2725      2.00000
     76     -21.2720      2.00000
     77     -21.2718      2.00000
     78     -21.2716      2.00000
     79     -21.2715      2.00000
     80     -21.2712      2.00000
     81     -21.2712      2.00000
     82     -21.2712      2.00000
     83     -21.2711      2.00000
     84     -21.2707      2.00000
     85     -21.2706      2.00000
     86     -21.2706      2.00000
     87     -21.2700      2.00000
     88     -21.2699      2.00000
     89     -21.2684      2.00000
     90     -21.2683      2.00000
     91     -21.2680      2.00000
     92     -21.2678      2.00000
     93     -21.2678      2.00000
     94     -21.2556      2.00000
     95     -21.2555      2.00000
     96     -21.2554      2.00000
     97     -13.3581      2.00000
     98     -13.1436      2.00000
     99     -13.1378      2.00000
    100     -13.1374      2.00000
    101     -13.1373      2.00000
    102     -13.1360      2.00000
    103     -13.1336      2.00000
    104     -13.0243      2.00000
    105     -13.0145      2.00000
    106     -13.0122      2.00000
    107     -13.0115      2.00000
    108     -13.0112      2.00000
    109     -13.0112      2.00000
    110     -13.0112      2.00000
    111     -13.0111      2.00000
    112     -13.0102      2.00000
    113     -13.0087      2.00000
    114     -13.0087      2.00000
    115     -13.0044      2.00000
    116     -12.9900      2.00000
    117     -12.9897      2.00000
    118     -12.9891      2.00000
    119     -12.9880      2.00000
    120     -12.9413      2.00000
    121     -12.9410      2.00000
    122     -12.9404      2.00000
    123     -12.9244      2.00000
    124     -12.9217      2.00000
    125     -12.9214      2.00000
    126     -12.9213      2.00000
    127     -12.9189      2.00000
    128     -12.9168      2.00000
    129      -2.7001      2.00000
    130      -2.7000      2.00000
    131      -2.7000      2.00000
    132      -2.6999      2.00000
    133      -2.4241      2.00000
    134      -2.4240      2.00000
    135      -2.4240      2.00000
    136      -2.2075      2.00000
    137      -2.2074      2.00000
    138      -2.2055      2.00000
    139      -2.2048      2.00000
    140      -2.2046      2.00000
    141      -2.2043      2.00000
    142      -2.2042      2.00000
    143      -2.2042      2.00000
    144      -2.2038      2.00000
    145      -2.2029      2.00000
    146      -2.2012      2.00000
    147      -2.2011      2.00000
    148      -1.9281      2.00000
    149      -1.9281      2.00000
    150      -1.9264      2.00000
    151      -1.9262      2.00000
    152      -1.9249      2.00000
    153      -1.9248      2.00000
    154      -1.9246      2.00000
    155      -1.9243      2.00000
    156      -1.9234      2.00000
    157      -1.9230      2.00000
    158      -1.9214      2.00000
    159      -1.9211      2.00000
    160      -1.7976      2.00000
    161      -1.7969      2.00000
    162      -1.7966      2.00000
    163      -1.7966      2.00000
    164      -1.7964      2.00000
    165      -1.7955      2.00000
    166      -1.5090      2.00000
    167      -1.5086      2.00000
    168      -1.5060      2.00000
    169      -1.5059      2.00000
    170      -1.5057      2.00000
    171      -1.5056      2.00000
    172      -1.5053      2.00000
    173      -1.5053      2.00000
    174      -1.5050      2.00000
    175      -1.5046      2.00000
    176      -1.5023      2.00000
    177      -1.5020      2.00000
    178      -1.4648      2.00000
    179      -1.4631      2.00000
    180      -1.4626      2.00000
    181      -1.4624      2.00000
    182      -1.4621      2.00000
    183      -1.4607      2.00000
    184      -1.2948      2.00000
    185      -1.2947      2.00000
    186      -1.2947      2.00000
    187      -1.2946      2.00000
    188      -1.2946      2.00000
    189      -1.2945      2.00000
    190      -1.0056      2.00000
    191      -1.0050      2.00000
    192      -1.0042      2.00000
    193      -1.0018      2.00000
    194      -1.0011      2.00000
    195      -1.0010      2.00000
    196      -1.0005      2.00000
    197      -1.0005      2.00000
    198      -0.9998      2.00000
    199      -0.9985      2.00000
    200      -0.9973      2.00000
    201      -0.9969      2.00000
    202      -0.9542      2.00000
    203      -0.9523      2.00000
    204      -0.9509      2.00000
    205      -0.9488      2.00000
    206      -0.9480      2.00000
    207      -0.9479      2.00000
    208      -0.9478      2.00000
    209      -0.9477      2.00000
    210      -0.9476      2.00000
    211      -0.9474      2.00000
    212      -0.9473      2.00000
    213      -0.9468      2.00000
    214      -0.9459      2.00000
[...]
         0         1         2         3         4         5         6         7         8         9
 total charge-density along one line
 
 pseudopotential strength for first ion, spin component:           1
-25.404  -0.000  -0.000   2.518   0.000   0.000   0.000   0.000
 -0.000 -25.405   0.000   0.000   2.518  -0.000   0.001   0.002
 -0.000   0.000 -25.404   0.000  -0.000   2.518  -0.000  -0.001
  2.518   0.000   0.000   6.525   0.000   0.000  -0.000   0.000
  0.000   2.518  -0.000   0.000   6.525   0.000  -0.000  -0.000
  0.000  -0.000   2.518   0.000   0.000   6.525   0.000   0.000
  0.000   0.001  -0.000  -0.000  -0.000   0.000   1.428   6.994
  0.000   0.002  -0.001   0.000  -0.000   0.000   6.994  33.992
 total augmentation occupancy for first ion, spin component:           1
  2.002   0.000   0.000   0.002   0.000   0.000   0.000   0.000
  0.000   2.002  -0.000   0.000   0.002  -0.000  -0.002   0.001
  0.000  -0.000   2.002   0.000  -0.000   0.002   0.001  -0.000
  0.002   0.000   0.000   0.017   0.000   0.000   0.000   0.000
  0.000   0.002  -0.000   0.000   0.017   0.000  -0.002   0.000
  0.000  -0.000   0.002   0.000   0.000   0.018   0.003  -0.000
  0.000  -0.002   0.001   0.000  -0.002   0.003   0.400  -0.001
  0.000   0.001  -0.000   0.000   0.000  -0.000  -0.001   0.000


------------------------ aborting loop because EDIFF is reached ----------------------------------------


    CHARGE:  cpu time      0.3350: real time      0.3369
    FORLOC:  cpu time      0.0114: real time      0.0114
    FORNL :  cpu time      2.2448: real time      2.2577
    STRESS:  cpu time     12.6676: real time     12.7295
    FORCOR:  cpu time      0.0438: real time      0.0440
    FORHAR:  cpu time      0.0172: real time      0.0172
    MIXING:  cpu time      0.0011: real time      0.0012
    OFIELD:  cpu time      0.0000: real time      0.0000

  FORCE on cell =-STRESS in cart. coord.  units (eV):
  Direction    XX          YY          ZZ          XY          YZ          ZX
  --------------------------------------------------------------------------------------
  Alpha Z   751.52672   751.52672   751.52672
  Ewald   -7623.77624 -7623.92689 -7623.77399     0.00000     0.00000     0.05985
  Hartree  3026.07581  3026.01801  3026.06958    -0.00000    -0.00000     0.03831
  E(xc)   -2014.34806 -2014.34812 -2014.34805    -0.00000     0.00000     0.00002
  Local   -2024.96196 -2024.75606 -2024.95564     0.00000    -0.00000    -0.09779
  n-local  1887.62622  1887.62056  1887.62594     0.00000     0.00000     0.00070
  augment   687.00908   687.00938   687.00898    -0.00000    -0.00010     0.00002
  Kinetic  5310.52697  5310.52505  5310.52491     0.00000     0.00000    -0.00056
  Fock        0.00000     0.00000     0.00000     0.00000     0.00000     0.00000
  -------------------------------------------------------------------------------------
  Total      -0.32146    -0.33135    -0.32155     0.00000     0.00000     0.00056
  in kB      -0.36620    -0.37747    -0.36630     0.00000     0.00000     0.00064
  external pressure =       -0.37 kB  Pullay stress =        0.00 kB


 VOLUME and BASIS-vectors are now :
 -----------------------------------------------------------------------------
  energy-cutoff  :      341.21
  volume of cell :     1406.43
      direct lattice vectors                 reciprocal lattice vectors
    11.204002360  0.000000000  0.000000000     0.089253819  0.000000000  0.000000000
     0.000000000 11.204002360  0.000000000     0.000000000  0.089253819  0.000000000
     0.000000000  0.000000000 11.204002360     0.000000000  0.000000000  0.089253819

  length of vectors
    11.204002360 11.204002360 11.204002360     0.089253819  0.089253819  0.089253819


 FORCES acting on ions
    electron-ion (+dipol)            ewald-force                    non-local-force                 convergence-correction
 -----------------------------------------------------------------------------------------------
   0.406E+01 0.386E-13 -.212E+01   -.400E+01 -.310E-13 0.200E+01   -.118E+00 0.306E-23 0.139E+00   0.147E-03 -.180E-12 -.499E-05
   -.761E-01 -.279E+00 -.654E-01   0.878E-01 0.320E+00 0.646E-01   -.896E-02 -.334E-01 0.522E-03   -.118E-04 -.269E-04 0.222E-05
   -.226E+00 0.324E-13 0.516E+00   0.232E+00 0.228E-13 -.440E+00   -.389E-02 -.142E-23 -.650E-01   0.595E-06 -.114E-12 -.251E-03
   0.300E+00 0.184E-01 0.964E+00   -.308E+00 -.179E-01 -.921E+00   0.651E-02 -.683E-03 -.375E-01   0.128E-03 0.200E-06 -.238E-03
   0.164E+00 0.452E-13 -.218E+01   -.163E+00 0.377E-13 0.206E+01   -.356E-03 -.154E-23 0.143E+00   0.117E-03 -.143E-12 -.119E-04
   -.175E+00 -.208E+00 -.620E-01   0.168E+00 0.200E+00 0.614E-01   0.616E-02 0.650E-02 0.390E-03   0.771E-05 0.943E-05 -.143E-05
   -.244E+00 0.319E-13 0.146E+00   0.248E+00 -.387E-14 -.198E+00   -.292E-02 0.148E-23 0.428E-01   -.603E-06 -.816E-13 0.252E-03
   0.300E+00 0.894E-03 -.302E+00   -.308E+00 -.102E-02 0.284E+00   0.645E-02 0.997E-04 0.154E-01   0.128E-03 -.963E-06 0.239E-03
   0.163E+00 0.763E-12 -.175E-01   -.163E+00 0.356E-14 0.185E-01   -.328E-03 -.471E-24 -.851E-03   0.123E-03 0.124E-12 0.294E-05
   -.761E-01 0.279E+00 -.654E-01   0.878E-01 -.320E+00 0.646E-01   -.896E-02 0.334E-01 0.522E-03   -.118E-04 0.269E-04 0.222E-05
   -.682E-02 0.837E-12 0.732E-01   0.669E-02 0.178E-14 -.702E-01   0.104E-03 -.642E-25 -.224E-02   -.523E-06 0.786E-13 -.220E-03
   0.300E+00 -.184E-01 0.964E+00   -.308E+00 0.179E-01 -.921E+00   0.651E-02 0.683E-03 -.375E-01   0.128E-03 -.200E-06 -.238E-03
   0.648E-01 0.770E-12 -.151E-01   -.674E-01 0.196E-13 0.162E-01   0.201E-02 -.443E-24 -.932E-03   0.123E-03 0.872E-13 -.211E-05
   -.175E+00 0.208E+00 -.620E-01   0.168E+00 -.200E+00 0.614E-01   0.616E-02 -.650E-02 0.390E-03   0.771E-05 -.943E-05 -.143E-05
   -.750E-02 0.567E-12 -.576E-01   0.736E-02 -.520E-17 0.543E-01   0.105E-03 0.468E-24 0.246E-02   0.205E-06 0.432E-13 0.220E-03
   0.300E+00 -.894E-03 -.302E+00   -.308E+00 0.102E-02 0.284E+00   0.645E-02 -.997E-04 0.154E-01   0.128E-03 0.963E-06 0.239E-03
   -.451E+00 0.417E-13 -.175E-01   0.516E+00 0.159E-13 0.185E-01   -.558E-01 0.635E-24 -.848E-03   -.150E-03 -.118E-12 0.294E-05
   -.412E+00 0.604E+00 -.654E-01   0.409E+00 -.629E+00 0.646E-01   0.299E-02 0.208E-01 0.494E-03   0.133E-04 0.314E-05 0.288E-05
   -.261E+00 0.386E-13 0.140E+01   0.266E+00 0.198E-13 -.139E+01   -.244E-02 -.211E-24 -.107E-01   -.454E-06 -.220E-12 -.226E-03
   -.166E+00 -.366E-03 0.112E+00   0.173E+00 0.379E-03 -.109E+00   -.552E-02 -.101E-04 -.268E-02   -.128E-03 -.773E-06 -.220E-03
   -.127E+00 0.356E-13 -.151E-01   0.128E+00 0.289E-13 0.162E-01   -.119E-02 0.111E-23 -.932E-03   -.120E-03 -.110E-12 -.218E-05
   0.159E+00 -.128E+00 -.621E-01   -.152E+00 0.122E+00 0.614E-01   -.603E-02 0.566E-02 0.414E-03   -.564E-05 0.538E-05 -.219E-05
   -.244E+00 0.522E-13 -.737E+00   0.249E+00 -.629E-14 0.751E+00   -.304E-02 -.403E-25 -.114E-01   0.155E-05 -.129E-12 0.221E-03
   -.166E+00 -.104E-02 -.965E-01   0.173E+00 0.105E-02 0.927E-01   -.549E-02 -.679E-05 0.291E-02   -.128E-03 -.255E-07 0.218E-03
   -.127E+00 0.730E-12 -.275E-02   0.128E+00 0.574E-17 0.273E-02   -.119E-02 -.783E-24 0.205E-04   -.121E-03 0.606E-13 0.249E-05
   -.412E+00 -.604E+00 -.654E-01   0.409E+00 0.629E+00 0.646E-01   0.299E-02 -.208E-01 0.494E-03   0.133E-04 -.314E-05 0.288E-05
   -.920E-02 0.239E-11 0.152E+00   0.917E-02 -.180E-14 -.148E+00   0.258E-04 -.186E-24 -.307E-02   0.133E-05 0.156E-12 -.224E-03
   -.166E+00 0.366E-03 0.112E+00   0.173E+00 -.379E-03 -.109E+00   -.552E-02 0.101E-04 -.268E-02   -.128E-03 0.773E-06 -.220E-03
   -.605E-01 0.853E-12 -.160E-02   0.630E-01 0.142E-13 0.163E-02   -.200E-02 0.530E-24 -.226E-04   -.122E-03 0.485E-13 -.134E-05
   0.159E+00 0.128E+00 -.621E-01   -.152E+00 -.122E+00 0.614E-01   -.603E-02 -.566E-02 0.414E-03   -.564E-05 -.538E-05 -.219E-05
   -.852E-02 0.663E-11 -.137E+00   0.849E-02 -.352E-14 0.133E+00   0.223E-04 -.696E-24 0.329E-02   -.461E-06 0.671E-13 0.223E-03
   -.166E+00 0.104E-02 -.965E-01   0.173E+00 -.105E-02 0.927E-01   -.549E-02 0.679E-05 0.291E-02   -.128E-03 0.255E-07 0.218E-03
   -.585E-01 -.156E+00 0.153E+00   0.588E-01 0.158E+00 -.147E+00   -.630E-03 -.339E-02 -.915E-02   -.516E-06 -.316E-05 -.192E-03
   0.877E+00 -.516E-13 0.403E+01   -.889E+00 0.214E-13 -.399E+01   0.165E-01 -.130E-22 -.121E+00   0.108E-03 -.191E-12 -.187E-03
   0.907E+00 0.493E+00 -.256E+00   -.918E+00 -.485E+00 0.250E+00   0.165E-01 -.138E-01 0.921E-02   0.108E-03 -.140E-05 0.235E-05
   -.157E+01 -.793E-13 -.256E+00   0.159E+01 -.276E-13 0.250E+00   -.601E-02 -.144E-23 0.924E-02   0.920E-06 -.102E-12 0.260E-05
   -.619E-01 -.159E+00 -.172E-01   0.622E-01 0.161E+00 0.126E-01   -.540E-03 -.330E-02 0.718E-02   0.793E-06 -.240E-05 0.191E-03
   0.907E+00 -.920E-13 -.537E+00   -.918E+00 0.160E-14 0.531E+00   0.165E-01 -.863E-24 0.959E-02   0.103E-03 -.137E-12 0.191E-03
   0.108E+00 -.486E+00 -.252E+00   -.109E+00 0.478E+00 0.247E+00   0.151E-02 0.141E-01 0.930E-02   0.103E-03 0.274E-05 -.294E-05
   -.503E+00 -.792E-13 -.252E+00   0.495E+00 -.178E-13 0.247E+00   0.145E-01 0.420E-24 0.930E-02   0.234E-05 -.103E-12 -.333E-05
   -.585E-01 0.156E+00 0.153E+00   0.588E-01 -.158E+00 -.147E+00   -.630E-03 0.339E-02 -.915E-02   -.516E-06 0.316E-05 -.192E-03
   0.108E+00 -.175E-14 0.166E+00   -.109E+00 -.708E-14 -.164E+00   0.151E-02 0.157E-23 -.385E-02   0.102E-03 0.128E-12 -.189E-03
   0.907E+00 -.493E+00 -.256E+00   -.918E+00 0.485E+00 0.250E+00   0.165E-01 0.138E-01 0.921E-02   0.108E-03 0.140E-05 0.235E-05
   0.235E-01 0.101E-13 -.871E-02   -.229E-01 -.622E-14 0.877E-02   -.977E-03 -.278E-24 -.897E-04   -.495E-05 0.477E-13 0.234E-05
   -.619E-01 0.159E+00 -.172E-01   0.622E-01 -.161E+00 0.126E-01   -.540E-03 0.330E-02 0.718E-02   0.793E-06 0.240E-05 0.191E-03
   0.108E+00 -.105E-12 -.132E+00   -.109E+00 0.222E-13 0.129E+00   0.151E-02 0.730E-26 0.489E-02   0.102E-03 0.751E-13 0.188E-03
   0.108E+00 0.486E+00 -.252E+00   -.109E+00 -.478E+00 0.247E+00   0.151E-02 -.141E-01 0.930E-02   0.103E-03 -.274E-05 -.294E-05
   -.417E-01 0.272E-13 -.701E-02   0.408E-01 -.711E-14 0.709E-02   0.147E-02 -.240E-24 -.127E-03   0.195E-05 0.460E-13 -.221E-05
   -.669E-01 0.160E+00 0.469E+00   0.672E-01 -.162E+00 -.467E+00   -.539E-03 0.320E-02 -.259E-02   0.110E-06 0.278E-05 -.186E-03
   -.277E+00 -.827E-13 0.164E+00   0.281E+00 0.750E-14 -.162E+00   -.710E-02 -.986E-24 -.389E-02   -.108E-03 -.138E-12 -.190E-03
   -.277E+00 0.384E-01 -.872E-02   0.281E+00 -.375E-01 0.877E-02   -.709E-02 -.145E-02 -.866E-04   -.109E-03 -.498E-05 0.194E-05
   -.246E+01 -.888E-13 -.256E+00   0.247E+01 -.546E-13 0.250E+00   0.163E-01 0.214E-24 0.919E-02   0.152E-05 -.189E-12 0.199E-05
   -.635E-01 0.156E+00 -.333E+00   0.639E-01 -.158E+00 0.332E+00   -.601E-03 0.326E-02 0.631E-03   -.103E-05 0.211E-05 0.184E-03
   -.277E+00 -.817E-13 -.130E+00   0.281E+00 -.290E-15 0.127E+00   -.710E-02 0.256E-23 0.494E-02   -.107E-03 -.728E-13 0.189E-03
   -.924E-01 -.403E-01 -.701E-02   0.935E-01 0.395E-01 0.709E-02   -.166E-02 0.144E-02 -.126E-03   -.101E-03 0.336E-05 -.873E-06
   0.468E+00 -.893E-13 -.252E+00   -.460E+00 -.115E-13 0.247E+00   -.137E-01 -.378E-24 0.931E-02   -.544E-05 -.142E-12 0.111E-06
   -.669E-01 -.160E+00 0.469E+00   0.672E-01 0.162E+00 -.467E+00   -.539E-03 -.320E-02 -.259E-02   0.110E-06 -.278E-05 -.186E-03
   -.924E-01 0.618E-12 0.681E-01   0.935E-01 -.708E-14 -.671E-01   -.166E-02 0.532E-24 -.129E-02   -.102E-03 0.918E-13 -.179E-03
   -.277E+00 -.384E-01 -.872E-02   0.281E+00 0.375E-01 0.877E-02   -.709E-02 0.145E-02 -.866E-04   -.109E-03 0.498E-05 0.194E-05
   -.587E-01 0.107E-10 -.872E-02   0.576E-01 -.364E-13 0.877E-02   0.180E-02 -.115E-23 -.882E-04   0.190E-05 0.138E-12 0.142E-05
   -.635E-01 -.156E+00 -.333E+00   0.639E-01 0.158E+00 0.332E+00   -.601E-03 -.326E-02 0.631E-03   -.103E-05 -.211E-05 0.184E-03
   -.924E-01 0.145E-11 -.637E-01   0.935E-01 0.178E-13 0.628E-01   -.165E-02 0.484E-25 0.131E-02   -.103E-03 0.261E-13 0.180E-03
   -.924E-01 0.403E-01 -.701E-02   0.935E-01 -.395E-01 0.709E-02   -.166E-02 -.144E-02 -.126E-03   -.101E-03 -.336E-05 -.873E-06
   0.373E-01 0.342E-11 -.701E-02   -.365E-01 -.713E-14 0.709E-02   -.145E-02 -.599E-26 -.123E-03   -.429E-05 0.913E-13 -.146E-05
 -----------------------------------------------------------------------------------------------
   0.152E+00 -.382E-11 -.150E+00   0.220E-12 -.111E-13 0.661E-13   -.152E+00 -.412E-17 0.150E+00   -.616E-05 -.131E-12 -.160E-04
 
 
 POSITION                                       TOTAL-FORCE (eV/Angst)
 -----------------------------------------------------------------------------------
      0.03000      0.00000      0.00000        -0.063040      0.000000      0.016175
      2.80100      2.80100      0.00000         0.002806      0.007224     -0.000238
      2.80100      0.00000      2.80100         0.001457      0.000000      0.010959
      0.00000      2.80100      2.80100        -0.001677     -0.000111      0.004987
      0.00000      0.00000      5.60200        -0.000047      0.000000      0.020276
      2.80100      2.80100      5.60200        -0.001332     -0.001376     -0.000211
      2.80100      0.00000      8.40300         0.001512      0.000000     -0.008765
      0.00000      2.80100      8.40300        -0.001663     -0.000022     -0.002811
      0.00000      5.60200      0.00000        -0.000053      0.000000      0.000152
      2.80100      8.40300      0.00000         0.002806     -0.007224     -0.000238
      2.80100      5.60200      2.80100        -0.000035      0.000000      0.000526
      0.00000      8.40300      2.80100        -0.001677      0.000111      0.004987
      0.00000      5.60200      5.60200        -0.000452      0.000000      0.000168
      2.80100      8.40300      5.60200        -0.001332      0.001376     -0.000211
      2.80100      5.60200      8.40300        -0.000036      0.000000     -0.000588
      0.00000      8.40300      8.40300        -0.001663      0.000022     -0.002811
      5.60200      0.00000      0.00000         0.008924      0.000000      0.000158
      8.40300      2.80100      0.00000         0.000220     -0.004519     -0.000232
      8.40300      0.00000      2.80100         0.001635      0.000000     -0.000818
      5.60200      2.80100      2.80100         0.001167      0.000002      0.000607
      5.60200      0.00000      5.60200         0.000308      0.000000      0.000168
      8.40300      2.80100      5.60200         0.001277     -0.001225     -0.000215
      8.40300      0.00000      8.40300         0.001512      0.000000      0.002978
      5.60200      2.80100      8.40300         0.001163      0.000001     -0.000669
      5.60200      5.60200      0.00000         0.000308      0.000000     -0.000004
      8.40300      8.40300      0.00000         0.000220      0.004519     -0.000232
      8.40300      5.60200      2.80100        -0.000019      0.000000      0.000677
      5.60200      8.40300      2.80100         0.001167     -0.000002      0.000607
      5.60200      5.60200      5.60200         0.000440      0.000000      0.000006
      8.40300      8.40300      5.60200         0.001277      0.001225     -0.000215
      8.40300      5.60200      8.40300        -0.000018      0.000000     -0.000739
      5.60200      8.40300      8.40300         0.001163     -0.000001     -0.000669
      2.80100      2.80100      2.80100        -0.000257     -0.001348     -0.003630
      0.00000      0.00000      2.83100         0.005160      0.000000     -0.076130
      0.00000      2.80100      0.00000         0.005008     -0.005859      0.003861
      2.80100      0.00000      0.00000         0.014479      0.000000      0.003886
      2.80100      2.80100      8.40300        -0.000213     -0.001303      0.002833
      0.00000      0.00000      8.40300         0.005003      0.000000      0.003947
      0.00000      2.80100      5.60200         0.000590      0.005893      0.003918
      2.80100      0.00000      5.60200         0.006056      0.000000      0.003916
      2.80100      8.40300      2.80100        -0.000257      0.001348     -0.003630
      0.00000      5.60200      2.80100         0.000593      0.000000     -0.001520
      0.00000      8.40300      0.00000         0.005008      0.005859      0.003861
      2.80100      5.60200      0.00000        -0.000396      0.000000     -0.000033
      2.80100      8.40300      8.40300        -0.000213      0.001303      0.002833
      0.00000      5.60200      8.40300         0.000591      0.000000      0.001929
      0.00000      8.40300      5.60200         0.000590     -0.005893      0.003918
      2.80100      5.60200      5.60200         0.000572      0.000000     -0.000054
      8.40300      2.80100      2.80100        -0.000218      0.001263     -0.001031
      5.60200      0.00000      2.80100        -0.002832      0.000000     -0.001544
      5.60200      2.80100      0.00000        -0.002829     -0.000582     -0.000038
      8.40300      0.00000      0.00000         0.021896      0.000000      0.003837
      8.40300      2.80100      8.40300        -0.000247      0.001287      0.000242
      5.60200      0.00000      8.40300        -0.002827      0.000000      0.001953
      5.60200      2.80100      5.60200        -0.000663      0.000573     -0.000051
      8.40300      0.00000      5.60200        -0.005742      0.000000      0.003919
      8.40300      8.40300      2.80100        -0.000218     -0.001263     -0.001031
      5.60200      5.60200      2.80100        -0.000667      0.000000     -0.000499
      5.60200      8.40300      0.00000        -0.002829      0.000582     -0.000038
      8.40300      5.60200      0.00000         0.000707      0.000000     -0.000039
      8.40300      8.40300      8.40300        -0.000247     -0.001287      0.000242
      5.60200      5.60200      8.40300        -0.000665      0.000000      0.000509
      5.60200      8.40300      5.60200        -0.000663     -0.000573     -0.000051
      8.40300      5.60200      5.60200        -0.000589      0.000000     -0.000050
 -----------------------------------------------------------------------------------
    total drift:                                0.000559     -0.000000      0.000191


--------------------------------------------------------------------------------------------------------



  FREE ENERGIE OF THE ION-ELECTRON SYSTEM (eV)
  ---------------------------------------------------
  free  energy   TOTEN  =      -223.90062054 eV

  energy  without entropy=     -223.90062054  energy(sigma->0) =     -223.90062054
 


--------------------------------------------------------------------------------------------------------


    POTLOK:  cpu time      0.0685: real time      0.0688


--------------------------------------------------------------------------------------------------------


     LOOP+:  cpu time    213.5559: real time    214.7090
    4ORBIT:  cpu time      0.0000: real time      0.0000

 total amount of memory used by VASP MPI-rank0   129658. kBytes
=======================================================================

   base      :      30000. kBytes
   nonl-proj :      41680. kBytes
   fftplans  :      14405. kBytes
   grid      :      19342. kBytes
   one-center:        196. kBytes
   wavefun   :      24035. kBytes
 
  
  
 General timing and accounting informations for this job:
 ========================================================
  
                  Total CPU time used (sec):      217.929
                            User time (sec):      217.418
                          System time (sec):        0.511
                         Elapsed time (sec):      219.514
  
                   Maximum memory used (kb):      316084.
                   Average memory used (kb):          N/A
  
                          Minor page faults:       103444
                          Major page faults:            0
                 Voluntary context switches:          901
