<?xml version="1.0" encoding="ISO-8859-1"?>
<modeling>
 <generator>
  <i name="program" type="string">vasp </i>
  <i name="version" type="string">6.3.2  </i>
  <i name="subversion" type="string">27Jun22 (build Oct 14 2022 12:13:54) complex                          parallel </i>
  <i name="platform" type="string">LinuxIFC </i>
  <i name="date" type="string">2025 08 28 </i>
  <i name="time" type="string">22:04:13 </i>
 </generator>
 <incar>
  <i type="string" name="PREC">Accurate</i>
  <i type="int" name="IALGO">    38</i>
  <i type="logical" name="ADDGRID"> T  </i>
  <i type="int" name="NELMIN">     5</i>
  <i type="int" name="IBRION">    -1</i>
  <i name="EDIFF">      0.00000001</i>
  <i name="ENCUT">    341.21360000</i>
  <i type="logical" name="LREAL"> F  </i>
  <i type="int" name="ISMEAR">     0</i>
  <i name="SIGMA">      0.02000000</i>
  <i type="logical" name="LWAVE"> F  </i>
  <i type="logical" name="LCHARG"> F  </i>
  <i type="string" name="GGA">PS</i>
 </incar>
 <primitive_cell>
  <structure name="primitive_cell" >
   <crystal>
    <varray name="basis" >
     <v>      11.20400236       0.00000000       0.00000000 </v>
     <v>       0.00000000      11.20400236       0.00000000 </v>
     <v>       0.00000000       0.00000000      11.20400236 </v>
    </varray>
    <i name="volume">   1406.43470641 </i>
    <varray name="rec_basis" >
     <v>       0.08925382       0.00000000       0.00000000 </v>
     <v>       0.00000000       0.08925382       0.00000000 </v>
     <v>       0.00000000       0.00000000       0.08925382 </v>
    </varray>
   </crystal>
   <varray name="positions" >
    <v>       0.00267761       0.00000000       0.00000000 </v>
    <v>       0.25000000       0.25000000       0.00000000 </v>
    <v>       0.25000000       0.00000000       0.25000000 </v>
    <v>       0.00000000       0.25000000       0.25000000 </v>
    <v>       0.00000000       0.00000000       0.50000000 </v>
    <v>       0.25000000       0.25000000       0.50000000 </v>
    <v>       0.25000000       0.00000000       0.75000000 </v>
    <v>       0.00000000       0.25000000       0.75000000 </v>
    <v>       0.00000000       0.50000000       0.00000000 </v>
    <v>       0.25000000       0.75000000       0.00000000 </v>
    <v>       0.25000000       0.50000000       0.25000000 </v>
    <v>       0.00000000       0.75000000       0.25000000 </v>
    <v>       0.00000000       0.50000000       0.50000000 </v>
    <v>       0.25000000       0.75000000       0.50000000 </v>
    <v>       0.25000000       0.50000000       0.75000000 </v>
    <v>       0.00000000       0.75000000       0.75000000 </v>
    <v>       0.50000000       0.00000000       0.00000000 </v>
    <v>       0.75000000       0.25000000       0.00000000 </v>
    <v>       0.75000000       0.00000000       0.25000000 </v>
    <v>       0.50000000       0.25000000       0.25000000 </v>
    <v>       0.50000000       0.00000000       0.50000000 </v>
    <v>       0.75000000       0.25000000       0.50000000 </v>
    <v>       0.75000000       0.00000000       0.75000000 </v>
    <v>       0.50000000       0.25000000       0.75000000 </v>
    <v>       0.50000000       0.50000000       0.00000000 </v>
    <v>       0.75000000       0.75000000       0.00000000 </v>
    <v>       0.75000000       0.50000000       0.25000000 </v>
    <v>       0.50000000       0.75000000       0.25000000 </v>
    <v>       0.50000000       0.50000000       0.50000000 </v>
    <v>       0.75000000       0.75000000       0.50000000 </v>
    <v>       0.75000000       0.50000000       0.75000000 </v>
    <v>       0.50000000       0.75000000       0.75000000 </v>
    <v>       0.25000000       0.25000000       0.25000000 </v>
    <v>       0.00000000       0.00000000       0.25267761 </v>
    <v>       0.00000000       0.25000000       0.00000000 </v>
    <v>       0.25000000       0.00000000       0.00000000 </v>
    <v>       0.25000000       0.25000000       0.75000000 </v>
    <v>       0.00000000       0.00000000       0.75000000 </v>
    <v>       0.00000000       0.25000000       0.50000000 </v>
    <v>       0.25000000       0.00000000       0.50000000 </v>
    <v>       0.25000000       0.75000000       0.25000000 </v>
    <v>       0.00000000       0.50000000       0.25000000 </v>
    <v>       0.00000000       0.75000000       0.00000000 </v>
    <v>       0.25000000       0.50000000       0.00000000 </v>
    <v>       0.25000000       0.75000000       0.75000000 </v>
    <v>       0.00000000       0.50000000       0.75000000 </v>
    <v>       0.00000000       0.75000000       0.50000000 </v>
    <v>       0.25000000       0.50000000       0.50000000 </v>
    <v>       0.75000000       0.25000000       0.25000000 </v>
    <v>       0.50000000       0.00000000       0.25000000 </v>
    <v>       0.50000000       0.25000000       0.00000000 </v>
    <v>       0.75000000       0.00000000       0.00000000 </v>
    <v>       0.75000000       0.25000000       0.75000000 </v>
    <v>       0.50000000       0.00000000       0.75000000 </v>
    <v>       0.50000000       0.25000000       0.50000000 </v>
    <v>       0.75000000       0.00000000       0.50000000 </v>
    <v>       0.75000000       0.75000000       0.25000000 </v>
    <v>       0.50000000       0.50000000       0.25000000 </v>
    <v>       0.50000000       0.75000000       0.00000000 </v>
    <v>       0.75000000       0.50000000       0.00000000 </v>
    <v>       0.75000000       0.75000000       0.75000000 </v>
    <v>       0.50000000       0.50000000       0.75000000 </v>
    <v>       0.50000000       0.75000000       0.50000000 </v>
    <v>       0.75000000       0.50000000       0.50000000 </v>
   </varray>
  </structure>
  <varray name="primitive_index" >
   <v type="int" >        1 </v>
   <v type="int" >        2 </v>
   <v type="int" >        3 </v>
   <v type="int" >        4 </v>
   <v type="int" >        5 </v>
   <v type="int" >        6 </v>
   <v type="int" >        7 </v>
   <v type="int" >        8 </v>
   <v type="int" >        9 </v>
   <v type="int" >       10 </v>
   <v type="int" >       11 </v>
   <v type="int" >       12 </v>
   <v type="int" >       13 </v>
   <v type="int" >       14 </v>
   <v type="int" >       15 </v>
   <v type="int" >       16 </v>
   <v type="int" >       17 </v>
   <v type="int" >       18 </v>
   <v type="int" >       19 </v>
   <v type="int" >       20 </v>
   <v type="int" >       21 </v>
   <v type="int" >       22 </v>
   <v type="int" >       23 </v>
   <v type="int" >       24 </v>
   <v type="int" >       25 </v>
   <v type="int" >       26 </v>
   <v type="int" >       27 </v>
   <v type="int" >       28 </v>
   <v type="int" >       29 </v>
   <v type="int" >       30 </v>
   <v type="int" >       31 </v>
   <v type="int" >       32 </v>
   <v type="int" >       33 </v>
   <v type="int" >       34 </v>
   <v type="int" >       35 </v>
   <v type="int" >       36 </v>
   <v type="int" >       37 </v>
   <v type="int" >       38 </v>
   <v type="int" >       39 </v>
   <v type="int" >       40 </v>
   <v type="int" >       41 </v>
   <v type="int" >       42 </v>
   <v type="int" >       43 </v>
   <v type="int" >       44 </v>
   <v type="int" >       45 </v>
   <v type="int" >       46 </v>
   <v type="int" >       47 </v>
   <v type="int" >       48 </v>
   <v type="int" >       49 </v>
   <v type="int" >       50 </v>
   <v type="int" >       51 </v>
   <v type="int" >       52 </v>
   <v type="int" >       53 </v>
   <v type="int" >       54 </v>
   <v type="int" >       55 </v>
   <v type="int" >       56 </v>
   <v type="int" >       57 </v>
   <v type="int" >       58 </v>
   <v type="int" >       59 </v>
   <v type="int" >       60 </v>
   <v type="int" >       61 </v>
   <v type="int" >       62 </v>
   <v type="int" >       63 </v>
   <v type="int" >       64 </v>
  </varray>
 </primitive_cell>
 <kpoints>
  <generation param="Gamma">
   <v type="int" name="divisions">       2        2        2 </v>
   <v name="usershift">      0.00000000       0.00000000       0.00000000 </v>
   <v name="genvec1">      0.50000000       0.00000000       0.00000000 </v>
   <v name="genvec2">      0.00000000       0.50000000       0.00000000 </v>
   <v name="genvec3">      0.00000000       0.00000000       0.50000000 </v>
   <v name="shift">      0.00000000       0.00000000       0.00000000 </v>
  </generation>
  <varray name="kpointlist" >
   <v>       0.00000000       0.00000000       0.00000000 </v>
   <v>       0.50000000       0.00000000       0.00000000 </v>
   <v>       0.00000000       0.50000000       0.00000000 </v>
   <v>       0.00000000       0.00000000       0.50000000 </v>
   <v>       0.50000000       0.50000000       0.00000000 </v>
   <v>       0.00000000       0.50000000       0.50000000 </v>
   <v>       0.50000000       0.00000000       0.50000000 </v>
   <v>       0.50000000       0.50000000       0.50000000 </v>
  </varray>
  <varray name="weights" >
   <v>       0.12500000 </v>
   <v>       0.12500000 </v>
   <v>       0.12500000 </v>
   <v>       0.12500000 </v>
   <v>       0.12500000 </v>
   <v>       0.12500000 </v>
   <v>       0.12500000 </v>
   <v>       0.12500000 </v>
  </varray>
 </kpoints>
 <parameters>
  <separator name="general" >
   <i type="string" name="SYSTEM">unknown system</i>
   <i type="logical" name="LCOMPAT"> F  </i>
  </separator>
  <separator name="electronic" >
   <i type="string" name="PREC">accura</i>
   <i name="ENMAX">    341.21360000</i>
   <i name="ENAUG">    368.05600000</i>
   <i name="EDIFF">      0.00000001</i>
   <i type="int" name="IALGO">    38</i>
   <i type="int" name="IWAVPR">    10</i>
   <i type="int" name="NBANDS">   288</i>
   <i type="int" name="NBANDSLOW">    -1</i>
   <i type="int" name="NBANDSHIGH">    -1</i>
   <i name="NELECT">    448.00000000</i>
   <i type="int" name="TURBO">     0</i>
   <i type="int" name="IRESTART">     0</i>
   <i type="int" name="NREBOOT">     0</i>
   <i type="int" name="NMIN">     0</i>
   <i name="EREF">      0.00000000</i>
   <separator name="electronic smearing" >
    <i type="int" name="ISMEAR">     0</i>
    <i name="SIGMA">      0.02000000</i>
    <i name="KSPACING">      0.50000000</i>
    <i type="logical" name="KGAMMA"> T  </i>
    <i type="logical" name="KBLOWUP"> T  </i>
   </separator>
   <separator name="electronic projectors" >
    <i type="logical" name="LREAL"> F  </i>
    <v name="ROPT">      0.00000000      0.00000000</v>
    <i type="int" name="LMAXPAW">  -100</i>
    <i type="int" name="LMAXMIX">     2</i>
    <i type="logical" name="NLSPLINE"> F  </i>
   </separator>
   <separator name="electronic startup" >
    <i type="int" name="ISTART">     0</i>
    <i type="int" name="ICHARG">     2</i>
    <i type="int" name="INIWAV">     1</i>
   </separator>
   <separator name="electronic spin" >
    <i type="int" name="ISPIN">     1</i>
    <i type="logical" name="LNONCOLLINEAR"> F  </i>
    <v name="MAGMOM">      1.00000000      1.00000000      1.00000000      1.00000000      1.00000000      1.00000000      1.00000000      1.00000000      1.00000000      1.00000000      1.00000000      1.00000000      1.00000000      1.00000000      1.00000000      1.00000000      1.00000000      1.00000000      1.00000000      1.00000000
      1.00000000      1.00000000      1.00000000      1.00000000      1.00000000      1.00000000      1.00000000      1.00000000      1.00000000      1.00000000      1.00000000      1.00000000      1.00000000      1.00000000      1.00000000      1.00000000      1.00000000      1.00000000      1.00000000      1.00000000
      1.00000000      1.00000000      1.00000000      1.00000000      1.00000000      1.00000000      1.00000000      1.00000000      1.00000000      1.00000000      1.00000000      1.00000000      1.00000000      1.00000000      1.00000000      1.00000000      1.00000000      1.00000000      1.00000000      1.00000000
      1.00000000      1.00000000      1.00000000      1.00000000</v>
    <i name="NUPDOWN">     -1.00000000</i>
    <i type="logical" name="LSORBIT"> F  </i>
    <v name="SAXIS">      0.00000000      0.00000000      1.00000000</v>
    <i type="logical" name="LSPIRAL"> F  </i>
    <v name="QSPIRAL">      0.00000000      0.00000000      0.00000000</v>
    <i type="logical" name="LZEROZ"> F  </i>
   </separator>
   <separator name="electronic exchange-correlation" >
    <i type="logical" name="LASPH"> F  </i>
    <i type="logical" name="LMETAGGA"> F  </i>
   </separator>
   <separator name="electronic convergence" >
    <i type="int" name="NELM">    60</i>
    <i type="int" name="NELMDL">    -5</i>
    <i type="int" name="NELMIN">     5</i>
    <i name="ENINI">    341.21360000</i>
    <separator name="electronic convergence detail" >
     <i type="logical" name="LDIAG"> T  </i>
     <i type="logical" name="LSUBROT"> F  </i>
     <i name="WEIMIN">      0.00000000</i>
     <i name="EBREAK">      0.00000000</i>
     <i name="DEPER">      0.30000000</i>
     <i type="int" name="NRMM">     4</i>
     <i name="TIME">      0.40000000</i>
    </separator>
   </separator>
   <separator name="electronic mixer" >
    <i name="AMIX">      0.40000000</i>
    <i name="BMIX">      1.00000000</i>
    <i name="AMIN">      0.10000000</i>
    <i name="AMIX_MAG">      1.60000000</i>
    <i name="BMIX_MAG">      1.00000000</i>
    <separator name="electronic mixer details" >
     <i type="int" name="IMIX">     4</i>
     <i type="logical" name="MIXFIRST"> F  </i>
     <i type="int" name="MAXMIX">   -45</i>
     <i name="WC">    100.00000000</i>
     <i type="int" name="INIMIX">     1</i>
     <i type="int" name="MIXPRE">     1</i>
     <i type="int" name="MREMOVE">     5</i>
    </separator>
   </separator>
   <separator name="electronic dipolcorrection" >
    <i type="logical" name="LDIPOL"> F  </i>
    <i type="logical" name="LMONO"> F  </i>
    <i type="int" name="IDIPOL">     0</i>
    <i name="EPSILON">      1.00000000</i>
    <v name="DIPOL">   -100.00000000   -100.00000000   -100.00000000</v>
    <i name="EFIELD">      0.00000000</i>
   </separator>
  </separator>
  <separator name="grids" >
   <i type="int" name="NGX">    70</i>
   <i type="int" name="NGY">    70</i>
   <i type="int" name="NGZ">    70</i>
   <i type="int" name="NGXF">   140</i>
   <i type="int" name="NGYF">   140</i>
   <i type="int" name="NGZF">   140</i>
   <i type="logical" name="ADDGRID"> T  </i>
  </separator>
  <separator name="ionic" >
   <i type="int" name="NSW">     0</i>
   <i type="int" name="IBRION">    -1</i>
   <i type="int" name="MDALGO">     0</i>
   <i type="int" name="ISIF">     2</i>
   <i name="PSTRESS">      0.00000000</i>
   <i name="EDIFFG">      0.00000010</i>
   <i type="int" name="NFREE">     0</i>
   <i name="POTIM">      0.50000000</i>
   <i name="SMASS">     -3.00000000</i>
   <i name="SCALEE">      1.00000000</i>
  </separator>
  <separator name="ionic md" >
   <i name="TEBEG">      0.00010000</i>
   <i name="TEEND">      0.00010000</i>
   <i type="int" name="NBLOCK">     1</i>
   <i type="int" name="KBLOCK">     1</i>
   <i type="int" name="NPACO">   256</i>
   <i name="APACO">     10.00000000</i>
  </separator>
  <separator name="symmetry" >
   <i type="int" name="ISYM">     2</i>
   <i name="SYMPREC">      0.00001000</i>
  </separator>
  <separator name="dos" >
   <i type="int" name="LORBIT">     0</i>
   <v name="RWIGS">     -1.00000000     -1.00000000</v>
   <i type="int" name="NEDOS">   301</i>
   <i name="EMIN">     10.00000000</i>
   <i name="EMAX">    -10.00000000</i>
   <i name="EFERMI">      0.00000000</i>
  </separator>
  <separator name="writing" >
   <i type="int" name="NWRITE">     2</i>
   <i type="logical" name="LWAVE"> F  </i>
   <i type="logical" name="LDOWNSAMPLE"> F  </i>
   <i type="logical" name="LCHARG"> F  </i>
   <i type="logical" name="LPARD"> F  </i>
   <i type="logical" name="LVTOT"> F  </i>
   <i type="logical" name="LVHAR"> F  </i>
   <i type="logical" name="LELF"> F  </i>
   <i type="logical" name="LOPTICS"> F  </i>
   <v name="STM">      0.00000000      0.00000000      0.00000000      0.00000000      0.00000000      0.00000000      0.00000000</v>
  </separator>
  <separator name="performance" >
   <i type="int" name="NPAR">    32</i>
   <i type="int" name="NSIM">     4</i>
   <i type="int" name="NBLK">    -1</i>
   <i type="logical" name="LPLANE"> T  </i>
   <i type="logical" name="LSCALAPACK"> T  </i>
   <i type="logical" name="LSCAAWARE"> F  </i>
   <i type="logical" name="LSCALU"> F  </i>
   <i type="logical" name="LASYNC"> F  </i>
   <i type="logical" name="LORBITALREAL"> F  </i>
  </separator>
  <separator name="miscellaneous" >
   <i type="int" name="IDIOT">     3</i>
   <i type="int" name="PHON_NSTRUCT">    -1</i>
   <i type="logical" name="LMUSIC"> F  </i>
   <v name="POMASS">     22.99000000     35.45300000</v>
   <v name="DARWINR">      0.00000000      0.00000000</v>
   <v name="DARWINV">      1.00000000      1.00000000</v>
   <i type="logical" name="LCORR"> T  </i>
  </separator>
  <i type="logical" name="GGA_COMPAT"> T  </i>
  <i type="logical" name="LBERRY"> F  </i>
  <i type="int" name="ICORELEVEL">     0</i>
  <i type="logical" name="LDAU"> F  </i>
  <i type="int" name="I_CONSTRAINED_M">     0</i>
  <separator name="electronic exchange-correlation" >
   <i type="string" name="GGA">PS</i>
   <i type="int" name="VOSKOWN">     0</i>
   <i type="logical" name="LHFCALC"> F  </i>
   <i type="string" name="PRECFOCK"></i>
   <i type="logical" name="LSYMGRAD"> F  </i>
   <i type="logical" name="LHFONE"> F  </i>
   <i type="logical" name="LRHFCALC"> F  </i>
   <i type="logical" name="LTHOMAS"> F  </i>
   <i type="logical" name="LMODELHF"> F  </i>
   <i type="logical" name="LFOCKACE"> F  </i>
   <i name="ENCUT4O">     -1.00000000</i>
   <i type="int" name="EXXOEP">     0</i>
   <i type="int" name="FOURORBIT">     0</i>
   <i name="AEXX">      0.00000000</i>
   <i name="HFALPHA">      0.00000000</i>
   <i name="MCALPHA">      0.00000000</i>
   <i name="ALDAX">      1.00000000</i>
   <i name="AGGAX">      1.00000000</i>
   <i name="ALDAC">      1.00000000</i>
   <i name="AGGAC">      1.00000000</i>
   <i type="int" name="NKREDX">     1</i>
   <i type="int" name="NKREDY">     1</i>
   <i type="int" name="NKREDZ">     1</i>
   <i type="logical" name="SHIFTRED"> F  </i>
   <i type="logical" name="ODDONLY"> F  </i>
   <i type="logical" name="EVENONLY"> F  </i>
   <i type="int" name="LMAXFOCK">     0</i>
   <i type="int" name="NMAXFOCKAE">     0</i>
   <i type="logical" name="LFOCKAEDFT"> F  </i>
   <i name="HFSCREEN">      0.00000000</i>
   <i name="HFSCREENC">      0.00000000</i>
   <i type="int" name="NBANDSGWLOW">     0</i>
  </separator>
  <separator name="vdW DFT" >
   <i type="logical" name="LUSE_VDW"> F  </i>
   <i name="Zab_VDW">     -0.84910000</i>
   <i name="PARAM1">      0.12340000</i>
   <i name="PARAM2">      1.00000000</i>
   <i name="PARAM3">      0.00000000</i>
  </separator>
  <separator name="model GW" >
   <i type="int" name="MODEL_GW">     0</i>
   <i name="MODEL_EPS0">     13.18532537</i>
   <i name="MODEL_ALPHA">      1.00000000</i>
  </separator>
  <separator name="linear response parameters" >
   <i type="logical" name="LEPSILON"> F  </i>
   <i type="logical" name="LRPA"> F  </i>
   <i type="logical" name="LNABLA"> F  </i>
   <i type="logical" name="LVEL"> F  </i>
   <i name="CSHIFT">      0.10000000</i>
   <i name="OMEGAMAX">     -1.00000000</i>
   <i name="DEG_THRESHOLD">      0.00200000</i>
   <i name="RTIME">     -0.10000000</i>
   <i name="WPLASMAI">      0.00000000</i>
   <v name="DFIELD">      0.00000000      0.00000000      0.00000000</v>
   <v name="WPLASMA">      0.00000000      0.00000000      0.00000000      0.00000000      0.00000000      0.00000000      0.00000000      0.00000000      0.00000000</v>
  </separator>
  <separator name="orbital magnetization" >
   <i type="logical" name="NUCIND"> F  </i>
   <v name="MAGPOS">      0.00000000      0.00000000      0.00000000</v>
   <i type="logical" name="LNICSALL"> T  </i>
   <i type="logical" name="ORBITALMAG"> F  </i>
   <i type="logical" name="LMAGBLOCH"> F  </i>
   <i type="logical" name="LCHIMAG"> F  </i>
   <i type="logical" name="LGAUGE"> T  </i>
   <i type="int" name="MAGATOM">     0</i>
   <v name="MAGDIPOL">      0.00000000      0.00000000      0.00000000</v>
   <v name="AVECCONST">      0.00000000      0.00000000      0.00000000</v>
  </separator>
  <separator name="response functions" >
   <i type="logical" name="LFINITE_TEMPERATURE"> F  </i>
   <i type="logical" name="LADDER"> F  </i>
   <i type="logical" name="LRPAFORCE"> F  </i>
   <i type="logical" name="LFXC"> F  </i>
   <i type="logical" name="LHARTREE"> T  </i>
   <i type="int" name="IBSE">     0</i>
   <v type="int" name="KPOINT">    -1     0     0     0</v>
   <i type="logical" name="LTCTC"> F  </i>
   <i type="logical" name="LTCTE"> F  </i>
   <i type="logical" name="LTETE"> F  </i>
   <i type="logical" name="LTRIPLET"> F  </i>
   <i type="logical" name="LFXCEPS"> F  </i>
   <i type="logical" name="LFXHEG"> F  </i>
   <i type="int" name="NATURALO">     2</i>
   <i type="logical" name="LHOLEGF"> F  </i>
   <i type="logical" name="L2ORDER"> F  </i>
   <i type="logical" name="LDMP1"> F  </i>
   <i type="logical" name="LMP2LT"> F  </i>
   <i type="logical" name="LSMP2LT"> F  </i>
   <i type="logical" name="LGWLF"> F  </i>
   <i name="ENCUTGW">     -2.00000000</i>
   <i name="ENCUTGWSOFT">     -2.00000000</i>
   <i name="ENCUTLF">     -1.00000000</i>
   <i type="logical" name="LESF_SPLINES"> F  </i>
   <i type="int" name="LMAXMP2">    -1</i>
   <i name="SCISSOR">      0.00000000</i>
   <i type="int" name="NOMEGA">     0</i>
   <i type="int" name="NOMEGAR">     0</i>
   <i type="int" name="NBANDSGW">    -1</i>
   <i type="int" name="NBANDSO">    -1</i>
   <i type="int" name="NBANDSV">    -1</i>
   <i type="int" name="NELMGW">     1</i>
   <i type="int" name="NELMHF">     1</i>
   <i type="int" name="DIM">     3</i>
   <i type="int" name="IESPILON">     4</i>
   <i type="int" name="ANTIRES">     0</i>
   <i name="OMEGAMAX">    -30.00000000</i>
   <i name="OMEGAMIN">    -30.00000000</i>
   <i name="OMEGATL">   -200.00000000</i>
   <i type="int" name="OMEGAGRID">     0</i>
   <i name="CSHIFT">     -0.10000000</i>
   <i type="logical" name="LSELFENERGY"> F  </i>
   <i type="logical" name="LSPECTRAL"> F  </i>
   <i type="logical" name="LSPECTRALGW"> F  </i>
   <i type="logical" name="LSINGLES"> F  </i>
   <i type="logical" name="LFERMIGW"> F  </i>
   <i type="logical" name="ODDONLYGW"> F  </i>
   <i type="logical" name="EVENONLYGW"> F  </i>
   <i type="int" name="NKREDLFX">     1</i>
   <i type="int" name="NKREDLFY">     1</i>
   <i type="int" name="NKREDLFZ">     1</i>
   <i type="int" name="MAXMEM">  2800</i>
   <i type="int" name="TELESCOPE">     0</i>
   <i type="int" name="NTAUPAR">    -1</i>
   <i type="int" name="NOMEGAPAR">    -1</i>
   <i name="DAMP_NEWTON">      0.80000001</i>
   <i name="LAMBDA">      1.00000000</i>
  </separator>
  <separator name="External order field" >
   <i name="OFIELD_KAPPA">      0.00000000</i>
   <v name="OFIELD_K">      0.00000000      0.00000000      0.00000000</v>
   <i name="OFIELD_Q6_NEAR">      0.00000000</i>
   <i name="OFIELD_Q6_FAR">      0.00000000</i>
   <i name="OFIELD_A">      0.00000000</i>
  </separator>
  <separator name="optional k-points parameters" >
   <i type="int" name="KPOINTS_OPT_MODE">     1</i>
   <i type="logical" name="LKPOINTS_OPT"> F  </i>
  </separator>
 </parameters>
 <atominfo>
  <atoms>      64 </atoms>
  <types>       2 </types>
  <array name="atoms" >
   <dimension dim="1">ion</dimension>
   <field type="string">element</field>
   <field type="int">atomtype</field>
   <set>
    <rc><c>Na</c><c>   1</c></rc>
    <rc><c>Na</c><c>   1</c></rc>
    <rc><c>Na</c><c>   1</c></rc>
    <rc><c>Na</c><c>   1</c></rc>
    <rc><c>Na</c><c>   1</c></rc>
    <rc><c>Na</c><c>   1</c></rc>
    <rc><c>Na</c><c>   1</c></rc>
    <rc><c>Na</c><c>   1</c></rc>
    <rc><c>Na</c><c>   1</c></rc>
    <rc><c>Na</c><c>   1</c></rc>
    <rc><c>Na</c><c>   1</c></rc>
    <rc><c>Na</c><c>   1</c></rc>
    <rc><c>Na</c><c>   1</c></rc>
    <rc><c>Na</c><c>   1</c></rc>
    <rc><c>Na</c><c>   1</c></rc>
    <rc><c>Na</c><c>   1</c></rc>
    <rc><c>Na</c><c>   1</c></rc>
    <rc><c>Na</c><c>   1</c></rc>
    <rc><c>Na</c><c>   1</c></rc>
    <rc><c>Na</c><c>   1</c></rc>
    <rc><c>Na</c><c>   1</c></rc>
    <rc><c>Na</c><c>   1</c></rc>
    <rc><c>Na</c><c>   1</c></rc>
    <rc><c>Na</c><c>   1</c></rc>
    <rc><c>Na</c><c>   1</c></rc>
    <rc><c>Na</c><c>   1</c></rc>
    <rc><c>Na</c><c>   1</c></rc>
    <rc><c>Na</c><c>   1</c></rc>
    <rc><c>Na</c><c>   1</c></rc>
    <rc><c>Na</c><c>   1</c></rc>
    <rc><c>Na</c><c>   1</c></rc>
    <rc><c>Na</c><c>   1</c></rc>
    <rc><c>Cl</c><c>   2</c></rc>
    <rc><c>Cl</c><c>   2</c></rc>
    <rc><c>Cl</c><c>   2</c></rc>
    <rc><c>Cl</c><c>   2</c></rc>
    <rc><c>Cl</c><c>   2</c></rc>
    <rc><c>Cl</c><c>   2</c></rc>
    <rc><c>Cl</c><c>   2</c></rc>
    <rc><c>Cl</c><c>   2</c></rc>
    <rc><c>Cl</c><c>   2</c></rc>
    <rc><c>Cl</c><c>   2</c></rc>
    <rc><c>Cl</c><c>   2</c></rc>
    <rc><c>Cl</c><c>   2</c></rc>
    <rc><c>Cl</c><c>   2</c></rc>
    <rc><c>Cl</c><c>   2</c></rc>
    <rc><c>Cl</c><c>   2</c></rc>
    <rc><c>Cl</c><c>   2</c></rc>
    <rc><c>Cl</c><c>   2</c></rc>
    <rc><c>Cl</c><c>   2</c></rc>
    <rc><c>Cl</c><c>   2</c></rc>
    <rc><c>Cl</c><c>   2</c></rc>
    <rc><c>Cl</c><c>   2</c></rc>
    <rc><c>Cl</c><c>   2</c></rc>
    <rc><c>Cl</c><c>   2</c></rc>
    <rc><c>Cl</c><c>   2</c></rc>
    <rc><c>Cl</c><c>   2</c></rc>
    <rc><c>Cl</c><c>   2</c></rc>
    <rc><c>Cl</c><c>   2</c></rc>
    <rc><c>Cl</c><c>   2</c></rc>
    <rc><c>Cl</c><c>   2</c></rc>
    <rc><c>Cl</c><c>   2</c></rc>
    <rc><c>Cl</c><c>   2</c></rc>
    <rc><c>Cl</c><c>   2</c></rc>
   </set>
  </array>
  <array name="atomtypes" >
   <dimension dim="1">type</dimension>
   <field type="int">atomspertype</field>
   <field type="string">element</field>
   <field>mass</field>
   <field>valence</field>
   <field type="string">pseudopotential</field>
   <set>
    <rc><c>  32</c><c>Na</c><c>     22.99000000</c><c>      7.00000000</c><c>  PAW_PBE Na_pv 19Sep2006               </c></rc>
    <rc><c>  32</c><c>Cl</c><c>     35.45300000</c><c>      7.00000000</c><c>  PAW_PBE Cl 06Sep2000                  </c></rc>
   </set>
  </array>
 </atominfo>
 <structure name="initialpos" >
  <crystal>
   <varray name="basis" >
    <v>      11.20400236       0.00000000       0.00000000 </v>
    <v>       0.00000000      11.20400236       0.00000000 </v>
    <v>       0.00000000       0.00000000      11.20400236 </v>
   </varray>
   <i name="volume">   1406.43470641 </i>
   <varray name="rec_basis" >
    <v>       0.08925382       0.00000000       0.00000000 </v>
    <v>       0.00000000       0.08925382       0.00000000 </v>
    <v>       0.00000000       0.00000000       0.08925382 </v>
   </varray>
  </crystal>
  <varray name="positions" >
   <v>       0.00267761       0.00000000       0.00000000 </v>
   <v>       0.25000000       0.25000000       0.00000000 </v>
   <v>       0.25000000       0.00000000       0.25000000 </v>
   <v>       0.00000000       0.25000000       0.25000000 </v>
   <v>       0.00000000       0.00000000       0.50000000 </v>
   <v>       0.25000000       0.25000000       0.50000000 </v>
   <v>       0.25000000       0.00000000       0.75000000 </v>
   <v>       0.00000000       0.25000000       0.75000000 </v>
   <v>       0.00000000       0.50000000       0.00000000 </v>
   <v>       0.25000000       0.75000000       0.00000000 </v>
   <v>       0.25000000       0.50000000       0.25000000 </v>
   <v>       0.00000000       0.75000000       0.25000000 </v>
   <v>       0.00000000       0.50000000       0.50000000 </v>
   <v>       0.25000000       0.75000000       0.50000000 </v>
   <v>       0.25000000       0.50000000       0.75000000 </v>
   <v>       0.00000000       0.75000000       0.75000000 </v>
   <v>       0.50000000       0.00000000       0.00000000 </v>
   <v>       0.75000000       0.25000000       0.00000000 </v>
   <v>       0.75000000       0.00000000       0.25000000 </v>
   <v>       0.50000000       0.25000000       0.25000000 </v>
   <v>       0.50000000       0.00000000       0.50000000 </v>
   <v>       0.75000000       0.25000000       0.50000000 </v>
   <v>       0.75000000       0.00000000       0.75000000 </v>
   <v>       0.50000000       0.25000000       0.75000000 </v>
   <v>       0.50000000       0.50000000       0.00000000 </v>
   <v>       0.75000000       0.75000000       0.00000000 </v>
   <v>       0.75000000       0.50000000       0.25000000 </v>
   <v>       0.50000000       0.75000000       0.25000000 </v>
   <v>       0.50000000       0.50000000       0.50000000 </v>
   <v>       0.75000000       0.75000000       0.50000000 </v>
   <v>       0.75000000       0.50000000       0.75000000 </v>
   <v>       0.50000000       0.75000000       0.75000000 </v>
   <v>       0.25000000       0.25000000       0.25000000 </v>
   <v>       0.00000000       0.00000000       0.25267761 </v>
   <v>       0.00000000       0.25000000       0.00000000 </v>
   <v>       0.25000000       0.00000000       0.00000000 </v>
   <v>       0.25000000       0.25000000       0.75000000 </v>
   <v>       0.00000000       0.00000000       0.75000000 </v>
   <v>       0.00000000       0.25000000       0.50000000 </v>
   <v>       0.25000000       0.00000000       0.50000000 </v>
   <v>       0.25000000       0.75000000       0.25000000 </v>
   <v>       0.00000000       0.50000000       0.25000000 </v>
   <v>       0.00000000       0.75000000       0.00000000 </v>
   <v>       0.25000000       0.50000000       0.00000000 </v>
   <v>       0.25000000       0.75000000       0.75000000 </v>
   <v>       0.00000000       0.50000000       0.75000000 </v>
   <v>       0.00000000       0.75000000       0.50000000 </v>
   <v>       0.25000000       0.50000000       0.50000000 </v>
   <v>       0.75000000       0.25000000       0.25000000 </v>
   <v>       0.50000000       0.00000000       0.25000000 </v>
   <v>       0.50000000       0.25000000       0.00000000 </v>
   <v>       0.75000000       0.00000000       0.00000000 </v>
   <v>       0.75000000       0.25000000       0.75000000 </v>
   <v>       0.50000000       0.00000000       0.75000000 </v>
   <v>       0.50000000       0.25000000       0.50000000 </v>
   <v>       0.75000000       0.00000000       0.50000000 </v>
   <v>       0.75000000       0.75000000       0.25000000 </v>
   <v>       0.50000000       0.50000000       0.25000000 </v>
   <v>       0.50000000       0.75000000       0.00000000 </v>
   <v>       0.75000000       0.50000000       0.00000000 </v>
   <v>       0.75000000       0.75000000       0.75000000 </v>
   <v>       0.50000000       0.50000000       0.75000000 </v>
   <v>       0.50000000       0.75000000       0.50000000 </v>
   <v>       0.75000000       0.50000000       0.50000000 </v>
  </varray>
 </structure>
 <calculation>
  <scstep>
   <time name="dav">    9.88    9.93</time>
   <time name="total">    9.96   10.01</time>
   <energy>
    <i name="alphaZ">    751.52672365 </i>
    <i name="ewald"> -22871.33979096 </i>
    <i name="hartreedc">  -8992.24677695 </i>
    <i name="XCdc">   1456.53426572 </i>
    <i name="pawpsdc">  26466.43774078 </i>
    <i name="pawaedc"> -29286.08056155 </i>
    <i name="eentropy">     -0.00242481 </i>
    <i name="bandstr">   -735.06602492 </i>
    <i name="atom">  37532.17946992 </i>
    <i name="e_fr_energy">   4321.94262088 </i>
    <i name="e_wo_entrp">   4321.94504569 </i>
    <i name="e_0_energy">   4321.94383329 </i>
   </energy>
  </scstep>
  <scstep>
   <time name="dav">   10.75   10.81</time>
   <time name="total">   10.75   10.81</time>
   <energy>
    <i name="e_fr_energy">    363.89398469 </i>
    <i name="e_wo_entrp">    363.89398469 </i>
    <i name="e_0_energy">    363.89398469 </i>
   </energy>
  </scstep>
  <scstep>
   <time name="dav">   11.57   11.63</time>
   <time name="total">   11.57   11.64</time>
   <energy>
    <i name="e_fr_energy">   -206.17436700 </i>
    <i name="e_wo_entrp">   -206.17436700 </i>
    <i name="e_0_energy">   -206.17436700 </i>
   </energy>
  </scstep>
  <scstep>
   <time name="dav">   11.53   11.59</time>
   <time name="total">   11.53   11.59</time>
   <energy>
    <i name="e_fr_energy">   -228.19200962 </i>
    <i name="e_wo_entrp">   -228.19200962 </i>
    <i name="e_0_energy">   -228.19200962 </i>
   </energy>
  </scstep>
  <scstep>
   <time name="dav">   11.78   11.85</time>
   <time name="total">   12.12   12.19</time>
   <energy>
    <i name="e_fr_energy">   -229.00442323 </i>
    <i name="e_wo_entrp">   -229.00442323 </i>
    <i name="e_0_energy">   -229.00442323 </i>
   </energy>
  </scstep>
  <scstep>
   <time name="dav">   11.80   11.86</time>
   <time name="total">   12.21   12.27</time>
   <energy>
    <i name="e_fr_energy">   -224.13882455 </i>
    <i name="e_wo_entrp">   -224.13882455 </i>
    <i name="e_0_energy">   -224.13882455 </i>
   </energy>
  </scstep>
  <scstep>
   <time name="dav">   12.81   12.88</time>
   <time name="total">   13.22   13.29</time>
   <energy>
    <i name="e_fr_energy">   -223.77736296 </i>
    <i name="e_wo_entrp">   -223.77736296 </i>
    <i name="e_0_energy">   -223.77736296 </i>
   </energy>
  </scstep>
  <scstep>
   <time name="dav">   11.09   11.15</time>
   <time name="total">   11.50   11.56</time>
   <energy>
    <i name="e_fr_energy">   -223.90264468 </i>
    <i name="e_wo_entrp">   -223.90264468 </i>
    <i name="e_0_energy">   -223.90264468 </i>
   </energy>
  </scstep>
  <scstep>
   <time name="dav">   11.68   11.75</time>
   <time name="total">   12.09   12.15</time>
   <energy>
    <i name="e_fr_energy">   -223.89705680 </i>
    <i name="e_wo_entrp">   -223.89705680 </i>
    <i name="e_0_energy">   -223.89705680 </i>
   </energy>
  </scstep>
  <scstep>
   <time name="dav">   11.16   11.22</time>
   <time name="total">   11.56   11.63</time>
   <energy>
    <i name="e_fr_energy">   -223.90137668 </i>
    <i name="e_wo_entrp">   -223.90137668 </i>
    <i name="e_0_energy">   -223.90137668 </i>
   </energy>
  </scstep>
  <scstep>
   <time name="dav">   12.21   12.27</time>
   <time name="total">   12.61   12.68</time>
   <energy>
    <i name="e_fr_energy">   -223.90065584 </i>
    <i name="e_wo_entrp">   -223.90065584 </i>
    <i name="e_0_energy">   -223.90065584 </i>
   </energy>
  </scstep>
  <scstep>
   <time name="dav">   12.11   12.18</time>
   <time name="total">   12.51   12.58</time>
   <energy>
    <i name="e_fr_energy">   -223.90061606 </i>
    <i name="e_wo_entrp">   -223.90061606 </i>
    <i name="e_0_energy">   -223.90061606 </i>
   </energy>
  </scstep>
  <scstep>
   <time name="dav">   11.70   11.76</time>
   <time name="total">   12.10   12.18</time>
   <energy>
    <i name="e_fr_energy">   -223.90061767 </i>
    <i name="e_wo_entrp">   -223.90061767 </i>
    <i name="e_0_energy">   -223.90061767 </i>
   </energy>
  </scstep>
  <scstep>
   <time name="dav">   11.52   11.58</time>
   <time name="total">   11.92   11.99</time>
   <energy>
    <i name="e_fr_energy">   -223.90061864 </i>
    <i name="e_wo_entrp">   -223.90061864 </i>
    <i name="e_0_energy">   -223.90061864 </i>
   </energy>
  </scstep>
  <scstep>
   <time name="dav">   11.41   11.47</time>
   <time name="total">   11.81   11.88</time>
   <energy>
    <i name="e_fr_energy">   -223.90062003 </i>
    <i name="e_wo_entrp">   -223.90062003 </i>
    <i name="e_0_energy">   -223.90062003 </i>
   </energy>
  </scstep>
  <scstep>
   <time name="dav">   11.69   11.75</time>
   <time name="total">   12.10   12.16</time>
   <energy>
    <i name="e_fr_energy">   -223.90062055 </i>
    <i name="e_wo_entrp">   -223.90062055 </i>
    <i name="e_0_energy">   -223.90062055 </i>
   </energy>
  </scstep>
  <scstep>
   <time name="dav">    8.49    8.53</time>
   <time name="total">    8.55    8.60</time>
   <energy>
    <i name="alphaZ">    751.52672365 </i>
    <i name="ewald"> -22871.33979096 </i>
    <i name="hartreedc">  -9078.16145869 </i>
    <i name="XCdc">   1472.51340007 </i>
    <i name="pawpsdc">  29498.28838944 </i>
    <i name="pawaedc"> -32317.65328327 </i>
    <i name="eentropy">     -0.00000000 </i>
    <i name="bandstr">  -5211.25407071 </i>
    <i name="atom">  37532.17946992 </i>
    <i name="e_fr_energy">   -223.90062054 </i>
    <i name="e_wo_entrp">   -223.90062054 </i>
    <i name="e_0_energy">   -223.90062054 </i>
   </energy>
  </scstep>
  <structure>
   <crystal>
    <varray name="basis" >
     <v>      11.20400236       0.00000000       0.00000000 </v>
     <v>       0.00000000      11.20400236       0.00000000 </v>
     <v>       0.00000000       0.00000000      11.20400236 </v>
    </varray>
    <i name="volume">   1406.43470641 </i>
    <varray name="rec_basis" >
     <v>       0.08925382       0.00000000       0.00000000 </v>
     <v>       0.00000000       0.08925382       0.00000000 </v>
     <v>       0.00000000       0.00000000       0.08925382 </v>
    </varray>
   </crystal>
   <varray name="positions" >
    <v>       0.00267761       0.00000000       0.00000000 </v>
    <v>       0.25000000       0.25000000       0.00000000 </v>
    <v>       0.25000000       0.00000000       0.25000000 </v>
    <v>       0.00000000       0.25000000       0.25000000 </v>
    <v>       0.00000000       0.00000000       0.50000000 </v>
    <v>       0.25000000       0.25000000       0.50000000 </v>
    <v>       0.25000000       0.00000000       0.75000000 </v>
    <v>       0.00000000       0.25000000       0.75000000 </v>
    <v>       0.00000000       0.50000000       0.00000000 </v>
    <v>       0.25000000       0.75000000       0.00000000 </v>
    <v>       0.25000000       0.50000000       0.25000000 </v>
    <v>       0.00000000       0.75000000       0.25000000 </v>
    <v>       0.00000000       0.50000000       0.50000000 </v>
    <v>       0.25000000       0.75000000       0.50000000 </v>
    <v>       0.25000000       0.50000000       0.75000000 </v>
    <v>       0.00000000       0.75000000       0.75000000 </v>
    <v>       0.50000000       0.00000000       0.00000000 </v>
    <v>       0.75000000       0.25000000       0.00000000 </v>
    <v>       0.75000000       0.00000000       0.25000000 </v>
    <v>       0.50000000       0.25000000       0.25000000 </v>
    <v>       0.50000000       0.00000000       0.50000000 </v>
    <v>       0.75000000       0.25000000       0.50000000 </v>
    <v>       0.75000000       0.00000000       0.75000000 </v>
    <v>       0.50000000       0.25000000       0.75000000 </v>
    <v>       0.50000000       0.50000000       0.00000000 </v>
    <v>       0.75000000       0.75000000       0.00000000 </v>
    <v>       0.75000000       0.50000000       0.25000000 </v>
    <v>       0.50000000       0.75000000       0.25000000 </v>
    <v>       0.50000000       0.50000000       0.50000000 </v>
    <v>       0.75000000       0.75000000       0.50000000 </v>
    <v>       0.75000000       0.50000000       0.75000000 </v>
    <v>       0.50000000       0.75000000       0.75000000 </v>
    <v>       0.25000000       0.25000000       0.25000000 </v>
    <v>       0.00000000       0.00000000       0.25267761 </v>
    <v>       0.00000000       0.25000000       0.00000000 </v>
    <v>       0.25000000       0.00000000       0.00000000 </v>
    <v>       0.25000000       0.25000000       0.75000000 </v>
    <v>       0.00000000       0.00000000       0.75000000 </v>
    <v>       0.00000000       0.25000000       0.50000000 </v>
    <v>       0.25000000       0.00000000       0.50000000 </v>
    <v>       0.25000000       0.75000000       0.25000000 </v>
    <v>       0.00000000       0.50000000       0.25000000 </v>
    <v>       0.00000000       0.75000000       0.00000000 </v>
    <v>       0.25000000       0.50000000       0.00000000 </v>
    <v>       0.25000000       0.75000000       0.75000000 </v>
    <v>       0.00000000       0.50000000       0.75000000 </v>
    <v>       0.00000000       0.75000000       0.50000000 </v>
    <v>       0.25000000       0.50000000       0.50000000 </v>
    <v>       0.75000000       0.25000000       0.25000000 </v>
    <v>       0.50000000       0.00000000       0.25000000 </v>
    <v>       0.50000000       0.25000000       0.00000000 </v>
    <v>       0.75000000       0.00000000       0.00000000 </v>
    <v>       0.75000000       0.25000000       0.75000000 </v>
    <v>       0.50000000       0.00000000       0.75000000 </v>
    <v>       0.50000000       0.25000000       0.50000000 </v>
    <v>       0.75000000       0.00000000       0.50000000 </v>
    <v>       0.75000000       0.75000000       0.25000000 </v>
    <v>       0.50000000       0.50000000       0.25000000 </v>
    <v>       0.50000000       0.75000000       0.00000000 </v>
    <v>       0.75000000       0.50000000       0.00000000 </v>
    <v>       0.75000000       0.75000000       0.75000000 </v>
    <v>       0.50000000       0.50000000       0.75000000 </v>
    <v>       0.50000000       0.75000000       0.50000000 </v>
    <v>       0.75000000       0.50000000       0.50000000 </v>
   </varray>
  </structure>
  <varray name="forces" >
   <v>      -0.06303963       0.00000000       0.01617512 </v>
   <v>       0.00280571       0.00722354      -0.00023846 </v>
   <v>       0.00145674       0.00000000       0.01095911 </v>
   <v>      -0.00167713      -0.00011138       0.00498665 </v>
   <v>      -0.00004654       0.00000000       0.02027624 </v>
   <v>      -0.00133170      -0.00137613      -0.00021105 </v>
   <v>       0.00151176       0.00000000      -0.00876497 </v>
   <v>      -0.00166327      -0.00002213      -0.00281051 </v>
   <v>      -0.00005326       0.00000000       0.00015163 </v>
   <v>       0.00280571      -0.00722354      -0.00023846 </v>
   <v>      -0.00003509       0.00000000       0.00052588 </v>
   <v>      -0.00167713       0.00011138       0.00498665 </v>
   <v>      -0.00045189       0.00000000       0.00016767 </v>
   <v>      -0.00133170       0.00137613      -0.00021105 </v>
   <v>      -0.00003587       0.00000000      -0.00058801 </v>
   <v>      -0.00166327       0.00002213      -0.00281051 </v>
   <v>       0.00892440       0.00000000       0.00015788 </v>
   <v>       0.00021964      -0.00451872      -0.00023196 </v>
   <v>       0.00163537       0.00000000      -0.00081762 </v>
   <v>       0.00116731       0.00000236       0.00060713 </v>
   <v>       0.00030838       0.00000000       0.00016788 </v>
   <v>       0.00127719      -0.00122514      -0.00021527 </v>
   <v>       0.00151172       0.00000000       0.00297799 </v>
   <v>       0.00116255       0.00000097      -0.00066936 </v>
   <v>       0.00030826       0.00000000      -0.00000382 </v>
   <v>       0.00021964       0.00451872      -0.00023196 </v>
   <v>      -0.00001883       0.00000000       0.00067739 </v>
   <v>       0.00116731      -0.00000236       0.00060713 </v>
   <v>       0.00044014       0.00000000       0.00000585 </v>
   <v>       0.00127719       0.00122514      -0.00021527 </v>
   <v>      -0.00001767       0.00000000      -0.00073878 </v>
   <v>       0.00116255      -0.00000097      -0.00066936 </v>
   <v>      -0.00025692      -0.00134814      -0.00362989 </v>
   <v>       0.00516013       0.00000000      -0.07612978 </v>
   <v>       0.00500816      -0.00585892       0.00386095 </v>
   <v>       0.01447870       0.00000000       0.00388596 </v>
   <v>      -0.00021291      -0.00130306       0.00283327 </v>
   <v>       0.00500290       0.00000000       0.00394683 </v>
   <v>       0.00059021       0.00589298       0.00391791 </v>
   <v>       0.00605572       0.00000000       0.00391643 </v>
   <v>      -0.00025692       0.00134814      -0.00362989 </v>
   <v>       0.00059290       0.00000000      -0.00152048 </v>
   <v>       0.00500816       0.00585892       0.00386095 </v>
   <v>      -0.00039572       0.00000000      -0.00003328 </v>
   <v>      -0.00021291       0.00130306       0.00283327 </v>
   <v>       0.00059067       0.00000000       0.00192949 </v>
   <v>       0.00059021      -0.00589298       0.00391791 </v>
   <v>       0.00057177       0.00000000      -0.00005449 </v>
   <v>      -0.00021820       0.00126301      -0.00103073 </v>
   <v>      -0.00283158       0.00000000      -0.00154424 </v>
   <v>      -0.00282860      -0.00058152      -0.00003761 </v>
   <v>       0.02189565       0.00000000       0.00383659 </v>
   <v>      -0.00024743       0.00128687       0.00024220 </v>
   <v>      -0.00282747       0.00000000       0.00195304 </v>
   <v>      -0.00066258       0.00057343      -0.00005116 </v>
   <v>      -0.00574176       0.00000000       0.00391914 </v>
   <v>      -0.00021820      -0.00126301      -0.00103073 </v>
   <v>      -0.00066693       0.00000000      -0.00049851 </v>
   <v>      -0.00282860       0.00058152      -0.00003761 </v>
   <v>       0.00070676       0.00000000      -0.00003890 </v>
   <v>      -0.00024743      -0.00128687       0.00024220 </v>
   <v>      -0.00066499       0.00000000       0.00050900 </v>
   <v>      -0.00066258      -0.00057343      -0.00005116 </v>
   <v>      -0.00058878       0.00000000      -0.00005047 </v>
  </varray>
  <varray name="stress" >
   <v>      -0.36619712       0.00000000       0.00063626 </v>
   <v>       0.00000000      -0.37746880       0.00000000 </v>
   <v>       0.00063622       0.00000000      -0.36629715 </v>
  </varray>
  <energy>
   <i name="e_fr_energy">   -223.90062054 </i>
   <i name="e_wo_entrp">   -223.90062054 </i>
   <i name="e_0_energy">   -223.90062054 </i>
  </energy>
  <time name="totalsc">  213.56  214.71</time>
  <eigenvalues>
   <array>
    <dimension dim="1">band</dimension>
    <dimension dim="2">kpoint</dimension>
    <dimension dim="3">spin</dimension>
    <field>eigene</field>
    <field>occ</field>
    <set>
     <set comment="spin 1">
      <set comment="kpoint 1">
       <r>  -21.3097    1.0000 </r>
       <r>  -21.3092    1.0000 </r>
       <r>  -21.3087    1.0000 </r>
       <r>  -21.3046    1.0000 </r>
       <r>  -21.3007    1.0000 </r>
       <r>  -21.3005    1.0000 </r>
       <r>  -21.3001    1.0000 </r>
       <r>  -21.2954    1.0000 </r>
       <r>  -21.2954    1.0000 </r>
       <r>  -21.2947    1.0000 </r>
       <r>  -21.2939    1.0000 </r>
       <r>  -21.2937    1.0000 </r>
       <r>  -21.2937    1.0000 </r>
       <r>  -21.2933    1.0000 </r>
       <r>  -21.2931    1.0000 </r>
       <r>  -21.2926    1.0000 </r>
       <r>  -21.2921    1.0000 </r>
       <r>  -21.2921    1.0000 </r>
       <r>  -21.2919    1.0000 </r>
       <r>  -21.2902    1.0000 </r>
       <r>  -21.2894    1.0000 </r>
       <r>  -21.2887    1.0000 </r>
       <r>  -21.2875    1.0000 </r>
       <r>  -21.2873    1.0000 </r>
       <r>  -21.2870    1.0000 </r>
       <r>  -21.2862    1.0000 </r>
       <r>  -21.2862    1.0000 </r>
       <r>  -21.2861    1.0000 </r>
       <r>  -21.2857    1.0000 </r>
       <r>  -21.2855    1.0000 </r>
       <r>  -21.2851    1.0000 </r>
       <r>  -21.2850    1.0000 </r>
       <r>  -21.2845    1.0000 </r>
       <r>  -21.2840    1.0000 </r>
       <r>  -21.2839    1.0000 </r>
       <r>  -21.2838    1.0000 </r>
       <r>  -21.2832    1.0000 </r>
       <r>  -21.2827    1.0000 </r>
       <r>  -21.2825    1.0000 </r>
       <r>  -21.2819    1.0000 </r>
       <r>  -21.2817    1.0000 </r>
       <r>  -21.2817    1.0000 </r>
       <r>  -21.2814    1.0000 </r>
       <r>  -21.2808    1.0000 </r>
       <r>  -21.2807    1.0000 </r>
       <r>  -21.2806    1.0000 </r>
       <r>  -21.2806    1.0000 </r>
       <r>  -21.2803    1.0000 </r>
       <r>  -21.2800    1.0000 </r>
       <r>  -21.2799    1.0000 </r>
       <r>  -21.2799    1.0000 </r>
       <r>  -21.2798    1.0000 </r>
       <r>  -21.2798    1.0000 </r>
       <r>  -21.2797    1.0000 </r>
       <r>  -21.2795    1.0000 </r>
       <r>  -21.2777    1.0000 </r>
       <r>  -21.2776    1.0000 </r>
       <r>  -21.2773    1.0000 </r>
       <r>  -21.2772    1.0000 </r>
       <r>  -21.2766    1.0000 </r>
       <r>  -21.2765    1.0000 </r>
       <r>  -21.2758    1.0000 </r>
       <r>  -21.2751    1.0000 </r>
       <r>  -21.2750    1.0000 </r>
       <r>  -21.2748    1.0000 </r>
       <r>  -21.2746    1.0000 </r>
       <r>  -21.2744    1.0000 </r>
       <r>  -21.2743    1.0000 </r>
       <r>  -21.2741    1.0000 </r>
       <r>  -21.2737    1.0000 </r>
       <r>  -21.2736    1.0000 </r>
       <r>  -21.2735    1.0000 </r>
       <r>  -21.2728    1.0000 </r>
       <r>  -21.2726    1.0000 </r>
       <r>  -21.2725    1.0000 </r>
       <r>  -21.2720    1.0000 </r>
       <r>  -21.2718    1.0000 </r>
       <r>  -21.2716    1.0000 </r>
       <r>  -21.2715    1.0000 </r>
       <r>  -21.2712    1.0000 </r>
       <r>  -21.2712    1.0000 </r>
       <r>  -21.2712    1.0000 </r>
       <r>  -21.2711    1.0000 </r>
       <r>  -21.2707    1.0000 </r>
       <r>  -21.2706    1.0000 </r>
       <r>  -21.2706    1.0000 </r>
       <r>  -21.2700    1.0000 </r>
       <r>  -21.2699    1.0000 </r>
       <r>  -21.2684    1.0000 </r>
       <r>  -21.2683    1.0000 </r>
       <r>  -21.2680    1.0000 </r>
       <r>  -21.2678    1.0000 </r>
       <r>  -21.2678    1.0000 </r>
       <r>  -21.2556    1.0000 </r>
       <r>  -21.2555    1.0000 </r>
       <r>  -21.2554    1.0000 </r>
       <r>  -13.3581    1.0000 </r>
       <r>  -13.1436    1.0000 </r>
       <r>  -13.1378    1.0000 </r>
       <r>  -13.1374    1.0000 </r>
       <r>  -13.1373    1.0000 </r>
       <r>  -13.1360    1.0000 </r>
       <r>  -13.1336    1.0000 </r>
       <r>  -13.0243    1.0000 </r>
       <r>  -13.0145    1.0000 </r>
       <r>  -13.0122    1.0000 </r>
       <r>  -13.0115    1.0000 </r>
       <r>  -13.0112    1.0000 </r>
       <r>  -13.0112    1.0000 </r>
       <r>  -13.0112    1.0000 </r>
       <r>  -13.0111    1.0000 </r>
       <r>  -13.0102    1.0000 </r>
       <r>  -13.0087    1.0000 </r>
       <r>  -13.0087    1.0000 </r>
       <r>  -13.0044    1.0000 </r>
       <r>  -12.9900    1.0000 </r>
       <r>  -12.9897    1.0000 </r>
       <r>  -12.9891    1.0000 </r>
       <r>  -12.9880    1.0000 </r>
       <r>  -12.9413    1.0000 </r>
       <r>  -12.9410    1.0000 </r>
       <r>  -12.9404    1.0000 </r>
       <r>  -12.9244    1.0000 </r>
       <r>  -12.9217    1.0000 </r>
       <r>  -12.9214    1.0000 </r>
       <r>  -12.9213    1.0000 </r>
       <r>  -12.9189    1.0000 </r>
       <r>  -12.9168    1.0000 </r>
       <r>   -2.7001    1.0000 </r>
       <r>   -2.7000    1.0000 </r>
       <r>   -2.7000    1.0000 </r>
       <r>   -2.6999    1.0000 </r>
       <r>   -2.4241    1.0000 </r>
       <r>   -2.4240    1.0000 </r>
       <r>   -2.4240    1.0000 </r>
       <r>   -2.2075    1.0000 </r>
       <r>   -2.2074    1.0000 </r>
       <r>   -2.2055    1.0000 </r>
       <r>   -2.2048    1.0000 </r>
       <r>   -2.2046    1.0000 </r>
       <r>   -2.2043    1.0000 </r>
       <r>   -2.2042    1.0000 </r>
       <r>   -2.2042    1.0000 </r>
       <r>   -2.2038    1.0000 </r>
       <r>   -2.2029    1.0000 </r>
       <r>   -2.2012    1.0000 </r>
       <r>   -2.2011    1.0000 </r>
       <r>   -1.9281    1.0000 </r>
       <r>   -1.9281    1.0000 </r>
       <r>   -1.9264    1.0000 </r>
       <r>   -1.9262    1.0000 </r>
       <r>   -1.9249    1.0000 </r>
       <r>   -1.9248    1.0000 </r>
       <r>   -1.9246    1.0000 </r>
       <r>   -1.9243    1.0000 </r>
       <r>   -1.9234    1.0000 </r>
       <r>   -1.9230    1.0000 </r>
       <r>   -1.9214    1.0000 </r>
       <r>   -1.9211    1.0000 </r>
       <r>   -1.7976    1.0000 </r>
       <r>   -1.7969    1.0000 </r>
       <r>   -1.7966    1.0000 </r>
       <r>   -1.7966    1.0000 </r>
       <r>   -1.7964    1.0000 </r>
       <r>   -1.7955    1.0000 </r>
       <r>   -1.5090    1.0000 </r>
       <r>   -1.5086    1.0000 </r>
       <r>   -1.5060    1.0000 </r>
       <r>   -1.5059    1.0000 </r>
       <r>   -1.5057    1.0000 </r>
       <r>   -1.5056    1.0000 </r>
       <r>   -1.5053    1.0000 </r>
       <r>   -1.5053    1.0000 </r>
       <r>   -1.5050    1.0000 </r>
       <r>   -1.5046    1.0000 </r>
       <r>   -1.5023    1.0000 </r>
       <r>   -1.5020    1.0000 </r>
       <r>   -1.4648    1.0000 </r>
       <r>   -1.4631    1.0000 </r>
       <r>   -1.4626    1.0000 </r>
       <r>   -1.4624    1.0000 </r>
       <r>   -1.4621    1.0000 </r>
       <r>   -1.4607    1.0000 </r>
       <r>   -1.2948    1.0000 </r>
       <r>   -1.2947    1.0000 </r>
       <r>   -1.2947    1.0000 </r>
       <r>   -1.2946    1.0000 </r>
       <r>   -1.2946    1.0000 </r>
       <r>   -1.2945    1.0000 </r>
       <r>   -1.0056    1.0000 </r>
       <r>   -1.0050    1.0000 </r>
       <r>   -1.0042    1.0000 </r>
       <r>   -1.0018    1.0000 </r>
       <r>   -1.0011    1.0000 </r>
       <r>   -1.0010    1.0000 </r>
       <r>   -1.0005    1.0000 </r>
       <r>   -1.0005    1.0000 </r>
       <r>   -0.9998    1.0000 </r>
       <r>   -0.9985    1.0000 </r>
       <r>   -0.9973    1.0000 </r>
       <r>   -0.9969    1.0000 </r>
       <r>   -0.9542    1.0000 </r>
       <r>   -0.9523    1.0000 </r>
       <r>   -0.9509    1.0000 </r>
       <r>   -0.9488    1.0000 </r>
       <r>   -0.9480    1.0000 </r>
       <r>   -0.9479    1.0000 </r>
       <r>   -0.9478    1.0000 </r>
       <r>   -0.9477    1.0000 </r>
       <r>   -0.9476    1.0000 </r>
       <r>   -0.9474    1.0000 </r>
       <r>   -0.9473    1.0000 </r>
       <r>   -0.9468    1.0000 </r>
       <r>   -0.9459    1.0000 </r>
       <r>   -0.9457    1.0000 </r>
       <r>   -0.9455    1.0000 </r>
       <r>   -0.9446    1.0000 </r>
       <r>   -0.9428    1.0000 </r>
       <r>   -0.9417    1.0000 </r>
       <r>   -0.9416    1.0000 </r>
       <r>   -0.9408    1.0000 </r>
       <r>   -0.6649    1.0000 </r>
       <r>   -0.6648    1.0000 </r>
       <r>   -0.6648    1.0000 </r>
       <r>    4.3403    0.0000 </r>
       <r>    6.3601    0.0000 </r>
       <r>    6.3674    0.0000 </r>
       <r>    6.3680    0.0000 </r>
       <r>    6.3682    0.0000 </r>
       <r>    6.3695    0.0000 </r>
       <r>    6.3749    0.0000 </r>
       <r>    6.4446    0.0000 </r>
       <r>    6.4446    0.0000 </r>
       <r>    6.4448    0.0000 </r>
       <r>    6.4449    0.0000 </r>
       <r>    6.8279    0.0000 </r>
       <r>    6.8280    0.0000 </r>
       <r>    6.8281    0.0000 </r>
       <r>    7.2068    0.0000 </r>
       <r>    7.2068    0.0000 </r>
       <r>    7.2069    0.0000 </r>
       <r>    7.4533    0.0000 </r>
       <r>    7.4586    0.0000 </r>
       <r>    7.4592    0.0000 </r>
       <r>    7.4628    0.0000 </r>
       <r>    7.4639    0.0000 </r>
       <r>    7.4642    0.0000 </r>
       <r>    7.4646    0.0000 </r>
       <r>    7.4648    0.0000 </r>
       <r>    7.4653    0.0000 </r>
       <r>    7.4695    0.0000 </r>
       <r>    7.4695    0.0000 </r>
       <r>    7.4741    0.0000 </r>
       <r>    8.1629    0.0000 </r>
       <r>    8.1672    0.0000 </r>
       <r>    8.1681    0.0000 </r>
       <r>    8.1684    0.0000 </r>
       <r>    8.1690    0.0000 </r>
       <r>    8.1744    0.0000 </r>
       <r>    8.2775    0.0000 </r>
       <r>    8.2776    0.0000 </r>
       <r>    8.2796    0.0000 </r>
       <r>    8.2796    0.0000 </r>
       <r>    8.2800    0.0000 </r>
       <r>    8.2831    0.0000 </r>
       <r>    8.8889    0.0000 </r>
       <r>    8.8896    0.0000 </r>
       <r>    8.8954    0.0000 </r>
       <r>    8.8996    0.0000 </r>
       <r>    8.8999    0.0000 </r>
       <r>    8.9004    0.0000 </r>
       <r>    8.9010    0.0000 </r>
       <r>    8.9022    0.0000 </r>
       <r>    8.9035    0.0000 </r>
       <r>    8.9040    0.0000 </r>
       <r>    8.9055    0.0000 </r>
       <r>    8.9065    0.0000 </r>
       <r>    8.9122    0.0000 </r>
       <r>    8.9130    0.0000 </r>
       <r>    8.9155    0.0000 </r>
       <r>    8.9162    0.0000 </r>
       <r>    8.9167    0.0000 </r>
       <r>    8.9180    0.0000 </r>
       <r>    8.9181    0.0000 </r>
       <r>    8.9192    0.0000 </r>
       <r>    8.9200    0.0000 </r>
       <r>    8.9263    0.0000 </r>
       <r>    8.9277    0.0000 </r>
      </set>
      <set comment="kpoint 2">
       <r>  -21.3087    1.0000 </r>
       <r>  -21.3083    1.0000 </r>
       <r>  -21.3079    1.0000 </r>
       <r>  -21.3024    1.0000 </r>
       <r>  -21.3007    1.0000 </r>
       <r>  -21.2999    1.0000 </r>
       <r>  -21.2995    1.0000 </r>
       <r>  -21.2968    1.0000 </r>
       <r>  -21.2962    1.0000 </r>
       <r>  -21.2958    1.0000 </r>
       <r>  -21.2953    1.0000 </r>
       <r>  -21.2946    1.0000 </r>
       <r>  -21.2941    1.0000 </r>
       <r>  -21.2929    1.0000 </r>
       <r>  -21.2924    1.0000 </r>
       <r>  -21.2919    1.0000 </r>
       <r>  -21.2916    1.0000 </r>
       <r>  -21.2914    1.0000 </r>
       <r>  -21.2912    1.0000 </r>
       <r>  -21.2904    1.0000 </r>
       <r>  -21.2901    1.0000 </r>
       <r>  -21.2899    1.0000 </r>
       <r>  -21.2888    1.0000 </r>
       <r>  -21.2888    1.0000 </r>
       <r>  -21.2882    1.0000 </r>
       <r>  -21.2881    1.0000 </r>
       <r>  -21.2878    1.0000 </r>
       <r>  -21.2876    1.0000 </r>
       <r>  -21.2872    1.0000 </r>
       <r>  -21.2868    1.0000 </r>
       <r>  -21.2863    1.0000 </r>
       <r>  -21.2861    1.0000 </r>
       <r>  -21.2859    1.0000 </r>
       <r>  -21.2857    1.0000 </r>
       <r>  -21.2848    1.0000 </r>
       <r>  -21.2839    1.0000 </r>
       <r>  -21.2834    1.0000 </r>
       <r>  -21.2832    1.0000 </r>
       <r>  -21.2828    1.0000 </r>
       <r>  -21.2826    1.0000 </r>
       <r>  -21.2825    1.0000 </r>
       <r>  -21.2821    1.0000 </r>
       <r>  -21.2807    1.0000 </r>
       <r>  -21.2801    1.0000 </r>
       <r>  -21.2800    1.0000 </r>
       <r>  -21.2795    1.0000 </r>
       <r>  -21.2795    1.0000 </r>
       <r>  -21.2790    1.0000 </r>
       <r>  -21.2789    1.0000 </r>
       <r>  -21.2782    1.0000 </r>
       <r>  -21.2778    1.0000 </r>
       <r>  -21.2774    1.0000 </r>
       <r>  -21.2774    1.0000 </r>
       <r>  -21.2773    1.0000 </r>
       <r>  -21.2773    1.0000 </r>
       <r>  -21.2770    1.0000 </r>
       <r>  -21.2765    1.0000 </r>
       <r>  -21.2763    1.0000 </r>
       <r>  -21.2758    1.0000 </r>
       <r>  -21.2755    1.0000 </r>
       <r>  -21.2755    1.0000 </r>
       <r>  -21.2753    1.0000 </r>
       <r>  -21.2751    1.0000 </r>
       <r>  -21.2748    1.0000 </r>
       <r>  -21.2746    1.0000 </r>
       <r>  -21.2746    1.0000 </r>
       <r>  -21.2745    1.0000 </r>
       <r>  -21.2743    1.0000 </r>
       <r>  -21.2741    1.0000 </r>
       <r>  -21.2739    1.0000 </r>
       <r>  -21.2735    1.0000 </r>
       <r>  -21.2732    1.0000 </r>
       <r>  -21.2732    1.0000 </r>
       <r>  -21.2731    1.0000 </r>
       <r>  -21.2731    1.0000 </r>
       <r>  -21.2729    1.0000 </r>
       <r>  -21.2728    1.0000 </r>
       <r>  -21.2724    1.0000 </r>
       <r>  -21.2721    1.0000 </r>
       <r>  -21.2720    1.0000 </r>
       <r>  -21.2717    1.0000 </r>
       <r>  -21.2715    1.0000 </r>
       <r>  -21.2714    1.0000 </r>
       <r>  -21.2714    1.0000 </r>
       <r>  -21.2707    1.0000 </r>
       <r>  -21.2705    1.0000 </r>
       <r>  -21.2703    1.0000 </r>
       <r>  -21.2699    1.0000 </r>
       <r>  -21.2698    1.0000 </r>
       <r>  -21.2686    1.0000 </r>
       <r>  -21.2684    1.0000 </r>
       <r>  -21.2680    1.0000 </r>
       <r>  -21.2678    1.0000 </r>
       <r>  -21.2557    1.0000 </r>
       <r>  -21.2556    1.0000 </r>
       <r>  -21.2555    1.0000 </r>
       <r>  -13.2940    1.0000 </r>
       <r>  -13.2887    1.0000 </r>
       <r>  -13.1063    1.0000 </r>
       <r>  -13.0984    1.0000 </r>
       <r>  -13.0983    1.0000 </r>
       <r>  -13.0966    1.0000 </r>
       <r>  -13.0956    1.0000 </r>
       <r>  -13.0955    1.0000 </r>
       <r>  -13.0951    1.0000 </r>
       <r>  -13.0915    1.0000 </r>
       <r>  -13.0109    1.0000 </r>
       <r>  -13.0034    1.0000 </r>
       <r>  -13.0007    1.0000 </r>
       <r>  -13.0006    1.0000 </r>
       <r>  -13.0006    1.0000 </r>
       <r>  -13.0005    1.0000 </r>
       <r>  -12.9979    1.0000 </r>
       <r>  -12.9962    1.0000 </r>
       <r>  -12.9949    1.0000 </r>
       <r>  -12.9918    1.0000 </r>
       <r>  -12.9514    1.0000 </r>
       <r>  -12.9451    1.0000 </r>
       <r>  -12.9449    1.0000 </r>
       <r>  -12.9431    1.0000 </r>
       <r>  -12.9424    1.0000 </r>
       <r>  -12.9421    1.0000 </r>
       <r>  -12.9421    1.0000 </r>
       <r>  -12.9391    1.0000 </r>
       <r>  -12.9337    1.0000 </r>
       <r>  -12.9311    1.0000 </r>
       <r>  -12.9296    1.0000 </r>
       <r>  -12.9251    1.0000 </r>
       <r>   -2.5082    1.0000 </r>
       <r>   -2.5082    1.0000 </r>
       <r>   -2.5065    1.0000 </r>
       <r>   -2.5050    1.0000 </r>
       <r>   -2.5036    1.0000 </r>
       <r>   -2.5022    1.0000 </r>
       <r>   -2.5007    1.0000 </r>
       <r>   -2.5006    1.0000 </r>
       <r>   -2.2902    1.0000 </r>
       <r>   -2.2902    1.0000 </r>
       <r>   -2.2852    1.0000 </r>
       <r>   -2.2852    1.0000 </r>
       <r>   -2.2769    1.0000 </r>
       <r>   -2.2715    1.0000 </r>
       <r>   -2.1415    1.0000 </r>
       <r>   -2.1378    1.0000 </r>
       <r>   -2.1366    1.0000 </r>
       <r>   -2.1365    1.0000 </r>
       <r>   -2.1363    1.0000 </r>
       <r>   -2.1362    1.0000 </r>
       <r>   -2.1354    1.0000 </r>
       <r>   -2.1310    1.0000 </r>
       <r>   -1.9877    1.0000 </r>
       <r>   -1.9877    1.0000 </r>
       <r>   -1.9860    1.0000 </r>
       <r>   -1.9859    1.0000 </r>
       <r>   -1.9849    1.0000 </r>
       <r>   -1.9847    1.0000 </r>
       <r>   -1.9832    1.0000 </r>
       <r>   -1.9832    1.0000 </r>
       <r>   -1.8135    1.0000 </r>
       <r>   -1.8121    1.0000 </r>
       <r>   -1.8110    1.0000 </r>
       <r>   -1.8098    1.0000 </r>
       <r>   -1.8081    1.0000 </r>
       <r>   -1.8063    1.0000 </r>
       <r>   -1.8053    1.0000 </r>
       <r>   -1.8040    1.0000 </r>
       <r>   -1.5001    1.0000 </r>
       <r>   -1.5000    1.0000 </r>
       <r>   -1.4955    1.0000 </r>
       <r>   -1.4955    1.0000 </r>
       <r>   -1.3862    1.0000 </r>
       <r>   -1.3804    1.0000 </r>
       <r>   -1.3803    1.0000 </r>
       <r>   -1.3751    1.0000 </r>
       <r>   -1.2158    1.0000 </r>
       <r>   -1.2149    1.0000 </r>
       <r>   -1.2101    1.0000 </r>
       <r>   -1.2100    1.0000 </r>
       <r>   -1.1938    1.0000 </r>
       <r>   -1.1937    1.0000 </r>
       <r>   -1.1926    1.0000 </r>
       <r>   -1.1917    1.0000 </r>
       <r>   -1.1907    1.0000 </r>
       <r>   -1.1899    1.0000 </r>
       <r>   -1.1893    1.0000 </r>
       <r>   -1.1890    1.0000 </r>
       <r>   -1.1795    1.0000 </r>
       <r>   -1.1761    1.0000 </r>
       <r>   -1.1758    1.0000 </r>
       <r>   -1.1746    1.0000 </r>
       <r>   -1.1733    1.0000 </r>
       <r>   -1.1733    1.0000 </r>
       <r>   -1.1725    1.0000 </r>
       <r>   -1.1673    1.0000 </r>
       <r>   -1.1634    1.0000 </r>
       <r>   -1.1615    1.0000 </r>
       <r>   -1.1612    1.0000 </r>
       <r>   -1.1606    1.0000 </r>
       <r>   -1.1590    1.0000 </r>
       <r>   -1.1574    1.0000 </r>
       <r>   -1.1562    1.0000 </r>
       <r>   -1.1552    1.0000 </r>
       <r>   -1.0855    1.0000 </r>
       <r>   -1.0808    1.0000 </r>
       <r>   -0.9519    1.0000 </r>
       <r>   -0.9519    1.0000 </r>
       <r>   -0.9469    1.0000 </r>
       <r>   -0.9469    1.0000 </r>
       <r>   -0.9468    1.0000 </r>
       <r>   -0.9465    1.0000 </r>
       <r>   -0.9422    1.0000 </r>
       <r>   -0.9420    1.0000 </r>
       <r>   -0.9397    1.0000 </r>
       <r>   -0.9327    1.0000 </r>
       <r>   -0.9326    1.0000 </r>
       <r>   -0.9323    1.0000 </r>
       <r>   -0.9320    1.0000 </r>
       <r>   -0.9309    1.0000 </r>
       <r>   -0.9296    1.0000 </r>
       <r>   -0.9278    1.0000 </r>
       <r>   -0.7706    1.0000 </r>
       <r>   -0.7705    1.0000 </r>
       <r>   -0.7660    1.0000 </r>
       <r>   -0.7659    1.0000 </r>
       <r>    5.0205    0.0000 </r>
       <r>    5.0242    0.0000 </r>
       <r>    6.7082    0.0000 </r>
       <r>    6.7162    0.0000 </r>
       <r>    6.7165    0.0000 </r>
       <r>    6.7172    0.0000 </r>
       <r>    6.7198    0.0000 </r>
       <r>    6.7199    0.0000 </r>
       <r>    6.7205    0.0000 </r>
       <r>    6.7264    0.0000 </r>
       <r>    6.8383    0.0000 </r>
       <r>    6.8387    0.0000 </r>
       <r>    6.8422    0.0000 </r>
       <r>    6.8430    0.0000 </r>
       <r>    6.8435    0.0000 </r>
       <r>    6.8444    0.0000 </r>
       <r>    6.8480    0.0000 </r>
       <r>    6.8484    0.0000 </r>
       <r>    6.9697    0.0000 </r>
       <r>    6.9727    0.0000 </r>
       <r>    7.3591    0.0000 </r>
       <r>    7.3624    0.0000 </r>
       <r>    7.3629    0.0000 </r>
       <r>    7.3659    0.0000 </r>
       <r>    7.4775    0.0000 </r>
       <r>    7.4831    0.0000 </r>
       <r>    7.7116    0.0000 </r>
       <r>    7.7116    0.0000 </r>
       <r>    7.7176    0.0000 </r>
       <r>    7.7176    0.0000 </r>
       <r>    8.2581    0.0000 </r>
       <r>    8.2637    0.0000 </r>
       <r>    8.2638    0.0000 </r>
       <r>    8.2655    0.0000 </r>
       <r>    8.2665    0.0000 </r>
       <r>    8.2682    0.0000 </r>
       <r>    8.2685    0.0000 </r>
       <r>    8.2728    0.0000 </r>
       <r>    8.5281    0.0000 </r>
       <r>    8.5312    0.0000 </r>
       <r>    8.5333    0.0000 </r>
       <r>    8.5345    0.0000 </r>
       <r>    8.5367    0.0000 </r>
       <r>    8.5367    0.0000 </r>
       <r>    8.5369    0.0000 </r>
       <r>    8.5379    0.0000 </r>
       <r>    8.5385    0.0000 </r>
       <r>    8.5394    0.0000 </r>
       <r>    8.5402    0.0000 </r>
       <r>    8.5410    0.0000 </r>
       <r>    8.5420    0.0000 </r>
       <r>    8.5445    0.0000 </r>
       <r>    8.5462    0.0000 </r>
       <r>    8.5489    0.0000 </r>
       <r>    8.9399    0.0000 </r>
       <r>    8.9481    0.0000 </r>
       <r>    8.9485    0.0000 </r>
       <r>    8.9511    0.0000 </r>
       <r>    8.9521    0.0000 </r>
       <r>    8.9533    0.0000 </r>
       <r>    8.9540    0.0000 </r>
       <r>    8.9605    0.0000 </r>
       <r>    9.4884    0.0000 </r>
       <r>    9.5026    0.0000 </r>
      </set>
      <set comment="kpoint 3">
       <r>  -21.3087    1.0000 </r>
       <r>  -21.3080    1.0000 </r>
       <r>  -21.3080    1.0000 </r>
       <r>  -21.3009    1.0000 </r>
       <r>  -21.3004    1.0000 </r>
       <r>  -21.3002    1.0000 </r>
       <r>  -21.3001    1.0000 </r>
       <r>  -21.2993    1.0000 </r>
       <r>  -21.2971    1.0000 </r>
       <r>  -21.2964    1.0000 </r>
       <r>  -21.2963    1.0000 </r>
       <r>  -21.2935    1.0000 </r>
       <r>  -21.2926    1.0000 </r>
       <r>  -21.2923    1.0000 </r>
       <r>  -21.2919    1.0000 </r>
       <r>  -21.2917    1.0000 </r>
       <r>  -21.2917    1.0000 </r>
       <r>  -21.2912    1.0000 </r>
       <r>  -21.2910    1.0000 </r>
       <r>  -21.2904    1.0000 </r>
       <r>  -21.2902    1.0000 </r>
       <r>  -21.2899    1.0000 </r>
       <r>  -21.2892    1.0000 </r>
       <r>  -21.2890    1.0000 </r>
       <r>  -21.2884    1.0000 </r>
       <r>  -21.2880    1.0000 </r>
       <r>  -21.2877    1.0000 </r>
       <r>  -21.2876    1.0000 </r>
       <r>  -21.2874    1.0000 </r>
       <r>  -21.2863    1.0000 </r>
       <r>  -21.2853    1.0000 </r>
       <r>  -21.2853    1.0000 </r>
       <r>  -21.2849    1.0000 </r>
       <r>  -21.2848    1.0000 </r>
       <r>  -21.2843    1.0000 </r>
       <r>  -21.2841    1.0000 </r>
       <r>  -21.2840    1.0000 </r>
       <r>  -21.2835    1.0000 </r>
       <r>  -21.2833    1.0000 </r>
       <r>  -21.2830    1.0000 </r>
       <r>  -21.2829    1.0000 </r>
       <r>  -21.2816    1.0000 </r>
       <r>  -21.2816    1.0000 </r>
       <r>  -21.2815    1.0000 </r>
       <r>  -21.2811    1.0000 </r>
       <r>  -21.2802    1.0000 </r>
       <r>  -21.2794    1.0000 </r>
       <r>  -21.2788    1.0000 </r>
       <r>  -21.2788    1.0000 </r>
       <r>  -21.2785    1.0000 </r>
       <r>  -21.2778    1.0000 </r>
       <r>  -21.2775    1.0000 </r>
       <r>  -21.2773    1.0000 </r>
       <r>  -21.2768    1.0000 </r>
       <r>  -21.2766    1.0000 </r>
       <r>  -21.2765    1.0000 </r>
       <r>  -21.2765    1.0000 </r>
       <r>  -21.2762    1.0000 </r>
       <r>  -21.2761    1.0000 </r>
       <r>  -21.2761    1.0000 </r>
       <r>  -21.2760    1.0000 </r>
       <r>  -21.2759    1.0000 </r>
       <r>  -21.2754    1.0000 </r>
       <r>  -21.2752    1.0000 </r>
       <r>  -21.2748    1.0000 </r>
       <r>  -21.2747    1.0000 </r>
       <r>  -21.2747    1.0000 </r>
       <r>  -21.2746    1.0000 </r>
       <r>  -21.2743    1.0000 </r>
       <r>  -21.2740    1.0000 </r>
       <r>  -21.2739    1.0000 </r>
       <r>  -21.2739    1.0000 </r>
       <r>  -21.2732    1.0000 </r>
       <r>  -21.2726    1.0000 </r>
       <r>  -21.2724    1.0000 </r>
       <r>  -21.2723    1.0000 </r>
       <r>  -21.2722    1.0000 </r>
       <r>  -21.2717    1.0000 </r>
       <r>  -21.2714    1.0000 </r>
       <r>  -21.2714    1.0000 </r>
       <r>  -21.2713    1.0000 </r>
       <r>  -21.2710    1.0000 </r>
       <r>  -21.2709    1.0000 </r>
       <r>  -21.2705    1.0000 </r>
       <r>  -21.2704    1.0000 </r>
       <r>  -21.2704    1.0000 </r>
       <r>  -21.2700    1.0000 </r>
       <r>  -21.2700    1.0000 </r>
       <r>  -21.2693    1.0000 </r>
       <r>  -21.2693    1.0000 </r>
       <r>  -21.2692    1.0000 </r>
       <r>  -21.2689    1.0000 </r>
       <r>  -21.2687    1.0000 </r>
       <r>  -21.2557    1.0000 </r>
       <r>  -21.2556    1.0000 </r>
       <r>  -21.2555    1.0000 </r>
       <r>  -13.2916    1.0000 </r>
       <r>  -13.2912    1.0000 </r>
       <r>  -13.1051    1.0000 </r>
       <r>  -13.0984    1.0000 </r>
       <r>  -13.0969    1.0000 </r>
       <r>  -13.0969    1.0000 </r>
       <r>  -13.0969    1.0000 </r>
       <r>  -13.0968    1.0000 </r>
       <r>  -13.0954    1.0000 </r>
       <r>  -13.0909    1.0000 </r>
       <r>  -13.0072    1.0000 </r>
       <r>  -13.0015    1.0000 </r>
       <r>  -13.0011    1.0000 </r>
       <r>  -13.0007    1.0000 </r>
       <r>  -13.0007    1.0000 </r>
       <r>  -13.0006    1.0000 </r>
       <r>  -13.0006    1.0000 </r>
       <r>  -12.9999    1.0000 </r>
       <r>  -12.9952    1.0000 </r>
       <r>  -12.9912    1.0000 </r>
       <r>  -12.9491    1.0000 </r>
       <r>  -12.9453    1.0000 </r>
       <r>  -12.9439    1.0000 </r>
       <r>  -12.9437    1.0000 </r>
       <r>  -12.9437    1.0000 </r>
       <r>  -12.9434    1.0000 </r>
       <r>  -12.9423    1.0000 </r>
       <r>  -12.9382    1.0000 </r>
       <r>  -12.9311    1.0000 </r>
       <r>  -12.9305    1.0000 </r>
       <r>  -12.9303    1.0000 </r>
       <r>  -12.9273    1.0000 </r>
       <r>   -2.5051    1.0000 </r>
       <r>   -2.5050    1.0000 </r>
       <r>   -2.5049    1.0000 </r>
       <r>   -2.5045    1.0000 </r>
       <r>   -2.5043    1.0000 </r>
       <r>   -2.5039    1.0000 </r>
       <r>   -2.5038    1.0000 </r>
       <r>   -2.5037    1.0000 </r>
       <r>   -2.2878    1.0000 </r>
       <r>   -2.2877    1.0000 </r>
       <r>   -2.2876    1.0000 </r>
       <r>   -2.2876    1.0000 </r>
       <r>   -2.2743    1.0000 </r>
       <r>   -2.2741    1.0000 </r>
       <r>   -2.1409    1.0000 </r>
       <r>   -2.1367    1.0000 </r>
       <r>   -2.1365    1.0000 </r>
       <r>   -2.1365    1.0000 </r>
       <r>   -2.1363    1.0000 </r>
       <r>   -2.1363    1.0000 </r>
       <r>   -2.1361    1.0000 </r>
       <r>   -2.1318    1.0000 </r>
       <r>   -1.9868    1.0000 </r>
       <r>   -1.9867    1.0000 </r>
       <r>   -1.9858    1.0000 </r>
       <r>   -1.9856    1.0000 </r>
       <r>   -1.9855    1.0000 </r>
       <r>   -1.9854    1.0000 </r>
       <r>   -1.9840    1.0000 </r>
       <r>   -1.9840    1.0000 </r>
       <r>   -1.8123    1.0000 </r>
       <r>   -1.8089    1.0000 </r>
       <r>   -1.8088    1.0000 </r>
       <r>   -1.8087    1.0000 </r>
       <r>   -1.8087    1.0000 </r>
       <r>   -1.8086    1.0000 </r>
       <r>   -1.8085    1.0000 </r>
       <r>   -1.8050    1.0000 </r>
       <r>   -1.4979    1.0000 </r>
       <r>   -1.4978    1.0000 </r>
       <r>   -1.4978    1.0000 </r>
       <r>   -1.4977    1.0000 </r>
       <r>   -1.3807    1.0000 </r>
       <r>   -1.3805    1.0000 </r>
       <r>   -1.3804    1.0000 </r>
       <r>   -1.3804    1.0000 </r>
       <r>   -1.2143    1.0000 </r>
       <r>   -1.2132    1.0000 </r>
       <r>   -1.2125    1.0000 </r>
       <r>   -1.2123    1.0000 </r>
       <r>   -1.1941    1.0000 </r>
       <r>   -1.1923    1.0000 </r>
       <r>   -1.1917    1.0000 </r>
       <r>   -1.1911    1.0000 </r>
       <r>   -1.1911    1.0000 </r>
       <r>   -1.1909    1.0000 </r>
       <r>   -1.1897    1.0000 </r>
       <r>   -1.1894    1.0000 </r>
       <r>   -1.1772    1.0000 </r>
       <r>   -1.1747    1.0000 </r>
       <r>   -1.1743    1.0000 </r>
       <r>   -1.1742    1.0000 </r>
       <r>   -1.1742    1.0000 </r>
       <r>   -1.1733    1.0000 </r>
       <r>   -1.1729    1.0000 </r>
       <r>   -1.1718    1.0000 </r>
       <r>   -1.1618    1.0000 </r>
       <r>   -1.1599    1.0000 </r>
       <r>   -1.1596    1.0000 </r>
       <r>   -1.1596    1.0000 </r>
       <r>   -1.1596    1.0000 </r>
       <r>   -1.1589    1.0000 </r>
       <r>   -1.1583    1.0000 </r>
       <r>   -1.1560    1.0000 </r>
       <r>   -1.0833    1.0000 </r>
       <r>   -1.0831    1.0000 </r>
       <r>   -0.9480    1.0000 </r>
       <r>   -0.9471    1.0000 </r>
       <r>   -0.9470    1.0000 </r>
       <r>   -0.9469    1.0000 </r>
       <r>   -0.9469    1.0000 </r>
       <r>   -0.9469    1.0000 </r>
       <r>   -0.9468    1.0000 </r>
       <r>   -0.9454    1.0000 </r>
       <r>   -0.9371    1.0000 </r>
       <r>   -0.9339    1.0000 </r>
       <r>   -0.9325    1.0000 </r>
       <r>   -0.9324    1.0000 </r>
       <r>   -0.9321    1.0000 </r>
       <r>   -0.9317    1.0000 </r>
       <r>   -0.9306    1.0000 </r>
       <r>   -0.9272    1.0000 </r>
       <r>   -0.7684    1.0000 </r>
       <r>   -0.7683    1.0000 </r>
       <r>   -0.7681    1.0000 </r>
       <r>   -0.7679    1.0000 </r>
       <r>    5.0223    0.0000 </r>
       <r>    5.0224    0.0000 </r>
       <r>    6.7082    0.0000 </r>
       <r>    6.7163    0.0000 </r>
       <r>    6.7180    0.0000 </r>
       <r>    6.7183    0.0000 </r>
       <r>    6.7184    0.0000 </r>
       <r>    6.7185    0.0000 </r>
       <r>    6.7203    0.0000 </r>
       <r>    6.7267    0.0000 </r>
       <r>    6.8392    0.0000 </r>
       <r>    6.8403    0.0000 </r>
       <r>    6.8417    0.0000 </r>
       <r>    6.8428    0.0000 </r>
       <r>    6.8436    0.0000 </r>
       <r>    6.8448    0.0000 </r>
       <r>    6.8464    0.0000 </r>
       <r>    6.8477    0.0000 </r>
       <r>    6.9711    0.0000 </r>
       <r>    6.9712    0.0000 </r>
       <r>    7.3625    0.0000 </r>
       <r>    7.3625    0.0000 </r>
       <r>    7.3626    0.0000 </r>
       <r>    7.3627    0.0000 </r>
       <r>    7.4802    0.0000 </r>
       <r>    7.4803    0.0000 </r>
       <r>    7.7145    0.0000 </r>
       <r>    7.7146    0.0000 </r>
       <r>    7.7146    0.0000 </r>
       <r>    7.7146    0.0000 </r>
       <r>    8.2580    0.0000 </r>
       <r>    8.2642    0.0000 </r>
       <r>    8.2652    0.0000 </r>
       <r>    8.2658    0.0000 </r>
       <r>    8.2660    0.0000 </r>
       <r>    8.2675    0.0000 </r>
       <r>    8.2676    0.0000 </r>
       <r>    8.2727    0.0000 </r>
       <r>    8.5282    0.0000 </r>
       <r>    8.5311    0.0000 </r>
       <r>    8.5340    0.0000 </r>
       <r>    8.5357    0.0000 </r>
       <r>    8.5371    0.0000 </r>
       <r>    8.5372    0.0000 </r>
       <r>    8.5378    0.0000 </r>
       <r>    8.5383    0.0000 </r>
       <r>    8.5388    0.0000 </r>
       <r>    8.5390    0.0000 </r>
       <r>    8.5394    0.0000 </r>
       <r>    8.5401    0.0000 </r>
       <r>    8.5414    0.0000 </r>
       <r>    8.5427    0.0000 </r>
       <r>    8.5465    0.0000 </r>
       <r>    8.5487    0.0000 </r>
       <r>    8.9392    0.0000 </r>
       <r>    8.9500    0.0000 </r>
       <r>    8.9501    0.0000 </r>
       <r>    8.9508    0.0000 </r>
       <r>    8.9512    0.0000 </r>
       <r>    8.9515    0.0000 </r>
       <r>    8.9534    0.0000 </r>
       <r>    8.9610    0.0000 </r>
       <r>    9.4954    0.0000 </r>
       <r>    9.5261    0.0000 </r>
      </set>
      <set comment="kpoint 4">
       <r>  -21.3090    1.0000 </r>
       <r>  -21.3085    1.0000 </r>
       <r>  -21.3079    1.0000 </r>
       <r>  -21.3014    1.0000 </r>
       <r>  -21.2991    1.0000 </r>
       <r>  -21.2989    1.0000 </r>
       <r>  -21.2982    1.0000 </r>
       <r>  -21.2981    1.0000 </r>
       <r>  -21.2981    1.0000 </r>
       <r>  -21.2968    1.0000 </r>
       <r>  -21.2964    1.0000 </r>
       <r>  -21.2950    1.0000 </r>
       <r>  -21.2942    1.0000 </r>
       <r>  -21.2931    1.0000 </r>
       <r>  -21.2924    1.0000 </r>
       <r>  -21.2919    1.0000 </r>
       <r>  -21.2914    1.0000 </r>
       <r>  -21.2911    1.0000 </r>
       <r>  -21.2905    1.0000 </r>
       <r>  -21.2902    1.0000 </r>
       <r>  -21.2898    1.0000 </r>
       <r>  -21.2897    1.0000 </r>
       <r>  -21.2893    1.0000 </r>
       <r>  -21.2885    1.0000 </r>
       <r>  -21.2883    1.0000 </r>
       <r>  -21.2882    1.0000 </r>
       <r>  -21.2880    1.0000 </r>
       <r>  -21.2873    1.0000 </r>
       <r>  -21.2872    1.0000 </r>
       <r>  -21.2868    1.0000 </r>
       <r>  -21.2867    1.0000 </r>
       <r>  -21.2862    1.0000 </r>
       <r>  -21.2859    1.0000 </r>
       <r>  -21.2857    1.0000 </r>
       <r>  -21.2849    1.0000 </r>
       <r>  -21.2836    1.0000 </r>
       <r>  -21.2831    1.0000 </r>
       <r>  -21.2828    1.0000 </r>
       <r>  -21.2828    1.0000 </r>
       <r>  -21.2827    1.0000 </r>
       <r>  -21.2818    1.0000 </r>
       <r>  -21.2816    1.0000 </r>
       <r>  -21.2804    1.0000 </r>
       <r>  -21.2804    1.0000 </r>
       <r>  -21.2799    1.0000 </r>
       <r>  -21.2797    1.0000 </r>
       <r>  -21.2797    1.0000 </r>
       <r>  -21.2793    1.0000 </r>
       <r>  -21.2788    1.0000 </r>
       <r>  -21.2785    1.0000 </r>
       <r>  -21.2783    1.0000 </r>
       <r>  -21.2782    1.0000 </r>
       <r>  -21.2775    1.0000 </r>
       <r>  -21.2772    1.0000 </r>
       <r>  -21.2770    1.0000 </r>
       <r>  -21.2768    1.0000 </r>
       <r>  -21.2767    1.0000 </r>
       <r>  -21.2763    1.0000 </r>
       <r>  -21.2762    1.0000 </r>
       <r>  -21.2760    1.0000 </r>
       <r>  -21.2759    1.0000 </r>
       <r>  -21.2754    1.0000 </r>
       <r>  -21.2748    1.0000 </r>
       <r>  -21.2747    1.0000 </r>
       <r>  -21.2746    1.0000 </r>
       <r>  -21.2746    1.0000 </r>
       <r>  -21.2745    1.0000 </r>
       <r>  -21.2743    1.0000 </r>
       <r>  -21.2741    1.0000 </r>
       <r>  -21.2739    1.0000 </r>
[...]
      </set>
     </set>
    </set>
   </array>
  </eigenvalues>
  <separator name="orbital magnetization" >
   <v name="MAGDIPOLOUT">      0.00000000      0.00000000      0.00000000</v>
  </separator>
  <dos>
   <i name="efermi">     -0.54951565 </i>
   <total>
    <array>
     <dimension dim="1">gridpoints</dimension>
     <dimension dim="2">spin</dimension>
     <field>energy</field>
     <field>total</field>
     <field>integrated</field>
     <set>
      <set comment="spin 1">
       <r>   -22.8515     0.0000     0.0000 </r>
       <r>   -22.7385     0.0000     0.0000 </r>
       <r>   -22.6254     0.0000     0.0000 </r>
       <r>   -22.5123     0.0000     0.0000 </r>
       <r>   -22.3993     0.0000     0.0000 </r>
       <r>   -22.2862     0.0000     0.0000 </r>
       <r>   -22.1731     0.0000     0.0000 </r>
       <r>   -22.0601     0.0000     0.0000 </r>
       <r>   -21.9470     0.0000     0.0000 </r>
       <r>   -21.8340     0.0000     0.0000 </r>
       <r>   -21.7209     0.0000     0.0000 </r>
       <r>   -21.6078     0.0000     0.0000 </r>
       <r>   -21.4948     0.0000     0.0000 </r>
       <r>   -21.3817     0.0000     0.0000 </r>
       <r>   -21.2686  1286.1419   145.4173 </r>
       <r>   -21.1556   412.0002   192.0000 </r>
       <r>   -21.0425     0.0000   192.0000 </r>
       <r>   -20.9294     0.0000   192.0000 </r>
       <r>   -20.8164     0.0000   192.0000 </r>
       <r>   -20.7033     0.0000   192.0000 </r>
       <r>   -20.5902     0.0000   192.0000 </r>
       <r>   -20.4772     0.0000   192.0000 </r>
       <r>   -20.3641     0.0000   192.0000 </r>
       <r>   -20.2510     0.0000   192.0000 </r>
       <r>   -20.1380     0.0000   192.0000 </r>
       <r>   -20.0249     0.0000   192.0000 </r>
       <r>   -19.9119     0.0000   192.0000 </r>
       <r>   -19.7988     0.0000   192.0000 </r>
       <r>   -19.6857     0.0000   192.0000 </r>
       <r>   -19.5727     0.0000   192.0000 </r>
       <r>   -19.4596     0.0000   192.0000 </r>
       <r>   -19.3465     0.0000   192.0000 </r>
       <r>   -19.2335     0.0000   192.0000 </r>
       <r>   -19.1204     0.0000   192.0000 </r>
       <r>   -19.0073     0.0000   192.0000 </r>
       <r>   -18.8943     0.0000   192.0000 </r>
       <r>   -18.7812     0.0000   192.0000 </r>
       <r>   -18.6681     0.0000   192.0000 </r>
       <r>   -18.5551     0.0000   192.0000 </r>
       <r>   -18.4420     0.0000   192.0000 </r>
       <r>   -18.3289     0.0000   192.0000 </r>
       <r>   -18.2159     0.0000   192.0000 </r>
       <r>   -18.1028     0.0000   192.0000 </r>
       <r>   -17.9898     0.0000   192.0000 </r>
       <r>   -17.8767     0.0000   192.0000 </r>
       <r>   -17.7636     0.0000   192.0000 </r>
       <r>   -17.6506     0.0000   192.0000 </r>
       <r>   -17.5375     0.0000   192.0000 </r>
       <r>   -17.4244     0.0000   192.0000 </r>
       <r>   -17.3114     0.0000   192.0000 </r>
       <r>   -17.1983     0.0000   192.0000 </r>
       <r>   -17.0852     0.0000   192.0000 </r>
       <r>   -16.9722     0.0000   192.0000 </r>
       <r>   -16.8591     0.0000   192.0000 </r>
       <r>   -16.7460     0.0000   192.0000 </r>
       <r>   -16.6330     0.0000   192.0000 </r>
       <r>   -16.5199     0.0000   192.0000 </r>
       <r>   -16.4068     0.0000   192.0000 </r>
       <r>   -16.2938     0.0000   192.0000 </r>
       <r>   -16.1807     0.0000   192.0000 </r>
       <r>   -16.0677     0.0000   192.0000 </r>
       <r>   -15.9546     0.0000   192.0000 </r>
       <r>   -15.8415     0.0000   192.0000 </r>
       <r>   -15.7285     0.0000   192.0000 </r>
       <r>   -15.6154     0.0000   192.0000 </r>
       <r>   -15.5023     0.0000   192.0000 </r>
       <r>   -15.3893     0.0000   192.0000 </r>
       <r>   -15.2762     0.0000   192.0000 </r>
       <r>   -15.1631     0.0000   192.0000 </r>
       <r>   -15.0501     0.0000   192.0000 </r>
       <r>   -14.9370     0.0000   192.0000 </r>
       <r>   -14.8239     0.0000   192.0000 </r>
       <r>   -14.7109     0.0000   192.0000 </r>
       <r>   -14.5978     0.0000   192.0000 </r>
       <r>   -14.4847     0.0000   192.0000 </r>
       <r>   -14.3717     0.0000   192.0000 </r>
       <r>   -14.2586     0.0000   192.0000 </r>
       <r>   -14.1456     0.0000   192.0000 </r>
       <r>   -14.0325     0.0000   192.0000 </r>
       <r>   -13.9194     0.0000   192.0000 </r>
       <r>   -13.8064     0.0000   192.0000 </r>
       <r>   -13.6933     0.0000   192.0000 </r>
       <r>   -13.5802     0.0000   192.0000 </r>
       <r>   -13.4672     0.0000   192.0000 </r>
       <r>   -13.3541     1.3518   192.1528 </r>
       <r>   -13.2410    21.0817   194.5364 </r>
       <r>   -13.1280    48.1579   199.9817 </r>
       <r>   -13.0149   130.3587   214.7211 </r>
       <r>   -12.9018   362.3567   255.6918 </r>
       <r>   -12.7888     2.7180   256.0000 </r>
       <r>   -12.6757     0.0000   256.0000 </r>
       <r>   -12.5626     0.0000   256.0000 </r>
       <r>   -12.4496     0.0000   256.0000 </r>
       <r>   -12.3365     0.0000   256.0000 </r>
       <r>   -12.2235     0.0000   256.0000 </r>
       <r>   -12.1104     0.0000   256.0000 </r>
       <r>   -11.9973     0.0000   256.0000 </r>
       <r>   -11.8843     0.0000   256.0000 </r>
       <r>   -11.7712     0.0000   256.0000 </r>
       <r>   -11.6581     0.0000   256.0000 </r>
       <r>   -11.5451     0.0000   256.0000 </r>
       <r>   -11.4320     0.0000   256.0000 </r>
       <r>   -11.3189     0.0000   256.0000 </r>
       <r>   -11.2059     0.0000   256.0000 </r>
       <r>   -11.0928     0.0000   256.0000 </r>
       <r>   -10.9797     0.0000   256.0000 </r>
       <r>   -10.8667     0.0000   256.0000 </r>
       <r>   -10.7536     0.0000   256.0000 </r>
       <r>   -10.6405     0.0000   256.0000 </r>
       <r>   -10.5275     0.0000   256.0000 </r>
       <r>   -10.4144     0.0000   256.0000 </r>
       <r>   -10.3013     0.0000   256.0000 </r>
       <r>   -10.1883     0.0000   256.0000 </r>
       <r>   -10.0752     0.0000   256.0000 </r>
       <r>    -9.9622     0.0000   256.0000 </r>
       <r>    -9.8491     0.0000   256.0000 </r>
       <r>    -9.7360     0.0000   256.0000 </r>
       <r>    -9.6230     0.0000   256.0000 </r>
       <r>    -9.5099     0.0000   256.0000 </r>
       <r>    -9.3968     0.0000   256.0000 </r>
       <r>    -9.2838     0.0000   256.0000 </r>
       <r>    -9.1707     0.0000   256.0000 </r>
       <r>    -9.0576     0.0000   256.0000 </r>
       <r>    -8.9446     0.0000   256.0000 </r>
       <r>    -8.8315     0.0000   256.0000 </r>
       <r>    -8.7184     0.0000   256.0000 </r>
       <r>    -8.6054     0.0000   256.0000 </r>
       <r>    -8.4923     0.0000   256.0000 </r>
       <r>    -8.3792     0.0000   256.0000 </r>
       <r>    -8.2662     0.0000   256.0000 </r>
       <r>    -8.1531     0.0000   256.0000 </r>
       <r>    -8.0401     0.0000   256.0000 </r>
       <r>    -7.9270     0.0000   256.0000 </r>
       <r>    -7.8139     0.0000   256.0000 </r>
       <r>    -7.7009     0.0000   256.0000 </r>
       <r>    -7.5878     0.0000   256.0000 </r>
       <r>    -7.4747     0.0000   256.0000 </r>
       <r>    -7.3617     0.0000   256.0000 </r>
       <r>    -7.2486     0.0000   256.0000 </r>
       <r>    -7.1355     0.0000   256.0000 </r>
       <r>    -7.0225     0.0000   256.0000 </r>
       <r>    -6.9094     0.0000   256.0000 </r>
       <r>    -6.7963     0.0000   256.0000 </r>
       <r>    -6.6833     0.0000   256.0000 </r>
       <r>    -6.5702     0.0000   256.0000 </r>
       <r>    -6.4571     0.0000   256.0000 </r>
       <r>    -6.3441     0.0000   256.0000 </r>
       <r>    -6.2310     0.0000   256.0000 </r>
       <r>    -6.1180     0.0000   256.0000 </r>
       <r>    -6.0049     0.0000   256.0000 </r>
       <r>    -5.8918     0.0000   256.0000 </r>
       <r>    -5.7788     0.0000   256.0000 </r>
       <r>    -5.6657     0.0000   256.0000 </r>
       <r>    -5.5526     0.0000   256.0000 </r>
       <r>    -5.4396     0.0000   256.0000 </r>
       <r>    -5.3265     0.0000   256.0000 </r>
       <r>    -5.2134     0.0000   256.0000 </r>
       <r>    -5.1004     0.0000   256.0000 </r>
       <r>    -4.9873     0.0000   256.0000 </r>
       <r>    -4.8742     0.0000   256.0000 </r>
       <r>    -4.7612     0.0000   256.0000 </r>
       <r>    -4.6481     0.0000   256.0000 </r>
       <r>    -4.5350     0.0000   256.0000 </r>
       <r>    -4.4220     0.0000   256.0000 </r>
       <r>    -4.3089     0.0000   256.0000 </r>
       <r>    -4.1959     0.0000   256.0000 </r>
       <r>    -4.0828     0.0000   256.0000 </r>
       <r>    -3.9697     0.0000   256.0000 </r>
       <r>    -3.8567     0.0000   256.0000 </r>
       <r>    -3.7436     0.0000   256.0000 </r>
       <r>    -3.6305     0.0000   256.0000 </r>
       <r>    -3.5175     0.0000   256.0000 </r>
       <r>    -3.4044     0.0000   256.0000 </r>
       <r>    -3.2913     0.0000   256.0000 </r>
       <r>    -3.1783     0.0000   256.0000 </r>
       <r>    -3.0652     0.0000   256.0000 </r>
       <r>    -2.9521     0.0000   256.0000 </r>
       <r>    -2.8391     0.0000   256.0000 </r>
       <r>    -2.7260     0.2918   256.0330 </r>
       <r>    -2.6129     8.5527   257.0000 </r>
       <r>    -2.4999    33.0976   260.7422 </r>
       <r>    -2.3868    77.8784   269.5475 </r>
       <r>    -2.2738    87.6829   279.4613 </r>
       <r>    -2.1607   152.0974   296.6588 </r>
       <r>    -2.0476    67.1409   304.2500 </r>
       <r>    -1.9346    59.5596   310.9841 </r>
       <r>    -1.8215    68.3174   318.7094 </r>
       <r>    -1.7084    62.2701   325.7500 </r>
       <r>    -1.5954     0.0000   325.7500 </r>
       <r>    -1.4823    94.3045   336.4125 </r>
       <r>    -1.3692   178.0013   356.5382 </r>
       <r>    -1.2562    20.6690   358.8751 </r>
       <r>    -1.1431   264.0819   388.7335 </r>
       <r>    -1.0300   130.7813   403.5217 </r>
       <r>    -0.9170   262.9311   433.2501 </r>
       <r>    -0.8039    58.7620   439.8942 </r>
       <r>    -0.6908    65.2667   447.2736 </r>
       <r>    -0.5778     6.4200   448.0000 </r>
       <r>    -0.4647     0.0000   448.0000 </r>
       <r>    -0.3517     0.0000   448.0000 </r>
       <r>    -0.2386     0.0000   448.0000 </r>
       <r>    -0.1255     0.0000   448.0000 </r>
       <r>    -0.0125     0.0000   448.0000 </r>
       <r>     0.1006     0.0000   448.0000 </r>
       <r>     0.2137     0.0000   448.0000 </r>
       <r>     0.3267     0.0000   448.0000 </r>
       <r>     0.4398     0.0000   448.0000 </r>
       <r>     0.5529     0.0000   448.0000 </r>
       <r>     0.6659     0.0000   448.0000 </r>
       <r>     0.7790     0.0000   448.0000 </r>
       <r>     0.8921     0.0000   448.0000 </r>
       <r>     1.0051     0.0000   448.0000 </r>
       <r>     1.1182     0.0000   448.0000 </r>
       <r>     1.2313     0.0000   448.0000 </r>
       <r>     1.3443     0.0000   448.0000 </r>
       <r>     1.4574     0.0000   448.0000 </r>
       <r>     1.5704     0.0000   448.0000 </r>
       <r>     1.6835     0.0000   448.0000 </r>
       <r>     1.7966     0.0000   448.0000 </r>
       <r>     1.9096     0.0000   448.0000 </r>
       <r>     2.0227     0.0000   448.0000 </r>
       <r>     2.1358     0.0000   448.0000 </r>
       <r>     2.2488     0.0000   448.0000 </r>
       <r>     2.3619     0.0000   448.0000 </r>
       <r>     2.4750     0.0000   448.0000 </r>
       <r>     2.5880     0.0000   448.0000 </r>
       <r>     2.7011     0.0000   448.0000 </r>
       <r>     2.8142     0.0000   448.0000 </r>
       <r>     2.9272     0.0000   448.0000 </r>
       <r>     3.0403     0.0000   448.0000 </r>
       <r>     3.1534     0.0000   448.0000 </r>
       <r>     3.2664     0.0000   448.0000 </r>
       <r>     3.3795     0.0000   448.0000 </r>
       <r>     3.4925     0.0000   448.0000 </r>
       <r>     3.6056     0.0000   448.0000 </r>
       <r>     3.7187     0.0000   448.0000 </r>
       <r>     3.8317     0.0000   448.0000 </r>
       <r>     3.9448     0.0000   448.0000 </r>
       <r>     4.0579     0.0000   448.0000 </r>
       <r>     4.1709     0.0000   448.0000 </r>
       <r>     4.2840     0.0001   448.0000 </r>
       <r>     4.3971     2.2110   448.2500 </r>
       <r>     4.5101     0.0000   448.2500 </r>
       <r>     4.6232     0.0000   448.2500 </r>
       <r>     4.7363     0.0000   448.2500 </r>
       <r>     4.8493     0.0000   448.2500 </r>
       <r>     4.9624     0.0002   448.2500 </r>
       <r>     5.0755    13.2652   449.7498 </r>
       <r>     5.1885     0.0000   449.7500 </r>
       <r>     5.3016     0.0000   449.7500 </r>
       <r>     5.4146     0.0000   449.7500 </r>
       <r>     5.5277     5.6384   450.3875 </r>
       <r>     5.6408    20.8951   452.7500 </r>
       <r>     5.7538     0.0000   452.7500 </r>
       <r>     5.8669    17.5335   454.7324 </r>
       <r>     5.9800     0.1555   454.7500 </r>
       <r>     6.0930     0.0000   454.7500 </r>
       <r>     6.2061     0.0000   454.7500 </r>
       <r>     6.3192     0.0066   454.7507 </r>
       <r>     6.4322    14.9278   456.4385 </r>
       <r>     6.5453     7.1768   457.2500 </r>
       <r>     6.6584    48.1266   462.6914 </r>
       <r>     6.7714    57.9986   469.2490 </r>
       <r>     6.8845    59.5837   475.9863 </r>
       <r>     6.9976    12.9604   477.4517 </r>
       <r>     7.1106     0.4273   477.5000 </r>
       <r>     7.2237     5.8613   478.1627 </r>
       <r>     7.3368     1.7547   478.3611 </r>
       <r>     7.4498    84.7740   487.9461 </r>
       <r>     7.5629   165.4651   506.6551 </r>
       <r>     7.6759     0.9356   506.7609 </r>
       <r>     7.7890    26.4371   509.7500 </r>
       <r>     7.9021     0.8186   509.8426 </r>
       <r>     8.0151    52.2483   515.7500 </r>
       <r>     8.1282     0.0379   515.7543 </r>
       <r>     8.2413    15.8852   517.5503 </r>
       <r>     8.3543    90.2096   527.7499 </r>
       <r>     8.4674     0.0001   527.7500 </r>
       <r>     8.5805   154.8387   545.2568 </r>
       <r>     8.6935     4.3584   545.7500 </r>
       <r>     8.8066     0.0000   545.7500 </r>
       <r>     8.9197    91.0491   556.0444 </r>
       <r>     9.0327   117.7000   569.3523 </r>
       <r>     9.1458     1.3060   569.5000 </r>
       <r>     9.2589    28.7210   572.7473 </r>
       <r>     9.3719    13.4786   574.2713 </r>
       <r>     9.4850     4.8002   574.8140 </r>
       <r>     9.5980    10.4895   576.0000 </r>
       <r>     9.7111     0.0000   576.0000 </r>
       <r>     9.8242     0.0000   576.0000 </r>
       <r>     9.9372     0.0000   576.0000 </r>
       <r>    10.0503     0.0000   576.0000 </r>
       <r>    10.1634     0.0000   576.0000 </r>
       <r>    10.2764     0.0000   576.0000 </r>
       <r>    10.3895     0.0000   576.0000 </r>
       <r>    10.5026     0.0000   576.0000 </r>
       <r>    10.6156     0.0000   576.0000 </r>
       <r>    10.7287     0.0000   576.0000 </r>
       <r>    10.8418     0.0000   576.0000 </r>
       <r>    10.9548     0.0000   576.0000 </r>
       <r>    11.0679     0.0000   576.0000 </r>
      </set>
     </set>
    </array>
   </total>
  </dos>
 </calculation>
 <structure name="finalpos" >
  <crystal>
   <varray name="basis" >
    <v>      11.20400236       0.00000000       0.00000000 </v>
    <v>       0.00000000      11.20400236       0.00000000 </v>
    <v>       0.00000000       0.00000000      11.20400236 </v>
   </varray>
   <i name="volume">   1406.43470641 </i>
   <varray name="rec_basis" >
    <v>       0.08925382       0.00000000       0.00000000 </v>
    <v>       0.00000000       0.08925382       0.00000000 </v>
    <v>       0.00000000       0.00000000       0.08925382 </v>
   </varray>
  </crystal>
  <varray name="positions" >
   <v>       0.00267761       0.00000000       0.00000000 </v>
   <v>       0.25000000       0.25000000       0.00000000 </v>
   <v>       0.25000000       0.00000000       0.25000000 </v>
   <v>       0.00000000       0.25000000       0.25000000 </v>
   <v>       0.00000000       0.00000000       0.50000000 </v>
   <v>       0.25000000       0.25000000       0.50000000 </v>
   <v>       0.25000000       0.00000000       0.75000000 </v>
   <v>       0.00000000       0.25000000       0.75000000 </v>
   <v>       0.00000000       0.50000000       0.00000000 </v>
   <v>       0.25000000       0.75000000       0.00000000 </v>
   <v>       0.25000000       0.50000000       0.25000000 </v>
   <v>       0.00000000       0.75000000       0.25000000 </v>
   <v>       0.00000000       0.50000000       0.50000000 </v>
   <v>       0.25000000       0.75000000       0.50000000 </v>
   <v>       0.25000000       0.50000000       0.75000000 </v>
   <v>       0.00000000       0.75000000       0.75000000 </v>
   <v>       0.50000000       0.00000000       0.00000000 </v>
   <v>       0.75000000       0.25000000       0.00000000 </v>
   <v>       0.75000000       0.00000000       0.25000000 </v>
   <v>       0.50000000       0.25000000       0.25000000 </v>
   <v>       0.50000000       0.00000000       0.50000000 </v>
   <v>       0.75000000       0.25000000       0.50000000 </v>
   <v>       0.75000000       0.00000000       0.75000000 </v>
   <v>       0.50000000       0.25000000       0.75000000 </v>
   <v>       0.50000000       0.50000000       0.00000000 </v>
   <v>       0.75000000       0.75000000       0.00000000 </v>
   <v>       0.75000000       0.50000000       0.25000000 </v>
   <v>       0.50000000       0.75000000       0.25000000 </v>
   <v>       0.50000000       0.50000000       0.50000000 </v>
   <v>       0.75000000       0.75000000       0.50000000 </v>
   <v>       0.75000000       0.50000000       0.75000000 </v>
   <v>       0.50000000       0.75000000       0.75000000 </v>
   <v>       0.25000000       0.25000000       0.25000000 </v>
   <v>       0.00000000       0.00000000       0.25267761 </v>
   <v>       0.00000000       0.25000000       0.00000000 </v>
   <v>       0.25000000       0.00000000       0.00000000 </v>
   <v>       0.25000000       0.25000000       0.75000000 </v>
   <v>       0.00000000       0.00000000       0.75000000 </v>
   <v>       0.00000000       0.25000000       0.50000000 </v>
   <v>       0.25000000       0.00000000       0.50000000 </v>
   <v>       0.25000000       0.75000000       0.25000000 </v>
   <v>       0.00000000       0.50000000       0.25000000 </v>
   <v>       0.00000000       0.75000000       0.00000000 </v>
   <v>       0.25000000       0.50000000       0.00000000 </v>
   <v>       0.25000000       0.75000000       0.75000000 </v>
   <v>       0.00000000       0.50000000       0.75000000 </v>
   <v>       0.00000000       0.75000000       0.50000000 </v>
   <v>       0.25000000       0.50000000       0.50000000 </v>
   <v>       0.75000000       0.25000000       0.25000000 </v>
   <v>       0.50000000       0.00000000       0.25000000 </v>
   <v>       0.50000000       0.25000000       0.00000000 </v>
   <v>       0.75000000       0.00000000       0.00000000 </v>
   <v>       0.75000000       0.25000000       0.75000000 </v>
   <v>       0.50000000       0.00000000       0.75000000 </v>
   <v>       0.50000000       0.25000000       0.50000000 </v>
   <v>       0.75000000       0.00000000       0.50000000 </v>
   <v>       0.75000000       0.75000000       0.25000000 </v>
   <v>       0.50000000       0.50000000       0.25000000 </v>
   <v>       0.50000000       0.75000000       0.00000000 </v>
   <v>       0.75000000       0.50000000       0.00000000 </v>
   <v>       0.75000000       0.75000000       0.75000000 </v>
   <v>       0.50000000       0.50000000       0.75000000 </v>
   <v>       0.50000000       0.75000000       0.50000000 </v>
   <v>       0.75000000       0.50000000       0.50000000 </v>
  </varray>
 </structure>
</modeling>
