   2   2   0   0
  0.2197554E+02  0.3961213E-09  0.3961213E-09  0.3961213E-09  0.5000000E-15
  1.000000000000000E-004
  CAR 
 unknown system                          
     21.21164546    -23.32906425  301     -0.57618504      1.00000000
    -23.329  0.0000E+00  0.0000E+00
    -23.181  0.0000E+00  0.0000E+00
    -23.032  0.0000E+00  0.0000E+00
    -22.884  0.0000E+00  0.0000E+00
    -22.735  0.0000E+00  0.0000E+00
    -22.587  0.0000E+00  0.0000E+00
    -22.438  0.0000E+00  0.0000E+00
    -22.290  0.0000E+00  0.0000E+00
    -22.141  0.0000E+00  0.0000E+00
    -21.993  0.0000E+00  0.0000E+00
    -21.844  0.0000E+00  0.0000E+00
    -21.696  0.0000E+00  0.0000E+00
    -21.547  0.0000E+00  0.0000E+00
    -21.399  0.2142E-13  0.3180E-14
    -21.250  0.7881E-01  0.1170E-01
    -21.102  0.0000E+00  0.1200E-01
    -20.954  0.0000E+00  0.1200E-01
    -20.805  0.0000E+00  0.1200E-01
    -20.657  0.0000E+00  0.1200E-01
    -20.508  0.0000E+00  0.1200E-01
    -20.360  0.0000E+00  0.1200E-01
    -20.211  0.0000E+00  0.1200E-01
    -20.063  0.0000E+00  0.1200E-01
    -19.914  0.0000E+00  0.1200E-01
    -19.766  0.0000E+00  0.1200E-01
    -19.617  0.0000E+00  0.1200E-01
    -19.469  0.0000E+00  0.1200E-01
    -19.320  0.0000E+00  0.1200E-01
    -19.172  0.0000E+00  0.1200E-01
    -19.023  0.0000E+00  0.1200E-01
    -18.875  0.0000E+00  0.1200E-01
    -18.727  0.0000E+00  0.1200E-01
    -18.578  0.0000E+00  0.1200E-01
    -18.430  0.0000E+00  0.1200E-01
    -18.281  0.0000E+00  0.1200E-01
    -18.133  0.0000E+00  0.1200E-01
    -17.984  0.0000E+00  0.1200E-01
    -17.836  0.0000E+00  0.1200E-01
    -17.687  0.0000E+00  0.1200E-01
    -17.539  0.0000E+00  0.1200E-01
    -17.390  0.0000E+00  0.1200E-01
    -17.242  0.0000E+00  0.1200E-01
    -17.093  0.0000E+00  0.1200E-01
    -16.945  0.0000E+00  0.1200E-01
    -16.796  0.0000E+00  0.1200E-01
    -16.648  0.0000E+00  0.1200E-01
    -16.499  0.0000E+00  0.1200E-01
    -16.351  0.0000E+00  0.1200E-01
    -16.203  0.0000E+00  0.1200E-01
    -16.054  0.0000E+00  0.1200E-01
    -15.906  0.0000E+00  0.1200E-01
    -15.757  0.0000E+00  0.1200E-01
    -15.609  0.0000E+00  0.1200E-01
    -15.460  0.0000E+00  0.1200E-01
    -15.312  0.0000E+00  0.1200E-01
    -15.163  0.0000E+00  0.1200E-01
    -15.015  0.0000E+00  0.1200E-01
    -14.866  0.0000E+00  0.1200E-01
    -14.718  0.0000E+00  0.1200E-01
    -14.569  0.0000E+00  0.1200E-01
    -14.421  0.0000E+00  0.1200E-01
    -14.272  0.0000E+00  0.1200E-01
    -14.124  0.0000E+00  0.1200E-01
    -13.976  0.0000E+00  0.1200E-01
    -13.827  0.0000E+00  0.1200E-01
    -13.679  0.0000E+00  0.1200E-01
    -13.530  0.0000E+00  0.1200E-01
    -13.382  0.1200E-04  0.1200E-01
    -13.233  0.4091E-03  0.1206E-01
    -13.085  0.5893E-02  0.1294E-01
    -12.936  0.1747E-01  0.1553E-01
    -12.788  0.2858E-02  0.1600E-01
    -12.639  0.0000E+00  0.1600E-01
    -12.491  0.0000E+00  0.1600E-01
    -12.342  0.0000E+00  0.1600E-01
    -12.194  0.0000E+00  0.1600E-01
    -12.045  0.0000E+00  0.1600E-01
    -11.897  0.0000E+00  0.1600E-01
    -11.748  0.0000E+00  0.1600E-01
    -11.600  0.0000E+00  0.1600E-01
    -11.452  0.0000E+00  0.1600E-01
    -11.303  0.0000E+00  0.1600E-01
    -11.155  0.0000E+00  0.1600E-01
    -11.006  0.0000E+00  0.1600E-01
    -10.858  0.0000E+00  0.1600E-01
    -10.709  0.0000E+00  0.1600E-01
    -10.561  0.0000E+00  0.1600E-01
    -10.412  0.0000E+00  0.1600E-01
    -10.264  0.0000E+00  0.1600E-01
    -10.115  0.0000E+00  0.1600E-01
     -9.967  0.0000E+00  0.1600E-01
     -9.818  0.0000E+00  0.1600E-01
     -9.670  0.0000E+00  0.1600E-01
     -9.521  0.0000E+00  0.1600E-01
     -9.373  0.0000E+00  0.1600E-01
     -9.225  0.0000E+00  0.1600E-01
     -9.076  0.0000E+00  0.1600E-01
     -8.928  0.0000E+00  0.1600E-01
     -8.779  0.0000E+00  0.1600E-01
     -8.631  0.0000E+00  0.1600E-01
     -8.482  0.0000E+00  0.1600E-01
     -8.334  0.0000E+00  0.1600E-01
     -8.185  0.0000E+00  0.1600E-01
     -8.037  0.0000E+00  0.1600E-01
     -7.888  0.0000E+00  0.1600E-01
     -7.740  0.0000E+00  0.1600E-01
     -7.591  0.0000E+00  0.1600E-01
     -7.443  0.0000E+00  0.1600E-01
     -7.294  0.0000E+00  0.1600E-01
     -7.146  0.0000E+00  0.1600E-01
     -6.997  0.0000E+00  0.1600E-01
     -6.849  0.0000E+00  0.1600E-01
     -6.701  0.0000E+00  0.1600E-01
     -6.552  0.0000E+00  0.1600E-01
     -6.404  0.0000E+00  0.1600E-01
     -6.255  0.0000E+00  0.1600E-01
     -6.107  0.0000E+00  0.1600E-01
     -5.958  0.0000E+00  0.1600E-01
     -5.810  0.0000E+00  0.1600E-01
     -5.661  0.0000E+00  0.1600E-01
     -5.513  0.0000E+00  0.1600E-01
     -5.364  0.0000E+00  0.1600E-01
     -5.216  0.0000E+00  0.1600E-01
     -5.067  0.0000E+00  0.1600E-01
     -4.919  0.0000E+00  0.1600E-01
     -4.770  0.0000E+00  0.1600E-01
     -4.622  0.0000E+00  0.1600E-01
     -4.473  0.0000E+00  0.1600E-01
     -4.325  0.0000E+00  0.1600E-01
     -4.177  0.0000E+00  0.1600E-01
     -4.028  0.0000E+00  0.1600E-01
     -3.880  0.0000E+00  0.1600E-01
     -3.731  0.0000E+00  0.1600E-01
     -3.583  0.0000E+00  0.1600E-01
     -3.434  0.0000E+00  0.1600E-01
     -3.286  0.0000E+00  0.1600E-01
     -3.137  0.0000E+00  0.1600E-01
     -2.989  0.0000E+00  0.1600E-01
     -2.840  0.0000E+00  0.1600E-01
     -2.692  0.1111E-02  0.1616E-01
     -2.543  0.5733E-03  0.1625E-01
     -2.395  0.1225E-02  0.1643E-01
     -2.246  0.1011E-01  0.1794E-01
     -2.098  0.5048E-02  0.1869E-01
     -1.950  0.1342E-03  0.1871E-01
     -1.801  0.8949E-02  0.2004E-01
     -1.653  0.1736E-02  0.2031E-01
     -1.504  0.2568E-02  0.2069E-01
     -1.356  0.1511E-01  0.2294E-01
     -1.207  0.2526E-02  0.2331E-01
     -1.059  0.1010E-01  0.2481E-01
     -0.910  0.1340E-01  0.2680E-01
     -0.762  0.6731E-02  0.2781E-01
     -0.613  0.1263E-02  0.2800E-01
     -0.465  0.0000E+00  0.2800E-01
     -0.316  0.0000E+00  0.2800E-01
     -0.168  0.0000E+00  0.2800E-01
     -0.019  0.0000E+00  0.2800E-01
      0.129  0.0000E+00  0.2800E-01
      0.278  0.0000E+00  0.2800E-01
      0.426  0.0000E+00  0.2800E-01
      0.574  0.0000E+00  0.2800E-01
      0.723  0.0000E+00  0.2800E-01
      0.871  0.0000E+00  0.2800E-01
      1.020  0.0000E+00  0.2800E-01
      1.168  0.0000E+00  0.2800E-01
      1.317  0.0000E+00  0.2800E-01
      1.465  0.0000E+00  0.2800E-01
      1.614  0.0000E+00  0.2800E-01
      1.762  0.0000E+00  0.2800E-01
      1.911  0.0000E+00  0.2800E-01
      2.059  0.0000E+00  0.2800E-01
      2.208  0.0000E+00  0.2800E-01
      2.356  0.0000E+00  0.2800E-01
      2.505  0.0000E+00  0.2800E-01
      2.653  0.0000E+00  0.2800E-01
      2.801  0.0000E+00  0.2800E-01
      2.950  0.0000E+00  0.2800E-01
      3.098  0.0000E+00  0.2800E-01
      3.247  0.0000E+00  0.2800E-01
      3.395  0.0000E+00  0.2800E-01
      3.544  0.0000E+00  0.2800E-01
      3.692  0.0000E+00  0.2800E-01
      3.841  0.0000E+00  0.2800E-01
      3.989  0.0000E+00  0.2800E-01
      4.138  0.0000E+00  0.2800E-01
      4.286  0.1737E-07  0.2800E-01
      4.435  0.4209E-03  0.2806E-01
      4.583  0.0000E+00  0.2806E-01
      4.732  0.0000E+00  0.2806E-01
      4.880  0.0000E+00  0.2806E-01
      5.029  0.0000E+00  0.2806E-01
      5.177  0.0000E+00  0.2806E-01
      5.325  0.0000E+00  0.2806E-01
      5.474  0.0000E+00  0.2806E-01
      5.622  0.0000E+00  0.2806E-01
      5.771  0.1775E-07  0.2806E-01
      5.919  0.3368E-02  0.2856E-01
      6.068  0.0000E+00  0.2856E-01
      6.216  0.0000E+00  0.2856E-01
      6.365  0.9018E-03  0.2870E-01
      6.513  0.3308E-02  0.2919E-01
      6.662  0.0000E+00  0.2919E-01
      6.810  0.1177E-03  0.2920E-01
      6.959  0.1145E-02  0.2937E-01
      7.107  0.5181E-15  0.2938E-01
      7.256  0.1262E-02  0.2956E-01
      7.404  0.6029E-02  0.3046E-01
      7.552  0.9126E-02  0.3181E-01
      7.701  0.0000E+00  0.3181E-01
      7.849  0.0000E+00  0.3181E-01
      7.998  0.0000E+00  0.3181E-01
      8.146  0.1292E-03  0.3183E-01
      8.295  0.4509E-02  0.3250E-01
      8.443  0.1122E-17  0.3256E-01
      8.592  0.9997E-02  0.3405E-01
      8.740  0.0000E+00  0.3406E-01
      8.889  0.8892E-03  0.3419E-01
      9.037  0.9214E-02  0.3556E-01
      9.186  0.1911E-06  0.3556E-01
      9.334  0.8369E-02  0.3680E-01
      9.483  0.1010E-01  0.3831E-01
      9.631  0.0000E+00  0.3831E-01
      9.780  0.0000E+00  0.3831E-01
      9.928  0.7632E-09  0.3831E-01
     10.076  0.1684E-02  0.3856E-01
     10.225  0.2668E-02  0.3896E-01
     10.373  0.4355E-02  0.3961E-01
     10.522  0.8504E-12  0.3963E-01
     10.670  0.7596E-02  0.4075E-01
     10.819  0.2928E-02  0.4119E-01
     10.967  0.0000E+00  0.4119E-01
     11.116  0.3737E-04  0.4119E-01
     11.264  0.5014E-02  0.4194E-01
     11.413  0.0000E+00  0.4194E-01
     11.561  0.9642E-02  0.4337E-01
     11.710  0.1917E-04  0.4344E-01
     11.858  0.5032E-02  0.4419E-01
     12.007  0.0000E+00  0.4419E-01
     12.155  0.0000E+00  0.4419E-01
     12.304  0.0000E+00  0.4419E-01
     12.452  0.3488E-05  0.4419E-01
     12.600  0.1205E-01  0.4598E-01
     12.749  0.5765E-03  0.4606E-01
     12.897  0.0000E+00  0.4606E-01
     13.046  0.0000E+00  0.4606E-01
     13.194  0.0000E+00  0.4606E-01
     13.343  0.5434E-03  0.4614E-01
     13.491  0.1208E-01  0.4794E-01
     13.640  0.0000E+00  0.4794E-01
     13.788  0.0000E+00  0.4794E-01
     13.937  0.4089E-09  0.4794E-01
     14.085  0.4217E-03  0.4800E-01
     14.234  0.2525E-02  0.4838E-01
     14.382  0.1684E-02  0.4862E-01
     14.531  0.0000E+00  0.4863E-01
     14.679  0.4684E-03  0.4869E-01
     14.827  0.7945E-03  0.4881E-01
     14.976  0.2912E-02  0.4924E-01
     15.124  0.9810E-02  0.5077E-01
     15.273  0.0000E+00  0.5081E-01
     15.421  0.0000E+00  0.5081E-01
     15.570  0.2876E-03  0.5086E-01
     15.718  0.1479E-01  0.5305E-01
     15.867  0.9138E-03  0.5319E-01
     16.015  0.7721E-06  0.5319E-01
     16.164  0.5051E-02  0.5394E-01
     16.312  0.0000E+00  0.5394E-01
     16.461  0.8154E-03  0.5406E-01
     16.609  0.1981E-01  0.5700E-01
     16.758  0.1226E-06  0.5700E-01
     16.906  0.1010E-01  0.5850E-01
     17.055  0.0000E+00  0.5850E-01
     17.203  0.0000E+00  0.5850E-01
     17.351  0.0000E+00  0.5850E-01
     17.500  0.0000E+00  0.5850E-01
     17.648  0.5340E-06  0.5850E-01
     17.797  0.5051E-02  0.5925E-01
     17.945  0.1010E-01  0.6075E-01
     18.094  0.5061E-02  0.6150E-01
     18.242  0.6957E-02  0.6253E-01
     18.391  0.3979E-02  0.6312E-01
     18.539  0.0000E+00  0.6313E-01
     18.688  0.0000E+00  0.6313E-01
     18.836  0.0000E+00  0.6313E-01
     18.985  0.3062E-15  0.6313E-01
     19.133  0.2524E-02  0.6350E-01
     19.282  0.3367E-02  0.6400E-01
     19.430  0.0000E+00  0.6400E-01
     19.578  0.0000E+00  0.6400E-01
     19.727  0.0000E+00  0.6400E-01
     19.875  0.0000E+00  0.6400E-01
     20.024  0.0000E+00  0.6400E-01
     20.172  0.0000E+00  0.6400E-01
     20.321  0.0000E+00  0.6400E-01
     20.469  0.0000E+00  0.6400E-01
     20.618  0.0000E+00  0.6400E-01
     20.766  0.0000E+00  0.6400E-01
     20.915  0.0000E+00  0.6400E-01
     21.063  0.0000E+00  0.6400E-01
     21.212  0.0000E+00  0.6400E-01
