    2    2  500    1
  0.2197554E+02  0.3961213E-09  0.3961213E-09  0.3961213E-09  0.5000000E-15
  1.000000000000000E-004
  CAR 
 unknown system                          
     14      8     16
 
  0.0000000E+00  0.0000000E+00  0.0000000E+00  0.1562500E-01
      1        -21.270338   1.000000
      2        -21.270338   1.000000
      3        -21.270337   1.000000
      4        -13.354725   1.000000
      5         -0.662143   1.000000
      6         -0.662143   1.000000
      7         -0.662141   1.000000
      8          4.341853   0.000000
      9         10.355701   0.000000
     10         10.355701   0.000000
     11         10.355702   0.000000
     12         12.607245   0.000000
     13         12.607245   0.000000
     14         14.003970   0.000000
     15         16.507157   0.000000
     16         16.507170   0.000000
 
  0.2500000E+00  0.2675460E-18 -0.4539842E-17  0.1250000E+00
      1        -21.287506   1.000000
      2        -21.271561   1.000000
      3        -21.271561   1.000000
      4        -13.176458   1.000000
      5         -1.826267   1.000000
      6         -0.807148   1.000000
      7         -0.807148   1.000000
      8          5.833173   0.000000
      9          9.240240   0.000000
     10         10.664936   0.000000
     11         10.664951   0.000000
     12         12.548683   0.000000
     13         12.548693   0.000000
     14         14.960372   0.000000
     15         18.239824   0.000000
     16         19.187068   0.000000
 
  0.5000000E+00  0.5350921E-18 -0.9079683E-17  0.6250000E-01
      1        -21.304487   1.000000
      2        -21.272775   1.000000
      3        -21.272774   1.000000
      4        -12.986754   1.000000
      5         -2.697685   1.000000
      6         -0.943075   1.000000
      7         -0.943075   1.000000
      8          6.446100   0.000000
      9          9.997450   0.000000
     10         10.249331   0.000000
     11         10.249348   0.000000
     12         14.294538   0.000000
     13         15.589191   0.000000
     14         15.589195   0.000000
     15         16.542558   0.000000
     16         16.542583   0.000000
 
  0.2500000E+00  0.2500000E+00 -0.4272296E-16  0.9375000E-01
      1        -21.284679   1.000000
      2        -21.275131   1.000000
      3        -21.275131   1.000000
      4        -13.134062   1.000000
      5         -1.794150   1.000000
      6         -0.997959   1.000000
      7         -0.997959   1.000000
      8          6.369924   0.000000
      9          8.280982   0.000000
     10         10.142727   0.000000
     11         11.747384   0.000000
     12         11.747386   0.000000
     13         13.442263   0.000000
     14         18.104834   0.000000
     15         18.104844   0.000000
     16         18.324477   0.000000
 
  0.5000000E+00  0.2500000E+00 -0.5471780E-16  0.3750000E+00
      1        -21.295130   1.000000
      2        -21.280184   1.000000
      3        -21.276222   1.000000
      4        -12.963000   1.000000
      5         -2.325160   1.000000
      6         -1.476163   1.000000
      7         -1.124744   1.000000
      8          7.400562   0.000000
      9          8.559146   0.000000
     10          9.400940   0.000000
     11         11.537277   0.000000
     12         13.365544   0.000000
     13         15.672297   0.000000
     14         16.502201   0.000000
     15         16.817275   0.000000
     16         17.857092   0.000000
 
 -0.2500000E+00  0.2500000E+00  0.5350921E-18  0.1875000E+00
      1        -21.293906   1.000000
      2        -21.280859   1.000000
      3        -21.272792   1.000000
      4        -13.007887   1.000000
      5         -2.201846   1.000000
      6         -1.502687   1.000000
      7         -0.945102   1.000000
      8          7.465961   0.000000
      9          8.902864   0.000000
     10          9.301228   0.000000
     11         11.150221   0.000000
     12         12.497207   0.000000
     13         15.102184   0.000000
     14         16.066289   0.000000
     15         17.700785   0.000000
     16         18.082667   0.000000
 
  0.5000000E+00  0.5000000E+00 -0.8544591E-16  0.4687500E-01
      1        -21.293684   1.000000
      2        -21.279715   1.000000
      3        -21.279715   1.000000
      4        -12.937486   1.000000
      5         -2.421581   1.000000
      6         -1.292072   1.000000
      7         -1.292071   1.000000
      8          6.828838   0.000000
      9          7.208312   0.000000
     10         10.607601   0.000000
     11         14.133545   0.000000
     12         14.133550   0.000000
     13         14.683667   0.000000
     14         16.467406   0.000000
     15         16.467407   0.000000
     16         16.570524   0.000000
 
 -0.2500000E+00  0.5000000E+00  0.2500000E+00  0.9375000E-01
      1        -21.286552   1.000000
      2        -21.286552   1.000000
      3        -21.282166   1.000000
      4        -12.918188   1.000000
      5         -1.922179   1.000000
      6         -1.922175   1.000000
      7         -1.460313   1.000000
      8          8.169477   0.000000
      9          8.918543   0.000000
     10          8.918544   0.000000
     11         10.659549   0.000000
     12         15.067524   0.000000
     13         15.067552   0.000000
     14         15.713289   0.000000
     15         16.540736   0.000000
     16         19.088173   0.000000
