 running on   32 total cores
 distrk:  each k-point on   32 cores,    1 groups
 distr:  one band on    4 cores,    8 groups
 vasp.6.3.2 27Jun22 (build Oct 14 2022 12:38:20) complex                        
  
 POSCAR found type information on POSCAR NaCl
 POSCAR found :  2 types and       2 ions
 scaLAPACK will be used
 -----------------------------------------------------------------------------
|                                                                             |
|               ----> ADVICE to this user running VASP <----                  |
|                                                                             |
|     You enforced a specific xc type in the INCAR file but a different       |
|     type was found in the POTCAR file.                                      |
|     I HOPE YOU KNOW WHAT YOU ARE DOING!                                     |
|                                                                             |
 -----------------------------------------------------------------------------

 LDA part: xc-table for Pade appr. of Perdew
 POSCAR, INCAR and KPOINTS ok, starting setup
 FFT: planning ... GRIDC
 FFT: planning ... GRID_SOFT
 FFT: planning ... GRID
 WAVECAR not read
 entering main loop
       N       E                     dE             d eps       ncg     rms          rms(c)
DAV:   1     0.800667437435E+02    0.80067E+02   -0.56075E+03   256   0.665E+02
DAV:   2    -0.208353452410E+01   -0.82150E+02   -0.77271E+02   304   0.211E+02
DAV:   3    -0.709607679015E+01   -0.50125E+01   -0.49985E+01   296   0.511E+01
DAV:   4    -0.715489607930E+01   -0.58819E-01   -0.58806E-01   328   0.596E+00
DAV:   5    -0.715613069927E+01   -0.12346E-02   -0.12346E-02   304   0.833E-01    0.188E+00
DAV:   6    -0.700147644832E+01    0.15465E+00   -0.21750E-01   320   0.301E+00    0.134E+00
DAV:   7    -0.699110728205E+01    0.10369E-01   -0.55766E-02   352   0.141E+00    0.922E-01
DAV:   8    -0.699458146577E+01   -0.34742E-02   -0.71632E-03   264   0.687E-01    0.276E-01
DAV:   9    -0.699446982858E+01    0.11164E-03   -0.20042E-04   312   0.918E-02    0.144E-01
DAV:  10    -0.699451641595E+01   -0.46587E-04   -0.16336E-04   296   0.777E-02    0.430E-02
DAV:  11    -0.699451127787E+01    0.51381E-05   -0.85916E-06   344   0.232E-02    0.119E-02
DAV:  12    -0.699451111146E+01    0.16640E-06   -0.14300E-06   304   0.817E-03    0.275E-03
DAV:  13    -0.699451147350E+01   -0.36204E-06   -0.12640E-07   264   0.193E-03    0.998E-04
DAV:  14    -0.699451142414E+01    0.49358E-07   -0.35247E-09   280   0.352E-04    0.717E-04
DAV:  15    -0.699451142332E+01    0.82309E-09   -0.22988E-10   136   0.154E-04
   1 F= -.69945114E+01 E0= -.69945114E+01  d E =-.699451E+01
 curvature:   0.00 expect dE= 0.000E+00 dE for cont linesearch  0.000E+00
 trial: gam= 0.00000 g(F)=  0.403E-60 g(S)=  0.566E-09 ort = 0.000E+00 (trialstep = 0.100E+01)
 search vector abs. value=  0.666E-09
 bond charge predicted
       N       E                     dE             d eps       ncg     rms          rms(c)
DAV:   1    -0.699451142933E+01   -0.51923E-08   -0.62842E-08   216   0.296E-03    0.749E-04
DAV:   2    -0.699451147093E+01   -0.41598E-07   -0.36009E-09   128   0.520E-04    0.671E-04
DAV:   3    -0.699451144890E+01    0.22032E-07   -0.12062E-09   128   0.304E-04    0.658E-04
DAV:   4    -0.699451142896E+01    0.19942E-07   -0.52327E-11   128   0.557E-05    0.653E-04
DAV:   5    -0.699451142496E+01    0.39909E-08   -0.91205E-12   128   0.286E-05
   2 F= -.69945114E+01 E0= -.69945114E+01  d E =-.164846E-08
 trial-energy change:   -0.000000  1 .order   -0.000000   -0.000000    0.000000
 step:   0.5720(harm=  0.5720)  dis= 0.00000  next Energy=    -6.994511 (dE=-0.162E-09)
 bond charge predicted
       N       E                     dE             d eps       ncg     rms          rms(c)
DAV:   1    -0.699451142509E+01    0.38635E-08   -0.12179E-08   128   0.128E-03    0.672E-04
DAV:   2    -0.699451140485E+01    0.20241E-07   -0.82831E-10   128   0.233E-04    0.656E-04
DAV:   3    -0.699451141384E+01   -0.89858E-08   -0.29476E-10   128   0.135E-04    0.653E-04
DAV:   4    -0.699451141860E+01   -0.47669E-08   -0.10608E-11   128   0.247E-05    0.653E-04
DAV:   5    -0.699451142360E+01   -0.49988E-08   -0.50626E-13   128   0.113E-05
   3 F= -.69945114E+01 E0= -.69945114E+01  d E =-.286036E-09
 curvature:  -0.34 expect dE=-0.195E-10 dE for cont linesearch -0.165E-10
 ZBRENT: interpolating
 opt :   0.4335  next Energy=    -6.994511 (dE=-0.299E-09)
 bond charge predicted
       N       E                     dE             d eps       ncg     rms          rms(c)
DAV:   1    -0.699451142385E+01   -0.52426E-08   -0.12770E-09   128   0.417E-04    0.655E-04
DAV:   2    -0.699451141754E+01    0.63033E-08   -0.83608E-11   128   0.736E-05    0.653E-04
DAV:   3    -0.699451142073E+01   -0.31853E-08   -0.29769E-11   128   0.428E-05    0.653E-04
DAV:   4    -0.699451142244E+01   -0.17117E-08   -0.27651E-13   128   0.852E-06    0.653E-04
DAV:   5    -0.699451142405E+01   -0.16078E-08    0.61902E-13   128   0.384E-06
   4 F= -.69945114E+01 E0= -.69945114E+01  d E =-.731234E-09
 curvature:  -0.26 expect dE=-0.151E-10 dE for cont linesearch -0.129E-10
 ZBRENT: bisectioning
 opt :   0.2167  next Energy=    -6.994511 (dE=-0.771E-09)
 bond charge predicted
       N       E                     dE             d eps       ncg     rms          rms(c)
DAV:   1    -0.699451142413E+01   -0.16857E-08   -0.31129E-09   128   0.649E-04    0.658E-04
DAV:   2    -0.699451141428E+01    0.98476E-08   -0.20849E-10   128   0.116E-04    0.654E-04
DAV:   3    -0.699451141907E+01   -0.47933E-08   -0.74856E-11   128   0.678E-05    0.653E-04
DAV:   4    -0.699451142144E+01   -0.23665E-08   -0.16319E-12   128   0.127E-05    0.653E-04
DAV:   5    -0.699451142398E+01   -0.25436E-08    0.61146E-13   128   0.570E-06
   5 F= -.69945114E+01 E0= -.69945114E+01  d E =-.665068E-09
 curvature:  -0.80 expect dE=-0.168E-10 dE for cont linesearch -0.143E-10
 ZBRENT: bisectioning
 opt :   0.1084  next Energy=    -6.994511 (dE=-0.675E-09)
 bond charge predicted
       N       E                     dE             d eps       ncg     rms          rms(c)
DAV:   1    -0.699451142394E+01   -0.24995E-08   -0.78044E-10   128   0.326E-04    0.654E-04
DAV:   2    -0.699451141925E+01    0.46841E-08   -0.52904E-11   128   0.578E-05    0.653E-04
DAV:   3    -0.699451142166E+01   -0.24040E-08   -0.19012E-11   128   0.337E-05    0.653E-04
DAV:   4    -0.699451142284E+01   -0.11814E-08   -0.55633E-13   128   0.652E-06    0.653E-04
DAV:   5    -0.699451142419E+01   -0.13538E-08   -0.42188E-13   128   0.293E-06
   6 F= -.69945114E+01 E0= -.69945114E+01  d E =-.876071E-09
 curvature:  -0.55 expect dE=-0.864E-11 dE for cont linesearch -0.734E-11
 ZBRENT: bisectioning
 opt :   0.0542  next Energy=    -6.994511 (dE=-0.881E-09)
 bond charge predicted
       N       E                     dE             d eps       ncg     rms          rms(c)
DAV:   1    -0.699451142415E+01   -0.13149E-08   -0.19451E-10   128   0.163E-04    0.653E-04
DAV:   2    -0.699451142178E+01    0.23697E-08   -0.12153E-11   128   0.289E-05    0.653E-04
DAV:   3    -0.699451142295E+01   -0.11689E-08   -0.33328E-12   128   0.168E-05    0.653E-04
DAV:   4    -0.699451142365E+01   -0.69872E-09    0.67942E-13   128   0.327E-06    0.653E-04
DAV:   5    -0.699451142421E+01   -0.55570E-09    0.19356E-13   128   0.147E-06
   7 F= -.69945114E+01 E0= -.69945114E+01  d E =-.890850E-09
 curvature:  -0.37 expect dE=-0.496E-11 dE for cont linesearch -0.422E-11
 ZBRENT: bisectioning
 opt :   0.0271  next Energy=    -6.994511 (dE=-0.893E-09)
 bond charge predicted
       N       E                     dE             d eps       ncg     rms          rms(c)
DAV:   1    -0.699451142431E+01   -0.65620E-09   -0.48271E-11   128   0.814E-05    0.653E-04
DAV:   2    -0.699451142298E+01    0.13274E-08   -0.22404E-12   128   0.145E-05    0.653E-04
DAV:   3    -0.699451142373E+01   -0.74851E-09   -0.41030E-13   128   0.841E-06    0.653E-04
DAV:   4    -0.699451142410E+01   -0.37312E-09    0.10248E-12   128   0.164E-06    0.653E-04
DAV:   5    -0.699451142442E+01   -0.31832E-09    0.64594E-13   128   0.737E-07
   8 F= -.69945114E+01 E0= -.69945114E+01  d E =-.110390E-08
 curvature:  -0.20 expect dE=-0.252E-11 dE for cont linesearch -0.214E-11
 ZBRENT: bisectioning
 opt :   0.0135  next Energy=    -6.994511 (dE=-0.111E-08)
 bond charge predicted
       N       E                     dE             d eps       ncg     rms          rms(c)
DAV:   1    -0.699451142430E+01   -0.19804E-09   -0.10893E-11   128   0.407E-05    0.653E-04
DAV:   2    -0.699451142373E+01    0.56639E-09    0.13270E-12   128   0.723E-06    0.653E-04
DAV:   3    -0.699451142403E+01   -0.29445E-09    0.58054E-13   128   0.421E-06    0.653E-04
DAV:   4    -0.699451142411E+01   -0.86857E-10    0.14358E-12   128   0.818E-07    0.653E-04
DAV:   5    -0.699451142425E+01   -0.13756E-09    0.12010E-12   128   0.369E-07
   9 F= -.69945114E+01 E0= -.69945114E+01  d E =-.936097E-09
 curvature:  -0.11 expect dE=-0.127E-11 dE for cont linesearch -0.108E-11
 ZBRENT: bisectioning
 opt :   0.0068  next Energy=    -6.994511 (dE=-0.937E-09)
 bond charge predicted
       N       E                     dE             d eps       ncg     rms          rms(c)
DAV:   1    -0.699451142425E+01   -0.13779E-09   -0.30930E-12   128   0.204E-05    0.653E-04
DAV:   2    -0.699451142404E+01    0.21532E-09    0.52552E-13   128   0.361E-06    0.653E-04
DAV:   3    -0.699451142409E+01   -0.54570E-10    0.86455E-13   128   0.210E-06    0.653E-04
DAV:   4    -0.699451142423E+01   -0.13529E-09    0.74468E-13   128   0.409E-07    0.653E-04
DAV:   5    -0.699451142430E+01   -0.71168E-10    0.85303E-13   128   0.184E-07
  10 F= -.69945114E+01 E0= -.69945114E+01  d E =-.982027E-09
 curvature:  -0.05 expect dE=-0.639E-12 dE for cont linesearch -0.543E-12
 ZBRENT: bisectioning
 opt :   0.0034  next Energy=    -6.994511 (dE=-0.982E-09)
 bond charge predicted
       N       E                     dE             d eps       ncg     rms          rms(c)
DAV:   1    -0.699451142426E+01   -0.30468E-10   -0.75981E-13   128   0.102E-05    0.653E-04
DAV:   2    -0.699451142415E+01    0.11232E-09    0.14122E-12   128   0.181E-06    0.653E-04
DAV:   3    -0.699451142423E+01   -0.81627E-10    0.23519E-13   128   0.105E-06    0.653E-04
DAV:   4    -0.699451142412E+01    0.10846E-09    0.79638E-13   128   0.205E-07    0.653E-04
DAV:   5    -0.699451142428E+01   -0.16189E-09    0.69181E-14   128   0.922E-08
  11 F= -.69945114E+01 E0= -.69945114E+01  d E =-.964064E-09
 curvature:  -0.03 expect dE=-0.320E-12 dE for cont linesearch -0.272E-12
 ZBRENT: bisectioning
 opt :   0.0017  next Energy=    -6.994511 (dE=-0.964E-09)
 bond charge predicted
       N       E                     dE             d eps       ncg     rms          rms(c)
DAV:   1    -0.699451142432E+01   -0.20577E-09   -0.45474E-13   128   0.509E-06    0.653E-04
DAV:   2    -0.699451142421E+01    0.11892E-09    0.25431E-13   128   0.903E-07    0.653E-04
DAV:   3    -0.699451142426E+01   -0.59117E-10   -0.17746E-13   128   0.526E-07    0.653E-04
DAV:   4    -0.699451142427E+01   -0.13642E-11   -0.10174E-12   128   0.102E-07    0.653E-04
DAV:   5    -0.699451142433E+01   -0.68212E-10   -0.19554E-13   128   0.461E-08
  12 F= -.69945114E+01 E0= -.69945114E+01  d E =-.101772E-08
 curvature:  -0.01 expect dE=-0.160E-12 dE for cont linesearch -0.136E-12
 ZBRENT: bisectioning
 opt :   0.0008  next Energy=    -6.994511 (dE=-0.102E-08)
 bond charge predicted
       N       E                     dE             d eps       ncg     rms          rms(c)
DAV:   1    -0.699451142425E+01    0.12506E-10    0.39461E-13   128   0.254E-06    0.653E-04
DAV:   2    -0.699451142432E+01   -0.69576E-10    0.11501E-13   128   0.452E-07    0.653E-04
DAV:   3    -0.699451142421E+01    0.10982E-09    0.61152E-13   128   0.263E-07    0.653E-04
DAV:   4    -0.699451142428E+01   -0.62983E-10    0.54737E-13   128   0.511E-08    0.653E-04
DAV:   5    -0.699451142432E+01   -0.40927E-10    0.79509E-13   128   0.230E-08
  13 F= -.69945114E+01 E0= -.69945114E+01  d E =-.100067E-08
 curvature:  -0.01 expect dE=-0.802E-13 dE for cont linesearch -0.681E-13
 ZBRENT: bisectioning
 opt :   0.0004  next Energy=    -6.994511 (dE=-0.100E-08)
 bond charge predicted
       N       E                     dE             d eps       ncg     rms          rms(c)
DAV:   1    -0.699451142422E+01    0.56616E-10   -0.86629E-13   128   0.127E-06    0.653E-04
DAV:   2    -0.699451142437E+01   -0.15029E-09   -0.62922E-13   128   0.226E-07    0.653E-04
DAV:   3    -0.699451142428E+01    0.91177E-10    0.52319E-14   128   0.131E-07    0.653E-04
DAV:   4    -0.699451142433E+01   -0.52978E-10   -0.80175E-13   128   0.256E-08    0.653E-04
DAV:   5    -0.699451142429E+01    0.40018E-10   -0.27624E-13   128   0.115E-08
  14 F= -.69945114E+01 E0= -.69945114E+01  d E =-.975206E-09
 curvature:  -0.00 expect dE=-0.401E-13 dE for cont linesearch -0.341E-13
 ZBRENT: bisectioning
 opt :   0.0002  next Energy=    -6.994511 (dE=-0.975E-09)
 bond charge predicted
       N       E                     dE             d eps       ncg     rms          rms(c)
DAV:   1    -0.699451142433E+01   -0.29559E-11    0.13361E-12   128   0.636E-07    0.653E-04
DAV:   2    -0.699451142430E+01    0.29559E-10    0.14594E-12   128   0.113E-07    0.653E-04
DAV:   3    -0.699451142431E+01   -0.10004E-10    0.11074E-12   128   0.657E-08    0.653E-04
DAV:   4    -0.699451142427E+01    0.48658E-10    0.16525E-12   128   0.128E-08    0.653E-04
DAV:   5    -0.699451142430E+01   -0.29104E-10    0.12762E-12   128   0.576E-09
  15 F= -.69945114E+01 E0= -.69945114E+01  d E =-.979071E-09
 curvature:  -0.00 expect dE=-0.201E-13 dE for cont linesearch -0.171E-13
 ZBRENT: bisectioning
 opt :   0.0001  next Energy=    -6.994511 (dE=-0.979E-09)
 bond charge predicted
       N       E                     dE             d eps       ncg     rms          rms(c)
DAV:   1    -0.699451142443E+01   -0.16144E-09    0.18222E-13   128   0.318E-07    0.653E-04
DAV:   2    -0.699451142434E+01    0.85265E-10   -0.36936E-13   128   0.565E-08    0.653E-04
DAV:   3    -0.699451142426E+01    0.85265E-10    0.35520E-13   128   0.329E-08    0.653E-04
DAV:   4    -0.699451142424E+01    0.18872E-10    0.10818E-13   128   0.640E-09    0.653E-04
DAV:   5    -0.699451142419E+01    0.44793E-10    0.13417E-12   128   0.288E-09
  16 F= -.69945114E+01 E0= -.69945114E+01  d E =-.877208E-09
 curvature:  -0.00 expect dE=-0.100E-13 dE for cont linesearch -0.852E-14
 ZBRENT: bisectioning
 opt :   0.0001  next Energy=    -6.994511 (dE=-0.877E-09)
 bond charge predicted
       N       E                     dE             d eps       ncg     rms          rms(c)
DAV:   1    -0.699451142422E+01    0.16826E-10    0.26194E-13   128   0.159E-07    0.653E-04
DAV:   2    -0.699451142439E+01   -0.16439E-09   -0.35645E-13   128   0.282E-08    0.653E-04
DAV:   3    -0.699451142428E+01    0.10323E-09    0.38733E-13   128   0.164E-08    0.653E-04
DAV:   4    -0.699451142440E+01   -0.11346E-09    0.12251E-13   128   0.320E-09    0.653E-04
DAV:   5    -0.699451142433E+01    0.69804E-10    0.92357E-13   128   0.144E-09
  17 F= -.69945114E+01 E0= -.69945114E+01  d E =-.100999E-08
 curvature:  -0.00 expect dE=-0.501E-14 dE for cont linesearch -0.426E-14
 ZBRENT: bisectioning
 opt :   0.0000  next Energy=    -6.994511 (dE=-0.101E-08)
 bond charge predicted
       N       E                     dE             d eps       ncg     rms          rms(c)
DAV:   1    -0.699451142425E+01    0.14484E-09   -0.35499E-13   128   0.795E-08    0.653E-04
DAV:   2    -0.699451142433E+01   -0.82082E-10   -0.21441E-14   128   0.141E-08    0.653E-04
DAV:   3    -0.699451142427E+01    0.66393E-10   -0.17059E-13   128   0.821E-09    0.653E-04
DAV:   4    -0.699451142427E+01    0.22737E-12    0.27582E-13   128   0.160E-09    0.653E-04
DAV:   5    -0.699451142430E+01   -0.32742E-10    0.31294E-14   128   0.718E-10
  18 F= -.69945114E+01 E0= -.69945114E+01  d E =-.983164E-09
 curvature:  -0.00 expect dE=-0.251E-14 dE for cont linesearch -0.213E-14
 ZBRENT: bisectioning
 opt :   0.0000  next Energy=    -6.994511 (dE=-0.983E-09)
 bond charge predicted
       N       E                     dE             d eps       ncg     rms          rms(c)
DAV:   1    -0.699451142432E+01   -0.50477E-10   -0.55771E-13   128   0.398E-08    0.653E-04
DAV:   2    -0.699451142434E+01   -0.20691E-10   -0.34035E-13   128   0.706E-09    0.653E-04
DAV:   3    -0.699451142419E+01    0.15257E-09   -0.55858E-14   128   0.410E-09    0.653E-04
DAV:   4    -0.699451142423E+01   -0.43883E-10   -0.52704E-13   128   0.803E-10    0.653E-04
DAV:   5    -0.699451142441E+01   -0.17735E-09    0.38580E-13   128   0.359E-10
  19 F= -.69945114E+01 E0= -.69945114E+01  d E =-.109026E-08
 curvature:  -0.00 expect dE=-0.125E-14 dE for cont linesearch -0.107E-14
 ZBRENT:  can not reach accuracy
 opt :   0.0000  next Energy=     0.000000 (dE= 0.699E+01)
 bond charge predicted
       N       E                     dE             d eps       ncg     rms          rms(c)
DAV:   1    -0.699451142422E+01    0.79581E-11    0.36710E-13   128   0.397E-08    0.653E-04
DAV:   2    -0.699451142430E+01   -0.76170E-10    0.39205E-15   128   0.709E-09    0.653E-04
DAV:   3    -0.699451142420E+01    0.94360E-10    0.13889E-12   128   0.413E-09    0.653E-04
DAV:   4    -0.699451142428E+01   -0.75715E-10    0.41696E-13   128   0.781E-10    0.653E-04
DAV:   5    -0.699451142426E+01    0.18872E-10    0.10764E-12   128   0.351E-10
  20 F= -.69945114E+01 E0= -.69945114E+01  d E =-.943601E-09
 curvature:   0.00 expect dE= 0.000E+00 dE for cont linesearch  0.000E+00
 ZBRENT:  accuracy reached
 opt :   0.0000  next Energy=     0.000000 (dE= 0.699E+01)
 bond charge predicted
       N       E                     dE             d eps       ncg     rms          rms(c)
DAV:   1    -0.699451142436E+01   -0.77080E-10    0.26729E-13   128   0.161E-10    0.653E-04
DAV:   2    -0.699451142428E+01    0.80036E-10    0.89758E-13   128   0.540E-11    0.653E-04
DAV:   3    -0.699451142430E+01   -0.22737E-10    0.51098E-13   128   0.489E-11    0.653E-04
DAV:   4    -0.699451142437E+01   -0.73669E-10    0.58481E-13   128   0.154E-11    0.653E-04
DAV:   5    -0.699451142434E+01    0.28422E-10    0.65451E-13   128   0.156E-11
  21 F= -.69945114E+01 E0= -.69945114E+01  d E =-.102750E-08
 curvature:   0.00 expect dE= 0.000E+00 dE for cont linesearch  0.000E+00
 ZBRENT:  accuracy reached
 opt :   0.0000  next Energy=     0.000000 (dE= 0.699E+01)
 bond charge predicted
       N       E                     dE             d eps       ncg     rms          rms(c)
DAV:   1    -0.699451142435E+01    0.25921E-10    0.18107E-13   128   0.104E-11    0.653E-04
DAV:   2    -0.699451142426E+01    0.87766E-10    0.35253E-13   128   0.432E-12    0.653E-04
DAV:   3    -0.699451142437E+01   -0.10800E-09    0.41245E-13   128   0.469E-12    0.653E-04
DAV:   4    -0.699451142437E+01   -0.13642E-11    0.50494E-13   128   0.619E-12    0.653E-04
DAV:   5    -0.699451142422E+01    0.14984E-09    0.23193E-13   128   0.860E-12
  22 F= -.69945114E+01 E0= -.69945114E+01  d E =-.901764E-09
 curvature:   0.00 expect dE= 0.000E+00 dE for cont linesearch  0.000E+00
 ZBRENT:  accuracy reached
 opt :   0.0000  next Energy=     0.000000 (dE= 0.699E+01)
 bond charge predicted
       N       E                     dE             d eps       ncg     rms          rms(c)
DAV:   1    -0.699451142434E+01    0.29331E-10   -0.11534E-12   128   0.964E-12    0.653E-04
DAV:   2    -0.699451142431E+01    0.24102E-10   -0.12142E-12   128   0.145E-11    0.653E-04
DAV:   3    -0.699451142422E+01    0.92314E-10   -0.11080E-12   128   0.125E-11    0.653E-04
DAV:   4    -0.699451142422E+01   -0.13642E-11   -0.11260E-12   128   0.816E-12    0.653E-04
DAV:   5    -0.699451142435E+01   -0.13051E-09   -0.63862E-13   128   0.102E-11
  23 F= -.69945114E+01 E0= -.69945114E+01  d E =-.103773E-08
 curvature:   0.00 expect dE= 0.000E+00 dE for cont linesearch  0.000E+00
 ZBRENT:  accuracy reached
 opt :   0.0000  next Energy=     0.000000 (dE= 0.699E+01)
 bond charge predicted
       N       E                     dE             d eps       ncg     rms          rms(c)
DAV:   1    -0.699451142429E+01   -0.69576E-10    0.80245E-13   128   0.696E-12    0.653E-04
DAV:   2    -0.699451142424E+01    0.51386E-10    0.73011E-13   128   0.146E-11    0.653E-04
DAV:   3    -0.699451142423E+01    0.14552E-10    0.42813E-14   128   0.689E-12    0.653E-04
DAV:   4    -0.699451142440E+01   -0.17781E-09    0.73663E-13   128   0.480E-12    0.653E-04
DAV:   5    -0.699451142426E+01    0.14370E-09    0.75901E-13   128   0.511E-12
  24 F= -.69945114E+01 E0= -.69945114E+01  d E =-.944965E-09
 curvature:   0.00 expect dE= 0.000E+00 dE for cont linesearch  0.000E+00
 ZBRENT:  accuracy reached
 opt :   0.0000  next Energy=     0.000000 (dE= 0.699E+01)
 bond charge predicted
       N       E                     dE             d eps       ncg     rms          rms(c)
DAV:   1    -0.699451142428E+01    0.12756E-09   -0.33480E-14   128   0.642E-12    0.653E-04
DAV:   2    -0.699451142425E+01    0.23192E-10   -0.32911E-13   128   0.596E-12    0.653E-04
DAV:   3    -0.699451142427E+01   -0.12051E-10    0.64820E-13   128   0.569E-12    0.653E-04
DAV:   4    -0.699451142427E+01   -0.20464E-11   -0.15498E-13   128   0.102E-11    0.653E-04
DAV:   5    -0.699451142434E+01   -0.76170E-10    0.11158E-13   128   0.180E-11
  25 F= -.69945114E+01 E0= -.69945114E+01  d E =-.102818E-08
 curvature:   0.00 expect dE= 0.000E+00 dE for cont linesearch  0.000E+00
 ZBRENT:  accuracy reached
 opt :   0.0000  next Energy=     0.000000 (dE= 0.699E+01)
 bond charge predicted
       N       E                     dE             d eps       ncg     rms          rms(c)
DAV:   1    -0.699451142431E+01   -0.42519E-10    0.35860E-13   128   0.116E-11    0.653E-04
DAV:   2    -0.699451142434E+01   -0.26148E-10    0.24883E-13   128   0.123E-11    0.653E-04
DAV:   3    -0.699451142438E+01   -0.40700E-10    0.90386E-13   128   0.186E-11    0.653E-04
DAV:   4    -0.699451142433E+01    0.44793E-10    0.42473E-13   128   0.143E-11    0.653E-04
DAV:   5    -0.699451142422E+01    0.11505E-09    0.57083E-13   128   0.835E-12
  26 F= -.69945114E+01 E0= -.69945114E+01  d E =-.901537E-09
 curvature:   0.00 expect dE= 0.000E+00 dE for cont linesearch  0.000E+00
 ZBRENT:  accuracy reached
 opt :   0.0000  next Energy=     0.000000 (dE= 0.699E+01)
 bond charge predicted
       N       E                     dE             d eps       ncg     rms          rms(c)
DAV:   1    -0.699451142418E+01    0.15484E-09   -0.62415E-14   128   0.443E-12    0.653E-04
DAV:   2    -0.699451142431E+01   -0.13483E-09   -0.25716E-13   128   0.405E-12    0.653E-04
DAV:   3    -0.699451142426E+01    0.52296E-10   -0.40079E-13   128   0.611E-12    0.653E-04
DAV:   4    -0.699451142435E+01   -0.92314E-10   -0.19099E-13   128   0.648E-12    0.653E-04
DAV:   5    -0.699451142430E+01    0.57298E-10   -0.77698E-13   128   0.899E-12
  27 F= -.69945114E+01 E0= -.69945114E+01  d E =-.979298E-09
 curvature:   0.00 expect dE= 0.000E+00 dE for cont linesearch  0.000E+00
 ZBRENT:  accuracy reached
 opt :   0.0000  next Energy=     0.000000 (dE= 0.699E+01)
 bond charge predicted
       N       E                     dE             d eps       ncg     rms          rms(c)
DAV:   1    -0.699451142428E+01    0.75943E-10    0.86275E-13   128   0.682E-12    0.653E-04
DAV:   2    -0.699451142425E+01    0.27512E-10    0.79950E-13   128   0.608E-12    0.653E-04
DAV:   3    -0.699451142431E+01   -0.58208E-10    0.10059E-12   128   0.907E-12    0.653E-04
DAV:   4    -0.699451142433E+01   -0.22737E-10    0.18004E-12   128   0.778E-12    0.653E-04
DAV:   5    -0.699451142439E+01   -0.58890E-10    0.75193E-13   128   0.502E-12
  28 F= -.69945114E+01 E0= -.69945114E+01  d E =-.107298E-08
 curvature:   0.00 expect dE= 0.000E+00 dE for cont linesearch  0.000E+00
 ZBRENT:  accuracy reached
 opt :   0.0000  next Energy=     0.000000 (dE= 0.699E+01)
 bond charge predicted
       N       E                     dE             d eps       ncg     rms          rms(c)
DAV:   1    -0.699451142442E+01   -0.94360E-10   -0.40766E-14   128   0.718E-12    0.653E-04
DAV:   2    -0.699451142429E+01    0.13165E-09   -0.14856E-13   128   0.483E-12    0.653E-04
DAV:   3    -0.699451142433E+01   -0.36152E-10    0.21753E-14   128   0.876E-12    0.653E-04
DAV:   4    -0.699451142429E+01    0.37062E-10    0.34625E-14   128   0.670E-12    0.653E-04
DAV:   5    -0.699451142422E+01    0.69122E-10   -0.41384E-13   128   0.610E-12
  29 F= -.69945114E+01 E0= -.69945114E+01  d E =-.906766E-09
 curvature:   0.00 expect dE= 0.000E+00 dE for cont linesearch  0.000E+00
 ZBRENT:  accuracy reached
 opt :   0.0000  next Energy=     0.000000 (dE= 0.699E+01)
 bond charge predicted
       N       E                     dE             d eps       ncg     rms          rms(c)
DAV:   1    -0.699451142432E+01   -0.25921E-10    0.14396E-12   128   0.472E-12    0.653E-04
DAV:   2    -0.699451142427E+01    0.48885E-10    0.25060E-13   128   0.113E-11    0.653E-04
DAV:   3    -0.699451142425E+01    0.20691E-10    0.13138E-12   128   0.122E-11    0.653E-04
DAV:   4    -0.699451142428E+01   -0.36607E-10    0.10721E-12   128   0.691E-12    0.653E-04
DAV:   5    -0.699451142440E+01   -0.11823E-09    0.53461E-13   128   0.651E-12
  30 F= -.69945114E+01 E0= -.69945114E+01  d E =-.108707E-08
 curvature:   0.00 expect dE= 0.000E+00 dE for cont linesearch  0.000E+00
 ZBRENT:  accuracy reached
 opt :   0.0000  next Energy=     0.000000 (dE= 0.699E+01)
 bond charge predicted
       N       E                     dE             d eps       ncg     rms          rms(c)
DAV:   1    -0.699451142436E+01   -0.71395E-10    0.48090E-13   128   0.600E-12    0.653E-04
DAV:   2    -0.699451142426E+01    0.99362E-10    0.97821E-13   128   0.525E-12    0.653E-04
DAV:   3    -0.699451142427E+01   -0.17053E-10    0.15304E-13   128   0.518E-12    0.653E-04
DAV:   4    -0.699451142428E+01   -0.38654E-11    0.73198E-13   128   0.612E-12    0.653E-04
DAV:   5    -0.699451142417E+01    0.10687E-09    0.10869E-12   128   0.143E-11
  31 F= -.69945114E+01 E0= -.69945114E+01  d E =-.854925E-09
 curvature:   0.00 expect dE= 0.000E+00 dE for cont linesearch  0.000E+00
 ZBRENT:  accuracy reached
 opt :   0.0000  next Energy=     0.000000 (dE= 0.699E+01)
 bond charge predicted
       N       E                     dE             d eps       ncg     rms          rms(c)
DAV:   1    -0.699451142423E+01    0.47748E-10    0.10521E-12   128   0.774E-12    0.653E-04
DAV:   2    -0.699451142434E+01   -0.10732E-09    0.10463E-12   128   0.899E-12    0.653E-04
DAV:   3    -0.699451142425E+01    0.90949E-10    0.10166E-12   128   0.555E-12    0.653E-04
DAV:   4    -0.699451142431E+01   -0.64574E-10    0.64761E-13   128   0.651E-12    0.653E-04
DAV:   5    -0.699451142425E+01    0.60027E-10    0.79128E-13   128   0.531E-12
  32 F= -.69945114E+01 E0= -.69945114E+01  d E =-.934961E-09
 curvature:   0.00 expect dE= 0.000E+00 dE for cont linesearch  0.000E+00
 ZBRENT:  accuracy reached
 opt :   0.0000  next Energy=     0.000000 (dE= 0.699E+01)
 bond charge predicted
       N       E                     dE             d eps       ncg     rms          rms(c)
DAV:   1    -0.699451142425E+01    0.56843E-10   -0.32589E-13   128   0.693E-12    0.653E-04
DAV:   2    -0.699451142425E+01    0.54570E-11    0.53655E-13   128   0.825E-12    0.653E-04
DAV:   3    -0.699451142424E+01    0.45475E-11    0.71079E-13   128   0.892E-12    0.653E-04
DAV:   4    -0.699451142418E+01    0.59572E-10    0.21660E-13   128   0.724E-12    0.653E-04
DAV:   5    -0.699451142429E+01   -0.10846E-09    0.51591E-14   128   0.695E-12
  33 F= -.69945114E+01 E0= -.69945114E+01  d E =-.977025E-09
 curvature:   0.00 expect dE= 0.000E+00 dE for cont linesearch  0.000E+00
 ZBRENT:  accuracy reached
 opt :   0.0000  next Energy=     0.000000 (dE= 0.699E+01)
 bond charge predicted
       N       E                     dE             d eps       ncg     rms          rms(c)
DAV:   1    -0.699451142435E+01   -0.16394E-09    0.61666E-13   128   0.726E-12    0.653E-04
DAV:   2    -0.699451142426E+01    0.91177E-10    0.85286E-13   128   0.788E-12    0.653E-04
DAV:   3    -0.699451142439E+01   -0.13051E-09    0.79017E-13   128   0.791E-12    0.653E-04
DAV:   4    -0.699451142420E+01    0.18599E-09    0.17684E-13   128   0.112E-11    0.653E-04
DAV:   5    -0.699451142432E+01   -0.11551E-09    0.33949E-13   128   0.723E-12
  34 F= -.69945114E+01 E0= -.69945114E+01  d E =-.100135E-08
 curvature:   0.00 expect dE= 0.000E+00 dE for cont linesearch  0.000E+00
 ZBRENT:  accuracy reached
 opt :   0.0000  next Energy=     0.000000 (dE= 0.699E+01)
 bond charge predicted
       N       E                     dE             d eps       ncg     rms          rms(c)
DAV:   1    -0.699451142429E+01   -0.90949E-10    0.12554E-12   128   0.431E-12    0.653E-04
DAV:   2    -0.699451142429E+01   -0.13642E-11    0.14577E-12   128   0.889E-12    0.653E-04
DAV:   3    -0.699451142425E+01    0.42746E-10    0.98161E-13   128   0.593E-12    0.653E-04
DAV:   4    -0.699451142425E+01    0.20464E-11    0.11720E-12   128   0.109E-11    0.653E-04
DAV:   5    -0.699451142425E+01   -0.13642E-11    0.16089E-12   128   0.805E-12
  35 F= -.69945114E+01 E0= -.69945114E+01  d E =-.934733E-09
 curvature:   0.00 expect dE= 0.000E+00 dE for cont linesearch  0.000E+00
 ZBRENT:  accuracy reached
 opt :   0.0000  next Energy=     0.000000 (dE= 0.699E+01)
 bond charge predicted
       N       E                     dE             d eps       ncg     rms          rms(c)
DAV:   1    -0.699451142425E+01   -0.25011E-11    0.45557E-13   128   0.582E-12    0.653E-04
DAV:   2    -0.699451142428E+01   -0.24102E-10    0.38577E-13   128   0.497E-12    0.653E-04
DAV:   3    -0.699451142426E+01    0.12733E-10    0.16351E-12   128   0.693E-12    0.653E-04
DAV:   4    -0.699451142430E+01   -0.37062E-10    0.11324E-12   128   0.799E-12    0.653E-04
DAV:   5    -0.699451142417E+01    0.13256E-09    0.45304E-13   128   0.155E-11
  36 F= -.69945114E+01 E0= -.69945114E+01  d E =-.851742E-09
 curvature:   0.00 expect dE= 0.000E+00 dE for cont linesearch  0.000E+00
 ZBRENT:  accuracy reached
 opt :   0.0000  next Energy=     0.000000 (dE= 0.699E+01)
 bond charge predicted
       N       E                     dE             d eps       ncg     rms          rms(c)
DAV:   1    -0.699451142433E+01   -0.31605E-10    0.10643E-12   128   0.806E-12    0.653E-04
DAV:   2    -0.699451142434E+01   -0.11596E-10    0.12081E-12   128   0.562E-12    0.653E-04
DAV:   3    -0.699451142427E+01    0.77534E-10    0.88429E-13   128   0.107E-11    0.653E-04
DAV:   4    -0.699451142439E+01   -0.12278E-09    0.83818E-13   128   0.641E-12    0.653E-04
DAV:   5    -0.699451142429E+01    0.99817E-10    0.88443E-13   128   0.635E-12
  37 F= -.69945114E+01 E0= -.69945114E+01  d E =-.972932E-09
 curvature:   0.00 expect dE= 0.000E+00 dE for cont linesearch  0.000E+00
 ZBRENT:  accuracy reached
 opt :   0.0000  next Energy=     0.000000 (dE= 0.699E+01)
 bond charge predicted
       N       E                     dE             d eps       ncg     rms          rms(c)
DAV:   1    -0.699451142431E+01    0.80490E-10   -0.87118E-14   128   0.819E-12    0.653E-04
DAV:   2    -0.699451142428E+01    0.24556E-10    0.40849E-13   128   0.627E-12    0.653E-04
DAV:   3    -0.699451142429E+01   -0.11141E-10    0.22749E-13   128   0.535E-12    0.653E-04
DAV:   4    -0.699451142427E+01    0.29104E-10    0.47375E-13   128   0.585E-12    0.653E-04
DAV:   5    -0.699451142426E+01    0.11369E-11    0.46498E-13   128   0.568E-12
  38 F= -.69945114E+01 E0= -.69945114E+01  d E =-.948603E-09
 curvature:   0.00 expect dE= 0.000E+00 dE for cont linesearch  0.000E+00
 ZBRENT:  accuracy reached
 opt :   0.0000  next Energy=     0.000000 (dE= 0.699E+01)
 bond charge predicted
       N       E                     dE             d eps       ncg     rms          rms(c)
DAV:   1    -0.699451142420E+01    0.63437E-10   -0.24838E-13   128   0.457E-12    0.653E-04
DAV:   2    -0.699451142432E+01   -0.12096E-09    0.30843E-14   128   0.824E-12    0.653E-04
DAV:   3    -0.699451142438E+01   -0.55707E-10   -0.41040E-13   128   0.673E-12    0.653E-04
DAV:   4    -0.699451142431E+01    0.67530E-10   -0.76328E-16   128   0.489E-12    0.653E-04
DAV:   5    -0.699451142430E+01    0.10232E-10    0.61399E-13   128   0.997E-12
  39 F= -.69945114E+01 E0= -.69945114E+01  d E =-.985210E-09
 curvature:   0.00 expect dE= 0.000E+00 dE for cont linesearch  0.000E+00
 ZBRENT:  accuracy reached
 opt :   0.0000  next Energy=     0.000000 (dE= 0.699E+01)
 bond charge predicted
       N       E                     dE             d eps       ncg     rms          rms(c)
DAV:   1    -0.699451142415E+01    0.16234E-09    0.73060E-13   128   0.476E-12    0.653E-04
DAV:   2    -0.699451142434E+01   -0.19054E-09    0.10392E-12   128   0.767E-12    0.653E-04
DAV:   3    -0.699451142430E+01    0.39563E-10    0.19134E-12   128   0.564E-12    0.653E-04
DAV:   4    -0.699451142429E+01    0.10232E-10    0.57995E-13   128   0.477E-12    0.653E-04
DAV:   5    -0.699451142431E+01   -0.17053E-10    0.14457E-12   128   0.730E-12
  40 F= -.69945114E+01 E0= -.69945114E+01  d E =-.990894E-09
 curvature:   0.00 expect dE= 0.000E+00 dE for cont linesearch  0.000E+00
 ZBRENT:  accuracy reached
 opt :   0.0000  next Energy=     0.000000 (dE= 0.699E+01)
 bond charge predicted
       N       E                     dE             d eps       ncg     rms          rms(c)
DAV:   1    -0.699451142436E+01   -0.69349E-10   -0.21153E-13   128   0.919E-12    0.653E-04
DAV:   2    -0.699451142435E+01    0.11823E-10    0.40086E-13   128   0.665E-12    0.653E-04
DAV:   3    -0.699451142425E+01    0.99362E-10    0.50862E-13   128   0.620E-12    0.653E-04
DAV:   4    -0.699451142420E+01    0.44793E-10    0.44548E-13   128   0.765E-12    0.653E-04
DAV:   5    -0.699451142434E+01   -0.13870E-09    0.63286E-13   128   0.122E-11
  41 F= -.69945114E+01 E0= -.69945114E+01  d E =-.102591E-08
 curvature:   0.00 expect dE= 0.000E+00 dE for cont linesearch  0.000E+00
 ZBRENT:  accuracy reached
 opt :   0.0000  next Energy=     0.000000 (dE= 0.699E+01)
 bond charge predicted
       N       E                     dE             d eps       ncg     rms          rms(c)
DAV:   1    -0.699451142416E+01    0.40927E-10    0.38958E-13   128   0.738E-12    0.653E-04
DAV:   2    -0.699451142424E+01   -0.75943E-10    0.42265E-13   128   0.834E-12    0.653E-04
DAV:   3    -0.699451142423E+01    0.59117E-11    0.11560E-13   128   0.746E-12    0.653E-04
DAV:   4    -0.699451142431E+01   -0.81627E-10   -0.80387E-14   128   0.698E-12    0.653E-04
DAV:   5    -0.699451142427E+01    0.48885E-10    0.33473E-13   128   0.863E-12
  42 F= -.69945114E+01 E0= -.69945114E+01  d E =-.949058E-09
 curvature:   0.00 expect dE= 0.000E+00 dE for cont linesearch  0.000E+00
 ZBRENT:  accuracy reached
 opt :   0.0000  next Energy=     0.000000 (dE= 0.699E+01)
 bond charge predicted
       N       E                     dE             d eps       ncg     rms          rms(c)
DAV:   1    -0.699451142428E+01    0.36835E-10    0.37095E-13   128   0.518E-12    0.653E-04
DAV:   2    -0.699451142423E+01    0.46612E-10    0.75204E-13   128   0.679E-12    0.653E-04
DAV:   3    -0.699451142437E+01   -0.13711E-09    0.77958E-14   128   0.113E-11    0.653E-04
DAV:   4    -0.699451142416E+01    0.20896E-09    0.16050E-13   128   0.119E-11    0.653E-04
DAV:   5    -0.699451142423E+01   -0.67075E-10    0.99781E-14   128   0.753E-12
  43 F= -.69945114E+01 E0= -.69945114E+01  d E =-.909722E-09
 curvature:   0.00 expect dE= 0.000E+00 dE for cont linesearch  0.000E+00
 ZBRENT:  accuracy reached
 opt :   0.0000  next Energy=     0.000000 (dE= 0.699E+01)
 bond charge predicted
       N       E                     dE             d eps       ncg     rms          rms(c)
DAV:   1    -0.699451142419E+01   -0.27740E-10    0.54116E-13   128   0.161E-11    0.653E-04
DAV:   2    -0.699451142431E+01   -0.12528E-09    0.44804E-13   128   0.101E-11    0.653E-04
DAV:   3    -0.699451142427E+01    0.43428E-10    0.78347E-13   128   0.623E-12    0.653E-04
DAV:   4    -0.699451142446E+01   -0.18895E-09    0.30930E-13   128   0.397E-12    0.653E-04
DAV:   5    -0.699451142435E+01    0.10459E-09    0.55098E-13   128   0.612E-12
  44 F= -.69945114E+01 E0= -.69945114E+01  d E =-.103660E-08
 curvature:   0.00 expect dE= 0.000E+00 dE for cont linesearch  0.000E+00
 ZBRENT:  accuracy reached
 opt :   0.0000  next Energy=     0.000000 (dE= 0.699E+01)
 bond charge predicted
       N       E                     dE             d eps       ncg     rms          rms(c)
DAV:   1    -0.699451142438E+01    0.76170E-10    0.16286E-12   128   0.884E-12    0.653E-04
DAV:   2    -0.699451142436E+01    0.22737E-10    0.18247E-12   128   0.775E-12    0.653E-04
DAV:   3    -0.699451142433E+01    0.23647E-10    0.11251E-12   128   0.107E-11    0.653E-04
DAV:   4    -0.699451142429E+01    0.39790E-10    0.17508E-12   128   0.644E-12    0.653E-04
DAV:   5    -0.699451142417E+01    0.12892E-09    0.15334E-12   128   0.826E-12
  45 F= -.69945114E+01 E0= -.69945114E+01  d E =-.849923E-09
 curvature:   0.00 expect dE= 0.000E+00 dE for cont linesearch  0.000E+00
 ZBRENT:  accuracy reached
 opt :   0.0000  next Energy=     0.000000 (dE= 0.699E+01)
 bond charge predicted
       N       E                     dE             d eps       ncg     rms          rms(c)
DAV:   1    -0.699451142433E+01   -0.32742E-10    0.60434E-13   128   0.716E-12    0.653E-04
DAV:   2    -0.699451142440E+01   -0.70713E-10    0.26250E-13   128   0.787E-12    0.653E-04
DAV:   3    -0.699451142420E+01    0.20191E-09    0.13193E-12   128   0.510E-12    0.653E-04
DAV:   4    -0.699451142419E+01    0.11369E-10    0.87864E-13   128   0.896E-12    0.653E-04
DAV:   5    -0.699451142430E+01   -0.11050E-09    0.10856E-12   128   0.532E-12
  46 F= -.69945114E+01 E0= -.69945114E+01  d E =-.979526E-09
 curvature:   0.00 expect dE= 0.000E+00 dE for cont linesearch  0.000E+00
 ZBRENT:  accuracy reached
 opt :   0.0000  next Energy=     0.000000 (dE= 0.699E+01)
 bond charge predicted
       N       E                     dE             d eps       ncg     rms          rms(c)
DAV:   1    -0.699451142421E+01   -0.21373E-10    0.14259E-14   128   0.524E-12    0.653E-04
DAV:   2    -0.699451142432E+01   -0.11801E-09    0.50040E-13   128   0.732E-12    0.653E-04
DAV:   3    -0.699451142421E+01    0.11687E-09    0.56517E-13   128   0.498E-12    0.653E-04
DAV:   4    -0.699451142428E+01   -0.74351E-10    0.43278E-13   128   0.716E-12    0.653E-04
DAV:   5    -0.699451142427E+01    0.14779E-10    0.11999E-12   128   0.109E-11
  47 F= -.69945114E+01 E0= -.69945114E+01  d E =-.951104E-09
 curvature:   0.00 expect dE= 0.000E+00 dE for cont linesearch  0.000E+00
 ZBRENT:  accuracy reached
 opt :   0.0000  next Energy=     0.000000 (dE= 0.699E+01)
 bond charge predicted
       N       E                     dE             d eps       ncg     rms          rms(c)
DAV:   1    -0.699451142431E+01   -0.23647E-10    0.11283E-12   128   0.706E-12    0.653E-04
DAV:   2    -0.699451142432E+01   -0.19327E-10    0.82361E-13   128   0.173E-11    0.653E-04
DAV:   3    -0.699451142428E+01    0.42064E-10    0.14884E-12   128   0.998E-12    0.653E-04
DAV:   4    -0.699451142431E+01   -0.30241E-10    0.66412E-13   128   0.614E-12    0.653E-04
DAV:   5    -0.699451142429E+01    0.27512E-10    0.15419E-12   128   0.630E-12
  48 F= -.69945114E+01 E0= -.69945114E+01  d E =-.969521E-09
 curvature:   0.00 expect dE= 0.000E+00 dE for cont linesearch  0.000E+00
 ZBRENT:  accuracy reached
 opt :   0.0000  next Energy=     0.000000 (dE= 0.699E+01)
 bond charge predicted
       N       E                     dE             d eps       ncg     rms          rms(c)
DAV:   1    -0.699451142435E+01   -0.39108E-10    0.88471E-13   128   0.865E-12    0.653E-04
DAV:   2    -0.699451142421E+01    0.14711E-09    0.12389E-12   128   0.673E-12    0.653E-04
DAV:   3    -0.699451142427E+01   -0.60709E-10    0.14291E-12   128   0.641E-12    0.653E-04
DAV:   4    -0.699451142428E+01   -0.14325E-10    0.95694E-13   128   0.555E-12    0.653E-04
DAV:   5    -0.699451142418E+01    0.10277E-09    0.53273E-13   128   0.541E-12
  49 F= -.69945114E+01 E0= -.69945114E+01  d E =-.861291E-09
 curvature:   0.00 expect dE= 0.000E+00 dE for cont linesearch  0.000E+00
 ZBRENT:  accuracy reached
 opt :   0.0000  next Energy=     0.000000 (dE= 0.699E+01)
 bond charge predicted
       N       E                     dE             d eps       ncg     rms          rms(c)
DAV:   1    -0.699451142433E+01   -0.54797E-10    0.42414E-13   128   0.439E-12    0.653E-04
DAV:   2    -0.699451142430E+01    0.39336E-10    0.92367E-13   128   0.668E-12    0.653E-04
DAV:   3    -0.699451142425E+01    0.50250E-10    0.11148E-12   128   0.127E-11    0.653E-04
DAV:   4    -0.699451142436E+01   -0.11573E-09    0.67345E-13   128   0.104E-11    0.653E-04
DAV:   5    -0.699451142430E+01    0.65256E-10    0.57437E-13   128   0.634E-12
  50 F= -.69945114E+01 E0= -.69945114E+01  d E =-.979753E-09
 curvature:   0.00 expect dE= 0.000E+00 dE for cont linesearch  0.000E+00
 ZBRENT:  accuracy reached
 opt :   0.0000  next Energy=     0.000000 (dE= 0.699E+01)
 bond charge predicted
       N       E                     dE             d eps       ncg     rms          rms(c)
DAV:   1    -0.699451142430E+01    0.65029E-10   -0.61774E-13   128   0.589E-12    0.653E-04
DAV:   2    -0.699451142435E+01   -0.50932E-10    0.29487E-13   128   0.152E-11    0.653E-04
DAV:   3    -0.699451142418E+01    0.16598E-09   -0.15900E-13   128   0.128E-11    0.653E-04
DAV:   4    -0.699451142434E+01   -0.15848E-09    0.30691E-13   128   0.102E-11    0.653E-04
DAV:   5    -0.699451142430E+01    0.37062E-10   -0.16452E-13   128   0.511E-12
  51 F= -.69945114E+01 E0= -.69945114E+01  d E =-.986347E-09
 curvature:   0.00 expect dE= 0.000E+00 dE for cont linesearch  0.000E+00
 ZBRENT:  accuracy reached
 opt :   0.0000  next Energy=     0.000000 (dE= 0.699E+01)
 bond charge predicted
       N       E                     dE             d eps       ncg     rms          rms(c)
DAV:   1    -0.699451142434E+01   -0.40927E-11    0.44017E-13   128   0.648E-12    0.653E-04
DAV:   2    -0.699451142431E+01    0.30695E-10    0.46112E-13   128   0.860E-12    0.653E-04
DAV:   3    -0.699451142428E+01    0.30923E-10    0.38317E-13   128   0.126E-11    0.653E-04
DAV:   4    -0.699451142430E+01   -0.19554E-10    0.74062E-13   128   0.931E-12    0.653E-04
DAV:   5    -0.699451142432E+01   -0.22737E-10    0.37557E-13   128   0.660E-12
  52 F= -.69945114E+01 E0= -.69945114E+01  d E =-.100817E-08
 curvature:   0.00 expect dE= 0.000E+00 dE for cont linesearch  0.000E+00
 ZBRENT:  accuracy reached
 opt :   0.0000  next Energy=     0.000000 (dE= 0.699E+01)
 bond charge predicted
       N       E                     dE             d eps       ncg     rms          rms(c)
DAV:   1    -0.699451142433E+01   -0.25921E-10   -0.96485E-14   128   0.907E-12    0.653E-04
DAV:   2    -0.699451142438E+01   -0.52296E-10   -0.22052E-13   128   0.652E-12    0.653E-04
DAV:   3    -0.699451142429E+01    0.90495E-10    0.24973E-13   128   0.488E-12    0.653E-04
DAV:   4    -0.699451142430E+01   -0.13188E-10    0.66336E-14   128   0.617E-12    0.653E-04
DAV:   5    -0.699451142421E+01    0.92541E-10    0.28453E-13   128   0.902E-12
  53 F= -.69945114E+01 E0= -.69945114E+01  d E =-.893806E-09
 curvature:   0.00 expect dE= 0.000E+00 dE for cont linesearch  0.000E+00
 ZBRENT:  accuracy reached
 opt :   0.0000  next Energy=     0.000000 (dE= 0.699E+01)
 bond charge predicted
       N       E                     dE             d eps       ncg     rms          rms(c)
DAV:   1    -0.699451142438E+01   -0.74806E-10    0.72747E-13   128   0.965E-12    0.653E-04
DAV:   2    -0.699451142427E+01    0.10482E-09    0.69823E-13   128   0.733E-12    0.653E-04
DAV:   3    -0.699451142442E+01   -0.14302E-09    0.99292E-13   128   0.968E-12    0.653E-04
DAV:   4    -0.699451142437E+01    0.45020E-10    0.46636E-13   128   0.859E-12    0.653E-04
DAV:   5    -0.699451142427E+01    0.10141E-09    0.10737E-12   128   0.727E-12
  54 F= -.69945114E+01 E0= -.69945114E+01  d E =-.952923E-09
 curvature:   0.00 expect dE= 0.000E+00 dE for cont linesearch  0.000E+00
 ZBRENT:  accuracy reached
 opt :   0.0000  next Energy=     0.000000 (dE= 0.699E+01)
 bond charge predicted
       N       E                     dE             d eps       ncg     rms          rms(c)
DAV:   1    -0.699451142425E+01    0.12255E-09    0.70121E-13   128   0.594E-12    0.653E-04
DAV:   2    -0.699451142416E+01    0.83219E-10    0.64435E-13   128   0.668E-12    0.653E-04
DAV:   3    -0.699451142424E+01   -0.71168E-10    0.43691E-13   128   0.734E-12    0.653E-04
DAV:   4    -0.699451142437E+01   -0.13642E-09    0.10742E-12   128   0.515E-12    0.653E-04
DAV:   5    -0.699451142434E+01    0.36835E-10    0.59213E-13   128   0.625E-12
  55 F= -.69945114E+01 E0= -.69945114E+01  d E =-.101932E-08
 curvature:   0.00 expect dE= 0.000E+00 dE for cont linesearch  0.000E+00
 ZBRENT:  accuracy reached
 opt :   0.0000  next Energy=     0.000000 (dE= 0.699E+01)
 bond charge predicted
       N       E                     dE             d eps       ncg     rms          rms(c)
DAV:   1    -0.699451142434E+01    0.33424E-10    0.97710E-13   128   0.101E-11    0.653E-04
DAV:   2    -0.699451142428E+01    0.55934E-10    0.65423E-13   128   0.820E-12    0.653E-04
DAV:   3    -0.699451142428E+01    0.43201E-11    0.11714E-12   128   0.127E-11    0.653E-04
DAV:   4    -0.699451142438E+01   -0.98453E-10    0.27766E-13   128   0.114E-11    0.653E-04
DAV:   5    -0.699451142440E+01   -0.18417E-10    0.88478E-13   128   0.116E-11
  56 F= -.69945114E+01 E0= -.69945114E+01  d E =-.107934E-08
 curvature:   0.00 expect dE= 0.000E+00 dE for cont linesearch  0.000E+00
 ZBRENT:  accuracy reached
 opt :   0.0000  next Energy=     0.000000 (dE= 0.699E+01)
 bond charge predicted
       N       E                     dE             d eps       ncg     rms          rms(c)
DAV:   1    -0.699451142424E+01    0.14097E-09   -0.35125E-13   128   0.636E-12    0.653E-04
DAV:   2    -0.699451142421E+01    0.30695E-10    0.13517E-13   128   0.965E-12    0.653E-04
DAV:   3    -0.699451142436E+01   -0.15916E-09   -0.78340E-14   128   0.579E-12    0.653E-04
DAV:   4    -0.699451142420E+01    0.16348E-09    0.16070E-13   128   0.452E-12    0.653E-04
DAV:   5    -0.699451142423E+01   -0.29331E-10    0.30063E-13   128   0.523E-12
  57 F= -.69945114E+01 E0= -.69945114E+01  d E =-.914270E-09
 curvature:   0.00 expect dE= 0.000E+00 dE for cont linesearch  0.000E+00
 ZBRENT:  accuracy reached
 opt :   0.0000  next Energy=     0.000000 (dE= 0.699E+01)
 bond charge predicted
       N       E                     dE             d eps       ncg     rms          rms(c)
DAV:   1    -0.699451142424E+01   -0.40018E-10    0.10363E-13   128   0.658E-12    0.653E-04
DAV:   2    -0.699451142428E+01   -0.41609E-10    0.26854E-13   128   0.955E-12    0.653E-04
DAV:   3    -0.699451142429E+01   -0.72760E-11    0.45526E-13   128   0.803E-12    0.653E-04
DAV:   4    -0.699451142435E+01   -0.56616E-10    0.23287E-13   128   0.537E-12    0.653E-04
DAV:   5    -0.699451142423E+01    0.11505E-09    0.92912E-14   128   0.450E-12
  58 F= -.69945114E+01 E0= -.69945114E+01  d E =-.915406E-09
 curvature:   0.00 expect dE= 0.000E+00 dE for cont linesearch  0.000E+00
 ZBRENT:  accuracy reached
 opt :   0.0000  next Energy=     0.000000 (dE= 0.699E+01)
 bond charge predicted
       N       E                     dE             d eps       ncg     rms          rms(c)
DAV:   1    -0.699451142439E+01   -0.43201E-10    0.85727E-13   128   0.505E-12    0.653E-04
DAV:   2    -0.699451142432E+01    0.68212E-10    0.53738E-13   128   0.636E-12    0.653E-04
DAV:   3    -0.699451142431E+01    0.15916E-10    0.83357E-13   128   0.456E-12    0.653E-04
DAV:   4    -0.699451142431E+01    0.22737E-12    0.64344E-13   128   0.798E-12    0.653E-04
DAV:   5    -0.699451142425E+01    0.52296E-10    0.75003E-13   128   0.563E-12
  59 F= -.69945114E+01 E0= -.69945114E+01  d E =-.937007E-09
 curvature:   0.00 expect dE= 0.000E+00 dE for cont linesearch  0.000E+00
 ZBRENT:  accuracy reached
 opt :   0.0000  next Energy=     0.000000 (dE= 0.699E+01)
 bond charge predicted
       N       E                     dE             d eps       ncg     rms          rms(c)
DAV:   1    -0.699451142426E+01    0.44338E-10   -0.22447E-13   128   0.797E-12    0.653E-04
DAV:   2    -0.699451142431E+01   -0.48431E-10    0.94189E-13   128   0.115E-11    0.653E-04
DAV:   3    -0.699451142422E+01    0.87994E-10   -0.22617E-13   128   0.930E-12    0.653E-04
DAV:   4    -0.699451142436E+01   -0.14006E-09    0.14027E-13   128   0.882E-12    0.653E-04
DAV:   5    -0.699451142425E+01    0.11505E-09    0.63879E-13   128   0.486E-12
  60 F= -.69945114E+01 E0= -.69945114E+01  d E =-.930413E-09
 curvature:   0.00 expect dE= 0.000E+00 dE for cont linesearch  0.000E+00
 ZBRENT:  accuracy reached
 opt :   0.0000  next Energy=     0.000000 (dE= 0.699E+01)
 bond charge predicted
       N       E                     dE             d eps       ncg     rms          rms(c)
DAV:   1    -0.699451142441E+01   -0.48885E-10    0.82042E-13   128   0.468E-12    0.653E-04
DAV:   2    -0.699451142425E+01    0.16530E-09    0.17859E-12   128   0.116E-11    0.653E-04
DAV:   3    -0.699451142423E+01    0.15689E-10    0.78878E-13   128   0.590E-12    0.653E-04
DAV:   4    -0.699451142420E+01    0.33197E-10    0.60455E-13   128   0.754E-12    0.653E-04
DAV:   5    -0.699451142431E+01   -0.11164E-09    0.18379E-12   128   0.651E-12
  61 F= -.69945114E+01 E0= -.69945114E+01  d E =-.991804E-09
 curvature:   0.00 expect dE= 0.000E+00 dE for cont linesearch  0.000E+00
 ZBRENT:  accuracy reached
 opt :   0.0000  next Energy=     0.000000 (dE= 0.699E+01)
 bond charge predicted
       N       E                     dE             d eps       ncg     rms          rms(c)
DAV:   1    -0.699451142433E+01   -0.13756E-09    0.88374E-13   128   0.974E-12    0.653E-04
DAV:   2    -0.699451142429E+01    0.42292E-10    0.14960E-12   128   0.575E-12    0.653E-04
DAV:   3    -0.699451142444E+01   -0.14597E-09    0.16713E-12   128   0.968E-12    0.653E-04
DAV:   4    -0.699451142433E+01    0.11050E-09    0.10907E-12   128   0.997E-12    0.653E-04
DAV:   5    -0.699451142428E+01    0.51159E-10    0.12396E-12   128   0.945E-12
  62 F= -.69945114E+01 E0= -.69945114E+01  d E =-.959744E-09
 curvature:   0.00 expect dE= 0.000E+00 dE for cont linesearch  0.000E+00
 ZBRENT:  accuracy reached
 opt :   0.0000  next Energy=     0.000000 (dE= 0.699E+01)
 bond charge predicted
       N       E                     dE             d eps       ncg     rms          rms(c)
DAV:   1    -0.699451142424E+01    0.91632E-10    0.57513E-13   128   0.701E-12    0.653E-04
DAV:   2    -0.699451142429E+01   -0.59345E-10    0.10475E-12   128   0.522E-12    0.653E-04
DAV:   3    -0.699451142429E+01    0.22737E-12    0.10967E-12   128   0.732E-12    0.653E-04
DAV:   4    -0.699451142431E+01   -0.11141E-10    0.81372E-13   128   0.425E-12    0.653E-04
DAV:   5    -0.699451142436E+01   -0.49567E-10    0.10546E-12   128   0.836E-12
  63 F= -.69945114E+01 E0= -.69945114E+01  d E =-.103910E-08
 curvature:   0.00 expect dE= 0.000E+00 dE for cont linesearch  0.000E+00
 ZBRENT:  accuracy reached
 opt :   0.0000  next Energy=     0.000000 (dE= 0.699E+01)
 bond charge predicted
       N       E                     dE             d eps       ncg     rms          rms(c)
DAV:   1    -0.699451142428E+01    0.30013E-10    0.61437E-13   128   0.820E-12    0.653E-04
DAV:   2    -0.699451142430E+01   -0.19554E-10   -0.21434E-13   128   0.839E-12    0.653E-04
DAV:   3    -0.699451142425E+01    0.41155E-10   -0.74177E-14   128   0.914E-12    0.653E-04
DAV:   4    -0.699451142427E+01   -0.12506E-10    0.64334E-13   128   0.146E-11    0.653E-04
DAV:   5    -0.699451142432E+01   -0.57753E-10    0.52999E-13   128   0.687E-12
  64 F= -.69945114E+01 E0= -.69945114E+01  d E =-.100817E-08
 curvature:   0.00 expect dE= 0.000E+00 dE for cont linesearch  0.000E+00
 ZBRENT:  accuracy reached
 opt :   0.0000  next Energy=     0.000000 (dE= 0.699E+01)
 bond charge predicted
       N       E                     dE             d eps       ncg     rms          rms(c)
DAV:   1    -0.699451142433E+01   -0.61846E-10    0.58883E-13   128   0.753E-12    0.653E-04
DAV:   2    -0.699451142430E+01    0.26375E-10    0.14790E-12   128   0.868E-12    0.653E-04
DAV:   3    -0.699451142438E+01   -0.73669E-10    0.12597E-12   128   0.592E-12    0.653E-04
DAV:   4    -0.699451142433E+01    0.49567E-10    0.81764E-13   128   0.836E-12    0.653E-04
DAV:   5    -0.699451142427E+01    0.57526E-10    0.44707E-13   128   0.158E-11
  65 F= -.69945114E+01 E0= -.69945114E+01  d E =-.952468E-09
 curvature:   0.00 expect dE= 0.000E+00 dE for cont linesearch  0.000E+00
 ZBRENT:  accuracy reached
 opt :   0.0000  next Energy=     0.000000 (dE= 0.699E+01)
 bond charge predicted
       N       E                     dE             d eps       ncg     rms          rms(c)
DAV:   1    -0.699451142425E+01    0.79581E-10    0.18190E-13   128   0.109E-11    0.653E-04
DAV:   2    -0.699451142428E+01   -0.37289E-10    0.77972E-13   128   0.703E-12    0.653E-04
DAV:   3    -0.699451142431E+01   -0.30468E-10    0.40808E-13   128   0.574E-12    0.653E-04
DAV:   4    -0.699451142419E+01    0.12074E-09    0.15563E-12   128   0.835E-12    0.653E-04
DAV:   5    -0.699451142447E+01   -0.27626E-09    0.23339E-13   128   0.608E-12
  66 F= -.69945114E+01 E0= -.69945114E+01  d E =-.115369E-08
 curvature:   0.00 expect dE= 0.000E+00 dE for cont linesearch  0.000E+00
 ZBRENT:  accuracy reached
 opt :   0.0000  next Energy=     0.000000 (dE= 0.699E+01)
 bond charge predicted
       N       E                     dE             d eps       ncg     rms          rms(c)
DAV:   1    -0.699451142422E+01   -0.23419E-10    0.11125E-12   128   0.441E-12    0.653E-04
DAV:   2    -0.699451142432E+01   -0.98225E-10    0.92090E-13   128   0.614E-12    0.653E-04
DAV:   3    -0.699451142420E+01    0.11437E-09    0.15624E-12   128   0.104E-11    0.653E-04
DAV:   4    -0.699451142426E+01   -0.59345E-10    0.14180E-12   128   0.106E-11    0.653E-04
DAV:   5    -0.699451142437E+01   -0.11278E-09    0.83909E-13   128   0.924E-12
  67 F= -.69945114E+01 E0= -.69945114E+01  d E =-.105683E-08
 curvature:   0.00 expect dE= 0.000E+00 dE for cont linesearch  0.000E+00
 ZBRENT:  accuracy reached
 opt :   0.0000  next Energy=     0.000000 (dE= 0.699E+01)
 bond charge predicted
       N       E                     dE             d eps       ncg     rms          rms(c)
DAV:   1    -0.699451142436E+01   -0.10232E-09    0.75821E-13   128   0.806E-12    0.653E-04
DAV:   2    -0.699451142425E+01    0.11141E-09    0.95809E-13   128   0.138E-11    0.653E-04
DAV:   3    -0.699451142421E+01    0.45247E-10    0.65104E-13   128   0.762E-12    0.653E-04
DAV:   4    -0.699451142422E+01   -0.95497E-11    0.11009E-12   128   0.442E-12    0.653E-04
DAV:   5    -0.699451142431E+01   -0.92086E-10    0.61597E-13   128   0.501E-12
  68 F= -.69945114E+01 E0= -.69945114E+01  d E =-.991349E-09
 curvature:   0.00 expect dE= 0.000E+00 dE for cont linesearch  0.000E+00
 ZBRENT:  accuracy reached
 opt :   0.0000  next Energy=     0.000000 (dE= 0.699E+01)
 bond charge predicted
       N       E                     dE             d eps       ncg     rms          rms(c)
DAV:   1    -0.699451142430E+01   -0.82309E-10    0.84054E-13   128   0.552E-12    0.653E-04
DAV:   2    -0.699451142420E+01    0.96179E-10    0.12289E-12   128   0.569E-12    0.653E-04
DAV:   3    -0.699451142425E+01   -0.53433E-10    0.28918E-13   128   0.506E-12    0.653E-04
DAV:   4    -0.699451142427E+01   -0.18417E-10    0.62977E-13   128   0.541E-12    0.653E-04
DAV:   5    -0.699451142419E+01    0.81855E-10    0.14449E-12   128   0.690E-12
  69 F= -.69945114E+01 E0= -.69945114E+01  d E =-.875389E-09
 curvature:   0.00 expect dE= 0.000E+00 dE for cont linesearch  0.000E+00
 ZBRENT:  accuracy reached
 opt :   0.0000  next Energy=     0.000000 (dE= 0.699E+01)
 bond charge predicted
       N       E                     dE             d eps       ncg     rms          rms(c)
DAV:   1    -0.699451142433E+01   -0.53660E-10    0.29057E-13   128   0.732E-12    0.653E-04
DAV:   2    -0.699451142432E+01    0.81855E-11    0.13045E-14   128   0.654E-12    0.653E-04
DAV:   3    -0.699451142426E+01    0.60027E-10    0.31208E-13   128   0.573E-12    0.653E-04
DAV:   4    -0.699451142428E+01   -0.21828E-10    0.54120E-13   128   0.100E-11    0.653E-04
DAV:   5    -0.699451142424E+01    0.43201E-10   -0.58634E-15   128   0.982E-12
  70 F= -.69945114E+01 E0= -.69945114E+01  d E =-.921318E-09
 curvature:   0.00 expect dE= 0.000E+00 dE for cont linesearch  0.000E+00
 ZBRENT:  accuracy reached
 opt :   0.0000  next Energy=     0.000000 (dE= 0.699E+01)
 bond charge predicted
       N       E                     dE             d eps       ncg     rms          rms(c)
DAV:   1    -0.699451142430E+01   -0.14779E-10   -0.22048E-13   128   0.724E-12    0.653E-04
DAV:   2    -0.699451142434E+01   -0.46612E-10    0.12722E-13   128   0.724E-12    0.653E-04
DAV:   3    -0.699451142428E+01    0.64119E-10    0.51518E-13   128   0.761E-12    0.653E-04
DAV:   4    -0.699451142432E+01   -0.40018E-10   -0.50120E-13   128   0.888E-12    0.653E-04
DAV:   5    -0.699451142438E+01   -0.62755E-10    0.13621E-13   128   0.788E-12
  71 F= -.69945114E+01 E0= -.69945114E+01  d E =-.106456E-08
 curvature:   0.00 expect dE= 0.000E+00 dE for cont linesearch  0.000E+00
 ZBRENT:  accuracy reached
 opt :   0.0000  next Energy=     0.000000 (dE= 0.699E+01)
 bond charge predicted
       N       E                     dE             d eps       ncg     rms          rms(c)
DAV:   1    -0.699451142440E+01   -0.79353E-10    0.37741E-13   128   0.708E-12    0.653E-04
DAV:   2    -0.699451142435E+01    0.47066E-10    0.75353E-13   128   0.696E-12    0.653E-04
DAV:   3    -0.699451142430E+01    0.51386E-10    0.77865E-13   128   0.693E-12    0.653E-04
DAV:   4    -0.699451142431E+01   -0.10232E-10    0.41963E-13   128   0.869E-12    0.653E-04
DAV:   5    -0.699451142427E+01    0.37062E-10    0.12686E-12   128   0.574E-12
  72 F= -.69945114E+01 E0= -.69945114E+01  d E =-.955879E-09
 curvature:   0.00 expect dE= 0.000E+00 dE for cont linesearch  0.000E+00
 ZBRENT:  accuracy reached
 opt :   0.0000  next Energy=     0.000000 (dE= 0.699E+01)
 bond charge predicted
       N       E                     dE             d eps       ncg     rms          rms(c)
DAV:   1    -0.699451142428E+01    0.33651E-10    0.27797E-13   128   0.571E-12    0.653E-04
DAV:   2    -0.699451142435E+01   -0.76398E-10    0.38029E-13   128   0.116E-11    0.653E-04
DAV:   3    -0.699451142428E+01    0.74124E-10    0.49752E-14   128   0.639E-12    0.653E-04
DAV:   4    -0.699451142430E+01   -0.19782E-10   -0.63574E-13   128   0.878E-12    0.653E-04
DAV:   5    -0.699451142429E+01    0.27285E-11   -0.10464E-13   128   0.777E-12
  73 F= -.69945114E+01 E0= -.69945114E+01  d E =-.978616E-09
 curvature:   0.00 expect dE= 0.000E+00 dE for cont linesearch  0.000E+00
 ZBRENT:  accuracy reached
 opt :   0.0000  next Energy=     0.000000 (dE= 0.699E+01)
 bond charge predicted
       N       E                     dE             d eps       ncg     rms          rms(c)
DAV:   1    -0.699451142424E+01    0.54115E-10    0.10682E-13   128   0.133E-11    0.653E-04
DAV:   2    -0.699451142434E+01   -0.94587E-10    0.45224E-13   128   0.109E-11    0.653E-04
DAV:   3    -0.699451142431E+01    0.26830E-10   -0.77369E-14   128   0.597E-12    0.653E-04
DAV:   4    -0.699451142434E+01   -0.28422E-10    0.84165E-13   128   0.839E-12    0.653E-04
DAV:   5    -0.699451142431E+01    0.25011E-10    0.16109E-13   128   0.651E-12
  74 F= -.69945114E+01 E0= -.69945114E+01  d E =-.998398E-09
 curvature:   0.00 expect dE= 0.000E+00 dE for cont linesearch  0.000E+00
 ZBRENT:  accuracy reached
 opt :   0.0000  next Energy=     0.000000 (dE= 0.699E+01)
 bond charge predicted
       N       E                     dE             d eps       ncg     rms          rms(c)
DAV:   1    -0.699451142448E+01   -0.14120E-09    0.22728E-13   128   0.828E-12    0.653E-04
DAV:   2    -0.699451142431E+01    0.16780E-09    0.42466E-13   128   0.793E-12    0.653E-04
DAV:   3    -0.699451142440E+01   -0.89813E-10    0.44287E-13   128   0.121E-11    0.653E-04
DAV:   4    -0.699451142441E+01   -0.43201E-11    0.14978E-13   128   0.147E-11    0.653E-04
DAV:   5    -0.699451142423E+01    0.17258E-09    0.45429E-13   128   0.717E-12
  75 F= -.69945114E+01 E0= -.69945114E+01  d E =-.918362E-09
 curvature:   0.00 expect dE= 0.000E+00 dE for cont linesearch  0.000E+00
 ZBRENT:  accuracy reached
 opt :   0.0000  next Energy=     0.000000 (dE= 0.699E+01)
 bond charge predicted
       N       E                     dE             d eps       ncg     rms          rms(c)
DAV:   1    -0.699451142426E+01    0.14848E-09    0.78729E-13   128   0.540E-12    0.653E-04
DAV:   2    -0.699451142431E+01   -0.47521E-10   -0.24560E-13   128   0.553E-12    0.653E-04
DAV:   3    -0.699451142427E+01    0.37062E-10    0.27107E-13   128   0.822E-12    0.653E-04
DAV:   4    -0.699451142423E+01    0.36835E-10    0.29948E-13   128   0.107E-11    0.653E-04
DAV:   5    -0.699451142431E+01   -0.78217E-10    0.13655E-12   128   0.112E-11
  76 F= -.69945114E+01 E0= -.69945114E+01  d E =-.994305E-09
 curvature:   0.00 expect dE= 0.000E+00 dE for cont linesearch  0.000E+00
 ZBRENT:  accuracy reached
 opt :   0.0000  next Energy=     0.000000 (dE= 0.699E+01)
 bond charge predicted
       N       E                     dE             d eps       ncg     rms          rms(c)
DAV:   1    -0.699451142431E+01   -0.75033E-10   -0.37630E-13   128   0.848E-12    0.653E-04
DAV:   2    -0.699451142431E+01    0.20464E-11   -0.68494E-13   128   0.121E-11    0.653E-04
DAV:   3    -0.699451142427E+01    0.31378E-10   -0.66860E-13   128   0.869E-12    0.653E-04
DAV:   4    -0.699451142422E+01    0.51386E-10   -0.58783E-13   128   0.592E-12    0.653E-04
DAV:   5    -0.699451142429E+01   -0.69576E-10   -0.11478E-12   128   0.586E-12
  77 F= -.69945114E+01 E0= -.69945114E+01  d E =-.975888E-09
 curvature:   0.00 expect dE= 0.000E+00 dE for cont linesearch  0.000E+00
 ZBRENT:  accuracy reached
 opt :   0.0000  next Energy=     0.000000 (dE= 0.699E+01)
 bond charge predicted
       N       E                     dE             d eps       ncg     rms          rms(c)
DAV:   1    -0.699451142423E+01   -0.10914E-10    0.45651E-13   128   0.958E-12    0.653E-04
DAV:   2    -0.699451142433E+01   -0.97998E-10   -0.55997E-14   128   0.569E-12    0.653E-04
DAV:   3    -0.699451142417E+01    0.16053E-09    0.87916E-14   128   0.553E-12    0.653E-04
DAV:   4    -0.699451142429E+01   -0.12187E-09    0.17139E-14   128   0.408E-12    0.653E-04
DAV:   5    -0.699451142439E+01   -0.10232E-09    0.72758E-13   128   0.849E-12
  78 F= -.69945114E+01 E0= -.69945114E+01  d E =-.107889E-08
 curvature:   0.00 expect dE= 0.000E+00 dE for cont linesearch  0.000E+00
 ZBRENT:  accuracy reached
 opt :   0.0000  next Energy=     0.000000 (dE= 0.699E+01)
 bond charge predicted
       N       E                     dE             d eps       ncg     rms          rms(c)
DAV:   1    -0.699451142423E+01    0.66393E-10    0.27710E-13   128   0.711E-12    0.653E-04
DAV:   2    -0.699451142436E+01   -0.13665E-09   -0.38847E-13   128   0.814E-12    0.653E-04
DAV:   3    -0.699451142428E+01    0.80036E-10    0.34129E-13   128   0.853E-12    0.653E-04
DAV:   4    -0.699451142417E+01    0.11778E-09    0.30503E-13   128   0.100E-11    0.653E-04
DAV:   5    -0.699451142431E+01   -0.14415E-09   -0.70430E-15   128   0.933E-12
  79 F= -.69945114E+01 E0= -.69945114E+01  d E =-.993168E-09
 curvature:   0.00 expect dE= 0.000E+00 dE for cont linesearch  0.000E+00
 ZBRENT:  accuracy reached
 opt :   0.0000  next Energy=     0.000000 (dE= 0.699E+01)
 bond charge predicted
       N       E                     dE             d eps       ncg     rms          rms(c)
DAV:   1    -0.699451142435E+01   -0.18167E-09    0.13774E-12   128   0.589E-12    0.653E-04
DAV:   2    -0.699451142440E+01   -0.57980E-10    0.16890E-12   128   0.487E-12    0.653E-04
DAV:   3    -0.699451142425E+01    0.15461E-09    0.13754E-12   128   0.650E-12    0.653E-04
DAV:   4    -0.699451142425E+01   -0.40927E-11    0.16286E-12   128   0.702E-12    0.653E-04
DAV:   5    -0.699451142422E+01    0.37062E-10    0.18931E-12   128   0.106E-11
  80 F= -.69945114E+01 E0= -.69945114E+01  d E =-.901082E-09
 curvature:   0.00 expect dE= 0.000E+00 dE for cont linesearch  0.000E+00
 ZBRENT:  accuracy reached
 opt :   0.0000  next Energy=     0.000000 (dE= 0.699E+01)
 bond charge predicted
       N       E                     dE             d eps       ncg     rms          rms(c)
DAV:   1    -0.699451142437E+01   -0.11801E-09   -0.64046E-14   128   0.816E-12    0.653E-04
DAV:   2    -0.699451142421E+01    0.16621E-09    0.85730E-13   128   0.108E-11    0.653E-04
DAV:   3    -0.699451142426E+01   -0.55707E-10    0.74010E-13   128   0.803E-12    0.653E-04
DAV:   4    -0.699451142426E+01    0.61391E-11    0.21649E-13   128   0.448E-12    0.653E-04
DAV:   5    -0.699451142423E+01    0.22510E-10    0.16022E-13   128   0.424E-12
  81 F= -.69945114E+01 E0= -.69945114E+01  d E =-.916998E-09
 curvature:   0.00 expect dE= 0.000E+00 dE for cont linesearch  0.000E+00
 ZBRENT:  accuracy reached
 opt :   0.0000  next Energy=     0.000000 (dE= 0.699E+01)
 bond charge predicted
       N       E                     dE             d eps       ncg     rms          rms(c)
DAV:   1    -0.699451142419E+01    0.61391E-10   -0.76328E-16   128   0.761E-12    0.653E-04
DAV:   2    -0.699451142427E+01   -0.79126E-10    0.10658E-13   128   0.926E-12    0.653E-04
DAV:   3    -0.699451142430E+01   -0.22283E-10    0.60143E-13   128   0.706E-12    0.653E-04
DAV:   4    -0.699451142428E+01    0.14097E-10    0.52493E-13   128   0.682E-12    0.653E-04
DAV:   5    -0.699451142423E+01    0.54570E-10    0.12174E-13   128   0.619E-12
  82 F= -.69945114E+01 E0= -.69945114E+01  d E =-.910859E-09
 curvature:   0.00 expect dE= 0.000E+00 dE for cont linesearch  0.000E+00
 ZBRENT:  accuracy reached
 opt :   0.0000  next Energy=     0.000000 (dE= 0.699E+01)
 bond charge predicted
       N       E                     dE             d eps       ncg     rms          rms(c)
DAV:   1    -0.699451142428E+01    0.56843E-11   -0.87187E-14   128   0.760E-12    0.653E-04
DAV:   2    -0.699451142433E+01   -0.55252E-10    0.76970E-13   128   0.123E-11    0.653E-04
DAV:   3    -0.699451142427E+01    0.57753E-10    0.13892E-13   128   0.781E-12    0.653E-04
DAV:   4    -0.699451142424E+01    0.28422E-10   -0.19752E-13   128   0.414E-12    0.653E-04
DAV:   5    -0.699451142428E+01   -0.35016E-10    0.29879E-13   128   0.567E-12
  83 F= -.69945114E+01 E0= -.69945114E+01  d E =-.963837E-09
 curvature:   0.00 expect dE= 0.000E+00 dE for cont linesearch  0.000E+00
 ZBRENT:  accuracy reached
 opt :   0.0000  next Energy=     0.000000 (dE= 0.699E+01)
 bond charge predicted
       N       E                     dE             d eps       ncg     rms          rms(c)
DAV:   1    -0.699451142438E+01   -0.13847E-09    0.12949E-12   128   0.664E-12    0.653E-04
DAV:   2    -0.699451142435E+01    0.31378E-10    0.89616E-13   128   0.148E-11    0.653E-04
DAV:   3    -0.699451142433E+01    0.17280E-10    0.99806E-13   128   0.101E-11    0.653E-04
DAV:   4    -0.699451142433E+01    0.65938E-11    0.11039E-12   128   0.889E-12    0.653E-04
DAV:   5    -0.699451142438E+01   -0.48658E-10    0.12429E-12   128   0.569E-12
  84 F= -.69945114E+01 E0= -.69945114E+01  d E =-.106070E-08
 curvature:   0.00 expect dE= 0.000E+00 dE for cont linesearch  0.000E+00
 ZBRENT:  accuracy reached
 opt :   0.0000  next Energy=     0.000000 (dE= 0.699E+01)
 bond charge predicted
       N       E                     dE             d eps       ncg     rms          rms(c)
DAV:   1    -0.699451142427E+01    0.59799E-10    0.89456E-13   128   0.717E-12    0.653E-04
DAV:   2    -0.699451142431E+01   -0.43656E-10    0.10004E-12   128   0.598E-12    0.653E-04
DAV:   3    -0.699451142426E+01    0.51159E-10    0.38813E-13   128   0.458E-12    0.653E-04
DAV:   4    -0.699451142424E+01    0.16144E-10    0.62471E-13   128   0.107E-11    0.653E-04
DAV:   5    -0.699451142427E+01   -0.23192E-10    0.11257E-12   128   0.667E-12
  85 F= -.69945114E+01 E0= -.69945114E+01  d E =-.951786E-09
 curvature:   0.00 expect dE= 0.000E+00 dE for cont linesearch  0.000E+00
 ZBRENT:  accuracy reached
 opt :   0.0000  next Energy=     0.000000 (dE= 0.699E+01)
 bond charge predicted
       N       E                     dE             d eps       ncg     rms          rms(c)
DAV:   1    -0.699451142422E+01    0.22055E-10    0.33064E-13   128   0.815E-12    0.653E-04
DAV:   2    -0.699451142434E+01   -0.11732E-09    0.15651E-13   128   0.626E-12    0.653E-04
DAV:   3    -0.699451142427E+01    0.70486E-10    0.64462E-13   128   0.572E-12    0.653E-04
DAV:   4    -0.699451142429E+01   -0.22965E-10    0.95028E-14   128   0.556E-12    0.653E-04
DAV:   5    -0.699451142429E+01    0.29559E-11    0.49336E-14   128   0.115E-11
  86 F= -.69945114E+01 E0= -.69945114E+01  d E =-.973387E-09
 curvature:   0.00 expect dE= 0.000E+00 dE for cont linesearch  0.000E+00
 ZBRENT:  accuracy reached
 opt :   0.0000  next Energy=     0.000000 (dE= 0.699E+01)
 bond charge predicted
       N       E                     dE             d eps       ncg     rms          rms(c)
DAV:   1    -0.699451142430E+01   -0.50022E-11   -0.48871E-13   128   0.655E-12    0.653E-04
DAV:   2    -0.699451142426E+01    0.37517E-10   -0.37283E-13   128   0.623E-12    0.653E-04
DAV:   3    -0.699451142432E+01   -0.61618E-10   -0.95125E-13   128   0.619E-12    0.653E-04
DAV:   4    -0.699451142438E+01   -0.59345E-10   -0.47847E-13   128   0.960E-12    0.653E-04
DAV:   5    -0.699451142424E+01    0.13893E-09   -0.81962E-13   128   0.128E-11
  87 F= -.69945114E+01 E0= -.69945114E+01  d E =-.925866E-09
 curvature:   0.00 expect dE= 0.000E+00 dE for cont linesearch  0.000E+00
 ZBRENT:  accuracy reached
 opt :   0.0000  next Energy=     0.000000 (dE= 0.699E+01)
 bond charge predicted
       N       E                     dE             d eps       ncg     rms          rms(c)
DAV:   1    -0.699451142435E+01    0.29331E-10    0.10768E-12   128   0.104E-11    0.653E-04
DAV:   2    -0.699451142417E+01    0.18508E-09    0.80463E-13   128   0.592E-12    0.653E-04
DAV:   3    -0.699451142430E+01   -0.12869E-09    0.54474E-13   128   0.465E-12    0.653E-04
DAV:   4    -0.699451142436E+01   -0.63665E-10    0.11484E-12   128   0.757E-12    0.653E-04
DAV:   5    -0.699451142426E+01    0.10232E-09    0.10091E-12   128   0.124E-11
  88 F= -.69945114E+01 E0= -.69945114E+01  d E =-.940418E-09
 curvature:   0.00 expect dE= 0.000E+00 dE for cont linesearch  0.000E+00
 ZBRENT:  accuracy reached
 opt :   0.0000  next Energy=     0.000000 (dE= 0.699E+01)
 bond charge predicted
       N       E                     dE             d eps       ncg     rms          rms(c)
DAV:   1    -0.699451142426E+01    0.95497E-10    0.53388E-13   128   0.578E-12    0.653E-04
DAV:   2    -0.699451142420E+01    0.61846E-10    0.94230E-13   128   0.443E-12    0.653E-04
DAV:   3    -0.699451142436E+01   -0.15598E-09    0.69625E-13   128   0.568E-12    0.653E-04
DAV:   4    -0.699451142437E+01   -0.10459E-10    0.76692E-13   128   0.835E-12    0.653E-04
DAV:   5    -0.699451142423E+01    0.13733E-09    0.54089E-13   128   0.788E-12
  89 F= -.69945114E+01 E0= -.69945114E+01  d E =-.914497E-09
 curvature:   0.00 expect dE= 0.000E+00 dE for cont linesearch  0.000E+00
 ZBRENT:  accuracy reached
 opt :   0.0000  next Energy=     0.000000 (dE= 0.699E+01)
 bond charge predicted
       N       E                     dE             d eps       ncg     rms          rms(c)
DAV:   1    -0.699451142431E+01    0.62300E-10    0.63709E-13   128   0.641E-12    0.653E-04
DAV:   2    -0.699451142425E+01    0.51386E-10   -0.26368E-14   128   0.499E-12    0.653E-04
DAV:   3    -0.699451142426E+01   -0.27285E-11    0.10467E-12   128   0.539E-12    0.653E-04
DAV:   4    -0.699451142430E+01   -0.40700E-10    0.49967E-13   128   0.604E-12    0.653E-04
DAV:   5    -0.699451142421E+01    0.91632E-10    0.42622E-13   128   0.789E-12
  90 F= -.69945114E+01 E0= -.69945114E+01  d E =-.889941E-09
 curvature:   0.00 expect dE= 0.000E+00 dE for cont linesearch  0.000E+00
 ZBRENT:  accuracy reached
 opt :   0.0000  next Energy=     0.000000 (dE= 0.699E+01)
 bond charge predicted
       N       E                     dE             d eps       ncg     rms          rms(c)
DAV:   1    -0.699451142442E+01   -0.11755E-09   -0.63359E-13   128   0.117E-11    0.653E-04
DAV:   2    -0.699451142423E+01    0.19008E-09    0.35388E-15   128   0.101E-11    0.653E-04
DAV:   3    -0.699451142445E+01   -0.22760E-09   -0.27412E-13   128   0.630E-12    0.653E-04
DAV:   4    -0.699451142427E+01    0.18667E-09   -0.90698E-13   128   0.123E-11    0.653E-04
DAV:   5    -0.699451142429E+01   -0.28876E-10   -0.23381E-13   128   0.105E-11
  91 F= -.69945114E+01 E0= -.69945114E+01  d E =-.978844E-09
 curvature:   0.00 expect dE= 0.000E+00 dE for cont linesearch  0.000E+00
 ZBRENT:  accuracy reached
 opt :   0.0000  next Energy=     0.000000 (dE= 0.699E+01)
 bond charge predicted
       N       E                     dE             d eps       ncg     rms          rms(c)
DAV:   1    -0.699451142432E+01   -0.56389E-10    0.44381E-13   128   0.683E-12    0.653E-04
DAV:   2    -0.699451142422E+01    0.10618E-09    0.76501E-13   128   0.464E-12    0.653E-04
DAV:   3    -0.699451142423E+01   -0.90949E-11    0.14710E-12   128   0.475E-12    0.653E-04
DAV:   4    -0.699451142435E+01   -0.12960E-09    0.48187E-13   128   0.585E-12    0.653E-04
DAV:   5    -0.699451142423E+01    0.12824E-09    0.10278E-12   128   0.737E-12
  92 F= -.69945114E+01 E0= -.69945114E+01  d E =-.910632E-09
 curvature:   0.00 expect dE= 0.000E+00 dE for cont linesearch  0.000E+00
 ZBRENT:  accuracy reached
 opt :   0.0000  next Energy=     0.000000 (dE= 0.699E+01)
 bond charge predicted
       N       E                     dE             d eps       ncg     rms          rms(c)
DAV:   1    -0.699451142421E+01    0.14393E-09    0.14020E-13   128   0.641E-12    0.653E-04
DAV:   2    -0.699451142430E+01   -0.92996E-10    0.34278E-13   128   0.608E-12    0.653E-04
DAV:   3    -0.699451142428E+01    0.21600E-10    0.47799E-13   128   0.560E-12    0.653E-04
DAV:   4    -0.699451142427E+01    0.95497E-11    0.29570E-13   128   0.687E-12    0.653E-04
DAV:   5    -0.699451142421E+01    0.65938E-10   -0.17330E-13   128   0.645E-12
  93 F= -.69945114E+01 E0= -.69945114E+01  d E =-.890850E-09
 curvature:   0.00 expect dE= 0.000E+00 dE for cont linesearch  0.000E+00
 ZBRENT:  accuracy reached
 opt :   0.0000  next Energy=     0.000000 (dE= 0.699E+01)
 bond charge predicted
       N       E                     dE             d eps       ncg     rms          rms(c)
DAV:   1    -0.699451142434E+01   -0.65029E-10    0.41529E-13   128   0.637E-12    0.653E-04
DAV:   2    -0.699451142416E+01    0.17872E-09    0.50827E-13   128   0.543E-12    0.653E-04
DAV:   3    -0.699451142429E+01   -0.12597E-09    0.17891E-12   128   0.555E-12    0.653E-04
DAV:   4    -0.699451142429E+01   -0.40927E-11    0.26357E-13   128   0.529E-12    0.653E-04
DAV:   5    -0.699451142432E+01   -0.28876E-10    0.66388E-13   128   0.611E-12
  94 F= -.69945114E+01 E0= -.69945114E+01  d E =-.100204E-08
 curvature:   0.00 expect dE= 0.000E+00 dE for cont linesearch  0.000E+00
 ZBRENT:  accuracy reached
 opt :   0.0000  next Energy=     0.000000 (dE= 0.699E+01)
 bond charge predicted
       N       E                     dE             d eps       ncg     rms          rms(c)
DAV:   1    -0.699451142428E+01    0.12506E-10    0.42532E-13   128   0.499E-12    0.653E-04
DAV:   2    -0.699451142436E+01   -0.81855E-10   -0.24921E-13   128   0.537E-12    0.653E-04
DAV:   3    -0.699451142426E+01    0.95952E-10   -0.17212E-13   128   0.714E-12    0.653E-04
DAV:   4    -0.699451142429E+01   -0.31832E-10    0.49974E-13   128   0.136E-11    0.653E-04
DAV:   5    -0.699451142410E+01    0.19713E-09    0.39239E-13   128   0.729E-12
  95 F= -.69945114E+01 E0= -.69945114E+01  d E =-.781256E-09
 curvature:   0.00 expect dE= 0.000E+00 dE for cont linesearch  0.000E+00
 ZBRENT:  accuracy reached
 opt :   0.0000  next Energy=     0.000000 (dE= 0.699E+01)
 bond charge predicted
       N       E                     dE             d eps       ncg     rms          rms(c)
DAV:   1    -0.699451142436E+01   -0.60709E-10    0.49596E-13   128   0.507E-12    0.653E-04
DAV:   2    -0.699451142420E+01    0.15370E-09    0.85092E-13   128   0.406E-12    0.653E-04
DAV:   3    -0.699451142430E+01   -0.10095E-09    0.69039E-13   128   0.106E-11    0.653E-04
DAV:   4    -0.699451142431E+01   -0.31832E-11    0.61895E-13   128   0.458E-12    0.653E-04
DAV:   5    -0.699451142428E+01    0.25466E-10    0.55178E-13   128   0.428E-12
  96 F= -.69945114E+01 E0= -.69945114E+01  d E =-.964064E-09
 curvature:   0.00 expect dE= 0.000E+00 dE for cont linesearch  0.000E+00
 ZBRENT:  accuracy reached
 opt :   0.0000  next Energy=     0.000000 (dE= 0.699E+01)
 bond charge predicted
       N       E                     dE             d eps       ncg     rms          rms(c)
DAV:   1    -0.699451142425E+01    0.58890E-10    0.96156E-13   128   0.754E-12    0.653E-04
DAV:   2    -0.699451142423E+01    0.12506E-10    0.65458E-13   128   0.471E-12    0.653E-04
DAV:   3    -0.699451142439E+01   -0.15962E-09    0.13606E-12   128   0.508E-12    0.653E-04
DAV:   4    -0.699451142423E+01    0.16371E-09    0.54082E-13   128   0.643E-12    0.653E-04
DAV:   5    -0.699451142436E+01   -0.12551E-09    0.55546E-13   128   0.543E-12
  97 F= -.69945114E+01 E0= -.69945114E+01  d E =-.103955E-08
 curvature:   0.00 expect dE= 0.000E+00 dE for cont linesearch  0.000E+00
 ZBRENT:  accuracy reached
 opt :   0.0000  next Energy=     0.000000 (dE= 0.699E+01)
 bond charge predicted
       N       E                     dE             d eps       ncg     rms          rms(c)
DAV:   1    -0.699451142431E+01   -0.75488E-10    0.30712E-13   128   0.820E-12    0.653E-04
DAV:   2    -0.699451142435E+01   -0.45475E-10    0.58203E-13   128   0.724E-12    0.653E-04
DAV:   3    -0.699451142422E+01    0.13574E-09    0.27794E-13   128   0.753E-12    0.653E-04
DAV:   4    -0.699451142425E+01   -0.34106E-10    0.11987E-12   128   0.510E-12    0.653E-04
DAV:   5    -0.699451142432E+01   -0.72077E-10   -0.24345E-13   128   0.404E-12
  98 F= -.69945114E+01 E0= -.69945114E+01  d E =-.100545E-08
 curvature:   0.00 expect dE= 0.000E+00 dE for cont linesearch  0.000E+00
 ZBRENT:  accuracy reached
 opt :   0.0000  next Energy=     0.000000 (dE= 0.699E+01)
 bond charge predicted
       N       E                     dE             d eps       ncg     rms          rms(c)
DAV:   1    -0.699451142433E+01   -0.76170E-10    0.55771E-13   128   0.718E-12    0.653E-04
DAV:   2    -0.699451142432E+01    0.20464E-11    0.70000E-13   128   0.571E-12    0.653E-04
DAV:   3    -0.699451142428E+01    0.43656E-10    0.29782E-13   128   0.818E-12    0.653E-04
DAV:   4    -0.699451142427E+01    0.75033E-11    0.63838E-13   128   0.699E-12    0.653E-04
DAV:   5    -0.699451142437E+01   -0.98453E-10    0.51053E-13   128   0.111E-11
  99 F= -.69945114E+01 E0= -.69945114E+01  d E =-.105479E-08
[...]
 475 F= -.69945114E+01 E0= -.69945114E+01  d E =-.862883E-09
 curvature:   0.00 expect dE= 0.000E+00 dE for cont linesearch  0.000E+00
 ZBRENT:  accuracy reached
 opt :   0.0000  next Energy=     0.000000 (dE= 0.699E+01)
 bond charge predicted
       N       E                     dE             d eps       ncg     rms          rms(c)
DAV:   1    -0.699451142425E+01   -0.93223E-11    0.51740E-13   128   0.104E-11    0.653E-04
DAV:   2    -0.699451142425E+01    0.11369E-11   -0.19817E-13   128   0.675E-12    0.653E-04
DAV:   3    -0.699451142427E+01   -0.21146E-10   -0.31048E-13   128   0.634E-12    0.653E-04
DAV:   4    -0.699451142432E+01   -0.45247E-10    0.11154E-12   128   0.853E-12    0.653E-04
DAV:   5    -0.699451142422E+01    0.99590E-10    0.56490E-13   128   0.510E-12
 476 F= -.69945114E+01 E0= -.69945114E+01  d E =-.902901E-09
 curvature:   0.00 expect dE= 0.000E+00 dE for cont linesearch  0.000E+00
 ZBRENT:  accuracy reached
 opt :   0.0000  next Energy=     0.000000 (dE= 0.699E+01)
 bond charge predicted
       N       E                     dE             d eps       ncg     rms          rms(c)
DAV:   1    -0.699451142423E+01    0.91632E-10    0.65063E-13   128   0.654E-12    0.653E-04
DAV:   2    -0.699451142436E+01   -0.13688E-09    0.93675E-13   128   0.538E-12    0.653E-04
DAV:   3    -0.699451142436E+01    0.15916E-11    0.53589E-13   128   0.861E-12    0.653E-04
DAV:   4    -0.699451142424E+01    0.12074E-09    0.86028E-13   128   0.571E-12    0.653E-04
DAV:   5    -0.699451142427E+01   -0.24556E-10    0.36804E-13   128   0.480E-12
 477 F= -.69945114E+01 E0= -.69945114E+01  d E =-.949967E-09
 curvature:   0.00 expect dE= 0.000E+00 dE for cont linesearch  0.000E+00
 ZBRENT:  accuracy reached
 opt :   0.0000  next Energy=     0.000000 (dE= 0.699E+01)
 bond charge predicted
       N       E                     dE             d eps       ncg     rms          rms(c)
DAV:   1    -0.699451142420E+01    0.45702E-10    0.18641E-13   128   0.633E-12    0.653E-04
DAV:   2    -0.699451142434E+01   -0.14757E-09    0.72286E-13   128   0.779E-12    0.653E-04
DAV:   3    -0.699451142428E+01    0.61391E-10    0.83926E-13   128   0.734E-12    0.653E-04
DAV:   4    -0.699451142433E+01   -0.43883E-10    0.15114E-12   128   0.979E-12    0.653E-04
DAV:   5    -0.699451142429E+01    0.36607E-10    0.36832E-13   128   0.596E-12
 478 F= -.69945114E+01 E0= -.69945114E+01  d E =-.973159E-09
 curvature:   0.00 expect dE= 0.000E+00 dE for cont linesearch  0.000E+00
 ZBRENT:  accuracy reached
 opt :   0.0000  next Energy=     0.000000 (dE= 0.699E+01)
 bond charge predicted
       N       E                     dE             d eps       ncg     rms          rms(c)
DAV:   1    -0.699451142434E+01   -0.11823E-10    0.15602E-13   128   0.445E-12    0.653E-04
DAV:   2    -0.699451142429E+01    0.47521E-10    0.72380E-13   128   0.700E-12    0.653E-04
DAV:   3    -0.699451142427E+01    0.18190E-10    0.10094E-12   128   0.931E-12    0.653E-04
DAV:   4    -0.699451142427E+01    0.40927E-11   -0.67800E-13   128   0.869E-12    0.653E-04
DAV:   5    -0.699451142419E+01    0.77989E-10    0.93106E-13   128   0.586E-12
 479 F= -.69945114E+01 E0= -.69945114E+01  d E =-.873797E-09
 curvature:   0.00 expect dE= 0.000E+00 dE for cont linesearch  0.000E+00
 ZBRENT:  accuracy reached
 opt :   0.0000  next Energy=     0.000000 (dE= 0.699E+01)
 bond charge predicted
       N       E                     dE             d eps       ncg     rms          rms(c)
DAV:   1    -0.699451142430E+01   -0.27512E-10   -0.11390E-13   128   0.558E-12    0.653E-04
DAV:   2    -0.699451142419E+01    0.11028E-09   -0.15245E-13   128   0.589E-12    0.653E-04
DAV:   3    -0.699451142429E+01   -0.10914E-09   -0.21108E-13   128   0.584E-12    0.653E-04
DAV:   4    -0.699451142436E+01   -0.68894E-10   -0.67151E-13   128   0.721E-12    0.653E-04
DAV:   5    -0.699451142444E+01   -0.75033E-10    0.51008E-13   128   0.870E-12
 480 F= -.69945114E+01 E0= -.69945114E+01  d E =-.112209E-08
 curvature:   0.00 expect dE= 0.000E+00 dE for cont linesearch  0.000E+00
 ZBRENT:  accuracy reached
 opt :   0.0000  next Energy=     0.000000 (dE= 0.699E+01)
 bond charge predicted
       N       E                     dE             d eps       ncg     rms          rms(c)
DAV:   1    -0.699451142435E+01    0.13870E-10    0.75887E-13   128   0.551E-12    0.653E-04
DAV:   2    -0.699451142431E+01    0.36152E-10    0.16957E-12   128   0.640E-12    0.653E-04
DAV:   3    -0.699451142427E+01    0.40473E-10    0.89397E-13   128   0.766E-12    0.653E-04
DAV:   4    -0.699451142426E+01    0.15689E-10    0.11222E-12   128   0.109E-11    0.653E-04
DAV:   5    -0.699451142422E+01    0.34788E-10    0.27377E-13   128   0.111E-11
 481 F= -.69945114E+01 E0= -.69945114E+01  d E =-.906084E-09
 curvature:   0.00 expect dE= 0.000E+00 dE for cont linesearch  0.000E+00
 ZBRENT:  accuracy reached
 opt :   0.0000  next Energy=     0.000000 (dE= 0.699E+01)
 bond charge predicted
       N       E                     dE             d eps       ncg     rms          rms(c)
DAV:   1    -0.699451142430E+01   -0.42974E-10    0.52867E-13   128   0.770E-12    0.653E-04
DAV:   2    -0.699451142432E+01   -0.20236E-10    0.10882E-12   128   0.532E-12    0.653E-04
DAV:   3    -0.699451142423E+01    0.86857E-10    0.12657E-12   128   0.956E-12    0.653E-04
DAV:   4    -0.699451142419E+01    0.44110E-10    0.12053E-12   128   0.134E-11    0.653E-04
DAV:   5    -0.699451142427E+01   -0.80718E-10    0.93661E-13   128   0.100E-11
 482 F= -.69945114E+01 E0= -.69945114E+01  d E =-.953833E-09
 curvature:   0.00 expect dE= 0.000E+00 dE for cont linesearch  0.000E+00
 ZBRENT:  accuracy reached
 opt :   0.0000  next Energy=     0.000000 (dE= 0.699E+01)
 bond charge predicted
       N       E                     dE             d eps       ncg     rms          rms(c)
DAV:   1    -0.699451142436E+01   -0.17167E-09    0.67370E-13   128   0.104E-11    0.653E-04
DAV:   2    -0.699451142423E+01    0.13029E-09    0.10048E-12   128   0.904E-12    0.653E-04
DAV:   3    -0.699451142425E+01   -0.22055E-10    0.98237E-13   128   0.708E-12    0.653E-04
DAV:   4    -0.699451142430E+01   -0.44793E-10    0.11835E-12   128   0.553E-12    0.653E-04
DAV:   5    -0.699451142438E+01   -0.80036E-10    0.11029E-12   128   0.114E-11
 483 F= -.69945114E+01 E0= -.69945114E+01  d E =-.106138E-08
 curvature:   0.00 expect dE= 0.000E+00 dE for cont linesearch  0.000E+00
 ZBRENT:  accuracy reached
 opt :   0.0000  next Energy=     0.000000 (dE= 0.699E+01)
 bond charge predicted
       N       E                     dE             d eps       ncg     rms          rms(c)
DAV:   1    -0.699451142421E+01    0.84810E-10   -0.41987E-13   128   0.946E-12    0.653E-04
DAV:   2    -0.699451142421E+01    0.56843E-11   -0.10894E-14   128   0.103E-11    0.653E-04
DAV:   3    -0.699451142426E+01   -0.52296E-10    0.18329E-13   128   0.132E-11    0.653E-04
DAV:   4    -0.699451142430E+01   -0.43656E-10    0.15012E-13   128   0.637E-12    0.653E-04
DAV:   5    -0.699451142425E+01    0.51159E-10   -0.71783E-13   128   0.509E-12
 484 F= -.69945114E+01 E0= -.69945114E+01  d E =-.935643E-09
 curvature:   0.00 expect dE= 0.000E+00 dE for cont linesearch  0.000E+00
 ZBRENT:  accuracy reached
 opt :   0.0000  next Energy=     0.000000 (dE= 0.699E+01)
 bond charge predicted
       N       E                     dE             d eps       ncg     rms          rms(c)
DAV:   1    -0.699451142424E+01    0.61846E-10   -0.46699E-14   128   0.534E-12    0.653E-04
DAV:   2    -0.699451142430E+01   -0.63892E-10    0.44652E-14   128   0.541E-12    0.653E-04
DAV:   3    -0.699451142435E+01   -0.42974E-10   -0.48326E-13   128   0.740E-12    0.653E-04
DAV:   4    -0.699451142419E+01    0.15916E-09    0.46369E-13   128   0.744E-12    0.653E-04
DAV:   5    -0.699451142429E+01   -0.97089E-10    0.37279E-13   128   0.905E-12
 485 F= -.69945114E+01 E0= -.69945114E+01  d E =-.969749E-09
 curvature:   0.00 expect dE= 0.000E+00 dE for cont linesearch  0.000E+00
 ZBRENT:  accuracy reached
 opt :   0.0000  next Energy=     0.000000 (dE= 0.699E+01)
 bond charge predicted
       N       E                     dE             d eps       ncg     rms          rms(c)
DAV:   1    -0.699451142436E+01   -0.17189E-09    0.72130E-14   128   0.529E-12    0.653E-04
DAV:   2    -0.699451142420E+01    0.16234E-09    0.98740E-14   128   0.133E-11    0.653E-04
DAV:   3    -0.699451142430E+01   -0.10414E-09    0.11456E-13   128   0.745E-12    0.653E-04
DAV:   4    -0.699451142436E+01   -0.61391E-10    0.33397E-13   128   0.543E-12    0.653E-04
DAV:   5    -0.699451142431E+01    0.56843E-10    0.52038E-13   128   0.589E-12
 486 F= -.69945114E+01 E0= -.69945114E+01  d E =-.990894E-09
 curvature:   0.00 expect dE= 0.000E+00 dE for cont linesearch  0.000E+00
 ZBRENT:  accuracy reached
 opt :   0.0000  next Energy=     0.000000 (dE= 0.699E+01)
 bond charge predicted
       N       E                     dE             d eps       ncg     rms          rms(c)
DAV:   1    -0.699451142439E+01   -0.26603E-10    0.94851E-13   128   0.528E-12    0.653E-04
DAV:   2    -0.699451142434E+01    0.53888E-10    0.27655E-13   128   0.577E-12    0.653E-04
DAV:   3    -0.699451142425E+01    0.90040E-10    0.15248E-12   128   0.830E-12    0.653E-04
DAV:   4    -0.699451142431E+01   -0.67757E-10    0.67679E-13   128   0.113E-11    0.653E-04
DAV:   5    -0.699451142438E+01   -0.69349E-10    0.89741E-13   128   0.884E-12
 487 F= -.69945114E+01 E0= -.69945114E+01  d E =-.106752E-08
 curvature:   0.00 expect dE= 0.000E+00 dE for cont linesearch  0.000E+00
 ZBRENT:  accuracy reached
 opt :   0.0000  next Energy=     0.000000 (dE= 0.699E+01)
 bond charge predicted
       N       E                     dE             d eps       ncg     rms          rms(c)
DAV:   1    -0.699451142441E+01   -0.94815E-10    0.53919E-13   128   0.688E-12    0.653E-04
DAV:   2    -0.699451142426E+01    0.14666E-09    0.14924E-12   128   0.581E-12    0.653E-04
DAV:   3    -0.699451142431E+01   -0.43883E-10    0.76304E-13   128   0.578E-12    0.653E-04
DAV:   4    -0.699451142424E+01    0.65256E-10    0.82320E-13   128   0.712E-12    0.653E-04
DAV:   5    -0.699451142429E+01   -0.53205E-10    0.34653E-13   128   0.626E-12
 488 F= -.69945114E+01 E0= -.69945114E+01  d E =-.978162E-09
 curvature:   0.00 expect dE= 0.000E+00 dE for cont linesearch  0.000E+00
 ZBRENT:  accuracy reached
 opt :   0.0000  next Energy=     0.000000 (dE= 0.699E+01)
 bond charge predicted
       N       E                     dE             d eps       ncg     rms          rms(c)
DAV:   1    -0.699451142427E+01   -0.30013E-10    0.58054E-13   128   0.965E-12    0.653E-04
DAV:   2    -0.699451142426E+01    0.90949E-11    0.14878E-12   128   0.916E-12    0.653E-04
DAV:   3    -0.699451142429E+01   -0.27740E-10    0.60740E-13   128   0.537E-12    0.653E-04
DAV:   4    -0.699451142425E+01    0.35925E-10    0.11223E-12   128   0.567E-12    0.653E-04
DAV:   5    -0.699451142435E+01   -0.92314E-10    0.13630E-12   128   0.607E-12
 489 F= -.69945114E+01 E0= -.69945114E+01  d E =-.103000E-08
 curvature:   0.00 expect dE= 0.000E+00 dE for cont linesearch  0.000E+00
 ZBRENT:  accuracy reached
 opt :   0.0000  next Energy=     0.000000 (dE= 0.699E+01)
 bond charge predicted
       N       E                     dE             d eps       ncg     rms          rms(c)
DAV:   1    -0.699451142420E+01    0.53433E-10   -0.22961E-13   128   0.664E-12    0.653E-04
DAV:   2    -0.699451142437E+01   -0.16507E-09    0.73830E-14   128   0.102E-11    0.653E-04
DAV:   3    -0.699451142427E+01    0.98680E-10    0.47639E-13   128   0.123E-11    0.653E-04
DAV:   4    -0.699451142430E+01   -0.29786E-10    0.25775E-13   128   0.121E-11    0.653E-04
DAV:   5    -0.699451142430E+01   -0.43201E-11   -0.36467E-13   128   0.665E-12
 490 F= -.69945114E+01 E0= -.69945114E+01  d E =-.984755E-09
 curvature:   0.00 expect dE= 0.000E+00 dE for cont linesearch  0.000E+00
 ZBRENT:  accuracy reached
 opt :   0.0000  next Energy=     0.000000 (dE= 0.699E+01)
 bond charge predicted
       N       E                     dE             d eps       ncg     rms          rms(c)
DAV:   1    -0.699451142428E+01    0.15007E-10    0.10066E-12   128   0.893E-12    0.653E-04
DAV:   2    -0.699451142425E+01    0.30923E-10    0.95039E-13   128   0.892E-12    0.653E-04
DAV:   3    -0.699451142437E+01   -0.12005E-09    0.92669E-13   128   0.841E-12    0.653E-04
DAV:   4    -0.699451142435E+01    0.22737E-10    0.70496E-13   128   0.890E-12    0.653E-04
DAV:   5    -0.699451142442E+01   -0.69576E-10    0.12929E-12   128   0.105E-11
 491 F= -.69945114E+01 E0= -.69945114E+01  d E =-.110140E-08
 curvature:   0.00 expect dE= 0.000E+00 dE for cont linesearch  0.000E+00
 ZBRENT:  accuracy reached
 opt :   0.0000  next Energy=     0.000000 (dE= 0.699E+01)
 bond charge predicted
       N       E                     dE             d eps       ncg     rms          rms(c)
DAV:   1    -0.699451142420E+01    0.15166E-09    0.27860E-13   128   0.661E-12    0.653E-04
DAV:   2    -0.699451142427E+01   -0.77762E-10    0.10554E-12   128   0.694E-12    0.653E-04
DAV:   3    -0.699451142430E+01   -0.22510E-10    0.46612E-13   128   0.748E-12    0.653E-04
DAV:   4    -0.699451142426E+01    0.41155E-10    0.67654E-14   128   0.103E-11    0.653E-04
DAV:   5    -0.699451142433E+01   -0.75715E-10    0.15724E-13   128   0.541E-12
 492 F= -.69945114E+01 E0= -.69945114E+01  d E =-.101500E-08
 curvature:   0.00 expect dE= 0.000E+00 dE for cont linesearch  0.000E+00
 ZBRENT:  accuracy reached
 opt :   0.0000  next Energy=     0.000000 (dE= 0.699E+01)
 bond charge predicted
       N       E                     dE             d eps       ncg     rms          rms(c)
DAV:   1    -0.699451142429E+01   -0.31605E-10    0.12593E-12   128   0.570E-12    0.653E-04
DAV:   2    -0.699451142431E+01   -0.25921E-10    0.13508E-12   128   0.510E-12    0.653E-04
DAV:   3    -0.699451142432E+01   -0.47748E-11    0.14112E-12   128   0.913E-12    0.653E-04
DAV:   4    -0.699451142421E+01    0.11050E-09    0.13294E-12   128   0.911E-12    0.653E-04
DAV:   5    -0.699451142438E+01   -0.17621E-09    0.18476E-12   128   0.707E-12
 493 F= -.69945114E+01 E0= -.69945114E+01  d E =-.106729E-08
 curvature:   0.00 expect dE= 0.000E+00 dE for cont linesearch  0.000E+00
 ZBRENT:  accuracy reached
 opt :   0.0000  next Energy=     0.000000 (dE= 0.699E+01)
 bond charge predicted
       N       E                     dE             d eps       ncg     rms          rms(c)
DAV:   1    -0.699451142438E+01   -0.16939E-09    0.45759E-13   128   0.542E-12    0.653E-04
DAV:   2    -0.699451142435E+01    0.29559E-10   -0.11224E-13   128   0.573E-12    0.653E-04
DAV:   3    -0.699451142424E+01    0.10687E-09   -0.18836E-13   128   0.799E-12    0.653E-04
DAV:   4    -0.699451142416E+01    0.82537E-10    0.73358E-13   128   0.107E-11    0.653E-04
DAV:   5    -0.699451142427E+01   -0.11255E-09    0.37959E-13   128   0.507E-12
 494 F= -.69945114E+01 E0= -.69945114E+01  d E =-.954060E-09
 curvature:   0.00 expect dE= 0.000E+00 dE for cont linesearch  0.000E+00
 ZBRENT:  accuracy reached
 opt :   0.0000  next Energy=     0.000000 (dE= 0.699E+01)
 bond charge predicted
       N       E                     dE             d eps       ncg     rms          rms(c)
DAV:   1    -0.699451142438E+01   -0.22033E-09    0.80651E-13   128   0.525E-12    0.653E-04
DAV:   2    -0.699451142425E+01    0.12528E-09    0.10216E-12   128   0.833E-12    0.653E-04
DAV:   3    -0.699451142434E+01   -0.92314E-10    0.11219E-12   128   0.742E-12    0.653E-04
DAV:   4    -0.699451142435E+01   -0.68212E-12    0.25844E-13   128   0.614E-12    0.653E-04
DAV:   5    -0.699451142432E+01    0.26148E-10    0.84609E-13   128   0.546E-12
 495 F= -.69945114E+01 E0= -.69945114E+01  d E =-.100340E-08
 curvature:   0.00 expect dE= 0.000E+00 dE for cont linesearch  0.000E+00
 ZBRENT:  accuracy reached
 opt :   0.0000  next Energy=     0.000000 (dE= 0.699E+01)
 bond charge predicted
       N       E                     dE             d eps       ncg     rms          rms(c)
DAV:   1    -0.699451142426E+01    0.86857E-10    0.11754E-13   128   0.502E-12    0.653E-04
DAV:   2    -0.699451142432E+01   -0.59572E-10    0.55539E-13   128   0.670E-12    0.653E-04
DAV:   3    -0.699451142429E+01    0.23647E-10   -0.37328E-13   128   0.622E-12    0.653E-04
DAV:   4    -0.699451142421E+01    0.81400E-10   -0.51022E-13   128   0.821E-12    0.653E-04
DAV:   5    -0.699451142433E+01   -0.11732E-09   -0.48433E-14   128   0.128E-11
 496 F= -.69945114E+01 E0= -.69945114E+01  d E =-.101454E-08
 curvature:   0.00 expect dE= 0.000E+00 dE for cont linesearch  0.000E+00
 ZBRENT:  accuracy reached
 opt :   0.0000  next Energy=     0.000000 (dE= 0.699E+01)
 bond charge predicted
       N       E                     dE             d eps       ncg     rms          rms(c)
DAV:   1    -0.699451142426E+01   -0.44565E-10   -0.27308E-13   128   0.109E-11    0.653E-04
DAV:   2    -0.699451142441E+01   -0.15393E-09   -0.95934E-13   128   0.652E-12    0.653E-04
DAV:   3    -0.699451142430E+01    0.11391E-09   -0.10859E-12   128   0.561E-12    0.653E-04
DAV:   4    -0.699451142430E+01    0.13642E-11   -0.98036E-13   128   0.631E-12    0.653E-04
DAV:   5    -0.699451142431E+01   -0.12960E-10   -0.17680E-13   128   0.495E-12
 497 F= -.69945114E+01 E0= -.69945114E+01  d E =-.993396E-09
 curvature:   0.00 expect dE= 0.000E+00 dE for cont linesearch  0.000E+00
 ZBRENT:  accuracy reached
 opt :   0.0000  next Energy=     0.000000 (dE= 0.699E+01)
 bond charge predicted
       N       E                     dE             d eps       ncg     rms          rms(c)
DAV:   1    -0.699451142431E+01   -0.10687E-10    0.67515E-13   128   0.105E-11    0.653E-04
DAV:   2    -0.699451142434E+01   -0.30468E-10    0.54359E-13   128   0.667E-12    0.653E-04
DAV:   3    -0.699451142428E+01    0.62073E-10    0.85883E-13   128   0.685E-12    0.653E-04
DAV:   4    -0.699451142442E+01   -0.14552E-09    0.38775E-13   128   0.827E-12    0.653E-04
DAV:   5    -0.699451142429E+01    0.13142E-09    0.72862E-13   128   0.544E-12
 498 F= -.69945114E+01 E0= -.69945114E+01  d E =-.973614E-09
 curvature:   0.00 expect dE= 0.000E+00 dE for cont linesearch  0.000E+00
 ZBRENT:  accuracy reached
 opt :   0.0000  next Energy=     0.000000 (dE= 0.699E+01)
 bond charge predicted
       N       E                     dE             d eps       ncg     rms          rms(c)
DAV:   1    -0.699451142434E+01    0.80036E-10    0.44745E-13   128   0.736E-12    0.653E-04
DAV:   2    -0.699451142426E+01    0.84583E-10    0.52115E-13   128   0.751E-12    0.653E-04
DAV:   3    -0.699451142443E+01   -0.17121E-09    0.48170E-13   128   0.695E-12    0.653E-04
DAV:   4    -0.699451142433E+01    0.97771E-10    0.59876E-13   128   0.688E-12    0.653E-04
DAV:   5    -0.699451142429E+01    0.41609E-10    0.17784E-13   128   0.603E-12
 499 F= -.69945114E+01 E0= -.69945114E+01  d E =-.972250E-09
 curvature:   0.00 expect dE= 0.000E+00 dE for cont linesearch  0.000E+00
 ZBRENT:  accuracy reached
 opt :   0.0000  next Energy=     0.000000 (dE= 0.699E+01)
 bond charge predicted
       N       E                     dE             d eps       ncg     rms          rms(c)
DAV:   1    -0.699451142421E+01    0.12392E-09   -0.54894E-13   128   0.887E-12    0.653E-04
DAV:   2    -0.699451142427E+01   -0.62755E-10    0.23002E-14   128   0.125E-11    0.653E-04
DAV:   3    -0.699451142421E+01    0.59799E-10   -0.45838E-13   128   0.102E-11    0.653E-04
DAV:   4    -0.699451142432E+01   -0.11460E-09   -0.41033E-13   128   0.800E-12    0.653E-04
DAV:   5    -0.699451142422E+01    0.10255E-09   -0.96808E-13   128   0.661E-12
 500 F= -.69945114E+01 E0= -.69945114E+01  d E =-.904947E-09
 curvature:   0.00 expect dE= 0.000E+00 dE for cont linesearch  0.000E+00
 ZBRENT:  accuracy reached
 opt :   0.0000  next Energy=     0.000000 (dE= 0.699E+01)
