<?xml version="1.0" encoding="ISO-8859-1"?>
<modeling>
 <generator>
  <i name="program" type="string">vasp </i>
  <i name="version" type="string">6.3.2  </i>
  <i name="subversion" type="string">27Jun22 (build Oct 14 2022 12:38:20) complex                          parallel </i>
  <i name="platform" type="string">LinuxIFC </i>
  <i name="date" type="string">2022 11 28 </i>
  <i name="time" type="string">01:27:15 </i>
 </generator>
 <incar>
  <i type="string" name="PREC">Accurate</i>
  <i type="int" name="IALGO">    38</i>
  <i type="logical" name="ADDGRID"> T  </i>
  <i type="int" name="NELMIN">     5</i>
  <i type="int" name="IBRION">     2</i>
  <i name="EDIFF">      0.00000001</i>
  <i name="EDIFFG">     -0.00000100</i>
  <i type="int" name="NSW">   500</i>
  <i type="int" name="ISIF">     3</i>
  <i name="ENCUT">    341.00000000</i>
  <i type="logical" name="LREAL"> F  </i>
  <i type="int" name="ISMEAR">     0</i>
  <i name="SIGMA">      0.02000000</i>
  <i type="logical" name="LWAVE"> F  </i>
  <i type="logical" name="LCHARG"> F  </i>
  <i type="string" name="GGA">Ps</i>
 </incar>
 <primitive_cell>
  <structure name="primitive_cell" >
   <crystal>
    <varray name="basis" >
     <v>       0.00000000       2.80100059       2.80100059 </v>
     <v>       2.80100059       0.00000000       2.80100059 </v>
     <v>       2.80100059       2.80100059       0.00000000 </v>
    </varray>
    <i name="volume">     43.95108471 </i>
    <varray name="rec_basis" >
     <v>      -0.17850764       0.17850764       0.17850764 </v>
     <v>       0.17850764      -0.17850764       0.17850764 </v>
     <v>       0.17850764       0.17850764      -0.17850764 </v>
    </varray>
   </crystal>
   <varray name="positions" >
    <v>       0.00000000       0.00000000       0.00000000 </v>
    <v>       0.50000000       0.50000000       0.50000000 </v>
   </varray>
  </structure>
  <varray name="primitive_index" >
   <v type="int" >        1 </v>
   <v type="int" >        2 </v>
  </varray>
 </primitive_cell>
 <kpoints>
  <generation param="Gamma">
   <v type="int" name="divisions">       4        4        4 </v>
   <v name="usershift">      0.00000000       0.00000000       0.00000000 </v>
   <v name="genvec1">      0.25000000       0.00000000      -0.00000000 </v>
   <v name="genvec2">      0.00000000       0.25000000       0.00000000 </v>
   <v name="genvec3">     -0.00000000      -0.00000000       0.25000000 </v>
   <v name="shift">      0.00000000       0.00000000       0.00000000 </v>
  </generation>
  <varray name="kpointlist" >
   <v>       0.00000000       0.00000000       0.00000000 </v>
   <v>       0.25000000       0.00000000      -0.00000000 </v>
   <v>       0.50000000       0.00000000      -0.00000000 </v>
   <v>       0.25000000       0.25000000      -0.00000000 </v>
   <v>       0.50000000       0.25000000      -0.00000000 </v>
   <v>      -0.25000000       0.25000000       0.00000000 </v>
   <v>       0.50000000       0.50000000      -0.00000000 </v>
   <v>      -0.25000000       0.50000000       0.25000000 </v>
  </varray>
  <varray name="weights" >
   <v>       0.01562500 </v>
   <v>       0.12500000 </v>
   <v>       0.06250000 </v>
   <v>       0.09375000 </v>
   <v>       0.37500000 </v>
   <v>       0.18750000 </v>
   <v>       0.04687500 </v>
   <v>       0.09375000 </v>
  </varray>
 </kpoints>
 <parameters>
  <separator name="general" >
   <i type="string" name="SYSTEM">unknown system</i>
   <i type="logical" name="LCOMPAT"> F  </i>
  </separator>
  <separator name="electronic" >
   <i type="string" name="PREC">accura</i>
   <i name="ENMAX">    341.00000000</i>
   <i name="ENAUG">    368.05600000</i>
   <i name="EDIFF">      0.00000001</i>
   <i type="int" name="IALGO">    38</i>
   <i type="int" name="IWAVPR">    11</i>
   <i type="int" name="NBANDS">    16</i>
   <i type="int" name="NBANDSLOW">    -1</i>
   <i type="int" name="NBANDSHIGH">    -1</i>
   <i name="NELECT">     14.00000000</i>
   <i type="int" name="TURBO">     0</i>
   <i type="int" name="IRESTART">     0</i>
   <i type="int" name="NREBOOT">     0</i>
   <i type="int" name="NMIN">     0</i>
   <i name="EREF">      0.00000000</i>
   <separator name="electronic smearing" >
    <i type="int" name="ISMEAR">     0</i>
    <i name="SIGMA">      0.02000000</i>
    <i name="KSPACING">      0.50000000</i>
    <i type="logical" name="KGAMMA"> T  </i>
    <i type="logical" name="KBLOWUP"> T  </i>
   </separator>
   <separator name="electronic projectors" >
    <i type="logical" name="LREAL"> F  </i>
    <v name="ROPT">      0.00000000      0.00000000</v>
    <i type="int" name="LMAXPAW">  -100</i>
    <i type="int" name="LMAXMIX">     2</i>
    <i type="logical" name="NLSPLINE"> F  </i>
   </separator>
   <separator name="electronic startup" >
    <i type="int" name="ISTART">     0</i>
    <i type="int" name="ICHARG">     2</i>
    <i type="int" name="INIWAV">     1</i>
   </separator>
   <separator name="electronic spin" >
    <i type="int" name="ISPIN">     1</i>
    <i type="logical" name="LNONCOLLINEAR"> F  </i>
    <v name="MAGMOM">      1.00000000      1.00000000</v>
    <i name="NUPDOWN">     -1.00000000</i>
    <i type="logical" name="LSORBIT"> F  </i>
    <v name="SAXIS">      0.00000000      0.00000000      1.00000000</v>
    <i type="logical" name="LSPIRAL"> F  </i>
    <v name="QSPIRAL">      0.00000000      0.00000000      0.00000000</v>
    <i type="logical" name="LZEROZ"> F  </i>
   </separator>
   <separator name="electronic exchange-correlation" >
    <i type="logical" name="LASPH"> F  </i>
    <i type="logical" name="LMETAGGA"> F  </i>
   </separator>
   <separator name="electronic convergence" >
    <i type="int" name="NELM">    60</i>
    <i type="int" name="NELMDL">    -5</i>
    <i type="int" name="NELMIN">     5</i>
    <i name="ENINI">    341.00000000</i>
    <separator name="electronic convergence detail" >
     <i type="logical" name="LDIAG"> T  </i>
     <i type="logical" name="LSUBROT"> F  </i>
     <i name="WEIMIN">      0.00100000</i>
     <i name="EBREAK">      0.00000000</i>
     <i name="DEPER">      0.30000000</i>
     <i type="int" name="NRMM">     4</i>
     <i name="TIME">      0.40000000</i>
    </separator>
   </separator>
   <separator name="electronic mixer" >
    <i name="AMIX">      0.40000000</i>
    <i name="BMIX">      1.00000000</i>
    <i name="AMIN">      0.10000000</i>
    <i name="AMIX_MAG">      1.60000000</i>
    <i name="BMIX_MAG">      1.00000000</i>
    <separator name="electronic mixer details" >
     <i type="int" name="IMIX">     4</i>
     <i type="logical" name="MIXFIRST"> F  </i>
     <i type="int" name="MAXMIX">   -45</i>
     <i name="WC">    100.00000000</i>
     <i type="int" name="INIMIX">     1</i>
     <i type="int" name="MIXPRE">     1</i>
     <i type="int" name="MREMOVE">     5</i>
    </separator>
   </separator>
   <separator name="electronic dipolcorrection" >
    <i type="logical" name="LDIPOL"> F  </i>
    <i type="logical" name="LMONO"> F  </i>
    <i type="int" name="IDIPOL">     0</i>
    <i name="EPSILON">      1.00000000</i>
    <v name="DIPOL">   -100.00000000   -100.00000000   -100.00000000</v>
    <i name="EFIELD">      0.00000000</i>
   </separator>
  </separator>
  <separator name="grids" >
   <i type="int" name="NGX">    24</i>
   <i type="int" name="NGY">    24</i>
   <i type="int" name="NGZ">    24</i>
   <i type="int" name="NGXF">    48</i>
   <i type="int" name="NGYF">    48</i>
   <i type="int" name="NGZF">    48</i>
   <i type="logical" name="ADDGRID"> T  </i>
  </separator>
  <separator name="ionic" >
   <i type="int" name="NSW">   500</i>
   <i type="int" name="IBRION">     2</i>
   <i type="int" name="MDALGO">     0</i>
   <i type="int" name="ISIF">     3</i>
   <i name="PSTRESS">      0.00000000</i>
   <i name="EDIFFG">     -0.00000100</i>
   <i type="int" name="NFREE">     1</i>
   <i name="POTIM">      0.50000000</i>
   <i name="SMASS">     -3.00000000</i>
   <i name="SCALEE">      1.00000000</i>
  </separator>
  <separator name="ionic md" >
   <i name="TEBEG">      0.00010000</i>
   <i name="TEEND">      0.00010000</i>
   <i type="int" name="NBLOCK">     1</i>
   <i type="int" name="KBLOCK">   500</i>
   <i type="int" name="NPACO">   256</i>
   <i name="APACO">     10.00000000</i>
  </separator>
  <separator name="symmetry" >
   <i type="int" name="ISYM">     2</i>
   <i name="SYMPREC">      0.00001000</i>
  </separator>
  <separator name="dos" >
   <i type="int" name="LORBIT">     0</i>
   <v name="RWIGS">     -1.00000000     -1.00000000</v>
   <i type="int" name="NEDOS">   301</i>
   <i name="EMIN">     10.00000000</i>
   <i name="EMAX">    -10.00000000</i>
   <i name="EFERMI">      0.00000000</i>
  </separator>
  <separator name="writing" >
   <i type="int" name="NWRITE">     2</i>
   <i type="logical" name="LWAVE"> F  </i>
   <i type="logical" name="LDOWNSAMPLE"> F  </i>
   <i type="logical" name="LCHARG"> F  </i>
   <i type="logical" name="LPARD"> F  </i>
   <i type="logical" name="LVTOT"> F  </i>
   <i type="logical" name="LVHAR"> F  </i>
   <i type="logical" name="LELF"> F  </i>
   <i type="logical" name="LOPTICS"> F  </i>
   <v name="STM">      0.00000000      0.00000000      0.00000000      0.00000000      0.00000000      0.00000000      0.00000000</v>
  </separator>
  <separator name="performance" >
   <i type="int" name="NPAR">     8</i>
   <i type="int" name="NSIM">     4</i>
   <i type="int" name="NBLK">    -1</i>
   <i type="logical" name="LPLANE"> T  </i>
   <i type="logical" name="LSCALAPACK"> T  </i>
   <i type="logical" name="LSCAAWARE"> F  </i>
   <i type="logical" name="LSCALU"> F  </i>
   <i type="logical" name="LASYNC"> F  </i>
   <i type="logical" name="LORBITALREAL"> F  </i>
  </separator>
  <separator name="miscellaneous" >
   <i type="int" name="IDIOT">     3</i>
   <i type="int" name="PHON_NSTRUCT">    -1</i>
   <i type="logical" name="LMUSIC"> F  </i>
   <v name="POMASS">     22.99000000     35.45300000</v>
   <v name="DARWINR">      0.00000000      0.00000000</v>
   <v name="DARWINV">      1.00000000      1.00000000</v>
   <i type="logical" name="LCORR"> T  </i>
  </separator>
  <i type="logical" name="GGA_COMPAT"> T  </i>
  <i type="logical" name="LBERRY"> F  </i>
  <i type="int" name="ICORELEVEL">     0</i>
  <i type="logical" name="LDAU"> F  </i>
  <i type="int" name="I_CONSTRAINED_M">     0</i>
  <separator name="electronic exchange-correlation" >
   <i type="string" name="GGA">PS</i>
   <i type="int" name="VOSKOWN">     0</i>
   <i type="logical" name="LHFCALC"> F  </i>
   <i type="string" name="PRECFOCK"></i>
   <i type="logical" name="LSYMGRAD"> F  </i>
   <i type="logical" name="LHFONE"> F  </i>
   <i type="logical" name="LRHFCALC"> F  </i>
   <i type="logical" name="LTHOMAS"> F  </i>
   <i type="logical" name="LMODELHF"> F  </i>
   <i type="logical" name="LFOCKACE"> F  </i>
   <i name="ENCUT4O">     -1.00000000</i>
   <i type="int" name="EXXOEP">     0</i>
   <i type="int" name="FOURORBIT">     0</i>
   <i name="AEXX">      0.00000000</i>
   <i name="HFALPHA">      0.00000000</i>
   <i name="MCALPHA">      0.00000000</i>
   <i name="ALDAX">      1.00000000</i>
   <i name="AGGAX">      1.00000000</i>
   <i name="ALDAC">      1.00000000</i>
   <i name="AGGAC">      1.00000000</i>
   <i type="int" name="NKREDX">     1</i>
   <i type="int" name="NKREDY">     1</i>
   <i type="int" name="NKREDZ">     1</i>
   <i type="logical" name="SHIFTRED"> F  </i>
   <i type="logical" name="ODDONLY"> F  </i>
   <i type="logical" name="EVENONLY"> F  </i>
   <i type="int" name="LMAXFOCK">     0</i>
   <i type="int" name="NMAXFOCKAE">     0</i>
   <i type="logical" name="LFOCKAEDFT"> F  </i>
   <i name="HFSCREEN">      0.00000000</i>
   <i name="HFSCREENC">      0.00000000</i>
   <i type="int" name="NBANDSGWLOW">     0</i>
  </separator>
  <separator name="vdW DFT" >
   <i type="logical" name="LUSE_VDW"> F  </i>
   <i name="Zab_VDW">     -0.84910000</i>
   <i name="PARAM1">      0.12340000</i>
   <i name="PARAM2">      1.00000000</i>
   <i name="PARAM3">      0.00000000</i>
  </separator>
  <separator name="model GW" >
   <i type="int" name="MODEL_GW">     0</i>
   <i name="MODEL_EPS0">     13.18532541</i>
   <i name="MODEL_ALPHA">      1.00000000</i>
  </separator>
  <separator name="linear response parameters" >
   <i type="logical" name="LEPSILON"> F  </i>
   <i type="logical" name="LRPA"> F  </i>
   <i type="logical" name="LNABLA"> F  </i>
   <i type="logical" name="LVEL"> F  </i>
   <i name="CSHIFT">      0.10000000</i>
   <i name="OMEGAMAX">     -1.00000000</i>
   <i name="DEG_THRESHOLD">      0.00200000</i>
   <i name="RTIME">     -0.10000000</i>
   <i name="WPLASMAI">      0.00000000</i>
   <v name="DFIELD">      0.00000000      0.00000000      0.00000000</v>
   <v name="WPLASMA">      0.00000000      0.00000000      0.00000000      0.00000000      0.00000000      0.00000000      0.00000000      0.00000000      0.00000000</v>
  </separator>
  <separator name="orbital magnetization" >
   <i type="logical" name="NUCIND"> F  </i>
   <v name="MAGPOS">      0.00000000      0.00000000      0.00000000</v>
   <i type="logical" name="LNICSALL"> T  </i>
   <i type="logical" name="ORBITALMAG"> F  </i>
   <i type="logical" name="LMAGBLOCH"> F  </i>
   <i type="logical" name="LCHIMAG"> F  </i>
   <i type="logical" name="LGAUGE"> T  </i>
   <i type="int" name="MAGATOM">     0</i>
   <v name="MAGDIPOL">      0.00000000      0.00000000      0.00000000</v>
   <v name="AVECCONST">      0.00000000      0.00000000      0.00000000</v>
  </separator>
  <separator name="response functions" >
   <i type="logical" name="LFINITE_TEMPERATURE"> F  </i>
   <i type="logical" name="LADDER"> F  </i>
   <i type="logical" name="LRPAFORCE"> F  </i>
   <i type="logical" name="LFXC"> F  </i>
   <i type="logical" name="LHARTREE"> T  </i>
   <i type="int" name="IBSE">     0</i>
   <v type="int" name="KPOINT">    -1     0     0     0</v>
   <i type="logical" name="LTCTC"> F  </i>
   <i type="logical" name="LTCTE"> F  </i>
   <i type="logical" name="LTETE"> F  </i>
   <i type="logical" name="LTRIPLET"> F  </i>
   <i type="logical" name="LFXCEPS"> F  </i>
   <i type="logical" name="LFXHEG"> F  </i>
   <i type="int" name="NATURALO">     2</i>
   <i type="logical" name="LHOLEGF"> F  </i>
   <i type="logical" name="L2ORDER"> F  </i>
   <i type="logical" name="LDMP1"> F  </i>
   <i type="logical" name="LMP2LT"> F  </i>
   <i type="logical" name="LSMP2LT"> F  </i>
   <i type="logical" name="LGWLF"> F  </i>
   <i name="ENCUTGW">     -2.00000000</i>
   <i name="ENCUTGWSOFT">     -2.00000000</i>
   <i name="ENCUTLF">     -1.00000000</i>
   <i type="logical" name="LESF_SPLINES"> F  </i>
   <i type="int" name="LMAXMP2">    -1</i>
   <i name="SCISSOR">      0.00000000</i>
   <i type="int" name="NOMEGA">     0</i>
   <i type="int" name="NOMEGAR">     0</i>
   <i type="int" name="NBANDSGW">    -1</i>
   <i type="int" name="NBANDSO">    -1</i>
   <i type="int" name="NBANDSV">    -1</i>
   <i type="int" name="NELMGW">     1</i>
   <i type="int" name="NELMHF">     1</i>
   <i type="int" name="DIM">     3</i>
   <i type="int" name="IESPILON">     4</i>
   <i type="int" name="ANTIRES">     0</i>
   <i name="OMEGAMAX">    -30.00000000</i>
   <i name="OMEGAMIN">    -30.00000000</i>
   <i name="OMEGATL">   -200.00000000</i>
   <i type="int" name="OMEGAGRID">     0</i>
   <i name="CSHIFT">     -0.10000000</i>
   <i type="logical" name="LSELFENERGY"> F  </i>
   <i type="logical" name="LSPECTRAL"> F  </i>
   <i type="logical" name="LSPECTRALGW"> F  </i>
   <i type="logical" name="LSINGLES"> F  </i>
   <i type="logical" name="LFERMIGW"> F  </i>
   <i type="logical" name="ODDONLYGW"> F  </i>
   <i type="logical" name="EVENONLYGW"> F  </i>
   <i type="int" name="NKREDLFX">     1</i>
   <i type="int" name="NKREDLFY">     1</i>
   <i type="int" name="NKREDLFZ">     1</i>
   <i type="int" name="MAXMEM">  2800</i>
   <i type="int" name="TELESCOPE">     0</i>
   <i type="int" name="NTAUPAR">    -1</i>
   <i type="int" name="NOMEGAPAR">    -1</i>
   <i name="DAMP_NEWTON">      0.80000001</i>
   <i name="LAMBDA">      1.00000000</i>
  </separator>
  <separator name="External order field" >
   <i name="OFIELD_KAPPA">      0.00000000</i>
   <v name="OFIELD_K">      0.00000000      0.00000000      0.00000000</v>
   <i name="OFIELD_Q6_NEAR">      0.00000000</i>
   <i name="OFIELD_Q6_FAR">      0.00000000</i>
   <i name="OFIELD_A">      0.00000000</i>
  </separator>
  <separator name="optional k-points parameters" >
   <i type="int" name="KPOINTS_OPT_MODE">     1</i>
   <i type="logical" name="LKPOINTS_OPT"> F  </i>
  </separator>
 </parameters>
 <atominfo>
  <atoms>       2 </atoms>
  <types>       2 </types>
  <array name="atoms" >
   <dimension dim="1">ion</dimension>
   <field type="string">element</field>
   <field type="int">atomtype</field>
   <set>
    <rc><c>Na</c><c>   1</c></rc>
    <rc><c>Cl</c><c>   2</c></rc>
   </set>
  </array>
  <array name="atomtypes" >
   <dimension dim="1">type</dimension>
   <field type="int">atomspertype</field>
   <field type="string">element</field>
   <field>mass</field>
   <field>valence</field>
   <field type="string">pseudopotential</field>
   <set>
    <rc><c>   1</c><c>Na</c><c>     22.99000000</c><c>      7.00000000</c><c>  PAW_PBE Na_pv 19Sep2006               </c></rc>
    <rc><c>   1</c><c>Cl</c><c>     35.45300000</c><c>      7.00000000</c><c>  PAW_PBE Cl 06Sep2000                  </c></rc>
   </set>
  </array>
 </atominfo>
 <structure name="initialpos" >
  <crystal>
   <varray name="basis" >
    <v>       0.00000000       2.80100059       2.80100059 </v>
    <v>       2.80100059       0.00000000       2.80100059 </v>
    <v>       2.80100059       2.80100059       0.00000000 </v>
   </varray>
   <i name="volume">     43.95108471 </i>
   <varray name="rec_basis" >
    <v>      -0.17850764       0.17850764       0.17850764 </v>
    <v>       0.17850764      -0.17850764       0.17850764 </v>
    <v>       0.17850764       0.17850764      -0.17850764 </v>
   </varray>
  </crystal>
  <varray name="positions" >
   <v>       0.00000000       0.00000000       0.00000000 </v>
   <v>       0.50000000       0.50000000       0.50000000 </v>
  </varray>
 </structure>
 <calculation>
  <scstep>
   <time name="dav">    0.03    0.04</time>
   <time name="total">    0.04    0.05</time>
   <energy>
    <i name="alphaZ">     23.48521004 </i>
    <i name="ewald">   -714.73298991 </i>
    <i name="hartreedc">   -281.00432570 </i>
    <i name="XCdc">     45.51667119 </i>
    <i name="pawpsdc">    827.07617940 </i>
    <i name="pawaedc">   -915.19001755 </i>
    <i name="eentropy">     -0.00000000 </i>
    <i name="bandstr">    -77.96456970 </i>
    <i name="atom">   1172.88058597 </i>
    <i name="e_fr_energy">     80.06674374 </i>
    <i name="e_wo_entrp">     80.06674374 </i>
    <i name="e_0_energy">     80.06674374 </i>
   </energy>
  </scstep>
  <scstep>
   <time name="dav">    0.03    0.03</time>
   <time name="total">    0.03    0.03</time>
   <energy>
    <i name="e_fr_energy">     -2.08353452 </i>
    <i name="e_wo_entrp">     -2.08353452 </i>
    <i name="e_0_energy">     -2.08353452 </i>
   </energy>
  </scstep>
  <scstep>
   <time name="dav">    0.03    0.03</time>
   <time name="total">    0.03    0.03</time>
   <energy>
    <i name="e_fr_energy">     -7.09607679 </i>
    <i name="e_wo_entrp">     -7.09607679 </i>
    <i name="e_0_energy">     -7.09607679 </i>
   </energy>
  </scstep>
  <scstep>
   <time name="dav">    0.03    0.03</time>
   <time name="total">    0.03    0.03</time>
   <energy>
    <i name="e_fr_energy">     -7.15489608 </i>
    <i name="e_wo_entrp">     -7.15489608 </i>
    <i name="e_0_energy">     -7.15489608 </i>
   </energy>
  </scstep>
  <scstep>
   <time name="dav">    0.03    0.03</time>
   <time name="total">    0.04    0.04</time>
   <energy>
    <i name="e_fr_energy">     -7.15613070 </i>
    <i name="e_wo_entrp">     -7.15613070 </i>
    <i name="e_0_energy">     -7.15613070 </i>
   </energy>
  </scstep>
  <scstep>
   <time name="dav">    0.02    0.02</time>
   <time name="total">    0.03    0.04</time>
   <energy>
    <i name="e_fr_energy">     -7.00147645 </i>
    <i name="e_wo_entrp">     -7.00147645 </i>
    <i name="e_0_energy">     -7.00147645 </i>
   </energy>
  </scstep>
  <scstep>
   <time name="dav">    0.03    0.03</time>
   <time name="total">    0.04    0.04</time>
   <energy>
    <i name="e_fr_energy">     -6.99110728 </i>
    <i name="e_wo_entrp">     -6.99110728 </i>
    <i name="e_0_energy">     -6.99110728 </i>
   </energy>
  </scstep>
  <scstep>
   <time name="dav">    0.02    0.02</time>
   <time name="total">    0.03    0.04</time>
   <energy>
    <i name="e_fr_energy">     -6.99458147 </i>
    <i name="e_wo_entrp">     -6.99458147 </i>
    <i name="e_0_energy">     -6.99458147 </i>
   </energy>
  </scstep>
  <scstep>
   <time name="dav">    0.02    0.02</time>
   <time name="total">    0.03    0.04</time>
   <energy>
    <i name="e_fr_energy">     -6.99446983 </i>
    <i name="e_wo_entrp">     -6.99446983 </i>
    <i name="e_0_energy">     -6.99446983 </i>
   </energy>
  </scstep>
  <scstep>
   <time name="dav">    0.02    0.02</time>
   <time name="total">    0.03    0.04</time>
   <energy>
    <i name="e_fr_energy">     -6.99451642 </i>
    <i name="e_wo_entrp">     -6.99451642 </i>
    <i name="e_0_energy">     -6.99451642 </i>
   </energy>
  </scstep>
  <scstep>
   <time name="dav">    0.03    0.03</time>
   <time name="total">    0.03    0.04</time>
   <energy>
    <i name="e_fr_energy">     -6.99451128 </i>
    <i name="e_wo_entrp">     -6.99451128 </i>
    <i name="e_0_energy">     -6.99451128 </i>
   </energy>
  </scstep>
  <scstep>
   <time name="dav">    0.02    0.02</time>
   <time name="total">    0.03    0.04</time>
   <energy>
    <i name="e_fr_energy">     -6.99451111 </i>
    <i name="e_wo_entrp">     -6.99451111 </i>
    <i name="e_0_energy">     -6.99451111 </i>
   </energy>
  </scstep>
  <scstep>
   <time name="dav">    0.02    0.02</time>
   <time name="total">    0.03    0.04</time>
   <energy>
    <i name="e_fr_energy">     -6.99451147 </i>
    <i name="e_wo_entrp">     -6.99451147 </i>
    <i name="e_0_energy">     -6.99451147 </i>
   </energy>
  </scstep>
  <scstep>
   <time name="dav">    0.02    0.02</time>
   <time name="total">    0.03    0.04</time>
   <energy>
    <i name="e_fr_energy">     -6.99451142 </i>
    <i name="e_wo_entrp">     -6.99451142 </i>
    <i name="e_0_energy">     -6.99451142 </i>
   </energy>
  </scstep>
  <scstep>
   <time name="dav">    0.01    0.01</time>
   <time name="total">    0.02    0.03</time>
   <energy>
    <i name="alphaZ">     23.48521004 </i>
    <i name="ewald">   -714.73298991 </i>
    <i name="hartreedc">   -283.70544218 </i>
    <i name="XCdc">     46.01780058 </i>
    <i name="pawpsdc">    921.88353799 </i>
    <i name="pawaedc">  -1009.98991559 </i>
    <i name="eentropy">     -0.00000000 </i>
    <i name="bandstr">   -162.83329832 </i>
    <i name="atom">   1172.88058597 </i>
    <i name="e_fr_energy">     -6.99451142 </i>
    <i name="e_wo_entrp">     -6.99451142 </i>
    <i name="e_0_energy">     -6.99451142 </i>
   </energy>
  </scstep>
  <structure>
   <crystal>
    <varray name="basis" >
     <v>       0.00000000       2.80100059       2.80100059 </v>
     <v>       2.80100059       0.00000000       2.80100059 </v>
     <v>       2.80100059       2.80100059       0.00000000 </v>
    </varray>
    <i name="volume">     43.95108471 </i>
    <varray name="rec_basis" >
     <v>      -0.17850764       0.17850764       0.17850764 </v>
     <v>       0.17850764      -0.17850764       0.17850764 </v>
     <v>       0.17850764       0.17850764      -0.17850764 </v>
    </varray>
   </crystal>
   <varray name="positions" >
    <v>       0.00000000       0.00000000       0.00000000 </v>
    <v>       0.50000000       0.50000000       0.50000000 </v>
   </varray>
  </structure>
  <varray name="forces" >
   <v>      -0.00000000      -0.00000000      -0.00000000 </v>
   <v>       0.00000000       0.00000000       0.00000000 </v>
  </varray>
  <varray name="stress" >
   <v>       0.00322454       0.00000000       0.00000000 </v>
   <v>      -0.00000000       0.00322454       0.00000000 </v>
   <v>      -0.00000000       0.00000000       0.00322454 </v>
  </varray>
  <energy>
   <i name="e_fr_energy">     -6.99451142 </i>
   <i name="e_wo_entrp">     -6.99451142 </i>
   <i name="e_0_energy">     -6.99451142 </i>
  </energy>
  <time name="totalsc">    0.54    0.63</time>
 </calculation>
 <calculation>
  <scstep>
   <time name="dav">    0.02    0.02</time>
   <time name="total">    0.03    0.03</time>
   <energy>
    <i name="alphaZ">     23.48505971 </i>
    <i name="ewald">   -714.73146491 </i>
    <i name="hartreedc">   -283.70491314 </i>
    <i name="XCdc">     46.01768690 </i>
    <i name="pawpsdc">    921.87657409 </i>
    <i name="pawaedc">  -1009.98294547 </i>
    <i name="eentropy">     -0.00000000 </i>
    <i name="bandstr">   -162.83509458 </i>
    <i name="atom">   1172.88058597 </i>
    <i name="e_fr_energy">     -6.99451143 </i>
    <i name="e_wo_entrp">     -6.99451143 </i>
    <i name="e_0_energy">     -6.99451143 </i>
   </energy>
  </scstep>
  <scstep>
   <time name="dav">    0.01    0.01</time>
   <time name="total">    0.02    0.03</time>
   <energy>
    <i name="e_fr_energy">     -6.99451147 </i>
    <i name="e_wo_entrp">     -6.99451147 </i>
    <i name="e_0_energy">     -6.99451147 </i>
   </energy>
  </scstep>
  <scstep>
   <time name="dav">    0.01    0.01</time>
   <time name="total">    0.02    0.03</time>
   <energy>
    <i name="e_fr_energy">     -6.99451145 </i>
    <i name="e_wo_entrp">     -6.99451145 </i>
    <i name="e_0_energy">     -6.99451145 </i>
   </energy>
  </scstep>
  <scstep>
   <time name="dav">    0.01    0.01</time>
   <time name="total">    0.02    0.03</time>
   <energy>
    <i name="e_fr_energy">     -6.99451143 </i>
    <i name="e_wo_entrp">     -6.99451143 </i>
    <i name="e_0_energy">     -6.99451143 </i>
   </energy>
  </scstep>
  <scstep>
   <time name="dav">    0.01    0.01</time>
   <time name="total">    0.02    0.03</time>
   <energy>
    <i name="alphaZ">     23.48505971 </i>
    <i name="ewald">   -714.73146491 </i>
    <i name="hartreedc">   -283.70635047 </i>
    <i name="XCdc">     46.01778884 </i>
    <i name="pawpsdc">    921.87688138 </i>
    <i name="pawaedc">  -1009.98325346 </i>
    <i name="eentropy">     -0.00000000 </i>
    <i name="bandstr">   -162.83375848 </i>
    <i name="atom">   1172.88058597 </i>
    <i name="e_fr_energy">     -6.99451142 </i>
    <i name="e_wo_entrp">     -6.99451142 </i>
    <i name="e_0_energy">     -6.99451142 </i>
   </energy>
  </scstep>
  <structure>
   <crystal>
    <varray name="basis" >
     <v>      -0.00000000       2.80100657       2.80100657 </v>
     <v>       2.80100657       0.00000000       2.80100657 </v>
     <v>       2.80100657       2.80100657       0.00000000 </v>
    </varray>
    <i name="volume">     43.95136604 </i>
    <varray name="rec_basis" >
     <v>      -0.17850726       0.17850726       0.17850726 </v>
     <v>       0.17850726      -0.17850726       0.17850726 </v>
     <v>       0.17850726       0.17850726      -0.17850726 </v>
    </varray>
   </crystal>
   <varray name="positions" >
    <v>       0.00000000      -0.00000000      -0.00000000 </v>
    <v>       0.50000000       0.50000000       0.50000000 </v>
   </varray>
  </structure>
  <varray name="forces" >
   <v>       0.00000000       0.00000000       0.00000000 </v>
   <v>      -0.00000000      -0.00000000      -0.00000000 </v>
  </varray>
  <varray name="stress" >
   <v>      -0.00241265      -0.00000000       0.00000000 </v>
   <v>      -0.00000000      -0.00241265       0.00000000 </v>
   <v>       0.00000000       0.00000000      -0.00241265 </v>
  </varray>
  <energy>
   <i name="e_fr_energy">     -6.99451142 </i>
   <i name="e_wo_entrp">     -6.99451142 </i>
   <i name="e_0_energy">     -6.99451142 </i>
  </energy>
  <time name="totalsc">    0.18    0.21</time>
 </calculation>
 <calculation>
  <scstep>
   <time name="dav">    0.01    0.01</time>
   <time name="total">    0.02    0.02</time>
   <energy>
    <i name="alphaZ">     23.48512405 </i>
    <i name="ewald">   -714.73211759 </i>
    <i name="hartreedc">   -283.70661440 </i>
    <i name="XCdc">     46.01783800 </i>
    <i name="pawpsdc">    921.87690803 </i>
    <i name="pawaedc">  -1009.98327758 </i>
    <i name="eentropy">     -0.00000000 </i>
    <i name="bandstr">   -162.83295790 </i>
    <i name="atom">   1172.88058597 </i>
    <i name="e_fr_energy">     -6.99451143 </i>
    <i name="e_wo_entrp">     -6.99451143 </i>
    <i name="e_0_energy">     -6.99451143 </i>
   </energy>
  </scstep>
  <scstep>
   <time name="dav">    0.01    0.01</time>
   <time name="total">    0.03    0.03</time>
   <energy>
    <i name="e_fr_energy">     -6.99451140 </i>
    <i name="e_wo_entrp">     -6.99451140 </i>
    <i name="e_0_energy">     -6.99451140 </i>
   </energy>
  </scstep>
  <scstep>
   <time name="dav">    0.01    0.01</time>
   <time name="total">    0.02    0.03</time>
   <energy>
    <i name="e_fr_energy">     -6.99451141 </i>
    <i name="e_wo_entrp">     -6.99451141 </i>
    <i name="e_0_energy">     -6.99451141 </i>
   </energy>
  </scstep>
  <scstep>
   <time name="dav">    0.01    0.01</time>
   <time name="total">    0.02    0.03</time>
   <energy>
    <i name="e_fr_energy">     -6.99451142 </i>
    <i name="e_wo_entrp">     -6.99451142 </i>
    <i name="e_0_energy">     -6.99451142 </i>
   </energy>
  </scstep>
  <scstep>
   <time name="dav">    0.01    0.01</time>
   <time name="total">    0.03    0.03</time>
   <energy>
    <i name="alphaZ">     23.48512405 </i>
    <i name="ewald">   -714.73211759 </i>
    <i name="hartreedc">   -283.70600082 </i>
    <i name="XCdc">     46.01779480 </i>
    <i name="pawpsdc">    921.87725797 </i>
    <i name="pawaedc">  -1009.98362403 </i>
    <i name="eentropy">     -0.00000000 </i>
    <i name="bandstr">   -162.83353177 </i>
    <i name="atom">   1172.88058597 </i>
    <i name="e_fr_energy">     -6.99451142 </i>
    <i name="e_wo_entrp">     -6.99451142 </i>
    <i name="e_0_energy">     -6.99451142 </i>
   </energy>
  </scstep>
  <structure>
   <crystal>
    <varray name="basis" >
     <v>      -0.00000000       2.80100401       2.80100401 </v>
     <v>       2.80100401       0.00000000       2.80100401 </v>
     <v>       2.80100401       2.80100401       0.00000000 </v>
    </varray>
    <i name="volume">     43.95124564 </i>
    <varray name="rec_basis" >
     <v>      -0.17850742       0.17850742       0.17850742 </v>
     <v>       0.17850742      -0.17850742       0.17850742 </v>
     <v>       0.17850742       0.17850742      -0.17850742 </v>
    </varray>
   </crystal>
   <varray name="positions" >
    <v>       0.00000000      -0.00000000      -0.00000000 </v>
    <v>       0.50000000       0.50000000       0.50000000 </v>
   </varray>
  </structure>
  <varray name="forces" >
   <v>      -0.00000000      -0.00000000       0.00000000 </v>
   <v>       0.00000000       0.00000000      -0.00000000 </v>
  </varray>
  <varray name="stress" >
   <v>      -0.00103042       0.00000000      -0.00000000 </v>
   <v>       0.00000000      -0.00103042      -0.00000000 </v>
   <v>      -0.00000000       0.00000000      -0.00103042 </v>
  </varray>
  <energy>
   <i name="e_fr_energy">     -6.99451142 </i>
   <i name="e_wo_entrp">     -6.99451142 </i>
   <i name="e_0_energy">     -6.99451142 </i>
  </energy>
  <time name="totalsc">    0.19    0.21</time>
 </calculation>
 <calculation>
  <scstep>
   <time name="dav">    0.02    0.02</time>
   <time name="total">    0.03    0.03</time>
   <energy>
    <i name="alphaZ">     23.48514488 </i>
    <i name="ewald">   -714.73232884 </i>
    <i name="hartreedc">   -283.70608334 </i>
    <i name="XCdc">     46.01781050 </i>
    <i name="pawpsdc">    921.87724216 </i>
    <i name="pawaedc">  -1009.98361012 </i>
    <i name="eentropy">     -0.00000000 </i>
    <i name="bandstr">   -162.83327262 </i>
    <i name="atom">   1172.88058597 </i>
    <i name="e_fr_energy">     -6.99451142 </i>
    <i name="e_wo_entrp">     -6.99451142 </i>
    <i name="e_0_energy">     -6.99451142 </i>
   </energy>
  </scstep>
  <scstep>
   <time name="dav">    0.02    0.02</time>
   <time name="total">    0.03    0.03</time>
   <energy>
    <i name="e_fr_energy">     -6.99451142 </i>
    <i name="e_wo_entrp">     -6.99451142 </i>
    <i name="e_0_energy">     -6.99451142 </i>
   </energy>
  </scstep>
  <scstep>
   <time name="dav">    0.02    0.02</time>
   <time name="total">    0.03    0.03</time>
   <energy>
    <i name="e_fr_energy">     -6.99451142 </i>
    <i name="e_wo_entrp">     -6.99451142 </i>
    <i name="e_0_energy">     -6.99451142 </i>
   </energy>
  </scstep>
  <scstep>
   <time name="dav">    0.01    0.01</time>
   <time name="total">    0.02    0.03</time>
   <energy>
    <i name="e_fr_energy">     -6.99451142 </i>
    <i name="e_wo_entrp">     -6.99451142 </i>
    <i name="e_0_energy">     -6.99451142 </i>
   </energy>
  </scstep>
  <scstep>
   <time name="dav">    0.01    0.01</time>
   <time name="total">    0.02    0.02</time>
   <energy>
    <i name="alphaZ">     23.48514488 </i>
    <i name="ewald">   -714.73232884 </i>
    <i name="hartreedc">   -283.70588115 </i>
    <i name="XCdc">     46.01779621 </i>
    <i name="pawpsdc">    921.87735471 </i>
    <i name="pawaedc">  -1009.98372455 </i>
    <i name="eentropy">     -0.00000000 </i>
    <i name="bandstr">   -162.83345865 </i>
    <i name="atom">   1172.88058597 </i>
    <i name="e_fr_energy">     -6.99451142 </i>
    <i name="e_wo_entrp">     -6.99451142 </i>
    <i name="e_0_energy">     -6.99451142 </i>
   </energy>
  </scstep>
  <structure>
   <crystal>
    <varray name="basis" >
     <v>      -0.00000000       2.80100318       2.80100318 </v>
     <v>       2.80100318       0.00000000       2.80100318 </v>
     <v>       2.80100318       2.80100318       0.00000000 </v>
    </varray>
    <i name="volume">     43.95120667 </i>
    <varray name="rec_basis" >
     <v>      -0.17850747       0.17850747       0.17850747 </v>
     <v>       0.17850747      -0.17850747       0.17850747 </v>
     <v>       0.17850747       0.17850747      -0.17850747 </v>
    </varray>
   </crystal>
   <varray name="positions" >
    <v>       0.00000000      -0.00000000      -0.00000000 </v>
    <v>       0.50000000       0.50000000       0.50000000 </v>
   </varray>
  </structure>
  <varray name="forces" >
   <v>       0.00000000      -0.00000000      -0.00000000 </v>
   <v>      -0.00000000       0.00000000       0.00000000 </v>
  </varray>
  <varray name="stress" >
   <v>      -0.00104408       0.00000000      -0.00000000 </v>
   <v>      -0.00000000      -0.00104408       0.00000000 </v>
   <v>       0.00000000       0.00000000      -0.00104408 </v>
  </varray>
  <energy>
   <i name="e_fr_energy">     -6.99451142 </i>
   <i name="e_wo_entrp">     -6.99451142 </i>
   <i name="e_0_energy">     -6.99451142 </i>
  </energy>
  <time name="totalsc">    0.19    0.21</time>
 </calculation>
 <calculation>
  <scstep>
   <time name="dav">    0.01    0.01</time>
   <time name="total">    0.02    0.02</time>
   <energy>
    <i name="alphaZ">     23.48517746 </i>
    <i name="ewald">   -714.73265937 </i>
    <i name="hartreedc">   -283.70601202 </i>
    <i name="XCdc">     46.01782090 </i>
    <i name="pawpsdc">    921.87735059 </i>
    <i name="pawaedc">  -1009.98372102 </i>
    <i name="eentropy">     -0.00000000 </i>
    <i name="bandstr">   -162.83305392 </i>
    <i name="atom">   1172.88058597 </i>
    <i name="e_fr_energy">     -6.99451142 </i>
    <i name="e_wo_entrp">     -6.99451142 </i>
    <i name="e_0_energy">     -6.99451142 </i>
   </energy>
  </scstep>
  <scstep>
   <time name="dav">    0.01    0.01</time>
   <time name="total">    0.02    0.03</time>
   <energy>
    <i name="e_fr_energy">     -6.99451141 </i>
    <i name="e_wo_entrp">     -6.99451141 </i>
    <i name="e_0_energy">     -6.99451141 </i>
   </energy>
  </scstep>
  <scstep>
   <time name="dav">    0.01    0.01</time>
   <time name="total">    0.02    0.03</time>
   <energy>
    <i name="e_fr_energy">     -6.99451142 </i>
    <i name="e_wo_entrp">     -6.99451142 </i>
    <i name="e_0_energy">     -6.99451142 </i>
   </energy>
  </scstep>
  <scstep>
   <time name="dav">    0.01    0.01</time>
   <time name="total">    0.02    0.03</time>
   <energy>
    <i name="e_fr_energy">     -6.99451142 </i>
    <i name="e_wo_entrp">     -6.99451142 </i>
    <i name="e_0_energy">     -6.99451142 </i>
   </energy>
  </scstep>
  <scstep>
   <time name="dav">    0.01    0.01</time>
   <time name="total">    0.02    0.02</time>
   <energy>
    <i name="alphaZ">     23.48517746 </i>
    <i name="ewald">   -714.73265937 </i>
    <i name="hartreedc">   -283.70569790 </i>
    <i name="XCdc">     46.01779870 </i>
    <i name="pawpsdc">    921.87754587 </i>
    <i name="pawaedc">  -1009.98391697 </i>
    <i name="eentropy">     -0.00000000 </i>
    <i name="bandstr">   -162.83334517 </i>
    <i name="atom">   1172.88058597 </i>
    <i name="e_fr_energy">     -6.99451142 </i>
    <i name="e_wo_entrp">     -6.99451142 </i>
    <i name="e_0_energy">     -6.99451142 </i>
   </energy>
  </scstep>
  <structure>
   <crystal>
    <varray name="basis" >
     <v>      -0.00000000       2.80100189       2.80100189 </v>
     <v>       2.80100189       0.00000000       2.80100189 </v>
     <v>       2.80100189       2.80100189       0.00000000 </v>
    </varray>
    <i name="volume">     43.95114569 </i>
    <varray name="rec_basis" >
     <v>      -0.17850756       0.17850756       0.17850756 </v>
     <v>       0.17850756      -0.17850756       0.17850756 </v>
     <v>       0.17850756       0.17850756      -0.17850756 </v>
    </varray>
   </crystal>
   <varray name="positions" >
    <v>       0.00000000      -0.00000000      -0.00000000 </v>
    <v>       0.50000000       0.50000000       0.50000000 </v>
   </varray>
  </structure>
  <varray name="forces" >
   <v>       0.00000000       0.00000000       0.00000000 </v>
   <v>      -0.00000000      -0.00000000      -0.00000000 </v>
  </varray>
  <varray name="stress" >
   <v>      -0.00062297       0.00000000       0.00000000 </v>
   <v>       0.00000000      -0.00062297       0.00000000 </v>
   <v>      -0.00000000       0.00000000      -0.00062297 </v>
  </varray>
  <energy>
   <i name="e_fr_energy">     -6.99451142 </i>
   <i name="e_wo_entrp">     -6.99451142 </i>
   <i name="e_0_energy">     -6.99451142 </i>
  </energy>
  <time name="totalsc">    0.18    0.20</time>
 </calculation>
 <calculation>
  <scstep>
   <time name="dav">    0.01    0.01</time>
   <time name="total">    0.02    0.02</time>
   <energy>
    <i name="alphaZ">     23.48519375 </i>
    <i name="ewald">   -714.73282464 </i>
    <i name="hartreedc">   -283.70576283 </i>
    <i name="XCdc">     46.01781101 </i>
    <i name="pawpsdc">    921.87753803 </i>
    <i name="pawaedc">  -1009.98391009 </i>
    <i name="eentropy">     -0.00000000 </i>
    <i name="bandstr">   -162.83314261 </i>
    <i name="atom">   1172.88058597 </i>
    <i name="e_fr_energy">     -6.99451142 </i>
    <i name="e_wo_entrp">     -6.99451142 </i>
    <i name="e_0_energy">     -6.99451142 </i>
   </energy>
  </scstep>
  <scstep>
   <time name="dav">    0.01    0.01</time>
   <time name="total">    0.02    0.03</time>
   <energy>
    <i name="e_fr_energy">     -6.99451142 </i>
    <i name="e_wo_entrp">     -6.99451142 </i>
    <i name="e_0_energy">     -6.99451142 </i>
   </energy>
  </scstep>
  <scstep>
   <time name="dav">    0.01    0.01</time>
   <time name="total">    0.02    0.03</time>
   <energy>
    <i name="e_fr_energy">     -6.99451142 </i>
    <i name="e_wo_entrp">     -6.99451142 </i>
    <i name="e_0_energy">     -6.99451142 </i>
   </energy>
  </scstep>
  <scstep>
   <time name="dav">    0.01    0.01</time>
   <time name="total">    0.02    0.03</time>
   <energy>
    <i name="e_fr_energy">     -6.99451142 </i>
    <i name="e_wo_entrp">     -6.99451142 </i>
    <i name="e_0_energy">     -6.99451142 </i>
   </energy>
  </scstep>
  <scstep>
   <time name="dav">    0.01    0.01</time>
   <time name="total">    0.02    0.02</time>
   <energy>
    <i name="alphaZ">     23.48519375 </i>
    <i name="ewald">   -714.73282464 </i>
    <i name="hartreedc">   -283.70560510 </i>
    <i name="XCdc">     46.01779986 </i>
    <i name="pawpsdc">    921.87763131 </i>
    <i name="pawaedc">  -1009.98400437 </i>
    <i name="eentropy">     -0.00000000 </i>
    <i name="bandstr">   -162.83328821 </i>
    <i name="atom">   1172.88058597 </i>
    <i name="e_fr_energy">     -6.99451142 </i>
    <i name="e_wo_entrp">     -6.99451142 </i>
    <i name="e_0_energy">     -6.99451142 </i>
   </energy>
  </scstep>
  <structure>
   <crystal>
    <varray name="basis" >
     <v>      -0.00000000       2.80100124       2.80100124 </v>
     <v>       2.80100124       0.00000000       2.80100124 </v>
     <v>       2.80100124       2.80100124       0.00000000 </v>
    </varray>
    <i name="volume">     43.95111520 </i>
    <varray name="rec_basis" >
     <v>      -0.17850760       0.17850760       0.17850760 </v>
     <v>       0.17850760      -0.17850760       0.17850760 </v>
     <v>       0.17850760       0.17850760      -0.17850760 </v>
    </varray>
   </crystal>
   <varray name="positions" >
    <v>       0.00000000      -0.00000000      -0.00000000 </v>
    <v>       0.50000000       0.50000000       0.50000000 </v>
   </varray>
  </structure>
  <varray name="forces" >
   <v>       0.00000000       0.00000000       0.00000000 </v>
   <v>      -0.00000000      -0.00000000      -0.00000000 </v>
  </varray>
  <varray name="stress" >
   <v>      -0.00053772       0.00000000      -0.00000000 </v>
   <v>      -0.00000000      -0.00053772      -0.00000000 </v>
   <v>       0.00000000       0.00000000      -0.00053772 </v>
  </varray>
  <energy>
   <i name="e_fr_energy">     -6.99451142 </i>
   <i name="e_wo_entrp">     -6.99451142 </i>
   <i name="e_0_energy">     -6.99451142 </i>
  </energy>
  <time name="totalsc">    0.17    0.20</time>
 </calculation>
 <calculation>
  <scstep>
   <time name="dav">    0.01    0.01</time>
   <time name="total">    0.02    0.02</time>
   <energy>
    <i name="alphaZ">     23.48520190 </i>
    <i name="ewald">   -714.73290728 </i>
    <i name="hartreedc">   -283.70563760 </i>
    <i name="XCdc">     46.01780602 </i>
    <i name="pawpsdc">    921.87762776 </i>
    <i name="pawaedc">  -1009.98400128 </i>
    <i name="eentropy">     -0.00000000 </i>
    <i name="bandstr">   -162.83318690 </i>
    <i name="atom">   1172.88058597 </i>
    <i name="e_fr_energy">     -6.99451142 </i>
    <i name="e_wo_entrp">     -6.99451142 </i>
    <i name="e_0_energy">     -6.99451142 </i>
   </energy>
  </scstep>
  <scstep>
   <time name="dav">    0.01    0.01</time>
   <time name="total">    0.02    0.03</time>
   <energy>
    <i name="e_fr_energy">     -6.99451142 </i>
    <i name="e_wo_entrp">     -6.99451142 </i>
    <i name="e_0_energy">     -6.99451142 </i>
   </energy>
  </scstep>
  <scstep>
   <time name="dav">    0.01    0.01</time>
   <time name="total">    0.02    0.03</time>
   <energy>
    <i name="e_fr_energy">     -6.99451142 </i>
    <i name="e_wo_entrp">     -6.99451142 </i>
    <i name="e_0_energy">     -6.99451142 </i>
   </energy>
  </scstep>
  <scstep>
   <time name="dav">    0.01    0.01</time>
   <time name="total">    0.02    0.03</time>
   <energy>
    <i name="e_fr_energy">     -6.99451142 </i>
    <i name="e_wo_entrp">     -6.99451142 </i>
    <i name="e_0_energy">     -6.99451142 </i>
   </energy>
  </scstep>
  <scstep>
   <time name="dav">    0.01    0.01</time>
   <time name="total">    0.02    0.02</time>
   <energy>
    <i name="alphaZ">     23.48520190 </i>
    <i name="ewald">   -714.73290728 </i>
    <i name="hartreedc">   -283.70555872 </i>
    <i name="XCdc">     46.01780045 </i>
    <i name="pawpsdc">    921.87767424 </i>
    <i name="pawaedc">  -1009.98404827 </i>
    <i name="eentropy">     -0.00000000 </i>
    <i name="bandstr">   -162.83325971 </i>
    <i name="atom">   1172.88058597 </i>
    <i name="e_fr_energy">     -6.99451142 </i>
    <i name="e_wo_entrp">     -6.99451142 </i>
    <i name="e_0_energy">     -6.99451142 </i>
   </energy>
  </scstep>
  <structure>
   <crystal>
    <varray name="basis" >
     <v>      -0.00000000       2.80100092       2.80100092 </v>
     <v>       2.80100092       0.00000000       2.80100092 </v>
     <v>       2.80100092       2.80100092       0.00000000 </v>
    </varray>
    <i name="volume">     43.95109996 </i>
    <varray name="rec_basis" >
     <v>      -0.17850762       0.17850762       0.17850762 </v>
     <v>       0.17850762      -0.17850762       0.17850762 </v>
     <v>       0.17850762       0.17850762      -0.17850762 </v>
    </varray>
   </crystal>
   <varray name="positions" >
    <v>       0.00000000      -0.00000000      -0.00000000 </v>
    <v>       0.50000000       0.50000000       0.50000000 </v>
   </varray>
  </structure>
  <varray name="forces" >
   <v>       0.00000000       0.00000000       0.00000000 </v>
   <v>      -0.00000000      -0.00000000      -0.00000000 </v>
  </varray>
  <varray name="stress" >
   <v>      -0.00049816       0.00000000      -0.00000000 </v>
   <v>       0.00000000      -0.00049816       0.00000000 </v>
   <v>       0.00000000       0.00000000      -0.00049816 </v>
  </varray>
  <energy>
   <i name="e_fr_energy">     -6.99451142 </i>
   <i name="e_wo_entrp">     -6.99451142 </i>
   <i name="e_0_energy">     -6.99451142 </i>
  </energy>
  <time name="totalsc">    0.18    0.20</time>
 </calculation>
 <calculation>
  <scstep>
   <time name="dav">    0.01    0.01</time>
   <time name="total">    0.02    0.02</time>
   <energy>
    <i name="alphaZ">     23.48520597 </i>
    <i name="ewald">   -714.73294859 </i>
    <i name="hartreedc">   -283.70557498 </i>
    <i name="XCdc">     46.01780353 </i>
    <i name="pawpsdc">    921.87767250 </i>
    <i name="pawaedc">  -1009.98404677 </i>
    <i name="eentropy">     -0.00000000 </i>
    <i name="bandstr">   -162.83320905 </i>
    <i name="atom">   1172.88058597 </i>
    <i name="e_fr_energy">     -6.99451142 </i>
    <i name="e_wo_entrp">     -6.99451142 </i>
    <i name="e_0_energy">     -6.99451142 </i>
   </energy>
  </scstep>
  <scstep>
   <time name="dav">    0.01    0.01</time>
   <time name="total">    0.02    0.03</time>
   <energy>
    <i name="e_fr_energy">     -6.99451142 </i>
    <i name="e_wo_entrp">     -6.99451142 </i>
    <i name="e_0_energy">     -6.99451142 </i>
   </energy>
  </scstep>
  <scstep>
   <time name="dav">    0.01    0.01</time>
   <time name="total">    0.02    0.03</time>
   <energy>
    <i name="e_fr_energy">     -6.99451142 </i>
    <i name="e_wo_entrp">     -6.99451142 </i>
    <i name="e_0_energy">     -6.99451142 </i>
   </energy>
  </scstep>
  <scstep>
   <time name="dav">    0.01    0.01</time>
   <time name="total">    0.02    0.03</time>
   <energy>
    <i name="e_fr_energy">     -6.99451142 </i>
    <i name="e_wo_entrp">     -6.99451142 </i>
    <i name="e_0_energy">     -6.99451142 </i>
   </energy>
  </scstep>
  <scstep>
   <time name="dav">    0.01    0.01</time>
   <time name="total">    0.02    0.02</time>
   <energy>
    <i name="alphaZ">     23.48520597 </i>
    <i name="ewald">   -714.73294859 </i>
    <i name="hartreedc">   -283.70553553 </i>
    <i name="XCdc">     46.01780074 </i>
    <i name="pawpsdc">    921.87769572 </i>
    <i name="pawaedc">  -1009.98407025 </i>
    <i name="eentropy">     -0.00000000 </i>
    <i name="bandstr">   -162.83324545 </i>
    <i name="atom">   1172.88058597 </i>
    <i name="e_fr_energy">     -6.99451142 </i>
    <i name="e_wo_entrp">     -6.99451142 </i>
    <i name="e_0_energy">     -6.99451142 </i>
   </energy>
  </scstep>
  <structure>
   <crystal>
    <varray name="basis" >
     <v>      -0.00000000       2.80100075       2.80100075 </v>
     <v>       2.80100075       0.00000000       2.80100075 </v>
     <v>       2.80100075       2.80100075       0.00000000 </v>
    </varray>
    <i name="volume">     43.95109233 </i>
    <varray name="rec_basis" >
     <v>      -0.17850763       0.17850763       0.17850763 </v>
     <v>       0.17850763      -0.17850763       0.17850763 </v>
     <v>       0.17850763       0.17850763      -0.17850763 </v>
    </varray>
   </crystal>
   <varray name="positions" >
    <v>       0.00000000      -0.00000000      -0.00000000 </v>
    <v>       0.50000000       0.50000000       0.50000000 </v>
   </varray>
  </structure>
  <varray name="forces" >
   <v>       0.00000000      -0.00000000      -0.00000000 </v>
   <v>      -0.00000000       0.00000000       0.00000000 </v>
  </varray>
  <varray name="stress" >
   <v>      -0.00047836       0.00000000      -0.00000000 </v>
   <v>       0.00000000      -0.00047836       0.00000000 </v>
   <v>      -0.00000000       0.00000000      -0.00047836 </v>
  </varray>
  <energy>
   <i name="e_fr_energy">     -6.99451142 </i>
   <i name="e_wo_entrp">     -6.99451142 </i>
   <i name="e_0_energy">     -6.99451142 </i>
  </energy>
  <time name="totalsc">    0.17    0.20</time>
 </calculation>
 <calculation>
  <scstep>
   <time name="dav">    0.01    0.01</time>
   <time name="total">    0.02    0.02</time>
   <energy>
    <i name="alphaZ">     23.48520800 </i>
    <i name="ewald">   -714.73296925 </i>
    <i name="hartreedc">   -283.70554366 </i>
    <i name="XCdc">     46.01780228 </i>
    <i name="pawpsdc">    921.87769486 </i>
    <i name="pawaedc">  -1009.98406950 </i>
    <i name="eentropy">     -0.00000000 </i>
    <i name="bandstr">   -162.83322012 </i>
    <i name="atom">   1172.88058597 </i>
    <i name="e_fr_energy">     -6.99451142 </i>
    <i name="e_wo_entrp">     -6.99451142 </i>
    <i name="e_0_energy">     -6.99451142 </i>
   </energy>
  </scstep>
  <scstep>
   <time name="dav">    0.01    0.01</time>
   <time name="total">    0.02    0.03</time>
   <energy>
    <i name="e_fr_energy">     -6.99451142 </i>
    <i name="e_wo_entrp">     -6.99451142 </i>
    <i name="e_0_energy">     -6.99451142 </i>
   </energy>
  </scstep>
  <scstep>
   <time name="dav">    0.01    0.01</time>
   <time name="total">    0.02    0.03</time>
   <energy>
    <i name="e_fr_energy">     -6.99451142 </i>
    <i name="e_wo_entrp">     -6.99451142 </i>
    <i name="e_0_energy">     -6.99451142 </i>
   </energy>
  </scstep>
  <scstep>
   <time name="dav">    0.01    0.01</time>
   <time name="total">    0.02    0.03</time>
   <energy>
    <i name="e_fr_energy">     -6.99451142 </i>
    <i name="e_wo_entrp">     -6.99451142 </i>
    <i name="e_0_energy">     -6.99451142 </i>
   </energy>
  </scstep>
  <scstep>
   <time name="dav">    0.01    0.01</time>
   <time name="total">    0.02    0.02</time>
   <energy>
    <i name="alphaZ">     23.48520800 </i>
    <i name="ewald">   -714.73296925 </i>
    <i name="hartreedc">   -283.70552394 </i>
    <i name="XCdc">     46.01780089 </i>
    <i name="pawpsdc">    921.87770647 </i>
    <i name="pawaedc">  -1009.98408124 </i>
    <i name="eentropy">     -0.00000000 </i>
    <i name="bandstr">   -162.83323832 </i>
    <i name="atom">   1172.88058597 </i>
    <i name="e_fr_energy">     -6.99451142 </i>
    <i name="e_wo_entrp">     -6.99451142 </i>
    <i name="e_0_energy">     -6.99451142 </i>
   </energy>
  </scstep>
  <structure>
   <crystal>
    <varray name="basis" >
     <v>      -0.00000000       2.80100067       2.80100067 </v>
     <v>       2.80100067       0.00000000       2.80100067 </v>
     <v>       2.80100067       2.80100067       0.00000000 </v>
    </varray>
    <i name="volume">     43.95108852 </i>
    <varray name="rec_basis" >
     <v>      -0.17850763       0.17850763       0.17850763 </v>
     <v>       0.17850763      -0.17850763       0.17850763 </v>
     <v>       0.17850763       0.17850763      -0.17850763 </v>
    </varray>
   </crystal>
   <varray name="positions" >
    <v>       0.00000000      -0.00000000      -0.00000000 </v>
    <v>       0.50000000       0.50000000       0.50000000 </v>
   </varray>
  </structure>
  <varray name="forces" >
   <v>       0.00000000       0.00000000       0.00000000 </v>
   <v>      -0.00000000      -0.00000000      -0.00000000 </v>
  </varray>
  <varray name="stress" >
   <v>      -0.00046853       0.00000000      -0.00000000 </v>
   <v>       0.00000000      -0.00046853       0.00000000 </v>
   <v>      -0.00000000       0.00000000      -0.00046853 </v>
  </varray>
  <energy>
   <i name="e_fr_energy">     -6.99451142 </i>
   <i name="e_wo_entrp">     -6.99451142 </i>
   <i name="e_0_energy">     -6.99451142 </i>
  </energy>
  <time name="totalsc">    0.18    0.20</time>
 </calculation>
 <calculation>
  <scstep>
   <time name="dav">    0.01    0.01</time>
   <time name="total">    0.02    0.02</time>
   <energy>
    <i name="alphaZ">     23.48520902 </i>
    <i name="ewald">   -714.73297958 </i>
    <i name="hartreedc">   -283.70552800 </i>
    <i name="XCdc">     46.01780165 </i>
    <i name="pawpsdc">    921.87770604 </i>
    <i name="pawaedc">  -1009.98408087 </i>
    <i name="eentropy">     -0.00000000 </i>
    <i name="bandstr">   -162.83322566 </i>
    <i name="atom">   1172.88058597 </i>
    <i name="e_fr_energy">     -6.99451142 </i>
    <i name="e_wo_entrp">     -6.99451142 </i>
    <i name="e_0_energy">     -6.99451142 </i>
   </energy>
  </scstep>
  <scstep>
   <time name="dav">    0.01    0.01</time>
   <time name="total">    0.03    0.03</time>
   <energy>
    <i name="e_fr_energy">     -6.99451142 </i>
    <i name="e_wo_entrp">     -6.99451142 </i>
    <i name="e_0_energy">     -6.99451142 </i>
   </energy>
  </scstep>
  <scstep>
   <time name="dav">    0.01    0.01</time>
   <time name="total">    0.02    0.03</time>
   <energy>
    <i name="e_fr_energy">     -6.99451142 </i>
    <i name="e_wo_entrp">     -6.99451142 </i>
    <i name="e_0_energy">     -6.99451142 </i>
   </energy>
  </scstep>
  <scstep>
   <time name="dav">    0.01    0.01</time>
   <time name="total">    0.02    0.03</time>
   <energy>
    <i name="e_fr_energy">     -6.99451142 </i>
    <i name="e_wo_entrp">     -6.99451142 </i>
    <i name="e_0_energy">     -6.99451142 </i>
   </energy>
  </scstep>
  <scstep>
   <time name="dav">    0.01    0.01</time>
   <time name="total">    0.02    0.03</time>
   <energy>
    <i name="alphaZ">     23.48520902 </i>
    <i name="ewald">   -714.73297958 </i>
    <i name="hartreedc">   -283.70551814 </i>
    <i name="XCdc">     46.01780096 </i>
    <i name="pawpsdc">    921.87771184 </i>
    <i name="pawaedc">  -1009.98408674 </i>
    <i name="eentropy">     -0.00000000 </i>
    <i name="bandstr">   -162.83323476 </i>
    <i name="atom">   1172.88058597 </i>
    <i name="e_fr_energy">     -6.99451142 </i>
    <i name="e_wo_entrp">     -6.99451142 </i>
    <i name="e_0_energy">     -6.99451142 </i>
   </energy>
  </scstep>
  <structure>
   <crystal>
    <varray name="basis" >
     <v>      -0.00000000       2.80100063       2.80100063 </v>
     <v>       2.80100063       0.00000000       2.80100063 </v>
     <v>       2.80100063       2.80100063       0.00000000 </v>
    </varray>
    <i name="volume">     43.95108662 </i>
    <varray name="rec_basis" >
     <v>      -0.17850764       0.17850764       0.17850764 </v>
     <v>       0.17850764      -0.17850764       0.17850764 </v>
     <v>       0.17850764       0.17850764      -0.17850764 </v>
    </varray>
   </crystal>
   <varray name="positions" >
    <v>       0.00000000      -0.00000000      -0.00000000 </v>
    <v>       0.50000000       0.50000000       0.50000000 </v>
   </varray>
  </structure>
  <varray name="forces" >
   <v>      -0.00000000      -0.00000000      -0.00000000 </v>
   <v>       0.00000000       0.00000000       0.00000000 </v>
  </varray>
  <varray name="stress" >
   <v>      -0.00046380       0.00000000      -0.00000000 </v>
   <v>       0.00000000      -0.00046380       0.00000000 </v>
   <v>      -0.00000000       0.00000000      -0.00046380 </v>
  </varray>
  <energy>
   <i name="e_fr_energy">     -6.99451142 </i>
   <i name="e_wo_entrp">     -6.99451142 </i>
   <i name="e_0_energy">     -6.99451142 </i>
  </energy>
  <time name="totalsc">    0.18    0.20</time>
 </calculation>
 <calculation>
  <scstep>
   <time name="dav">    0.01    0.01</time>
   <time name="total">    0.02    0.02</time>
   <energy>
    <i name="alphaZ">     23.48520953 </i>
    <i name="ewald">   -714.73298474 </i>
    <i name="hartreedc">   -283.70552017 </i>
    <i name="XCdc">     46.01780134 </i>
    <i name="pawpsdc">    921.87771163 </i>
    <i name="pawaedc">  -1009.98408655 </i>
    <i name="eentropy">     -0.00000000 </i>
    <i name="bandstr">   -162.83322843 </i>
    <i name="atom">   1172.88058597 </i>
    <i name="e_fr_energy">     -6.99451142 </i>
    <i name="e_wo_entrp">     -6.99451142 </i>
    <i name="e_0_energy">     -6.99451142 </i>
   </energy>
  </scstep>
  <scstep>
   <time name="dav">    0.01    0.01</time>
   <time name="total">    0.02    0.03</time>
   <energy>
    <i name="e_fr_energy">     -6.99451142 </i>
    <i name="e_wo_entrp">     -6.99451142 </i>
    <i name="e_0_energy">     -6.99451142 </i>
   </energy>
  </scstep>
  <scstep>
   <time name="dav">    0.01    0.01</time>
   <time name="total">    0.02    0.03</time>
   <energy>
    <i name="e_fr_energy">     -6.99451142 </i>
    <i name="e_wo_entrp">     -6.99451142 </i>
    <i name="e_0_energy">     -6.99451142 </i>
   </energy>
  </scstep>
  <scstep>
   <time name="dav">    0.01    0.01</time>
   <time name="total">    0.03    0.03</time>
   <energy>
    <i name="e_fr_energy">     -6.99451142 </i>
    <i name="e_wo_entrp">     -6.99451142 </i>
    <i name="e_0_energy">     -6.99451142 </i>
   </energy>
  </scstep>
  <scstep>
   <time name="dav">    0.01    0.01</time>
   <time name="total">    0.02    0.03</time>
   <energy>
    <i name="alphaZ">     23.48520953 </i>
    <i name="ewald">   -714.73298474 </i>
    <i name="hartreedc">   -283.70551524 </i>
    <i name="XCdc">     46.01780099 </i>
    <i name="pawpsdc">    921.87771453 </i>
    <i name="pawaedc">  -1009.98408948 </i>
    <i name="eentropy">     -0.00000000 </i>
    <i name="bandstr">   -162.83323298 </i>
    <i name="atom">   1172.88058597 </i>
    <i name="e_fr_energy">     -6.99451142 </i>
    <i name="e_wo_entrp">     -6.99451142 </i>
    <i name="e_0_energy">     -6.99451142 </i>
   </energy>
  </scstep>
  <structure>
   <crystal>
    <varray name="basis" >
     <v>      -0.00000000       2.80100061       2.80100061 </v>
     <v>       2.80100061       0.00000000       2.80100061 </v>
     <v>       2.80100061       2.80100061       0.00000000 </v>
    </varray>
    <i name="volume">     43.95108567 </i>
    <varray name="rec_basis" >
     <v>      -0.17850764       0.17850764       0.17850764 </v>
     <v>       0.17850764      -0.17850764       0.17850764 </v>
     <v>       0.17850764       0.17850764      -0.17850764 </v>
    </varray>
   </crystal>
   <varray name="positions" >
    <v>       0.00000000      -0.00000000      -0.00000000 </v>
    <v>       0.50000000       0.50000000       0.50000000 </v>
   </varray>
  </structure>
  <varray name="forces" >
   <v>      -0.00000000      -0.00000000      -0.00000000 </v>
   <v>       0.00000000       0.00000000       0.00000000 </v>
  </varray>
  <varray name="stress" >
   <v>      -0.00046107       0.00000000      -0.00000000 </v>
   <v>       0.00000000      -0.00046107      -0.00000000 </v>
   <v>       0.00000000      -0.00000000      -0.00046107 </v>
  </varray>
  <energy>
   <i name="e_fr_energy">     -6.99451142 </i>
   <i name="e_wo_entrp">     -6.99451142 </i>
   <i name="e_0_energy">     -6.99451142 </i>
  </energy>
  <time name="totalsc">    0.18    0.20</time>
 </calculation>
 <calculation>
  <scstep>
   <time name="dav">    0.01    0.01</time>
   <time name="total">    0.02    0.02</time>
   <energy>
    <i name="alphaZ">     23.48520979 </i>
    <i name="ewald">   -714.73298733 </i>
    <i name="hartreedc">   -283.70551626 </i>
    <i name="XCdc">     46.01780119 </i>
    <i name="pawpsdc">    921.87771442 </i>
    <i name="pawaedc">  -1009.98408939 </i>
    <i name="eentropy">     -0.00000000 </i>
    <i name="bandstr">   -162.83322981 </i>
    <i name="atom">   1172.88058597 </i>
    <i name="e_fr_energy">     -6.99451142 </i>
    <i name="e_wo_entrp">     -6.99451142 </i>
    <i name="e_0_energy">     -6.99451142 </i>
   </energy>
  </scstep>
  <scstep>
   <time name="dav">    0.01    0.01</time>
   <time name="total">    0.02    0.03</time>
   <energy>
    <i name="e_fr_energy">     -6.99451142 </i>
    <i name="e_wo_entrp">     -6.99451142 </i>
    <i name="e_0_energy">     -6.99451142 </i>
   </energy>
  </scstep>
  <scstep>
   <time name="dav">    0.01    0.01</time>
   <time name="total">    0.02    0.03</time>
   <energy>
    <i name="e_fr_energy">     -6.99451142 </i>
    <i name="e_wo_entrp">     -6.99451142 </i>
    <i name="e_0_energy">     -6.99451142 </i>
   </energy>
  </scstep>
  <scstep>
   <time name="dav">    0.01    0.01</time>
   <time name="total">    0.03    0.03</time>
   <energy>
    <i name="e_fr_energy">     -6.99451142 </i>
    <i name="e_wo_entrp">     -6.99451142 </i>
    <i name="e_0_energy">     -6.99451142 </i>
   </energy>
  </scstep>
  <scstep>
   <time name="dav">    0.01    0.01</time>
   <time name="total">    0.02    0.03</time>
   <energy>
    <i name="alphaZ">     23.48520979 </i>
    <i name="ewald">   -714.73298733 </i>
    <i name="hartreedc">   -283.70551379 </i>
    <i name="XCdc">     46.01780101 </i>
    <i name="pawpsdc">    921.87771587 </i>
    <i name="pawaedc">  -1009.98409086 </i>
    <i name="eentropy">     -0.00000000 </i>
    <i name="bandstr">   -162.83323209 </i>
    <i name="atom">   1172.88058597 </i>
    <i name="e_fr_energy">     -6.99451142 </i>
    <i name="e_wo_entrp">     -6.99451142 </i>
    <i name="e_0_energy">     -6.99451142 </i>
   </energy>
  </scstep>
  <structure>
   <crystal>
    <varray name="basis" >
     <v>      -0.00000000       2.80100060       2.80100060 </v>
     <v>       2.80100060       0.00000000       2.80100060 </v>
     <v>       2.80100060       2.80100060       0.00000000 </v>
    </varray>
    <i name="volume">     43.95108519 </i>
    <varray name="rec_basis" >
     <v>      -0.17850764       0.17850764       0.17850764 </v>
     <v>       0.17850764      -0.17850764       0.17850764 </v>
     <v>       0.17850764       0.17850764      -0.17850764 </v>
    </varray>
   </crystal>
   <varray name="positions" >
    <v>       0.00000000      -0.00000000      -0.00000000 </v>
    <v>       0.50000000       0.50000000       0.50000000 </v>
   </varray>
  </structure>
  <varray name="forces" >
   <v>       0.00000000      -0.00000000      -0.00000000 </v>
   <v>      -0.00000000       0.00000000       0.00000000 </v>
  </varray>
  <varray name="stress" >
   <v>      -0.00045980       0.00000000      -0.00000000 </v>
   <v>       0.00000000      -0.00045980       0.00000000 </v>
   <v>       0.00000000      -0.00000000      -0.00045980 </v>
  </varray>
  <energy>
   <i name="e_fr_energy">     -6.99451142 </i>
   <i name="e_wo_entrp">     -6.99451142 </i>
   <i name="e_0_energy">     -6.99451142 </i>
  </energy>
  <time name="totalsc">    0.18    0.20</time>
 </calculation>
 <calculation>
  <scstep>
   <time name="dav">    0.01    0.01</time>
   <time name="total">    0.02    0.02</time>
   <energy>
    <i name="alphaZ">     23.48520991 </i>
    <i name="ewald">   -714.73298862 </i>
    <i name="hartreedc">   -283.70551430 </i>
    <i name="XCdc">     46.01780111 </i>
    <i name="pawpsdc">    921.87771582 </i>
    <i name="pawaedc">  -1009.98409081 </i>
    <i name="eentropy">     -0.00000000 </i>
    <i name="bandstr">   -162.83323050 </i>
    <i name="atom">   1172.88058597 </i>
    <i name="e_fr_energy">     -6.99451142 </i>
    <i name="e_wo_entrp">     -6.99451142 </i>
    <i name="e_0_energy">     -6.99451142 </i>
   </energy>
  </scstep>
  <scstep>
   <time name="dav">    0.01    0.01</time>
   <time name="total">    0.02    0.03</time>
   <energy>
    <i name="e_fr_energy">     -6.99451142 </i>
    <i name="e_wo_entrp">     -6.99451142 </i>
    <i name="e_0_energy">     -6.99451142 </i>
   </energy>
  </scstep>
  <scstep>
   <time name="dav">    0.01    0.01</time>
   <time name="total">    0.02    0.03</time>
   <energy>
    <i name="e_fr_energy">     -6.99451142 </i>
    <i name="e_wo_entrp">     -6.99451142 </i>
    <i name="e_0_energy">     -6.99451142 </i>
   </energy>
  </scstep>
  <scstep>
   <time name="dav">    0.01    0.01</time>
   <time name="total">    0.02    0.03</time>
   <energy>
    <i name="e_fr_energy">     -6.99451142 </i>
    <i name="e_wo_entrp">     -6.99451142 </i>
    <i name="e_0_energy">     -6.99451142 </i>
   </energy>
  </scstep>
  <scstep>
   <time name="dav">    0.01    0.01</time>
   <time name="total">    0.02    0.02</time>
   <energy>
    <i name="alphaZ">     23.48520991 </i>
    <i name="ewald">   -714.73298862 </i>
    <i name="hartreedc">   -283.70551307 </i>
    <i name="XCdc">     46.01780102 </i>
    <i name="pawpsdc">    921.87771655 </i>
    <i name="pawaedc">  -1009.98409154 </i>
    <i name="eentropy">     -0.00000000 </i>
    <i name="bandstr">   -162.83323164 </i>
    <i name="atom">   1172.88058597 </i>
    <i name="e_fr_energy">     -6.99451142 </i>
    <i name="e_wo_entrp">     -6.99451142 </i>
    <i name="e_0_energy">     -6.99451142 </i>
   </energy>
  </scstep>
  <structure>
   <crystal>
    <varray name="basis" >
     <v>      -0.00000000       2.80100060       2.80100060 </v>
     <v>       2.80100060       0.00000000       2.80100060 </v>
     <v>       2.80100060       2.80100060       0.00000000 </v>
    </varray>
    <i name="volume">     43.95108495 </i>
    <varray name="rec_basis" >
     <v>      -0.17850764       0.17850764       0.17850764 </v>
     <v>       0.17850764      -0.17850764       0.17850764 </v>
     <v>       0.17850764       0.17850764      -0.17850764 </v>
    </varray>
   </crystal>
   <varray name="positions" >
    <v>       0.00000000      -0.00000000      -0.00000000 </v>
    <v>       0.50000000       0.50000000       0.50000000 </v>
   </varray>
  </structure>
  <varray name="forces" >
   <v>       0.00000000      -0.00000000       0.00000000 </v>
   <v>      -0.00000000       0.00000000      -0.00000000 </v>
  </varray>
  <varray name="stress" >
   <v>      -0.00045921       0.00000000      -0.00000000 </v>
   <v>      -0.00000000      -0.00045921       0.00000000 </v>
   <v>       0.00000000      -0.00000000      -0.00045921 </v>
  </varray>
  <energy>
   <i name="e_fr_energy">     -6.99451142 </i>
   <i name="e_wo_entrp">     -6.99451142 </i>
   <i name="e_0_energy">     -6.99451142 </i>
  </energy>
  <time name="totalsc">    0.17    0.20</time>
 </calculation>
 <calculation>
  <scstep>
   <time name="dav">    0.01    0.01</time>
   <time name="total">    0.02    0.02</time>
   <energy>
    <i name="alphaZ">     23.48520998 </i>
    <i name="ewald">   -714.73298926 </i>
    <i name="hartreedc">   -283.70551332 </i>
    <i name="XCdc">     46.01780107 </i>
    <i name="pawpsdc">    921.87771652 </i>
    <i name="pawaedc">  -1009.98409152 </i>
    <i name="eentropy">     -0.00000000 </i>
    <i name="bandstr">   -162.83323085 </i>
    <i name="atom">   1172.88058597 </i>
    <i name="e_fr_energy">     -6.99451142 </i>
    <i name="e_wo_entrp">     -6.99451142 </i>
    <i name="e_0_energy">     -6.99451142 </i>
   </energy>
  </scstep>
  <scstep>
   <time name="dav">    0.01    0.01</time>
   <time name="total">    0.02    0.03</time>
   <energy>
    <i name="e_fr_energy">     -6.99451142 </i>
    <i name="e_wo_entrp">     -6.99451142 </i>
    <i name="e_0_energy">     -6.99451142 </i>
   </energy>
  </scstep>
  <scstep>
   <time name="dav">    0.01    0.01</time>
   <time name="total">    0.02    0.03</time>
   <energy>
    <i name="e_fr_energy">     -6.99451142 </i>
    <i name="e_wo_entrp">     -6.99451142 </i>
    <i name="e_0_energy">     -6.99451142 </i>
   </energy>
  </scstep>
  <scstep>
   <time name="dav">    0.01    0.01</time>
   <time name="total">    0.02    0.03</time>
   <energy>
    <i name="e_fr_energy">     -6.99451142 </i>
    <i name="e_wo_entrp">     -6.99451142 </i>
    <i name="e_0_energy">     -6.99451142 </i>
   </energy>
  </scstep>
  <scstep>
   <time name="dav">    0.01    0.01</time>
   <time name="total">    0.02    0.02</time>
   <energy>
    <i name="alphaZ">     23.48520998 </i>
    <i name="ewald">   -714.73298926 </i>
    <i name="hartreedc">   -283.70551271 </i>
    <i name="XCdc">     46.01780103 </i>
    <i name="pawpsdc">    921.87771688 </i>
    <i name="pawaedc">  -1009.98409189 </i>
    <i name="eentropy">     -0.00000000 </i>
    <i name="bandstr">   -162.83323142 </i>
    <i name="atom">   1172.88058597 </i>
    <i name="e_fr_energy">     -6.99451142 </i>
    <i name="e_wo_entrp">     -6.99451142 </i>
    <i name="e_0_energy">     -6.99451142 </i>
   </energy>
  </scstep>
  <structure>
   <crystal>
    <varray name="basis" >
     <v>      -0.00000000       2.80100060       2.80100060 </v>
     <v>       2.80100060       0.00000000       2.80100060 </v>
     <v>       2.80100060       2.80100060       0.00000000 </v>
    </varray>
    <i name="volume">     43.95108483 </i>
    <varray name="rec_basis" >
     <v>      -0.17850764       0.17850764       0.17850764 </v>
     <v>       0.17850764      -0.17850764       0.17850764 </v>
     <v>       0.17850764       0.17850764      -0.17850764 </v>
    </varray>
   </crystal>
   <varray name="positions" >
    <v>       0.00000000      -0.00000000      -0.00000000 </v>
    <v>       0.50000000       0.50000000       0.50000000 </v>
   </varray>
  </structure>
  <varray name="forces" >
   <v>       0.00000000      -0.00000000      -0.00000000 </v>
   <v>      -0.00000000       0.00000000       0.00000000 </v>
  </varray>
  <varray name="stress" >
   <v>      -0.00045889       0.00000000      -0.00000000 </v>
   <v>       0.00000000      -0.00045889      -0.00000000 </v>
   <v>       0.00000000      -0.00000000      -0.00045889 </v>
  </varray>
  <energy>
   <i name="e_fr_energy">     -6.99451142 </i>
   <i name="e_wo_entrp">     -6.99451142 </i>
   <i name="e_0_energy">     -6.99451142 </i>
  </energy>
  <time name="totalsc">    0.17    0.20</time>
 </calculation>
 <calculation>
  <scstep>
   <time name="dav">    0.01    0.01</time>
   <time name="total">    0.02    0.02</time>
   <energy>
    <i name="alphaZ">     23.48521001 </i>
    <i name="ewald">   -714.73298959 </i>
    <i name="hartreedc">   -283.70551283 </i>
    <i name="XCdc">     46.01780105 </i>
    <i name="pawpsdc">    921.87771687 </i>
    <i name="pawaedc">  -1009.98409188 </i>
    <i name="eentropy">     -0.00000000 </i>
    <i name="bandstr">   -162.83323102 </i>
    <i name="atom">   1172.88058597 </i>
    <i name="e_fr_energy">     -6.99451142 </i>
    <i name="e_wo_entrp">     -6.99451142 </i>
    <i name="e_0_energy">     -6.99451142 </i>
   </energy>
  </scstep>
  <scstep>
   <time name="dav">    0.01    0.01</time>
   <time name="total">    0.02    0.03</time>
   <energy>
    <i name="e_fr_energy">     -6.99451142 </i>
    <i name="e_wo_entrp">     -6.99451142 </i>
    <i name="e_0_energy">     -6.99451142 </i>
   </energy>
  </scstep>
  <scstep>
   <time name="dav">    0.01    0.01</time>
   <time name="total">    0.02    0.03</time>
   <energy>
    <i name="e_fr_energy">     -6.99451142 </i>
    <i name="e_wo_entrp">     -6.99451142 </i>
    <i name="e_0_energy">     -6.99451142 </i>
   </energy>
  </scstep>
  <scstep>
   <time name="dav">    0.01    0.01</time>
   <time name="total">    0.02    0.03</time>
   <energy>
    <i name="e_fr_energy">     -6.99451142 </i>
    <i name="e_wo_entrp">     -6.99451142 </i>
    <i name="e_0_energy">     -6.99451142 </i>
   </energy>
  </scstep>
  <scstep>
   <time name="dav">    0.01    0.01</time>
   <time name="total">    0.02    0.02</time>
   <energy>
    <i name="alphaZ">     23.48521001 </i>
    <i name="ewald">   -714.73298959 </i>
    <i name="hartreedc">   -283.70551253 </i>
    <i name="XCdc">     46.01780103 </i>
    <i name="pawpsdc">    921.87771705 </i>
    <i name="pawaedc">  -1009.98409206 </i>
    <i name="eentropy">     -0.00000000 </i>
    <i name="bandstr">   -162.83323131 </i>
    <i name="atom">   1172.88058597 </i>
    <i name="e_fr_energy">     -6.99451142 </i>
    <i name="e_wo_entrp">     -6.99451142 </i>
    <i name="e_0_energy">     -6.99451142 </i>
   </energy>
  </scstep>
  <structure>
   <crystal>
    <varray name="basis" >
     <v>      -0.00000000       2.80100059       2.80100059 </v>
     <v>       2.80100059       0.00000000       2.80100059 </v>
     <v>       2.80100059       2.80100059       0.00000000 </v>
    </varray>
    <i name="volume">     43.95108477 </i>
    <varray name="rec_basis" >
     <v>      -0.17850764       0.17850764       0.17850764 </v>
     <v>       0.17850764      -0.17850764       0.17850764 </v>
     <v>       0.17850764       0.17850764      -0.17850764 </v>
    </varray>
   </crystal>
   <varray name="positions" >
    <v>       0.00000000      -0.00000000      -0.00000000 </v>
    <v>       0.50000000       0.50000000       0.50000000 </v>
   </varray>
  </structure>
  <varray name="forces" >
   <v>      -0.00000000      -0.00000000      -0.00000000 </v>
   <v>       0.00000000       0.00000000       0.00000000 </v>
  </varray>
  <varray name="stress" >
   <v>      -0.00045899       0.00000000      -0.00000000 </v>
   <v>       0.00000000      -0.00045899       0.00000000 </v>
   <v>       0.00000000      -0.00000000      -0.00045899 </v>
  </varray>
  <energy>
   <i name="e_fr_energy">     -6.99451142 </i>
   <i name="e_wo_entrp">     -6.99451142 </i>
   <i name="e_0_energy">     -6.99451142 </i>
  </energy>
  <time name="totalsc">    0.17    0.20</time>
 </calculation>
 <calculation>
  <scstep>
   <time name="dav">    0.01    0.01</time>
   <time name="total">    0.02    0.02</time>
   <energy>
    <i name="alphaZ">     23.48521003 </i>
    <i name="ewald">   -714.73298975 </i>
    <i name="hartreedc">   -283.70551259 </i>
    <i name="XCdc">     46.01780104 </i>
    <i name="pawpsdc">    921.87771704 </i>
    <i name="pawaedc">  -1009.98409205 </i>
    <i name="eentropy">     -0.00000000 </i>
    <i name="bandstr">   -162.83323111 </i>
    <i name="atom">   1172.88058597 </i>
    <i name="e_fr_energy">     -6.99451142 </i>
    <i name="e_wo_entrp">     -6.99451142 </i>
    <i name="e_0_energy">     -6.99451142 </i>
   </energy>
  </scstep>
  <scstep>
   <time name="dav">    0.01    0.01</time>
   <time name="total">    0.02    0.03</time>
   <energy>
    <i name="e_fr_energy">     -6.99451142 </i>
    <i name="e_wo_entrp">     -6.99451142 </i>
    <i name="e_0_energy">     -6.99451142 </i>
   </energy>
  </scstep>
  <scstep>
   <time name="dav">    0.01    0.01</time>
   <time name="total">    0.03    0.03</time>
   <energy>
    <i name="e_fr_energy">     -6.99451142 </i>
    <i name="e_wo_entrp">     -6.99451142 </i>
    <i name="e_0_energy">     -6.99451142 </i>
   </energy>
  </scstep>
  <scstep>
   <time name="dav">    0.01    0.01</time>
   <time name="total">    0.02    0.03</time>
   <energy>
    <i name="e_fr_energy">     -6.99451142 </i>
    <i name="e_wo_entrp">     -6.99451142 </i>
    <i name="e_0_energy">     -6.99451142 </i>
   </energy>
  </scstep>
  <scstep>
   <time name="dav">    0.01    0.01</time>
   <time name="total">    0.02    0.02</time>
   <energy>
    <i name="alphaZ">     23.48521003 </i>
    <i name="ewald">   -714.73298975 </i>
    <i name="hartreedc">   -283.70551244 </i>
    <i name="XCdc">     46.01780103 </i>
    <i name="pawpsdc">    921.87771713 </i>
    <i name="pawaedc">  -1009.98409215 </i>
    <i name="eentropy">     -0.00000000 </i>
    <i name="bandstr">   -162.83323125 </i>
    <i name="atom">   1172.88058597 </i>
    <i name="e_fr_energy">     -6.99451142 </i>
    <i name="e_wo_entrp">     -6.99451142 </i>
    <i name="e_0_energy">     -6.99451142 </i>
   </energy>
  </scstep>
  <structure>
   <crystal>
    <varray name="basis" >
     <v>      -0.00000000       2.80100059       2.80100059 </v>
     <v>       2.80100059       0.00000000       2.80100059 </v>
     <v>       2.80100059       2.80100059       0.00000000 </v>
    </varray>
    <i name="volume">     43.95108474 </i>
    <varray name="rec_basis" >
     <v>      -0.17850764       0.17850764       0.17850764 </v>
     <v>       0.17850764      -0.17850764       0.17850764 </v>
     <v>       0.17850764       0.17850764      -0.17850764 </v>
    </varray>
   </crystal>
   <varray name="positions" >
    <v>       0.00000000      -0.00000000      -0.00000000 </v>
    <v>       0.50000000       0.50000000       0.50000000 </v>
   </varray>
  </structure>
  <varray name="forces" >
   <v>       0.00000000       0.00000000      -0.00000000 </v>
   <v>      -0.00000000      -0.00000000       0.00000000 </v>
  </varray>
  <varray name="stress" >
   <v>      -0.00045876       0.00000000       0.00000000 </v>
   <v>       0.00000000      -0.00045876       0.00000000 </v>
   <v>       0.00000000      -0.00000000      -0.00045876 </v>
  </varray>
  <energy>
   <i name="e_fr_energy">     -6.99451142 </i>
   <i name="e_wo_entrp">     -6.99451142 </i>
   <i name="e_0_energy">     -6.99451142 </i>
  </energy>
  <time name="totalsc">    0.17    0.20</time>
 </calculation>
 <calculation>
  <scstep>
   <time name="dav">    0.01    0.01</time>
   <time name="total">    0.02    0.02</time>
   <energy>
    <i name="alphaZ">     23.48521003 </i>
    <i name="ewald">   -714.73298983 </i>
    <i name="hartreedc">   -283.70551247 </i>
    <i name="XCdc">     46.01780104 </i>
    <i name="pawpsdc">    921.87771713 </i>
    <i name="pawaedc">  -1009.98409214 </i>
    <i name="eentropy">     -0.00000000 </i>
    <i name="bandstr">   -162.83323115 </i>
    <i name="atom">   1172.88058597 </i>
    <i name="e_fr_energy">     -6.99451142 </i>
    <i name="e_wo_entrp">     -6.99451142 </i>
    <i name="e_0_energy">     -6.99451142 </i>
   </energy>
  </scstep>
  <scstep>
   <time name="dav">    0.01    0.01</time>
   <time name="total">    0.02    0.03</time>
   <energy>
    <i name="e_fr_energy">     -6.99451142 </i>
    <i name="e_wo_entrp">     -6.99451142 </i>
    <i name="e_0_energy">     -6.99451142 </i>
   </energy>
  </scstep>
  <scstep>
   <time name="dav">    0.01    0.01</time>
   <time name="total">    0.02    0.03</time>
   <energy>
    <i name="e_fr_energy">     -6.99451142 </i>
    <i name="e_wo_entrp">     -6.99451142 </i>
    <i name="e_0_energy">     -6.99451142 </i>
   </energy>
  </scstep>
  <scstep>
   <time name="dav">    0.01    0.01</time>
   <time name="total">    0.02    0.03</time>
   <energy>
    <i name="e_fr_energy">     -6.99451142 </i>
    <i name="e_wo_entrp">     -6.99451142 </i>
    <i name="e_0_energy">     -6.99451142 </i>
   </energy>
  </scstep>
  <scstep>
   <time name="dav">    0.01    0.01</time>
   <time name="total">    0.02    0.02</time>
   <energy>
    <i name="alphaZ">     23.48521003 </i>
    <i name="ewald">   -714.73298983 </i>
    <i name="hartreedc">   -283.70551239 </i>
    <i name="XCdc">     46.01780103 </i>
    <i name="pawpsdc">    921.87771718 </i>
    <i name="pawaedc">  -1009.98409219 </i>
    <i name="eentropy">     -0.00000000 </i>
    <i name="bandstr">   -162.83323122 </i>
[...]
       <r>   12.5487    0.0000 </r>
       <r>   12.5487    0.0000 </r>
       <r>   14.9604    0.0000 </r>
       <r>   18.2398    0.0000 </r>
       <r>   19.1871    0.0000 </r>
      </set>
      <set comment="kpoint 3">
       <r>  -21.3045    1.0000 </r>
       <r>  -21.2728    1.0000 </r>
       <r>  -21.2728    1.0000 </r>
       <r>  -12.9868    1.0000 </r>
       <r>   -2.6977    1.0000 </r>
       <r>   -0.9431    1.0000 </r>
       <r>   -0.9431    1.0000 </r>
       <r>    6.4461    0.0000 </r>
       <r>    9.9974    0.0000 </r>
       <r>   10.2493    0.0000 </r>
       <r>   10.2493    0.0000 </r>
       <r>   14.2945    0.0000 </r>
       <r>   15.5892    0.0000 </r>
       <r>   15.5892    0.0000 </r>
       <r>   16.5426    0.0000 </r>
       <r>   16.5426    0.0000 </r>
      </set>
      <set comment="kpoint 4">
       <r>  -21.2847    1.0000 </r>
       <r>  -21.2751    1.0000 </r>
       <r>  -21.2751    1.0000 </r>
       <r>  -13.1341    1.0000 </r>
       <r>   -1.7941    1.0000 </r>
       <r>   -0.9980    1.0000 </r>
       <r>   -0.9980    1.0000 </r>
       <r>    6.3699    0.0000 </r>
       <r>    8.2810    0.0000 </r>
       <r>   10.1427    0.0000 </r>
       <r>   11.7474    0.0000 </r>
       <r>   11.7474    0.0000 </r>
       <r>   13.4423    0.0000 </r>
       <r>   18.1048    0.0000 </r>
       <r>   18.1048    0.0000 </r>
       <r>   18.3245    0.0000 </r>
      </set>
      <set comment="kpoint 5">
       <r>  -21.2951    1.0000 </r>
       <r>  -21.2802    1.0000 </r>
       <r>  -21.2762    1.0000 </r>
       <r>  -12.9630    1.0000 </r>
       <r>   -2.3252    1.0000 </r>
       <r>   -1.4762    1.0000 </r>
       <r>   -1.1247    1.0000 </r>
       <r>    7.4006    0.0000 </r>
       <r>    8.5591    0.0000 </r>
       <r>    9.4009    0.0000 </r>
       <r>   11.5373    0.0000 </r>
       <r>   13.3655    0.0000 </r>
       <r>   15.6723    0.0000 </r>
       <r>   16.5022    0.0000 </r>
       <r>   16.8173    0.0000 </r>
       <r>   17.8571    0.0000 </r>
      </set>
      <set comment="kpoint 6">
       <r>  -21.2939    1.0000 </r>
       <r>  -21.2809    1.0000 </r>
       <r>  -21.2728    1.0000 </r>
       <r>  -13.0079    1.0000 </r>
       <r>   -2.2018    1.0000 </r>
       <r>   -1.5027    1.0000 </r>
       <r>   -0.9451    1.0000 </r>
       <r>    7.4660    0.0000 </r>
       <r>    8.9029    0.0000 </r>
       <r>    9.3012    0.0000 </r>
       <r>   11.1502    0.0000 </r>
       <r>   12.4972    0.0000 </r>
       <r>   15.1022    0.0000 </r>
       <r>   16.0663    0.0000 </r>
       <r>   17.7008    0.0000 </r>
       <r>   18.0827    0.0000 </r>
      </set>
      <set comment="kpoint 7">
       <r>  -21.2937    1.0000 </r>
       <r>  -21.2797    1.0000 </r>
       <r>  -21.2797    1.0000 </r>
       <r>  -12.9375    1.0000 </r>
       <r>   -2.4216    1.0000 </r>
       <r>   -1.2921    1.0000 </r>
       <r>   -1.2921    1.0000 </r>
       <r>    6.8288    0.0000 </r>
       <r>    7.2083    0.0000 </r>
       <r>   10.6076    0.0000 </r>
       <r>   14.1335    0.0000 </r>
       <r>   14.1336    0.0000 </r>
       <r>   14.6837    0.0000 </r>
       <r>   16.4674    0.0000 </r>
       <r>   16.4674    0.0000 </r>
       <r>   16.5705    0.0000 </r>
      </set>
      <set comment="kpoint 8">
       <r>  -21.2866    1.0000 </r>
       <r>  -21.2866    1.0000 </r>
       <r>  -21.2822    1.0000 </r>
       <r>  -12.9182    1.0000 </r>
       <r>   -1.9222    1.0000 </r>
       <r>   -1.9222    1.0000 </r>
       <r>   -1.4603    1.0000 </r>
       <r>    8.1695    0.0000 </r>
       <r>    8.9185    0.0000 </r>
       <r>    8.9185    0.0000 </r>
       <r>   10.6595    0.0000 </r>
       <r>   15.0675    0.0000 </r>
       <r>   15.0676    0.0000 </r>
       <r>   15.7133    0.0000 </r>
       <r>   16.5407    0.0000 </r>
       <r>   19.0882    0.0000 </r>
      </set>
     </set>
    </set>
   </array>
  </eigenvalues>
  <separator name="orbital magnetization" >
   <v name="MAGDIPOLOUT">      0.00000000      0.00000000      0.00000000</v>
  </separator>
  <dos>
   <i name="efermi">     -0.57618504 </i>
   <total>
    <array>
     <dimension dim="1">gridpoints</dimension>
     <dimension dim="2">spin</dimension>
     <field>energy</field>
     <field>total</field>
     <field>integrated</field>
     <set>
      <set comment="spin 1">
       <r>   -23.3291     0.0000     0.0000 </r>
       <r>   -23.1806     0.0000     0.0000 </r>
       <r>   -23.0321     0.0000     0.0000 </r>
       <r>   -22.8837     0.0000     0.0000 </r>
       <r>   -22.7352     0.0000     0.0000 </r>
       <r>   -22.5867     0.0000     0.0000 </r>
       <r>   -22.4383     0.0000     0.0000 </r>
       <r>   -22.2898     0.0000     0.0000 </r>
       <r>   -22.1413     0.0000     0.0000 </r>
       <r>   -21.9928     0.0000     0.0000 </r>
       <r>   -21.8444     0.0000     0.0000 </r>
       <r>   -21.6959     0.0000     0.0000 </r>
       <r>   -21.5474     0.0000     0.0000 </r>
       <r>   -21.3990     0.0000     0.0000 </r>
       <r>   -21.2505    39.4034     5.8502 </r>
       <r>   -21.1020     0.0000     6.0000 </r>
       <r>   -20.9536     0.0000     6.0000 </r>
       <r>   -20.8051     0.0000     6.0000 </r>
       <r>   -20.6566     0.0000     6.0000 </r>
       <r>   -20.5082     0.0000     6.0000 </r>
       <r>   -20.3597     0.0000     6.0000 </r>
       <r>   -20.2112     0.0000     6.0000 </r>
       <r>   -20.0627     0.0000     6.0000 </r>
       <r>   -19.9143     0.0000     6.0000 </r>
       <r>   -19.7658     0.0000     6.0000 </r>
       <r>   -19.6173     0.0000     6.0000 </r>
       <r>   -19.4689     0.0000     6.0000 </r>
       <r>   -19.3204     0.0000     6.0000 </r>
       <r>   -19.1719     0.0000     6.0000 </r>
       <r>   -19.0235     0.0000     6.0000 </r>
       <r>   -18.8750     0.0000     6.0000 </r>
       <r>   -18.7265     0.0000     6.0000 </r>
       <r>   -18.5781     0.0000     6.0000 </r>
       <r>   -18.4296     0.0000     6.0000 </r>
       <r>   -18.2811     0.0000     6.0000 </r>
       <r>   -18.1326     0.0000     6.0000 </r>
       <r>   -17.9842     0.0000     6.0000 </r>
       <r>   -17.8357     0.0000     6.0000 </r>
       <r>   -17.6872     0.0000     6.0000 </r>
       <r>   -17.5388     0.0000     6.0000 </r>
       <r>   -17.3903     0.0000     6.0000 </r>
       <r>   -17.2418     0.0000     6.0000 </r>
       <r>   -17.0934     0.0000     6.0000 </r>
       <r>   -16.9449     0.0000     6.0000 </r>
       <r>   -16.7964     0.0000     6.0000 </r>
       <r>   -16.6480     0.0000     6.0000 </r>
       <r>   -16.4995     0.0000     6.0000 </r>
       <r>   -16.3510     0.0000     6.0000 </r>
       <r>   -16.2026     0.0000     6.0000 </r>
       <r>   -16.0541     0.0000     6.0000 </r>
       <r>   -15.9056     0.0000     6.0000 </r>
       <r>   -15.7571     0.0000     6.0000 </r>
       <r>   -15.6087     0.0000     6.0000 </r>
       <r>   -15.4602     0.0000     6.0000 </r>
       <r>   -15.3117     0.0000     6.0000 </r>
       <r>   -15.1633     0.0000     6.0000 </r>
       <r>   -15.0148     0.0000     6.0000 </r>
       <r>   -14.8663     0.0000     6.0000 </r>
       <r>   -14.7179     0.0000     6.0000 </r>
       <r>   -14.5694     0.0000     6.0000 </r>
       <r>   -14.4209     0.0000     6.0000 </r>
       <r>   -14.2725     0.0000     6.0000 </r>
       <r>   -14.1240     0.0000     6.0000 </r>
       <r>   -13.9755     0.0000     6.0000 </r>
       <r>   -13.8270     0.0000     6.0000 </r>
       <r>   -13.6786     0.0000     6.0000 </r>
       <r>   -13.5301     0.0000     6.0000 </r>
       <r>   -13.3816     0.0060     6.0009 </r>
       <r>   -13.2332     0.2045     6.0313 </r>
       <r>   -13.0847     2.9464     6.4687 </r>
       <r>   -12.9362     8.7372     7.7660 </r>
       <r>   -12.7878     1.4288     8.0000 </r>
       <r>   -12.6393     0.0000     8.0000 </r>
       <r>   -12.4908     0.0000     8.0000 </r>
       <r>   -12.3424     0.0000     8.0000 </r>
       <r>   -12.1939     0.0000     8.0000 </r>
       <r>   -12.0454     0.0000     8.0000 </r>
       <r>   -11.8969     0.0000     8.0000 </r>
       <r>   -11.7485     0.0000     8.0000 </r>
       <r>   -11.6000     0.0000     8.0000 </r>
       <r>   -11.4515     0.0000     8.0000 </r>
       <r>   -11.3031     0.0000     8.0000 </r>
       <r>   -11.1546     0.0000     8.0000 </r>
       <r>   -11.0061     0.0000     8.0000 </r>
       <r>   -10.8577     0.0000     8.0000 </r>
       <r>   -10.7092     0.0000     8.0000 </r>
       <r>   -10.5607     0.0000     8.0000 </r>
       <r>   -10.4123     0.0000     8.0000 </r>
       <r>   -10.2638     0.0000     8.0000 </r>
       <r>   -10.1153     0.0000     8.0000 </r>
       <r>    -9.9669     0.0000     8.0000 </r>
       <r>    -9.8184     0.0000     8.0000 </r>
       <r>    -9.6699     0.0000     8.0000 </r>
       <r>    -9.5214     0.0000     8.0000 </r>
       <r>    -9.3730     0.0000     8.0000 </r>
       <r>    -9.2245     0.0000     8.0000 </r>
       <r>    -9.0760     0.0000     8.0000 </r>
       <r>    -8.9276     0.0000     8.0000 </r>
       <r>    -8.7791     0.0000     8.0000 </r>
       <r>    -8.6306     0.0000     8.0000 </r>
       <r>    -8.4822     0.0000     8.0000 </r>
       <r>    -8.3337     0.0000     8.0000 </r>
       <r>    -8.1852     0.0000     8.0000 </r>
       <r>    -8.0368     0.0000     8.0000 </r>
       <r>    -7.8883     0.0000     8.0000 </r>
       <r>    -7.7398     0.0000     8.0000 </r>
       <r>    -7.5913     0.0000     8.0000 </r>
       <r>    -7.4429     0.0000     8.0000 </r>
       <r>    -7.2944     0.0000     8.0000 </r>
       <r>    -7.1459     0.0000     8.0000 </r>
       <r>    -6.9975     0.0000     8.0000 </r>
       <r>    -6.8490     0.0000     8.0000 </r>
       <r>    -6.7005     0.0000     8.0000 </r>
       <r>    -6.5521     0.0000     8.0000 </r>
       <r>    -6.4036     0.0000     8.0000 </r>
       <r>    -6.2551     0.0000     8.0000 </r>
       <r>    -6.1067     0.0000     8.0000 </r>
       <r>    -5.9582     0.0000     8.0000 </r>
       <r>    -5.8097     0.0000     8.0000 </r>
       <r>    -5.6612     0.0000     8.0000 </r>
       <r>    -5.5128     0.0000     8.0000 </r>
       <r>    -5.3643     0.0000     8.0000 </r>
       <r>    -5.2158     0.0000     8.0000 </r>
       <r>    -5.0674     0.0000     8.0000 </r>
       <r>    -4.9189     0.0000     8.0000 </r>
       <r>    -4.7704     0.0000     8.0000 </r>
       <r>    -4.6220     0.0000     8.0000 </r>
       <r>    -4.4735     0.0000     8.0000 </r>
       <r>    -4.3250     0.0000     8.0000 </r>
       <r>    -4.1766     0.0000     8.0000 </r>
       <r>    -4.0281     0.0000     8.0000 </r>
       <r>    -3.8796     0.0000     8.0000 </r>
       <r>    -3.7312     0.0000     8.0000 </r>
       <r>    -3.5827     0.0000     8.0000 </r>
       <r>    -3.4342     0.0000     8.0000 </r>
       <r>    -3.2857     0.0000     8.0000 </r>
       <r>    -3.1373     0.0000     8.0000 </r>
       <r>    -2.9888     0.0000     8.0000 </r>
       <r>    -2.8403     0.0000     8.0000 </r>
       <r>    -2.6919     0.5553     8.0824 </r>
       <r>    -2.5434     0.2866     8.1250 </r>
       <r>    -2.3949     0.6127     8.2160 </r>
       <r>    -2.2465     5.0536     8.9691 </r>
       <r>    -2.0980     2.5238     9.3437 </r>
       <r>    -1.9495     0.0671     9.3537 </r>
       <r>    -1.8011     4.4746    10.0181 </r>
       <r>    -1.6526     0.8680    10.1562 </r>
       <r>    -1.5041     1.2839    10.3469 </r>
       <r>    -1.3556     7.5564    11.4688 </r>
       <r>    -1.2072     1.2629    11.6563 </r>
       <r>    -1.0587     5.0516    12.4063 </r>
       <r>    -0.9102     6.7010    13.4012 </r>
       <r>    -0.7618     3.3655    13.9059 </r>
       <r>    -0.6133     0.6313    14.0000 </r>
       <r>    -0.4648     0.0000    14.0000 </r>
       <r>    -0.3164     0.0000    14.0000 </r>
       <r>    -0.1679     0.0000    14.0000 </r>
       <r>    -0.0194     0.0000    14.0000 </r>
       <r>     0.1290     0.0000    14.0000 </r>
       <r>     0.2775     0.0000    14.0000 </r>
       <r>     0.4260     0.0000    14.0000 </r>
       <r>     0.5744     0.0000    14.0000 </r>
       <r>     0.7229     0.0000    14.0000 </r>
       <r>     0.8714     0.0000    14.0000 </r>
       <r>     1.0199     0.0000    14.0000 </r>
       <r>     1.1683     0.0000    14.0000 </r>
       <r>     1.3168     0.0000    14.0000 </r>
       <r>     1.4653     0.0000    14.0000 </r>
       <r>     1.6137     0.0000    14.0000 </r>
       <r>     1.7622     0.0000    14.0000 </r>
       <r>     1.9107     0.0000    14.0000 </r>
       <r>     2.0591     0.0000    14.0000 </r>
       <r>     2.2076     0.0000    14.0000 </r>
       <r>     2.3561     0.0000    14.0000 </r>
       <r>     2.5045     0.0000    14.0000 </r>
       <r>     2.6530     0.0000    14.0000 </r>
       <r>     2.8015     0.0000    14.0000 </r>
       <r>     2.9500     0.0000    14.0000 </r>
       <r>     3.0984     0.0000    14.0000 </r>
       <r>     3.2469     0.0000    14.0000 </r>
       <r>     3.3954     0.0000    14.0000 </r>
       <r>     3.5438     0.0000    14.0000 </r>
       <r>     3.6923     0.0000    14.0000 </r>
       <r>     3.8408     0.0000    14.0000 </r>
       <r>     3.9892     0.0000    14.0000 </r>
       <r>     4.1377     0.0000    14.0000 </r>
       <r>     4.2862     0.0000    14.0000 </r>
       <r>     4.4346     0.2105    14.0312 </r>
       <r>     4.5831     0.0000    14.0312 </r>
       <r>     4.7316     0.0000    14.0312 </r>
       <r>     4.8801     0.0000    14.0312 </r>
       <r>     5.0285     0.0000    14.0312 </r>
       <r>     5.1770     0.0000    14.0312 </r>
       <r>     5.3255     0.0000    14.0312 </r>
       <r>     5.4739     0.0000    14.0312 </r>
       <r>     5.6224     0.0000    14.0312 </r>
       <r>     5.7709     0.0000    14.0313 </r>
       <r>     5.9193     1.6838    14.2812 </r>
       <r>     6.0678     0.0000    14.2812 </r>
       <r>     6.2163     0.0000    14.2812 </r>
       <r>     6.3647     0.4509    14.3482 </r>
       <r>     6.5132     1.6539    14.5937 </r>
       <r>     6.6617     0.0000    14.5938 </r>
       <r>     6.8101     0.0588    14.6025 </r>
       <r>     6.9586     0.5726    14.6875 </r>
       <r>     7.1071     0.0000    14.6875 </r>
       <r>     7.2556     0.6312    14.7812 </r>
       <r>     7.4040     3.0145    15.2288 </r>
       <r>     7.5525     4.5628    15.9062 </r>
       <r>     7.7010     0.0000    15.9062 </r>
       <r>     7.8494     0.0000    15.9062 </r>
       <r>     7.9979     0.0000    15.9062 </r>
       <r>     8.1464     0.0646    15.9158 </r>
       <r>     8.2948     2.2546    16.2506 </r>
       <r>     8.4433     0.0000    16.2812 </r>
       <r>     8.5918     4.9984    17.0234 </r>
       <r>     8.7402     0.0000    17.0312 </r>
       <r>     8.8887     0.4446    17.0973 </r>
       <r>     9.0372     4.6070    17.7812 </r>
       <r>     9.1857     0.0001    17.7813 </r>
       <r>     9.3341     4.1843    18.4025 </r>
       <r>     9.4826     5.0516    19.1562 </r>
       <r>     9.6311     0.0000    19.1562 </r>
       <r>     9.7795     0.0000    19.1562 </r>
       <r>     9.9280     0.0000    19.1563 </r>
       <r>    10.0765     0.8419    19.2813 </r>
       <r>    10.2249     1.3340    19.4793 </r>
       <r>    10.3734     2.1777    19.8026 </r>
       <r>    10.5219     0.0000    19.8125 </r>
       <r>    10.6703     3.7979    20.3764 </r>
       <r>    10.8188     1.4641    20.5938 </r>
       <r>    10.9673     0.0000    20.5938 </r>
       <r>    11.1158     0.0187    20.5965 </r>
       <r>    11.2642     2.5071    20.9688 </r>
       <r>    11.4127     0.0000    20.9688 </r>
       <r>    11.5612     4.8210    21.6845 </r>
       <r>    11.7096     0.0096    21.7202 </r>
       <r>    11.8581     2.5162    22.0938 </r>
       <r>    12.0066     0.0000    22.0938 </r>
       <r>    12.1550     0.0000    22.0938 </r>
       <r>    12.3035     0.0000    22.0938 </r>
       <r>    12.4520     0.0017    22.0940 </r>
       <r>    12.6004     6.0240    22.9884 </r>
       <r>    12.7489     0.2883    23.0312 </r>
       <r>    12.8974     0.0000    23.0312 </r>
       <r>    13.0458     0.0000    23.0312 </r>
       <r>    13.1943     0.0000    23.0312 </r>
       <r>    13.3428     0.2717    23.0716 </r>
       <r>    13.4913     6.0424    23.9687 </r>
       <r>    13.6397     0.0000    23.9688 </r>
       <r>    13.7882     0.0000    23.9688 </r>
       <r>    13.9367     0.0000    23.9688 </r>
       <r>    14.0851     0.2109    24.0001 </r>
       <r>    14.2336     1.2625    24.1875 </r>
       <r>    14.3821     0.8419    24.3125 </r>
       <r>    14.5305     0.0000    24.3125 </r>
       <r>    14.6790     0.2342    24.3473 </r>
       <r>    14.8275     0.3972    24.4062 </r>
       <r>    14.9759     1.4559    24.6224 </r>
       <r>    15.1244     4.9050    25.3845 </r>
       <r>    15.2729     0.0000    25.4062 </r>
       <r>    15.4214     0.0000    25.4062 </r>
       <r>    15.5698     0.1438    25.4276 </r>
       <r>    15.7183     7.3947    26.5255 </r>
       <r>    15.8668     0.4569    26.5938 </r>
       <r>    16.0152     0.0004    26.5938 </r>
       <r>    16.1637     2.5254    26.9687 </r>
       <r>    16.3122     0.0000    26.9688 </r>
       <r>    16.4606     0.4077    27.0293 </r>
       <r>    16.6091     9.9039    28.4997 </r>
       <r>    16.7576     0.0001    28.5000 </r>
       <r>    16.9060     5.0515    29.2500 </r>
       <r>    17.0545     0.0000    29.2500 </r>
       <r>    17.2030     0.0000    29.2500 </r>
       <r>    17.3515     0.0000    29.2500 </r>
       <r>    17.4999     0.0000    29.2500 </r>
       <r>    17.6484     0.0003    29.2500 </r>
       <r>    17.7969     2.5256    29.6250 </r>
       <r>    17.9453     5.0515    30.3750 </r>
       <r>    18.0938     2.5303    30.7507 </r>
       <r>    18.2423     3.4786    31.2671 </r>
       <r>    18.3907     1.9894    31.5625 </r>
       <r>    18.5392     0.0000    31.5625 </r>
       <r>    18.6877     0.0000    31.5625 </r>
       <r>    18.8361     0.0000    31.5625 </r>
       <r>    18.9846     0.0000    31.5625 </r>
       <r>    19.1331     1.2621    31.7499 </r>
       <r>    19.2815     1.6837    32.0000 </r>
       <r>    19.4300     0.0000    32.0000 </r>
       <r>    19.5785     0.0000    32.0000 </r>
       <r>    19.7270     0.0000    32.0000 </r>
       <r>    19.8754     0.0000    32.0000 </r>
       <r>    20.0239     0.0000    32.0000 </r>
       <r>    20.1724     0.0000    32.0000 </r>
       <r>    20.3208     0.0000    32.0000 </r>
       <r>    20.4693     0.0000    32.0000 </r>
       <r>    20.6178     0.0000    32.0000 </r>
       <r>    20.7662     0.0000    32.0000 </r>
       <r>    20.9147     0.0000    32.0000 </r>
       <r>    21.0632     0.0000    32.0000 </r>
       <r>    21.2116     0.0000    32.0000 </r>
      </set>
     </set>
    </array>
   </total>
  </dos>
 </calculation>
 <structure name="finalpos" >
  <crystal>
   <varray name="basis" >
    <v>      -0.00000000       2.80100059       2.80100059 </v>
    <v>       2.80100059       0.00000000       2.80100059 </v>
    <v>       2.80100059       2.80100059       0.00000000 </v>
   </varray>
   <i name="volume">     43.95108471 </i>
   <varray name="rec_basis" >
    <v>      -0.17850764       0.17850764       0.17850764 </v>
    <v>       0.17850764      -0.17850764       0.17850764 </v>
    <v>       0.17850764       0.17850764      -0.17850764 </v>
   </varray>
  </crystal>
  <varray name="positions" >
   <v>       0.00000000      -0.00000000      -0.00000000 </v>
   <v>       0.50000000       0.50000000       0.50000000 </v>
  </varray>
 </structure>
</modeling>
