  64  64   0   0
  0.2197554E+02  0.1120400E-08  0.1120400E-08  0.1120400E-08  0.5000000E-15
  1.000000000000000E-004
  CAR 
 unknown system                          
     11.04539533    -22.84528689  301     -0.56216333      1.00000000
    -22.845  0.0000E+00  0.0000E+00
    -22.732  0.0000E+00  0.0000E+00
    -22.619  0.0000E+00  0.0000E+00
    -22.506  0.0000E+00  0.0000E+00
    -22.393  0.0000E+00  0.0000E+00
    -22.280  0.0000E+00  0.0000E+00
    -22.167  0.0000E+00  0.0000E+00
    -22.055  0.0000E+00  0.0000E+00
    -21.942  0.0000E+00  0.0000E+00
    -21.829  0.0000E+00  0.0000E+00
    -21.716  0.0000E+00  0.0000E+00
    -21.603  0.0000E+00  0.0000E+00
    -21.490  0.0000E+00  0.0000E+00
    -21.377  0.5420E-05  0.6123E-06
    -21.264  0.1438E+04  0.1624E+03
    -21.151  0.2619E+03  0.1920E+03
    -21.038  0.0000E+00  0.1920E+03
    -20.925  0.0000E+00  0.1920E+03
    -20.812  0.0000E+00  0.1920E+03
    -20.699  0.0000E+00  0.1920E+03
    -20.586  0.0000E+00  0.1920E+03
    -20.473  0.0000E+00  0.1920E+03
    -20.360  0.0000E+00  0.1920E+03
    -20.247  0.0000E+00  0.1920E+03
    -20.134  0.0000E+00  0.1920E+03
    -20.021  0.0000E+00  0.1920E+03
    -19.908  0.0000E+00  0.1920E+03
    -19.795  0.0000E+00  0.1920E+03
    -19.682  0.0000E+00  0.1920E+03
    -19.569  0.0000E+00  0.1920E+03
    -19.456  0.0000E+00  0.1920E+03
    -19.343  0.0000E+00  0.1920E+03
    -19.230  0.0000E+00  0.1920E+03
    -19.117  0.0000E+00  0.1920E+03
    -19.004  0.0000E+00  0.1920E+03
    -18.891  0.0000E+00  0.1920E+03
    -18.778  0.0000E+00  0.1920E+03
    -18.665  0.0000E+00  0.1920E+03
    -18.552  0.0000E+00  0.1920E+03
    -18.439  0.0000E+00  0.1920E+03
    -18.327  0.0000E+00  0.1920E+03
    -18.214  0.0000E+00  0.1920E+03
    -18.101  0.0000E+00  0.1920E+03
    -17.988  0.0000E+00  0.1920E+03
    -17.875  0.0000E+00  0.1920E+03
    -17.762  0.0000E+00  0.1920E+03
    -17.649  0.0000E+00  0.1920E+03
    -17.536  0.0000E+00  0.1920E+03
    -17.423  0.0000E+00  0.1920E+03
    -17.310  0.0000E+00  0.1920E+03
    -17.197  0.0000E+00  0.1920E+03
    -17.084  0.0000E+00  0.1920E+03
    -16.971  0.0000E+00  0.1920E+03
    -16.858  0.0000E+00  0.1920E+03
    -16.745  0.0000E+00  0.1920E+03
    -16.632  0.0000E+00  0.1920E+03
    -16.519  0.0000E+00  0.1920E+03
    -16.406  0.0000E+00  0.1920E+03
    -16.293  0.0000E+00  0.1920E+03
    -16.180  0.0000E+00  0.1920E+03
    -16.067  0.0000E+00  0.1920E+03
    -15.954  0.0000E+00  0.1920E+03
    -15.841  0.0000E+00  0.1920E+03
    -15.728  0.0000E+00  0.1920E+03
    -15.615  0.0000E+00  0.1920E+03
    -15.502  0.0000E+00  0.1920E+03
    -15.389  0.0000E+00  0.1920E+03
    -15.276  0.0000E+00  0.1920E+03
    -15.163  0.0000E+00  0.1920E+03
    -15.050  0.0000E+00  0.1920E+03
    -14.937  0.0000E+00  0.1920E+03
    -14.824  0.0000E+00  0.1920E+03
    -14.712  0.0000E+00  0.1920E+03
    -14.599  0.0000E+00  0.1920E+03
    -14.486  0.0000E+00  0.1920E+03
    -14.373  0.0000E+00  0.1920E+03
    -14.260  0.0000E+00  0.1920E+03
    -14.147  0.0000E+00  0.1920E+03
    -14.034  0.0000E+00  0.1920E+03
    -13.921  0.0000E+00  0.1920E+03
    -13.808  0.0000E+00  0.1920E+03
    -13.695  0.0000E+00  0.1920E+03
    -13.582  0.0000E+00  0.1920E+03
    -13.469  0.5651E-14  0.1920E+03
    -13.356  0.1250E+01  0.1921E+03
    -13.243  0.2023E+02  0.1944E+03
    -13.130  0.4837E+02  0.1999E+03
    -13.017  0.1281E+03  0.2144E+03
    -12.904  0.3642E+03  0.2555E+03
    -12.791  0.4387E+01  0.2560E+03
    -12.678  0.0000E+00  0.2560E+03
    -12.565  0.0000E+00  0.2560E+03
    -12.452  0.0000E+00  0.2560E+03
    -12.339  0.0000E+00  0.2560E+03
    -12.226  0.0000E+00  0.2560E+03
    -12.113  0.0000E+00  0.2560E+03
    -12.000  0.0000E+00  0.2560E+03
    -11.887  0.0000E+00  0.2560E+03
    -11.774  0.0000E+00  0.2560E+03
    -11.661  0.0000E+00  0.2560E+03
    -11.548  0.0000E+00  0.2560E+03
    -11.435  0.0000E+00  0.2560E+03
    -11.322  0.0000E+00  0.2560E+03
    -11.209  0.0000E+00  0.2560E+03
    -11.097  0.0000E+00  0.2560E+03
    -10.984  0.0000E+00  0.2560E+03
    -10.871  0.0000E+00  0.2560E+03
    -10.758  0.0000E+00  0.2560E+03
    -10.645  0.0000E+00  0.2560E+03
    -10.532  0.0000E+00  0.2560E+03
    -10.419  0.0000E+00  0.2560E+03
    -10.306  0.0000E+00  0.2560E+03
    -10.193  0.0000E+00  0.2560E+03
    -10.080  0.0000E+00  0.2560E+03
     -9.967  0.0000E+00  0.2560E+03
     -9.854  0.0000E+00  0.2560E+03
     -9.741  0.0000E+00  0.2560E+03
     -9.628  0.0000E+00  0.2560E+03
     -9.515  0.0000E+00  0.2560E+03
     -9.402  0.0000E+00  0.2560E+03
     -9.289  0.0000E+00  0.2560E+03
     -9.176  0.0000E+00  0.2560E+03
     -9.063  0.0000E+00  0.2560E+03
     -8.950  0.0000E+00  0.2560E+03
     -8.837  0.0000E+00  0.2560E+03
     -8.724  0.0000E+00  0.2560E+03
     -8.611  0.0000E+00  0.2560E+03
     -8.498  0.0000E+00  0.2560E+03
     -8.385  0.0000E+00  0.2560E+03
     -8.272  0.0000E+00  0.2560E+03
     -8.159  0.0000E+00  0.2560E+03
     -8.046  0.0000E+00  0.2560E+03
     -7.933  0.0000E+00  0.2560E+03
     -7.820  0.0000E+00  0.2560E+03
     -7.707  0.0000E+00  0.2560E+03
     -7.594  0.0000E+00  0.2560E+03
     -7.482  0.0000E+00  0.2560E+03
     -7.369  0.0000E+00  0.2560E+03
     -7.256  0.0000E+00  0.2560E+03
     -7.143  0.0000E+00  0.2560E+03
     -7.030  0.0000E+00  0.2560E+03
     -6.917  0.0000E+00  0.2560E+03
     -6.804  0.0000E+00  0.2560E+03
     -6.691  0.0000E+00  0.2560E+03
     -6.578  0.0000E+00  0.2560E+03
     -6.465  0.0000E+00  0.2560E+03
     -6.352  0.0000E+00  0.2560E+03
     -6.239  0.0000E+00  0.2560E+03
     -6.126  0.0000E+00  0.2560E+03
     -6.013  0.0000E+00  0.2560E+03
     -5.900  0.0000E+00  0.2560E+03
     -5.787  0.0000E+00  0.2560E+03
     -5.674  0.0000E+00  0.2560E+03
     -5.561  0.0000E+00  0.2560E+03
     -5.448  0.0000E+00  0.2560E+03
     -5.335  0.0000E+00  0.2560E+03
     -5.222  0.0000E+00  0.2560E+03
     -5.109  0.0000E+00  0.2560E+03
     -4.996  0.0000E+00  0.2560E+03
     -4.883  0.0000E+00  0.2560E+03
     -4.770  0.0000E+00  0.2560E+03
     -4.657  0.0000E+00  0.2560E+03
     -4.544  0.0000E+00  0.2560E+03
     -4.431  0.0000E+00  0.2560E+03
     -4.318  0.0000E+00  0.2560E+03
     -4.205  0.0000E+00  0.2560E+03
     -4.092  0.0000E+00  0.2560E+03
     -3.979  0.0000E+00  0.2560E+03
     -3.867  0.0000E+00  0.2560E+03
     -3.754  0.0000E+00  0.2560E+03
     -3.641  0.0000E+00  0.2560E+03
     -3.528  0.0000E+00  0.2560E+03
     -3.415  0.0000E+00  0.2560E+03
     -3.302  0.0000E+00  0.2560E+03
     -3.189  0.0000E+00  0.2560E+03
     -3.076  0.0000E+00  0.2560E+03
     -2.963  0.0000E+00  0.2560E+03
     -2.850  0.0000E+00  0.2560E+03
     -2.737  0.4142E-01  0.2560E+03
     -2.624  0.8811E+01  0.2570E+03
     -2.511  0.1736E+02  0.2590E+03
     -2.398  0.8759E+02  0.2689E+03
     -2.285  0.7980E+02  0.2779E+03
     -2.172  0.1576E+03  0.2957E+03
     -2.059  0.7592E+02  0.3043E+03
     -1.946  0.5479E+02  0.3104E+03
     -1.833  0.5633E+02  0.3168E+03
     -1.720  0.7921E+02  0.3257E+03
     -1.607  0.9953E-11  0.3258E+03
     -1.494  0.5262E+02  0.3317E+03
     -1.381  0.2090E+03  0.3553E+03
     -1.268  0.3018E+02  0.3587E+03
     -1.155  0.2408E+03  0.3859E+03
     -1.042  0.1469E+03  0.4025E+03
     -0.929  0.2472E+03  0.4305E+03
     -0.816  0.7189E+02  0.4386E+03
     -0.703  0.7662E+02  0.4472E+03
     -0.590  0.6792E+01  0.4480E+03
     -0.477  0.0000E+00  0.4480E+03
     -0.364  0.0000E+00  0.4480E+03
     -0.251  0.0000E+00  0.4480E+03
     -0.139  0.0000E+00  0.4480E+03
     -0.026  0.0000E+00  0.4480E+03
      0.087  0.0000E+00  0.4480E+03
      0.200  0.0000E+00  0.4480E+03
      0.313  0.0000E+00  0.4480E+03
      0.426  0.0000E+00  0.4480E+03
      0.539  0.0000E+00  0.4480E+03
      0.652  0.0000E+00  0.4480E+03
      0.765  0.0000E+00  0.4480E+03
      0.878  0.0000E+00  0.4480E+03
      0.991  0.0000E+00  0.4480E+03
      1.104  0.0000E+00  0.4480E+03
      1.217  0.0000E+00  0.4480E+03
      1.330  0.0000E+00  0.4480E+03
      1.443  0.0000E+00  0.4480E+03
      1.556  0.0000E+00  0.4480E+03
      1.669  0.0000E+00  0.4480E+03
      1.782  0.0000E+00  0.4480E+03
      1.895  0.0000E+00  0.4480E+03
      2.008  0.0000E+00  0.4480E+03
      2.121  0.0000E+00  0.4480E+03
      2.234  0.0000E+00  0.4480E+03
      2.347  0.0000E+00  0.4480E+03
      2.460  0.0000E+00  0.4480E+03
      2.573  0.0000E+00  0.4480E+03
      2.686  0.0000E+00  0.4480E+03
      2.799  0.0000E+00  0.4480E+03
      2.912  0.0000E+00  0.4480E+03
      3.025  0.0000E+00  0.4480E+03
      3.138  0.0000E+00  0.4480E+03
      3.251  0.0000E+00  0.4480E+03
      3.364  0.0000E+00  0.4480E+03
      3.476  0.0000E+00  0.4480E+03
      3.589  0.0000E+00  0.4480E+03
      3.702  0.0000E+00  0.4480E+03
      3.815  0.0000E+00  0.4480E+03
      3.928  0.0000E+00  0.4480E+03
      4.041  0.0000E+00  0.4480E+03
      4.154  0.0000E+00  0.4480E+03
      4.267  0.2651E-06  0.4480E+03
      4.380  0.2208E+01  0.4482E+03
      4.493  0.5273E-02  0.4482E+03
      4.606  0.0000E+00  0.4482E+03
      4.719  0.0000E+00  0.4482E+03
      4.832  0.0000E+00  0.4482E+03
      4.945  0.3642E-06  0.4483E+03
      5.058  0.1320E+02  0.4497E+03
      5.171  0.8055E-01  0.4498E+03
      5.284  0.0000E+00  0.4498E+03
      5.397  0.0000E+00  0.4498E+03
      5.510  0.5213E+00  0.4498E+03
      5.623  0.2603E+02  0.4527E+03
      5.736  0.3767E-09  0.4528E+03
      5.849  0.1565E+02  0.4545E+03
      5.962  0.2052E+01  0.4548E+03
      6.075  0.0000E+00  0.4548E+03
      6.188  0.0000E+00  0.4548E+03
      6.301  0.1533E-04  0.4548E+03
      6.414  0.1339E+02  0.4563E+03
      6.527  0.8734E+01  0.4572E+03
      6.640  0.2729E+02  0.4603E+03
      6.753  0.7848E+02  0.4692E+03
      6.866  0.5705E+02  0.4756E+03
      6.979  0.1245E+02  0.4771E+03
      7.091  0.3983E+01  0.4775E+03
      7.204  0.2876E+01  0.4778E+03
      7.317  0.3784E+01  0.4783E+03
      7.430  0.7903E+02  0.4872E+03
      7.543  0.1625E+03  0.5055E+03
      7.656  0.1076E+02  0.5068E+03
      7.769  0.2655E+02  0.5097E+03
      7.882  0.1073E-01  0.5098E+03
      7.995  0.5310E+02  0.5157E+03
      8.108  0.1523E-03  0.5158E+03
      8.221  0.1333E+02  0.5173E+03
      8.334  0.9275E+02  0.5277E+03
      8.447  0.1411E+00  0.5278E+03
      8.560  0.1295E+03  0.5424E+03
      8.673  0.2988E+02  0.5458E+03
      8.786  0.2703E-08  0.5458E+03
      8.899  0.6432E+02  0.5530E+03
      9.012  0.1312E+03  0.5678E+03
      9.125  0.1470E+02  0.5695E+03
      9.238  0.1107E+02  0.5708E+03
      9.351  0.3319E+02  0.5745E+03
      9.464  0.2718E+00  0.5745E+03
      9.577  0.1301E+02  0.5760E+03
      9.690  0.0000E+00  0.5760E+03
      9.803  0.0000E+00  0.5760E+03
      9.916  0.0000E+00  0.5760E+03
     10.029  0.0000E+00  0.5760E+03
     10.142  0.0000E+00  0.5760E+03
     10.255  0.0000E+00  0.5760E+03
     10.368  0.0000E+00  0.5760E+03
     10.481  0.0000E+00  0.5760E+03
     10.594  0.0000E+00  0.5760E+03
     10.706  0.0000E+00  0.5760E+03
     10.819  0.0000E+00  0.5760E+03
     10.932  0.0000E+00  0.5760E+03
     11.045  0.0000E+00  0.5760E+03
