       N       E                     dE             d eps       ncg     rms          rms(c)
DAV:   1     0.432377745873E+04    0.43238E+04   -0.17163E+05  4608   0.125E+03
DAV:   2     0.364021269991E+03   -0.39598E+04   -0.37654E+04  5120   0.368E+02
DAV:   3    -0.206157153548E+03   -0.57018E+03   -0.56593E+03  5600   0.156E+02
DAV:   4    -0.228190362500E+03   -0.22033E+02   -0.21932E+02  5536   0.331E+01
DAV:   5    -0.229003241180E+03   -0.81288E+00   -0.81146E+00  5600   0.617E+00    0.106E+01
DAV:   6    -0.224139516287E+03    0.48637E+01   -0.94685E+00  5760   0.527E+00    0.777E+00
DAV:   7    -0.223777266615E+03    0.36225E+00   -0.20642E+00  6208   0.235E+00    0.533E+00
DAV:   8    -0.223902408736E+03   -0.12514E+00   -0.26361E-01  5344   0.122E+00    0.138E+00
DAV:   9    -0.223897043385E+03    0.53654E-02   -0.11512E-02  5760   0.258E-01    0.565E-01
DAV:  10    -0.223901489032E+03   -0.44456E-02   -0.17326E-02  5376   0.216E-01    0.278E-01
DAV:  11    -0.223900804955E+03    0.68408E-03   -0.15236E-03  5856   0.759E-02    0.767E-02
DAV:  12    -0.223900772106E+03    0.32849E-04   -0.14922E-04  5792   0.218E-02    0.914E-03
DAV:  13    -0.223900779187E+03   -0.70810E-05   -0.10497E-05  5376   0.589E-03    0.255E-03
DAV:  14    -0.223900779009E+03    0.17804E-06   -0.10112E-06  6336   0.222E-03    0.843E-03
DAV:  15    -0.223900780289E+03   -0.12792E-05   -0.65741E-07  4960   0.130E-03    0.189E-03
DAV:  16    -0.223900780643E+03   -0.35480E-06   -0.48726E-08  5088   0.535E-04    0.290E-04
DAV:  17    -0.223900780600E+03    0.43343E-07   -0.48245E-09  3488   0.444E-04    0.146E-04
DAV:  18    -0.223900780617E+03   -0.16604E-07   -0.36003E-09  3168   0.239E-04    0.209E-04
DAV:  19    -0.223900780619E+03   -0.27503E-08   -0.22393E-09  3072   0.174E-04
   1 F= -.22390078E+03 E0= -.22390078E+03  d E =-.155257E-13
