 vasp.6.3.2 27Jun22 (build Oct 14 2022 12:13:54) complex                        
  
 executed on             LinuxIFC date 2025.08.28  21:57:06
 running on   32 total cores
 distrk:  each k-point on   32 cores,    1 groups
 distr:  one band on NCORE=   1 cores,   32 groups


--------------------------------------------------------------------------------------------------------


 INCAR:
   ENCUT = 341.213600
   SIGMA = 0.020000
   EDIFF = 1.00e-08
   GGA = PS
   PREC = Accurate
   IALGO = 38
   IBRION = -1
   ISMEAR = 0
   NELMIN = 5
   ADDGRID = .TRUE.
   LCHARG = .FALSE.
   LWAVE = .FALSE.
   LREAL = .FALSE.

 POTCAR:    PAW_PBE Na_pv 19Sep2006               
 POTCAR:    PAW_PBE Cl 06Sep2000                  
 -----------------------------------------------------------------------------
|                                                                             |
|           W    W    AA    RRRRR   N    N  II  N    N   GGGG   !!!           |
|           W    W   A  A   R    R  NN   N  II  NN   N  G    G  !!!           |
|           W    W  A    A  R    R  N N  N  II  N N  N  G       !!!           |
|           W WW W  AAAAAA  RRRRR   N  N N  II  N  N N  G  GGG   !            |
|           WW  WW  A    A  R   R   N   NN  II  N   NN  G    G                |
|           W    W  A    A  R    R  N    N  II  N    N   GGGG   !!!           |
|                                                                             |
|     For optimal performance we recommend to set                             |
|       NCORE = 2 up to number-of-cores-per-socket                            |
|     NCORE specifies how many cores store one orbital (NPAR=cpu/NCORE).      |
|     This setting can greatly improve the performance of VASP for DFT.       |
|     The default, NCORE=1 might be grossly inefficient on modern             |
|     multi-core architectures or massively parallel machines. Do your        |
|     own testing! More info at https://www.vasp.at/wiki/index.php/NCORE      |
|     Unfortunately you need to use the default for GW and RPA                |
|     calculations (for HF NCORE is supported but not extensively tested      |
|     yet).                                                                   |
|                                                                             |
 -----------------------------------------------------------------------------

 POTCAR:    PAW_PBE Na_pv 19Sep2006               
   SHA256 =  6a2f546d9e11350984debacf3dc457d8cffc0868e817d445faca461816a32b94 Na_pv/POTCAR          
   COPYR  = (c) Copyright 19Sep2006 Georg Kresse                                                    
   COPYR  = This file is part of the software VASP. Any use, copying, and all other rights are regul
   COPYR  = If you do not have a valid VASP license, you may not use, copy or distribute this file. 
   VRHFIN =Na: p6s1                                                                                 
   LEXCH  = PE                                                                                      
   EATOM  =   766.0439 eV,   56.3026 Ry                                                             
                                                                                                    
   TITEL  = PAW_PBE Na_pv 19Sep2006                                                                 
   LULTRA =        F    use ultrasoft PP ?                                                          
   IUNSCR =        1    unscreen: 0-lin 1-nonlin 2-no                                               
   RPACOR =    1.800    partial core radius                                                         
   POMASS =   22.990; ZVAL   =    7.000    mass and valenz                                          
   RCORE  =    2.200    outmost cutoff radius                                                       
   RWIGS  =    2.200; RWIGS  =    1.164    wigner-seitz radius (au A)                               
   ENMAX  =  259.561; ENMIN  =  194.671 eV                                                          
   ICORE  =        2    local potential                                                             
   LCOR   =        T    correct aug charges                                                         
   LPAW   =        T    paw PP                                                                      
   EAUG   =  368.056                                                                                
   DEXC   =    0.000                                                                                
   RMAX   =    2.245    core radius for proj-oper                                                   
   RAUG   =    1.300    factor for augmentation sphere                                              
   RDEP   =    2.259    radius for radial grids                                                     
   RDEPT  =    1.738    core radius for aug-charge                                                  
                                                                                                    
   Atomic configuration                                                                             
    5 entries                                                                                       
     n  l   j            E        occ.                                                              
     1  0  0.50     -1033.6933   2.0000                                                             
     2  0  0.50       -56.7526   2.0000                                                             
     2  1  1.50       -28.6721   6.0000                                                             
     3  0  0.50        -2.7440   1.0000                                                             
     3  2  1.50        -1.3606   0.0000                                                             
   Description                                                                                      
     l       E           TYP  RCUT    TYP  RCUT                                                     
     1    -28.6720912     23  2.000                                                                 
     1      6.8029130     23  2.000                                                                 
     0     -2.7439560     23  2.200                                                                 
     0     34.0145650     23  2.200                                                                 
     2     -1.3605826     23  2.200                                                                 
  local pseudopotential read in
  partial core-charges read in
  partial kinetic energy density read in
  atomic valenz-charges read in
  non local Contribution for L=           1  read in
    real space projection operators read in
  non local Contribution for L=           1  read in
    real space projection operators read in
  non local Contribution for L=           0  read in
    real space projection operators read in
  non local Contribution for L=           0  read in
    real space projection operators read in
    PAW grid and wavefunctions read in
 
   number of l-projection  operators is LMAX  =           4
   number of lm-projection operators is LMMAX =           8
 
 POTCAR:    PAW_PBE Cl 06Sep2000                  
   SHA256 =  9f1b6e6ed4247ac726a768b330d26d7667cc3c95a39ff49c1d064c2d9dcce931 Cl/POTCAR             
   COPYR  = (c) Copyright 06Sep2000 Georg Kresse                                                    
   COPYR  = This file is part of the software VASP. Any use, copying, and all other rights are regul
   COPYR  = If you do not have a valid VASP license, you may not use, copy or distribute this file. 
   VRHFIN =Cl: s2p5                                                                                 
   LEXCH  = PE                                                                                      
   EATOM  =   409.7259 eV,   30.1140 Ry                                                             
                                                                                                    
   TITEL  = PAW_PBE Cl 06Sep2000                                                                    
   LULTRA =        F    use ultrasoft PP ?                                                          
   IUNSCR =        1    unscreen: 0-lin 1-nonlin 2-no                                               
   RPACOR =    1.500    partial core radius                                                         
   POMASS =   35.453; ZVAL   =    7.000    mass and valenz                                          
   RCORE  =    1.900    outmost cutoff radius                                                       
   RWIGS  =    2.100; RWIGS  =    1.111    wigner-seitz radius (au A)                               
   ENMAX  =  262.472; ENMIN  =  196.854 eV                                                          
   ICORE  =        2    local potential                                                             
   LCOR   =        T    correct aug charges                                                         
   LPAW   =        T    paw PP                                                                      
   EAUG   =  356.192                                                                                
   DEXC   =    0.000                                                                                
   RMAX   =    1.945    core radius for proj-oper                                                   
   RAUG   =    1.300    factor for augmentation sphere                                              
   RDEP   =    2.020    radius for radial grids                                                     
   RDEPT  =    1.678    core radius for aug-charge                                                  
                                                                                                    
   Atomic configuration                                                                             
    6 entries                                                                                       
     n  l   j            E        occ.                                                              
     1  0  0.50     -2751.1850   2.0000                                                             
     2  0  0.50      -252.6861   2.0000                                                             
     2  1  1.50      -191.6157   6.0000                                                             
     3  0  0.50       -20.6916   2.0000                                                             
     3  1  0.50        -8.5949   5.0000                                                             
     3  2  1.50        -8.1635   0.0000                                                             
   Description                                                                                      
     l       E           TYP  RCUT    TYP  RCUT                                                     
     0    -20.6915656     23  1.900                                                                 
     0    -22.0521482     23  1.900                                                                 
     1     -8.5948577     23  1.900                                                                 
     1     -5.3847331     23  1.900                                                                 
     2     -8.1634956     23  1.900                                                                 
  local pseudopotential read in
  partial core-charges read in
  partial kinetic energy density read in
  atomic valenz-charges read in
  non local Contribution for L=           0  read in
    real space projection operators read in
  non local Contribution for L=           0  read in
    real space projection operators read in
  non local Contribution for L=           1  read in
    real space projection operators read in
  non local Contribution for L=           1  read in
    real space projection operators read in
    PAW grid and wavefunctions read in
 
   number of l-projection  operators is LMAX  =           4
   number of lm-projection operators is LMMAX =           8
 
 -----------------------------------------------------------------------------
|                                                                             |
|               ----> ADVICE to this user running VASP <----                  |
|                                                                             |
|     You have a (more or less) 'large supercell' and for larger cells it     |
|     might be more efficient to use real-space projection operators.         |
|     Therefore, try LREAL= Auto in the INCAR file.                           |
|     Mind: For very accurate calculation, you might also keep the            |
|     reciprocal projection scheme (i.e. LREAL=.FALSE.).                      |
|                                                                             |
 -----------------------------------------------------------------------------

 -----------------------------------------------------------------------------
|                                                                             |
|               ----> ADVICE to this user running VASP <----                  |
|                                                                             |
|     You enforced a specific xc type in the INCAR file but a different       |
|     type was found in the POTCAR file.                                      |
|     I HOPE YOU KNOW WHAT YOU ARE DOING!                                     |
|                                                                             |
 -----------------------------------------------------------------------------

  PAW_PBE Na_pv 19Sep2006               :
 energy of atom  1       EATOM= -766.0439
 kinetic energy error for atom=    0.0189 (will be added to EATOM!!)
  PAW_PBE Cl 06Sep2000                  :
 energy of atom  2       EATOM= -409.7259
 kinetic energy error for atom=    0.0106 (will be added to EATOM!!)
 
 
 POSCAR: Na Cl
  positions in cartesian coordinates
  No initial velocities read in
 exchange correlation table for  LEXCH =       14
   RHO(1)=    0.500       N(1)  =     2000
   RHO(2)=  100.500       N(2)  =     4000
 


--------------------------------------------------------------------------------------------------------


 ion  position               nearest neighbor table
   1  0.997  0.000  0.000-
   2  0.253  0.250  0.000-
   3  0.250  0.000  0.250-
   4  0.000  0.250  0.250-
   5  0.000  0.000  0.500-
   6  0.250  0.250  0.500-
   7  0.250  0.000  0.750-
   8  0.000  0.250  0.750-
   9  0.000  0.500  0.000-
  10  0.250  0.750  0.000-
  11  0.250  0.500  0.250-
  12  0.000  0.750  0.250-
  13  0.000  0.500  0.500-
  14  0.250  0.750  0.500-
  15  0.250  0.500  0.750-
  16  0.000  0.750  0.750-
  17  0.500  0.000  0.000-
  18  0.750  0.250  0.000-
  19  0.750  0.000  0.250-
  20  0.500  0.250  0.250-
  21  0.500  0.000  0.500-
  22  0.750  0.250  0.500-
  23  0.750  0.000  0.750-
  24  0.500  0.250  0.750-
  25  0.500  0.500  0.000-
  26  0.750  0.750  0.000-
  27  0.750  0.500  0.250-
  28  0.500  0.750  0.250-
  29  0.500  0.500  0.500-
  30  0.750  0.750  0.500-
  31  0.750  0.500  0.750-
  32  0.500  0.750  0.750-
  33  0.250  0.250  0.250-
  34  0.000  0.000  0.250-
  35  0.000  0.250  0.000-
  36  0.250  0.000  0.000-
  37  0.250  0.250  0.750-
  38  0.000  0.000  0.750-
  39  0.000  0.250  0.500-
  40  0.250  0.000  0.500-
  41  0.250  0.750  0.250-
  42  0.000  0.500  0.250-
  43  0.000  0.750  0.000-
  44  0.250  0.500  0.000-
  45  0.250  0.750  0.750-
  46  0.000  0.500  0.750-
  47  0.000  0.750  0.500-
  48  0.250  0.500  0.500-
  49  0.750  0.250  0.250-
  50  0.500  0.000  0.250-
  51  0.500  0.250  0.000-
  52  0.750  0.000  0.000-
  53  0.750  0.250  0.750-
  54  0.500  0.000  0.750-
  55  0.500  0.250  0.500-
  56  0.750  0.000  0.500-
  57  0.750  0.750  0.250-
  58  0.500  0.500  0.250-
  59  0.500  0.750  0.000-
  60  0.750  0.500  0.000-
  61  0.750  0.750  0.750-
  62  0.500  0.500  0.750-
  63  0.500  0.750  0.500-
  64  0.750  0.500  0.500-
 
  LATTYP: Found a simple cubic cell.
 ALAT       =    11.2040023600
  
  Lattice vectors:
  
 A1 = (  11.2040023600,   0.0000000000,   0.0000000000)
 A2 = (   0.0000000000,  11.2040023600,   0.0000000000)
 A3 = (   0.0000000000,   0.0000000000,  11.2040023600)


Analysis of symmetry for initial positions (statically):
=====================================================================
 Subroutine PRICEL returns:
 Original cell was already a primitive cell.
 

 Routine SETGRP: Setting up the symmetry group for a 
 simple cubic supercell.


 Subroutine GETGRP returns: Found  4 space group operations
 (whereof  2 operations were pure point group operations)
 out of a pool of 48 trial point group operations.


The static configuration has the point symmetry C_1h.
 The point group associated with its full space group is C_2h.


Analysis of symmetry for dynamics (positions and initial velocities):
=====================================================================
 Subroutine PRICEL returns:
 Original cell was already a primitive cell.
 

 Routine SETGRP: Setting up the symmetry group for a 
 simple cubic supercell.


 Subroutine GETGRP returns: Found  4 space group operations
 (whereof  2 operations were pure point group operations)
 out of a pool of 48 trial point group operations.


The dynamic configuration has the point symmetry C_1h.
 The point group associated with its full space group is C_2h.


 Subroutine INISYM returns: Found  4 space group operations
 (whereof  2 operations are pure point group operations),
 and found     1 'primitive' translations


----------------------------------------------------------------------------------------

                                     Primitive cell                                     

  volume of cell :    1406.4347

  direct lattice vectors                    reciprocal lattice vectors
    11.204002360  0.000000000  0.000000000     0.089253819  0.000000000  0.000000000
     0.000000000 11.204002360  0.000000000     0.000000000  0.089253819  0.000000000
     0.000000000  0.000000000 11.204002360     0.000000000  0.000000000  0.089253819

  length of vectors
    11.204002360 11.204002360 11.204002360     0.089253819  0.089253819  0.089253819

  position of ions in fractional coordinates (direct lattice)
     0.997322385  0.000000000  0.000000000
     0.252677615  0.250000000  0.000000000
     0.250000000  0.000000000  0.250000000
     0.000000000  0.250000000  0.250000000
     0.000000000  0.000000000  0.500000000
     0.250000000  0.250000000  0.500000000
     0.250000000  0.000000000  0.750000000
     0.000000000  0.250000000  0.750000000
     0.000000000  0.500000000  0.000000000
     0.250000000  0.750000000  0.000000000
     0.250000000  0.500000000  0.250000000
     0.000000000  0.750000000  0.250000000
     0.000000000  0.500000000  0.500000000
     0.250000000  0.750000000  0.500000000
     0.250000000  0.500000000  0.750000000
     0.000000000  0.750000000  0.750000000
     0.500000000  0.000000000  0.000000000
     0.750000000  0.250000000  0.000000000
     0.750000000  0.000000000  0.250000000
     0.500000000  0.250000000  0.250000000
     0.500000000  0.000000000  0.500000000
     0.750000000  0.250000000  0.500000000
     0.750000000  0.000000000  0.750000000
     0.500000000  0.250000000  0.750000000
     0.500000000  0.500000000  0.000000000
     0.750000000  0.750000000  0.000000000
     0.750000000  0.500000000  0.250000000
     0.500000000  0.750000000  0.250000000
     0.500000000  0.500000000  0.500000000
     0.750000000  0.750000000  0.500000000
     0.750000000  0.500000000  0.750000000
     0.500000000  0.750000000  0.750000000
     0.250000000  0.250000000  0.250000000
     0.000000000  0.000000000  0.250000000
     0.000000000  0.250000000  0.000000000
     0.250000000  0.000000000  0.000000000
     0.250000000  0.250000000  0.750000000
     0.000000000  0.000000000  0.750000000
     0.000000000  0.250000000  0.500000000
     0.250000000  0.000000000  0.500000000
     0.250000000  0.750000000  0.250000000
     0.000000000  0.500000000  0.250000000
     0.000000000  0.750000000  0.000000000
     0.250000000  0.500000000  0.000000000
     0.250000000  0.750000000  0.750000000
     0.000000000  0.500000000  0.750000000
     0.000000000  0.750000000  0.500000000
     0.250000000  0.500000000  0.500000000
     0.750000000  0.250000000  0.250000000
     0.500000000  0.000000000  0.250000000
     0.500000000  0.250000000  0.000000000
     0.750000000  0.000000000  0.000000000
     0.750000000  0.250000000  0.750000000
     0.500000000  0.000000000  0.750000000
     0.500000000  0.250000000  0.500000000
     0.750000000  0.000000000  0.500000000
     0.750000000  0.750000000  0.250000000
     0.500000000  0.500000000  0.250000000
     0.500000000  0.750000000  0.000000000
     0.750000000  0.500000000  0.000000000
     0.750000000  0.750000000  0.750000000
     0.500000000  0.500000000  0.750000000
     0.500000000  0.750000000  0.500000000
     0.750000000  0.500000000  0.500000000

  ion indices of the primitive-cell ions
   primitive index   ion index
                 1           1
                 2           2
                 3           3
                 4           4
                 5           5
                 6           6
                 7           7
                 8           8
                 9           9
                10          10
                11          11
                12          12
                13          13
                14          14
                15          15
                16          16
                17          17
                18          18
                19          19
                20          20
                21          21
                22          22
                23          23
                24          24
                25          25
                26          26
                27          27
                28          28
                29          29
                30          30
                31          31
                32          32
                33          33
                34          34
                35          35
                36          36
                37          37
                38          38
                39          39
                40          40
                41          41
                42          42
                43          43
                44          44
                45          45
                46          46
                47          47
                48          48
                49          49
                50          50
                51          51
                52          52
                53          53
                54          54
                55          55
                56          56
                57          57
                58          58
                59          59
                60          60
                61          61
                62          62
                63          63
                64          64

----------------------------------------------------------------------------------------

 
 
 KPOINTS: KPOINTS created by Atomic Simulation Env

Automatic generation of k-mesh.
 Grid dimensions read from file:
 generate k-points for:    2    2    2

 Generating k-lattice:

  Cartesian coordinates                     Fractional coordinates (reciprocal lattice)
     0.044626910  0.000000000  0.000000000     0.500000000  0.000000000  0.000000000
     0.000000000  0.044626910  0.000000000     0.000000000  0.500000000  0.000000000
     0.000000000  0.000000000  0.044626910     0.000000000  0.000000000  0.500000000

  Length of vectors
     0.044626910  0.044626910  0.044626910

  Shift w.r.t. Gamma in fractional coordinates (k-lattice)
     0.000000000  0.000000000  0.000000000

 
 Subroutine IBZKPT returns following result:
 ===========================================
 
 Found      8 irreducible k-points:
 
 Following reciprocal coordinates:
            Coordinates               Weight
  0.000000  0.000000  0.000000      1.000000
  0.500000  0.000000  0.000000      1.000000
  0.000000  0.500000  0.000000      1.000000
  0.000000  0.000000  0.500000      1.000000
  0.500000  0.500000  0.000000      1.000000
  0.000000  0.500000  0.500000      1.000000
  0.500000  0.000000  0.500000      1.000000
  0.500000  0.500000  0.500000      1.000000
 
 Following cartesian coordinates:
            Coordinates               Weight
  0.000000  0.000000  0.000000      1.000000
  0.044627  0.000000  0.000000      1.000000
  0.000000  0.044627  0.000000      1.000000
  0.000000  0.000000  0.044627      1.000000
  0.044627  0.044627  0.000000      1.000000
  0.000000  0.044627  0.044627      1.000000
  0.044627  0.000000  0.044627      1.000000
  0.044627  0.044627  0.044627      1.000000
 


--------------------------------------------------------------------------------------------------------




 Dimension of arrays:
   k-points           NKPTS =      8   k-points in BZ     NKDIM =      8   number of bands    NBANDS=    288
   number of dos      NEDOS =    301   number of ions     NIONS =     64
   non local maximal  LDIM  =      4   non local SUM 2l+1 LMDIM =      8
   total plane-waves  NPLWV = 343000
   max r-space proj   IRMAX =      1   max aug-charges    IRDMAX=  56280
   dimension x,y,z NGX =    70 NGY =   70 NGZ =   70
   dimension x,y,z NGXF=   140 NGYF=  140 NGZF=  140
   support grid    NGXF=   280 NGYF=  280 NGZF=  280
   ions per type =              32  32
   NGX,Y,Z   is equivalent  to a cutoff of  10.39, 10.39, 10.39 a.u.
   NGXF,Y,Z  is equivalent  to a cutoff of  20.77, 20.77, 20.77 a.u.

 SYSTEM =  unknown system                          
 POSCAR =  Na Cl                                   

 Startparameter for this run:
   NWRITE =      2    write-flag & timer
   PREC   = accura    normal or accurate (medium, high low for compatibility)
   ISTART =      0    job   : 0-new  1-cont  2-samecut
   ICHARG =      2    charge: 1-file 2-atom 10-const
   ISPIN  =      1    spin polarized calculation?
   LNONCOLLINEAR =      F non collinear calculations
   LSORBIT =      F    spin-orbit coupling
   INIWAV =      1    electr: 0-lowe 1-rand  2-diag
   LASPH  =      F    aspherical Exc in radial PAW
 Electronic Relaxation 1
   ENCUT  =  341.2 eV  25.08 Ry    5.01 a.u.  16.87 16.87 16.87*2*pi/ulx,y,z
   ENINI  =  341.2     initial cutoff
   ENAUG  =  368.1 eV  augmentation charge cutoff
   NELM   =     60;   NELMIN=  5; NELMDL= -5     # of ELM steps 
   EDIFF  = 0.1E-07   stopping-criterion for ELM
   LREAL  =      F    real-space projection
   NLSPLINE    = F    spline interpolate recip. space projectors
   LCOMPAT=      F    compatible to vasp.4.4
   GGA_COMPAT  = T    GGA compatible to vasp.4.4-vasp.4.6
   LMAXPAW     = -100 max onsite density
   LMAXMIX     =    2 max onsite mixed and CHGCAR
   VOSKOWN=      0    Vosko Wilk Nusair interpolation
   ROPT   =    0.00000   0.00000
 Ionic relaxation
   EDIFFG = 0.1E-06   stopping-criterion for IOM
   NSW    =      0    number of steps for IOM
   NBLOCK =      1;   KBLOCK =      1    inner block; outer block 
   IBRION =     -1    ionic relax: 0-MD 1-quasi-New 2-CG
   NFREE  =      0    steps in history (QN), initial steepest desc. (CG)
   ISIF   =      2    stress and relaxation
   IWAVPR =     10    prediction:  0-non 1-charg 2-wave 3-comb
   ISYM   =      2    0-nonsym 1-usesym 2-fastsym
   LCORR  =      T    Harris-Foulkes like correction to forces

   POTIM  = 0.5000    time-step for ionic-motion
   TEIN   =    0.0    initial temperature
   TEBEG  =    0.0;   TEEND  =   0.0 temperature during run
   SMASS  =  -3.00    Nose mass-parameter (am)
   estimated Nose-frequenzy (Omega)   =  0.10E-29 period in steps = 0.13E+47 mass=  -0.287E-26a.u.
   SCALEE = 1.0000    scale energy and forces
   NPACO  =    256;   APACO  = 10.0  distance and # of slots for P.C.
   PSTRESS=    0.0 pullay stress

  Mass of Ions in am
   POMASS =  22.99 35.45
  Ionic Valenz
   ZVAL   =   7.00  7.00
  Atomic Wigner-Seitz radii
   RWIGS  =  -1.00 -1.00
  virtual crystal weights 
   VCA    =   1.00  1.00
   NELECT =     448.0000    total number of electrons
   NUPDOWN=      -1.0000    fix difference up-down

 DOS related values:
   EMIN   =  10.00;   EMAX   =-10.00  energy-range for DOS
   EFERMI =   0.00
   ISMEAR =     0;   SIGMA  =   0.02  broadening in eV -4-tet -1-fermi 0-gaus

 Electronic relaxation 2 (details)
   IALGO  =     38    algorithm
   LDIAG  =      T    sub-space diagonalisation (order eigenvalues)
   LSUBROT=      F    optimize rotation matrix (better conditioning)
   TURBO    =      0    0=normal 1=particle mesh
   IRESTART =      0    0=no restart 2=restart with 2 vectors
   NREBOOT  =      0    no. of reboots
   NMIN     =      0    reboot dimension
   EREF     =   0.00    reference energy to select bands
   IMIX   =      4    mixing-type and parameters
     AMIX     =   0.40;   BMIX     =  1.00
     AMIX_MAG =   1.60;   BMIX_MAG =  1.00
     AMIN     =   0.10
     WC   =   100.;   INIMIX=   1;  MIXPRE=   1;  MAXMIX= -45

 Intra band minimization:
   WEIMIN = 0.0000     energy-eigenvalue tresh-hold
   EBREAK =  0.87E-11  absolut break condition
   DEPER  =   0.30     relativ break condition  

   TIME   =   0.40     timestep for ELM

  volume/ion in A,a.u.               =      21.98       148.30
  Fermi-wavevector in a.u.,A,eV,Ry     =   1.118049  2.112807 17.007750  1.250034
  Thomas-Fermi vector in A             =   2.254677
 
 Write flags
   LWAVE        =      F    write WAVECAR
   LDOWNSAMPLE  =      F    k-point downsampling of WAVECAR
   LCHARG       =      F    write CHGCAR
   LVTOT        =      F    write LOCPOT, total local potential
   LVHAR        =      F    write LOCPOT, Hartree potential only
   LELF         =      F    write electronic localiz. function (ELF)
   LORBIT       =      0    0 simple, 1 ext, 2 COOP (PROOUT), +10 PAW based schemes


 Dipole corrections
   LMONO  =      F    monopole corrections only (constant potential shift)
   LDIPOL =      F    correct potential (dipole corrections)
   IDIPOL =      0    1-x, 2-y, 3-z, 4-all directions 
   EPSILON=  1.0000000 bulk dielectric constant

 Exchange correlation treatment:
   GGA     =    PS    GGA type
   LEXCH   =    14    internal setting for exchange type
   LIBXC   =     F    Libxc                    
   VOSKOWN =     0    Vosko Wilk Nusair interpolation
   LHFCALC =     F    Hartree Fock is set to
   LHFONE  =     F    Hartree Fock one center treatment
   AEXX    =    0.0000 exact exchange contribution

 Linear response parameters
   LEPSILON=     F    determine dielectric tensor
   LRPA    =     F    only Hartree local field effects (RPA)
   LNABLA  =     F    use nabla operator in PAW spheres
   LVEL    =     F    velocity operator in full k-point grid
   CSHIFT  =0.1000    complex shift for real part using Kramers Kronig
   OMEGAMAX=  -1.0    maximum frequency
   DEG_THRESHOLD= 0.2000000E-02 threshold for treating states as degnerate
   RTIME   =   -0.100 relaxation time in fs
  (WPLASMAI=    0.000 imaginary part of plasma frequency in eV, 0.658/RTIME)
   DFIELD  = 0.0000000 0.0000000 0.0000000 field for delta impulse in time
 
  Optional k-point grid parameters
   LKPOINTS_OPT  =     F    use optional k-point grid
   KPOINTS_OPT_MODE=     1    mode for optional k-point grid
 
 Orbital magnetization related:
   ORBITALMAG=     F  switch on orbital magnetization
   LCHIMAG   =     F  perturbation theory with respect to B field
   DQ        =  0.001000  dq finite difference perturbation B field
   LLRAUG    =     F  two centre corrections for induced B field



--------------------------------------------------------------------------------------------------------


 Static calculation
 charge density and potential will be updated during run
 non-spin polarized calculation
 Variant of blocked Davidson
 Davidson routine will perform the subspace rotation
 perform sub-space diagonalisation
    after iterative eigenvector-optimisation
 modified Broyden-mixing scheme, WC =      100.0
 initial mixing is a Kerker type mixing with AMIX =  0.4000 and BMIX =      1.0000
 Hartree-type preconditioning will be used
 using additional bands           64
 reciprocal scheme for non local part
 use partial core corrections
 calculate Harris-corrections to forces 
   (improved forces if not selfconsistent)
 use gradient corrections 
 use of overlap-Matrix (Vanderbilt PP)
 Gauss-broadening in eV      SIGMA  =   0.02


--------------------------------------------------------------------------------------------------------


  energy-cutoff  :      341.21
  volume of cell :     1406.43
      direct lattice vectors                 reciprocal lattice vectors
    11.204002360  0.000000000  0.000000000     0.089253819  0.000000000  0.000000000
     0.000000000 11.204002360  0.000000000     0.000000000  0.089253819  0.000000000
     0.000000000  0.000000000 11.204002360     0.000000000  0.000000000  0.089253819

  length of vectors
    11.204002360 11.204002360 11.204002360     0.089253819  0.089253819  0.089253819


 
 k-points in units of 2pi/SCALE and weight: KPOINTS created by Atomic Simulation Env
   0.00000000  0.00000000  0.00000000       0.125
   0.04462691  0.00000000  0.00000000       0.125
   0.00000000  0.04462691  0.00000000       0.125
   0.00000000  0.00000000  0.04462691       0.125
   0.04462691  0.04462691  0.00000000       0.125
   0.00000000  0.04462691  0.04462691       0.125
   0.04462691  0.00000000  0.04462691       0.125
   0.04462691  0.04462691  0.04462691       0.125
 
 k-points in reciprocal lattice and weights: KPOINTS created by Atomic Simulation Env
   0.00000000  0.00000000  0.00000000       0.125
   0.50000000  0.00000000  0.00000000       0.125
   0.00000000  0.50000000  0.00000000       0.125
   0.00000000  0.00000000  0.50000000       0.125
   0.50000000  0.50000000  0.00000000       0.125
   0.00000000  0.50000000  0.50000000       0.125
   0.50000000  0.00000000  0.50000000       0.125
   0.50000000  0.50000000  0.50000000       0.125
 
 position of ions in fractional coordinates (direct lattice) 
   0.99732239  0.00000000  0.00000000
   0.25267761  0.25000000  0.00000000
   0.25000000  0.00000000  0.25000000
   0.00000000  0.25000000  0.25000000
   0.00000000  0.00000000  0.50000000
   0.25000000  0.25000000  0.50000000
   0.25000000  0.00000000  0.75000000
   0.00000000  0.25000000  0.75000000
   0.00000000  0.50000000  0.00000000
   0.25000000  0.75000000  0.00000000
   0.25000000  0.50000000  0.25000000
   0.00000000  0.75000000  0.25000000
   0.00000000  0.50000000  0.50000000
   0.25000000  0.75000000  0.50000000
   0.25000000  0.50000000  0.75000000
   0.00000000  0.75000000  0.75000000
   0.50000000  0.00000000  0.00000000
   0.75000000  0.25000000  0.00000000
   0.75000000  0.00000000  0.25000000
   0.50000000  0.25000000  0.25000000
   0.50000000  0.00000000  0.50000000
   0.75000000  0.25000000  0.50000000
   0.75000000  0.00000000  0.75000000
   0.50000000  0.25000000  0.75000000
   0.50000000  0.50000000  0.00000000
   0.75000000  0.75000000  0.00000000
   0.75000000  0.50000000  0.25000000
   0.50000000  0.75000000  0.25000000
   0.50000000  0.50000000  0.50000000
   0.75000000  0.75000000  0.50000000
   0.75000000  0.50000000  0.75000000
   0.50000000  0.75000000  0.75000000
   0.25000000  0.25000000  0.25000000
   0.00000000  0.00000000  0.25000000
   0.00000000  0.25000000  0.00000000
   0.25000000  0.00000000  0.00000000
   0.25000000  0.25000000  0.75000000
   0.00000000  0.00000000  0.75000000
   0.00000000  0.25000000  0.50000000
   0.25000000  0.00000000  0.50000000
   0.25000000  0.75000000  0.25000000
   0.00000000  0.50000000  0.25000000
   0.00000000  0.75000000  0.00000000
   0.25000000  0.50000000  0.00000000
   0.25000000  0.75000000  0.75000000
   0.00000000  0.50000000  0.75000000
   0.00000000  0.75000000  0.50000000
   0.25000000  0.50000000  0.50000000
   0.75000000  0.25000000  0.25000000
   0.50000000  0.00000000  0.25000000
   0.50000000  0.25000000  0.00000000
   0.75000000  0.00000000  0.00000000
   0.75000000  0.25000000  0.75000000
   0.50000000  0.00000000  0.75000000
   0.50000000  0.25000000  0.50000000
   0.75000000  0.00000000  0.50000000
   0.75000000  0.75000000  0.25000000
   0.50000000  0.50000000  0.25000000
   0.50000000  0.75000000  0.00000000
   0.75000000  0.50000000  0.00000000
   0.75000000  0.75000000  0.75000000
   0.50000000  0.50000000  0.75000000
   0.50000000  0.75000000  0.50000000
   0.75000000  0.50000000  0.50000000
 
 position of ions in cartesian coordinates  (Angst):
  11.17400236  0.00000000  0.00000000
   2.83100059  2.80100059  0.00000000
   2.80100059  0.00000000  2.80100059
   0.00000000  2.80100059  2.80100059
   0.00000000  0.00000000  5.60200118
   2.80100059  2.80100059  5.60200118
   2.80100059  0.00000000  8.40300177
   0.00000000  2.80100059  8.40300177
   0.00000000  5.60200118  0.00000000
   2.80100059  8.40300177  0.00000000
   2.80100059  5.60200118  2.80100059
   0.00000000  8.40300177  2.80100059
   0.00000000  5.60200118  5.60200118
   2.80100059  8.40300177  5.60200118
   2.80100059  5.60200118  8.40300177
   0.00000000  8.40300177  8.40300177
   5.60200118  0.00000000  0.00000000
   8.40300177  2.80100059  0.00000000
   8.40300177  0.00000000  2.80100059
   5.60200118  2.80100059  2.80100059
   5.60200118  0.00000000  5.60200118
   8.40300177  2.80100059  5.60200118
   8.40300177  0.00000000  8.40300177
   5.60200118  2.80100059  8.40300177
   5.60200118  5.60200118  0.00000000
   8.40300177  8.40300177  0.00000000
   8.40300177  5.60200118  2.80100059
   5.60200118  8.40300177  2.80100059
   5.60200118  5.60200118  5.60200118
   8.40300177  8.40300177  5.60200118
   8.40300177  5.60200118  8.40300177
   5.60200118  8.40300177  8.40300177
   2.80100059  2.80100059  2.80100059
   0.00000000  0.00000000  2.80100059
   0.00000000  2.80100059  0.00000000
   2.80100059  0.00000000  0.00000000
   2.80100059  2.80100059  8.40300177
   0.00000000  0.00000000  8.40300177
   0.00000000  2.80100059  5.60200118
   2.80100059  0.00000000  5.60200118
   2.80100059  8.40300177  2.80100059
   0.00000000  5.60200118  2.80100059
   0.00000000  8.40300177  0.00000000
   2.80100059  5.60200118  0.00000000
   2.80100059  8.40300177  8.40300177
   0.00000000  5.60200118  8.40300177
   0.00000000  8.40300177  5.60200118
   2.80100059  5.60200118  5.60200118
   8.40300177  2.80100059  2.80100059
   5.60200118  0.00000000  2.80100059
   5.60200118  2.80100059  0.00000000
   8.40300177  0.00000000  0.00000000
   8.40300177  2.80100059  8.40300177
   5.60200118  0.00000000  8.40300177
   5.60200118  2.80100059  5.60200118
   8.40300177  0.00000000  5.60200118
   8.40300177  8.40300177  2.80100059
   5.60200118  5.60200118  2.80100059
   5.60200118  8.40300177  0.00000000
   8.40300177  5.60200118  0.00000000
   8.40300177  8.40300177  8.40300177
   5.60200118  5.60200118  8.40300177
   5.60200118  8.40300177  5.60200118
   8.40300177  5.60200118  5.60200118
 


--------------------------------------------------------------------------------------------------------


 k-point   1 :   0.0000 0.0000 0.0000  plane waves:   20005
 k-point   2 :   0.5000 0.0000 0.0000  plane waves:   20138
 k-point   3 :   0.0000 0.5000 0.0000  plane waves:   20138
 k-point   4 :   0.0000 0.0000 0.5000  plane waves:   20138
 k-point   5 :   0.5000 0.5000 0.0000  plane waves:   20160
 k-point   6 :   0.0000 0.5000 0.5000  plane waves:   20160
 k-point   7 :   0.5000 0.0000 0.5000  plane waves:   20160
 k-point   8 :   0.5000 0.5000 0.5000  plane waves:   20336

 maximum and minimum number of plane-waves per node :     20336    20005

 maximum number of plane-waves:     20336
 maximum index in each direction: 
   IXMAX=   16   IYMAX=   16   IZMAX=   16
   IXMIN=  -17   IYMIN=  -17   IZMIN=  -17


 serial   3D FFT for wavefunctions
 parallel 3D FFT for charge:
    minimum data exchange during FFTs selected (reduces bandwidth)


 total amount of memory used by VASP MPI-rank0   129658. kBytes
=======================================================================

   base      :      30000. kBytes
   nonl-proj :      41680. kBytes
   fftplans  :      14405. kBytes
   grid      :      19342. kBytes
   one-center:        196. kBytes
   wavefun   :      24035. kBytes
 
     INWAV:  cpu time      0.0000: real time      0.0000
 Broyden mixing: mesh for mixing (old mesh)
   NGX = 33   NGY = 33   NGZ = 33
  (NGX  =140   NGY  =140   NGZ  =140)
  gives a total of  35937 points

 initial charge density was supplied:
 charge density of overlapping atoms calculated
 number of electron     448.0000000 magnetization 
 keeping initial charge density in first step


--------------------------------------------------------------------------------------------------------


 Maximum index for augmentation-charges         1834 (set IRDMAX)


--------------------------------------------------------------------------------------------------------


 First call to EWALD:  gamma=   0.158
 Maximum number of real-space cells 3x 3x 3
 Maximum number of reciprocal cells 3x 3x 3

    FEWALD:  cpu time      0.0016: real time      0.0016


--------------------------------------- Iteration      1(   1)  ---------------------------------------


    POTLOK:  cpu time      0.0427: real time      0.0535
    SETDIJ:  cpu time      0.0324: real time      0.0357
     EDDAV:  cpu time     10.0489: real time     10.1485
       DOS:  cpu time      0.0016: real time      0.0031
    --------------------------------------------
      LOOP:  cpu time     10.1256: real time     10.2408

 eigenvalue-minimisations  :  4608
 total energy-change (2. order) : 0.4323777E+04  (-0.1716272E+05)
 number of electron     448.0000000 magnetization 
 augmentation part      448.0000000 magnetization 

 Free energy of the ion-electron system (eV)
  ---------------------------------------------------
  alpha Z        PSCENC =       751.52672365
  Ewald energy   TEWEN  =    -22871.33268198
  -Hartree energ DENC   =     -8992.25166225
  -exchange      EXHF   =         0.00000000
  -V(xc)+E(xc)   XCENC  =      1456.53425064
  PAW double counting   =     26466.43774078   -29286.08056155
  entropy T*S    EENTRO =        -0.00180884
  eigenvalues    EBANDS =      -733.23401164
  atomic energy  EATOM  =     37532.17946992
  Solvation  Ediel_sol  =         0.00000000
  ---------------------------------------------------
  free energy    TOTEN  =      4323.77745873 eV

  energy without entropy =     4323.77926757  energy(sigma->0) =     4323.77836315


--------------------------------------------------------------------------------------------------------




--------------------------------------- Iteration      1(   2)  ---------------------------------------


     EDDAV:  cpu time     10.9306: real time     10.9892
       DOS:  cpu time      0.0005: real time      0.0005
    --------------------------------------------
      LOOP:  cpu time     10.9311: real time     10.9897

 eigenvalue-minimisations  :  5120
 total energy-change (2. order) :-0.3959756E+04  (-0.3765405E+04)
 number of electron     448.0000000 magnetization 
 augmentation part      448.0000000 magnetization 

 Free energy of the ion-electron system (eV)
  ---------------------------------------------------
  alpha Z        PSCENC =       751.52672365
  Ewald energy   TEWEN  =    -22871.33268198
  -Hartree energ DENC   =     -8992.25166225
  -exchange      EXHF   =         0.00000000
  -V(xc)+E(xc)   XCENC  =      1456.53425064
  PAW double counting   =     26466.43774078   -29286.08056155
  entropy T*S    EENTRO =        -0.00000000
  eigenvalues    EBANDS =     -4692.99200922
  atomic energy  EATOM  =     37532.17946992
  Solvation  Ediel_sol  =         0.00000000
  ---------------------------------------------------
  free energy    TOTEN  =       364.02126999 eV

  energy without entropy =      364.02126999  energy(sigma->0) =      364.02126999


--------------------------------------------------------------------------------------------------------




--------------------------------------- Iteration      1(   3)  ---------------------------------------


     EDDAV:  cpu time     11.7593: real time     11.8240
       DOS:  cpu time      0.0005: real time      0.0005
    --------------------------------------------
      LOOP:  cpu time     11.7598: real time     11.8245

 eigenvalue-minimisations  :  5600
 total energy-change (2. order) :-0.5701784E+03  (-0.5659318E+03)
 number of electron     448.0000000 magnetization 
 augmentation part      448.0000000 magnetization 

 Free energy of the ion-electron system (eV)
  ---------------------------------------------------
  alpha Z        PSCENC =       751.52672365
  Ewald energy   TEWEN  =    -22871.33268198
  -Hartree energ DENC   =     -8992.25166225
  -exchange      EXHF   =         0.00000000
  -V(xc)+E(xc)   XCENC  =      1456.53425064
  PAW double counting   =     26466.43774078   -29286.08056155
  entropy T*S    EENTRO =        -0.00000000
  eigenvalues    EBANDS =     -5263.17043276
  atomic energy  EATOM  =     37532.17946992
  Solvation  Ediel_sol  =         0.00000000
  ---------------------------------------------------
  free energy    TOTEN  =      -206.15715355 eV

  energy without entropy =     -206.15715355  energy(sigma->0) =     -206.15715355


--------------------------------------------------------------------------------------------------------




--------------------------------------- Iteration      1(   4)  ---------------------------------------


     EDDAV:  cpu time     11.6642: real time     11.7291
       DOS:  cpu time      0.0005: real time      0.0005
    --------------------------------------------
      LOOP:  cpu time     11.6647: real time     11.7296

 eigenvalue-minimisations  :  5536
 total energy-change (2. order) :-0.2203321E+02  (-0.2193220E+02)
 number of electron     448.0000000 magnetization 
 augmentation part      448.0000000 magnetization 

 Free energy of the ion-electron system (eV)
  ---------------------------------------------------
  alpha Z        PSCENC =       751.52672365
  Ewald energy   TEWEN  =    -22871.33268198
  -Hartree energ DENC   =     -8992.25166225
  -exchange      EXHF   =         0.00000000
  -V(xc)+E(xc)   XCENC  =      1456.53425064
  PAW double counting   =     26466.43774078   -29286.08056155
  entropy T*S    EENTRO =        -0.00000000
  eigenvalues    EBANDS =     -5285.20364171
  atomic energy  EATOM  =     37532.17946992
  Solvation  Ediel_sol  =         0.00000000
  ---------------------------------------------------
  free energy    TOTEN  =      -228.19036250 eV

  energy without entropy =     -228.19036250  energy(sigma->0) =     -228.19036250


--------------------------------------------------------------------------------------------------------




--------------------------------------- Iteration      1(   5)  ---------------------------------------


     EDDAV:  cpu time     11.7696: real time     11.8320
       DOS:  cpu time      0.0005: real time      0.0005
    CHARGE:  cpu time      0.3523: real time      0.3541
    MIXING:  cpu time      0.0010: real time      0.0024
    --------------------------------------------
      LOOP:  cpu time     12.1235: real time     12.1891

 eigenvalue-minimisations  :  5600
 total energy-change (2. order) :-0.8128787E+00  (-0.8114639E+00)
 number of electron     448.0000022 magnetization 
 augmentation part      111.6499443 magnetization 

 Broyden mixing:
  rms(total) = 0.10609E+01    rms(broyden)= 0.10604E+01
  rms(prec ) = 0.14937E+01
  weight for this iteration     100.00

 Free energy of the ion-electron system (eV)
  ---------------------------------------------------
  alpha Z        PSCENC =       751.52672365
  Ewald energy   TEWEN  =    -22871.33268198
  -Hartree energ DENC   =     -8992.25166225
  -exchange      EXHF   =         0.00000000
  -V(xc)+E(xc)   XCENC  =      1456.53425064
  PAW double counting   =     26466.43774078   -29286.08056155
  entropy T*S    EENTRO =        -0.00000000
  eigenvalues    EBANDS =     -5286.01652039
  atomic energy  EATOM  =     37532.17946992
  Solvation  Ediel_sol  =         0.00000000
  ---------------------------------------------------
  free energy    TOTEN  =      -229.00324118 eV

  energy without entropy =     -229.00324118  energy(sigma->0) =     -229.00324118


--------------------------------------------------------------------------------------------------------




--------------------------------------- Iteration      1(   6)  ---------------------------------------


    POTLOK:  cpu time      0.0361: real time      0.0363
    SETDIJ:  cpu time      0.0299: real time      0.0300
     EDDAV:  cpu time     12.0506: real time     12.1168
       DOS:  cpu time      0.0002: real time      0.0002
    CHARGE:  cpu time      0.3472: real time      0.3488
    MIXING:  cpu time      0.0013: real time      0.0013
    --------------------------------------------
      LOOP:  cpu time     12.4652: real time     12.5335

 eigenvalue-minimisations  :  5760
 total energy-change (2. order) : 0.4863725E+01  (-0.9468528E+00)
 number of electron     448.0000022 magnetization 
 augmentation part      112.4558968 magnetization 

 Broyden mixing:
  rms(total) = 0.77662E+00    rms(broyden)= 0.77657E+00
  rms(prec ) = 0.89256E+00
  weight for this iteration     100.00

 eigenvalues of (default mixing * dielectric matrix)
  average eigenvalue GAMMA=   1.0735
  1.0735

 Free energy of the ion-electron system (eV)
  ---------------------------------------------------
  alpha Z        PSCENC =       751.52672365
  Ewald energy   TEWEN  =    -22871.33268198
  -Hartree energ DENC   =     -9061.90036256
  -exchange      EXHF   =         0.00000000
  -V(xc)+E(xc)   XCENC  =      1465.43904565
  PAW double counting   =     27291.41968200   -30103.51756076
  entropy T*S    EENTRO =        -0.00000000
  eigenvalues    EBANDS =     -5227.95383222
  atomic energy  EATOM  =     37532.17946992
  Solvation  Ediel_sol  =         0.00000000
  ---------------------------------------------------
  free energy    TOTEN  =      -224.13951629 eV

  energy without entropy =     -224.13951629  energy(sigma->0) =     -224.13951629


--------------------------------------------------------------------------------------------------------




--------------------------------------- Iteration      1(   7)  ---------------------------------------


    POTLOK:  cpu time      0.0361: real time      0.0364
    SETDIJ:  cpu time      0.0301: real time      0.0302
     EDDAV:  cpu time     12.8438: real time     12.9110
       DOS:  cpu time      0.0002: real time      0.0002
    CHARGE:  cpu time      0.3448: real time      0.3464
    MIXING:  cpu time      0.0014: real time      0.0014
    --------------------------------------------
      LOOP:  cpu time     13.2564: real time     13.3256

 eigenvalue-minimisations  :  6208
 total energy-change (2. order) : 0.3622497E+00  (-0.2064240E+00)
 number of electron     448.0000022 magnetization 
 augmentation part      112.8264561 magnetization 

 Broyden mixing:
  rms(total) = 0.53252E+00    rms(broyden)= 0.53249E+00
  rms(prec ) = 0.56257E+00
  weight for this iteration     100.00

 eigenvalues of (default mixing * dielectric matrix)
  average eigenvalue GAMMA=   2.1463
  1.4388  2.8537

 Free energy of the ion-electron system (eV)
  ---------------------------------------------------
  alpha Z        PSCENC =       751.52672365
  Ewald energy   TEWEN  =    -22871.33268198
  -Hartree energ DENC   =     -9085.85698186
  -exchange      EXHF   =         0.00000000
  -V(xc)+E(xc)   XCENC  =      1470.12551041
  PAW double counting   =     28331.22490252   -31143.95948971
  entropy T*S    EENTRO =        -0.00000000
  eigenvalues    EBANDS =     -5207.68471957
  atomic energy  EATOM  =     37532.17946992
  Solvation  Ediel_sol  =         0.00000000
  ---------------------------------------------------
  free energy    TOTEN  =      -223.77726661 eV

  energy without entropy =     -223.77726661  energy(sigma->0) =     -223.77726661


--------------------------------------------------------------------------------------------------------




--------------------------------------- Iteration      1(   8)  ---------------------------------------


    POTLOK:  cpu time      0.0364: real time      0.0375
    SETDIJ:  cpu time      0.0300: real time      0.0302
     EDDAV:  cpu time     11.4143: real time     11.4790
       DOS:  cpu time      0.0002: real time      0.0002
    CHARGE:  cpu time      0.3434: real time      0.3452
    MIXING:  cpu time      0.0014: real time      0.0044
    --------------------------------------------
      LOOP:  cpu time     11.8258: real time     11.8965

 eigenvalue-minimisations  :  5344
 total energy-change (2. order) :-0.1251421E+00  (-0.2636137E-01)
 number of electron     448.0000022 magnetization 
 augmentation part      112.8102485 magnetization 

 Broyden mixing:
  rms(total) = 0.13794E+00    rms(broyden)= 0.13794E+00
  rms(prec ) = 0.14080E+00
  weight for this iteration     100.00

 eigenvalues of (default mixing * dielectric matrix)
  average eigenvalue GAMMA=   1.5582
  2.5049  1.3809  0.7887

 Free energy of the ion-electron system (eV)
  ---------------------------------------------------
  alpha Z        PSCENC =       751.52672365
  Ewald energy   TEWEN  =    -22871.33268198
  -Hartree energ DENC   =     -9075.30282191
  -exchange      EXHF   =         0.00000000
  -V(xc)+E(xc)   XCENC  =      1472.33106343
  PAW double counting   =     29800.78396250   -32620.55649418
  entropy T*S    EENTRO =        -0.00000000
  eigenvalues    EBANDS =     -5213.53163018
  atomic energy  EATOM  =     37532.17946992
  Solvation  Ediel_sol  =         0.00000000
  ---------------------------------------------------
  free energy    TOTEN  =      -223.90240874 eV

  energy without entropy =     -223.90240874  energy(sigma->0) =     -223.90240874


--------------------------------------------------------------------------------------------------------




--------------------------------------- Iteration      1(   9)  ---------------------------------------


    POTLOK:  cpu time      0.0370: real time      0.0417
    SETDIJ:  cpu time      0.0307: real time      0.0308
     EDDAV:  cpu time     12.0930: real time     12.1566
       DOS:  cpu time      0.0002: real time      0.0002
    CHARGE:  cpu time      0.3506: real time      0.3526
    MIXING:  cpu time      0.0020: real time      0.0020
    --------------------------------------------
      LOOP:  cpu time     12.5135: real time     12.5839

 eigenvalue-minimisations  :  5760
 total energy-change (2. order) : 0.5365351E-02  (-0.1151157E-02)
 number of electron     448.0000022 magnetization 
 augmentation part      112.8328372 magnetization 

 Broyden mixing:
  rms(total) = 0.56472E-01    rms(broyden)= 0.56471E-01
  rms(prec ) = 0.58617E-01
  weight for this iteration     100.00

 eigenvalues of (default mixing * dielectric matrix)
  average eigenvalue GAMMA=   2.0147
  2.9753  2.6956  0.9976  1.3901

 Free energy of the ion-electron system (eV)
  ---------------------------------------------------
  alpha Z        PSCENC =       751.52672365
  Ewald energy   TEWEN  =    -22871.33268198
  -Hartree energ DENC   =     -9078.05905287
  -exchange      EXHF   =         0.00000000
  -V(xc)+E(xc)   XCENC  =      1472.35549816
  PAW double counting   =     29621.97050272   -32440.91279875
  entropy T*S    EENTRO =        -0.00000000
  eigenvalues    EBANDS =     -5211.62470423
  atomic energy  EATOM  =     37532.17946992
  Solvation  Ediel_sol  =         0.00000000
  ---------------------------------------------------
  free energy    TOTEN  =      -223.89704338 eV

  energy without entropy =     -223.89704338  energy(sigma->0) =     -223.89704338


--------------------------------------------------------------------------------------------------------




--------------------------------------- Iteration      1(  10)  ---------------------------------------


    POTLOK:  cpu time      0.0363: real time      0.0372
    SETDIJ:  cpu time      0.0306: real time      0.0308
     EDDAV:  cpu time     11.4579: real time     11.5175
       DOS:  cpu time      0.0002: real time      0.0002
    CHARGE:  cpu time      0.3401: real time      0.3420
    MIXING:  cpu time      0.0029: real time      0.0030
    --------------------------------------------
      LOOP:  cpu time     11.8681: real time     11.9307

 eigenvalue-minimisations  :  5376
 total energy-change (2. order) :-0.4445647E-02  (-0.1732604E-02)
 number of electron     448.0000022 magnetization 
 augmentation part      112.8602033 magnetization 

 Broyden mixing:
  rms(total) = 0.27803E-01    rms(broyden)= 0.27801E-01
  rms(prec ) = 0.29739E-01
  weight for this iteration     100.00

 eigenvalues of (default mixing * dielectric matrix)
  average eigenvalue GAMMA=   1.7106
  2.9405  2.5073  1.2981  1.0204  0.7869

 Free energy of the ion-electron system (eV)
  ---------------------------------------------------
  alpha Z        PSCENC =       751.52672365
  Ewald energy   TEWEN  =    -22871.33268198
  -Hartree energ DENC   =     -9079.38457549
  -exchange      EXHF   =         0.00000000
  -V(xc)+E(xc)   XCENC  =      1472.60480648
  PAW double counting   =     29456.14028896   -32275.40624984
  entropy T*S    EENTRO =        -0.00000000
  eigenvalues    EBANDS =     -5210.22927074
  atomic energy  EATOM  =     37532.17946992
  Solvation  Ediel_sol  =         0.00000000
  ---------------------------------------------------
  free energy    TOTEN  =      -223.90148903 eV

  energy without entropy =     -223.90148903  energy(sigma->0) =     -223.90148903


--------------------------------------------------------------------------------------------------------




--------------------------------------- Iteration      1(  11)  ---------------------------------------


    POTLOK:  cpu time      0.0361: real time      0.0363
    SETDIJ:  cpu time      0.0302: real time      0.0304
     EDDAV:  cpu time     12.2675: real time     12.3320
       DOS:  cpu time      0.0002: real time      0.0002
    CHARGE:  cpu time      0.3409: real time      0.3426
    MIXING:  cpu time      0.0023: real time      0.0023
    --------------------------------------------
      LOOP:  cpu time     12.6771: real time     12.7437

 eigenvalue-minimisations  :  5856
 total energy-change (2. order) : 0.6840769E-03  (-0.1523581E-03)
 number of electron     448.0000022 magnetization 
 augmentation part      112.8510578 magnetization 

 Broyden mixing:
  rms(total) = 0.76712E-02    rms(broyden)= 0.76711E-02
  rms(prec ) = 0.80446E-02
  weight for this iteration     100.00

 eigenvalues of (default mixing * dielectric matrix)
  average eigenvalue GAMMA=   1.6029
  2.9082  2.4101  1.3310  1.0105  0.9788  0.9788

 Free energy of the ion-electron system (eV)
  ---------------------------------------------------
  alpha Z        PSCENC =       751.52672365
  Ewald energy   TEWEN  =    -22871.33268198
  -Hartree energ DENC   =     -9078.31335433
  -exchange      EXHF   =         0.00000000
  -V(xc)+E(xc)   XCENC  =      1472.52770393
  PAW double counting   =     29488.59183717   -32307.98057091
  entropy T*S    EENTRO =        -0.00000000
  eigenvalues    EBANDS =     -5211.09993241
  atomic energy  EATOM  =     37532.17946992
  Solvation  Ediel_sol  =         0.00000000
  ---------------------------------------------------
  free energy    TOTEN  =      -223.90080496 eV

  energy without entropy =     -223.90080496  energy(sigma->0) =     -223.90080496


--------------------------------------------------------------------------------------------------------




--------------------------------------- Iteration      1(  12)  ---------------------------------------


    POTLOK:  cpu time      0.0358: real time      0.0361
    SETDIJ:  cpu time      0.0306: real time      0.0307
     EDDAV:  cpu time     12.1850: real time     12.2492
       DOS:  cpu time      0.0002: real time      0.0002
    CHARGE:  cpu time      0.3514: real time      0.3530
    MIXING:  cpu time      0.0016: real time      0.0016
    --------------------------------------------
      LOOP:  cpu time     12.6046: real time     12.6708

 eigenvalue-minimisations  :  5792
 total energy-change (2. order) : 0.3284871E-04  (-0.1492179E-04)
 number of electron     448.0000022 magnetization 
 augmentation part      112.8483386 magnetization 

 Broyden mixing:
  rms(total) = 0.91423E-03    rms(broyden)= 0.91291E-03
  rms(prec ) = 0.10750E-02
  weight for this iteration     100.00

 eigenvalues of (default mixing * dielectric matrix)
  average eigenvalue GAMMA=   1.6721
  2.8934  2.4830  2.1064  0.8730  1.1183  1.1183  1.1124

 Free energy of the ion-electron system (eV)
  ---------------------------------------------------
  alpha Z        PSCENC =       751.52672365
  Ewald energy   TEWEN  =    -22871.33268198
  -Hartree energ DENC   =     -9078.14410176
  -exchange      EXHF   =         0.00000000
  -V(xc)+E(xc)   XCENC  =      1472.51548327
  PAW double counting   =     29500.60929964   -32319.98740179
  entropy T*S    EENTRO =        -0.00000000
  eigenvalues    EBANDS =     -5211.26756306
  atomic energy  EATOM  =     37532.17946992
  Solvation  Ediel_sol  =         0.00000000
  ---------------------------------------------------
  free energy    TOTEN  =      -223.90077211 eV

  energy without entropy =     -223.90077211  energy(sigma->0) =     -223.90077211


--------------------------------------------------------------------------------------------------------




--------------------------------------- Iteration      1(  13)  ---------------------------------------


    POTLOK:  cpu time      0.0363: real time      0.0373
    SETDIJ:  cpu time      0.0300: real time      0.0302
     EDDAV:  cpu time     11.4850: real time     11.5451
       DOS:  cpu time      0.0002: real time      0.0002
    CHARGE:  cpu time      0.3429: real time      0.3446
    MIXING:  cpu time      0.0014: real time      0.0014
    --------------------------------------------
      LOOP:  cpu time     11.8959: real time     11.9587

 eigenvalue-minimisations  :  5376
 total energy-change (2. order) :-0.7081035E-05  (-0.1049747E-05)
 number of electron     448.0000022 magnetization 
 augmentation part      112.8477793 magnetization 

 Broyden mixing:
  rms(total) = 0.25495E-03    rms(broyden)= 0.25453E-03
  rms(prec ) = 0.30345E-03
  weight for this iteration     100.00

 eigenvalues of (default mixing * dielectric matrix)
  average eigenvalue GAMMA=   1.6516
  2.9839  2.4463  2.4463  1.2771  0.9785  0.9785  1.0513  1.0513

 Free energy of the ion-electron system (eV)
  ---------------------------------------------------
  alpha Z        PSCENC =       751.52672365
  Ewald energy   TEWEN  =    -22871.33268198
  -Hartree energ DENC   =     -9078.11521732
  -exchange      EXHF   =         0.00000000
  -V(xc)+E(xc)   XCENC  =      1472.51080359
  PAW double counting   =     29498.37627601   -32317.74621902
  entropy T*S    EENTRO =        -0.00000000
  eigenvalues    EBANDS =     -5211.29993404
  atomic energy  EATOM  =     37532.17946992
  Solvation  Ediel_sol  =         0.00000000
  ---------------------------------------------------
  free energy    TOTEN  =      -223.90077919 eV

  energy without entropy =     -223.90077919  energy(sigma->0) =     -223.90077919


--------------------------------------------------------------------------------------------------------




--------------------------------------- Iteration      1(  14)  ---------------------------------------


    POTLOK:  cpu time      0.0365: real time      0.0413
    SETDIJ:  cpu time      0.0305: real time      0.0307
     EDDAV:  cpu time     13.0910: real time     13.1593
       DOS:  cpu time      0.0002: real time      0.0002
    CHARGE:  cpu time      0.3475: real time      0.3493
    MIXING:  cpu time      0.0019: real time      0.0019
    --------------------------------------------
      LOOP:  cpu time     13.5075: real time     13.5827

 eigenvalue-minimisations  :  6336
 total energy-change (2. order) : 0.1780427E-06  (-0.1011158E-06)
 number of electron     448.0000022 magnetization 
 augmentation part      112.8476762 magnetization 

 Broyden mixing:
  rms(total) = 0.84321E-03    rms(broyden)= 0.84317E-03
  rms(prec ) = 0.86670E-03
  weight for this iteration     100.00

 eigenvalues of (default mixing * dielectric matrix)
  average eigenvalue GAMMA=   1.6705
  3.0603  2.6043  2.6043  1.5427  1.2495  1.2495  0.9276  0.9276  0.8686

 Free energy of the ion-electron system (eV)
  ---------------------------------------------------
  alpha Z        PSCENC =       751.52672365
  Ewald energy   TEWEN  =    -22871.33268198
  -Hartree energ DENC   =     -9078.12350213
  -exchange      EXHF   =         0.00000000
  -V(xc)+E(xc)   XCENC  =      1472.51189027
  PAW double counting   =     29499.86043043   -32319.22848378
  entropy T*S    EENTRO =        -0.00000000
  eigenvalues    EBANDS =     -5211.29462540
  atomic energy  EATOM  =     37532.17946992
  Solvation  Ediel_sol  =         0.00000000
  ---------------------------------------------------
  free energy    TOTEN  =      -223.90077901 eV

  energy without entropy =     -223.90077901  energy(sigma->0) =     -223.90077901


--------------------------------------------------------------------------------------------------------




--------------------------------------- Iteration      1(  15)  ---------------------------------------


    POTLOK:  cpu time      0.0363: real time      0.0371
    SETDIJ:  cpu time      0.0302: real time      0.0304
     EDDAV:  cpu time     10.7672: real time     10.8229
       DOS:  cpu time      0.0002: real time      0.0002
    CHARGE:  cpu time      0.3422: real time      0.3441
    MIXING:  cpu time      0.0021: real time      0.0021
    --------------------------------------------
      LOOP:  cpu time     11.1782: real time     11.2368

 eigenvalue-minimisations  :  4960
 total energy-change (2. order) :-0.1279215E-05  (-0.6574127E-07)
 number of electron     448.0000022 magnetization 
 augmentation part      112.8478075 magnetization 

 Broyden mixing:
  rms(total) = 0.18911E-03    rms(broyden)= 0.18901E-03
  rms(prec ) = 0.19466E-03
  weight for this iteration     100.00

 eigenvalues of (default mixing * dielectric matrix)
  average eigenvalue GAMMA=   1.6286
  3.1205  2.7906  2.3646  1.3983  1.3983  1.3625  1.0217  1.0217  0.9040  0.9040

 Free energy of the ion-electron system (eV)
  ---------------------------------------------------
  alpha Z        PSCENC =       751.52672365
  Ewald energy   TEWEN  =    -22871.33268198
  -Hartree energ DENC   =     -9078.15473376
  -exchange      EXHF   =         0.00000000
  -V(xc)+E(xc)   XCENC  =      1472.51316161
  PAW double counting   =     29498.67170949   -32318.03767895
  entropy T*S    EENTRO =        -0.00000000
  eigenvalues    EBANDS =     -5211.26675027
  atomic energy  EATOM  =     37532.17946992
  Solvation  Ediel_sol  =         0.00000000
  ---------------------------------------------------
  free energy    TOTEN  =      -223.90078029 eV

  energy without entropy =     -223.90078029  energy(sigma->0) =     -223.90078029


--------------------------------------------------------------------------------------------------------




--------------------------------------- Iteration      1(  16)  ---------------------------------------


    POTLOK:  cpu time      0.0366: real time      0.0369
    SETDIJ:  cpu time      0.0302: real time      0.0303
     EDDAV:  cpu time     11.0260: real time     11.0832
       DOS:  cpu time      0.0002: real time      0.0002
    CHARGE:  cpu time      0.3428: real time      0.3445
    MIXING:  cpu time      0.0017: real time      0.0017
    --------------------------------------------
      LOOP:  cpu time     11.4375: real time     11.4967

 eigenvalue-minimisations  :  5088
 total energy-change (2. order) :-0.3548048E-06  (-0.4872582E-08)
 number of electron     448.0000022 magnetization 
 augmentation part      112.8478648 magnetization 

 Broyden mixing:
  rms(total) = 0.29010E-04    rms(broyden)= 0.28352E-04
  rms(prec ) = 0.33728E-04
  weight for this iteration     100.00

 eigenvalues of (default mixing * dielectric matrix)
  average eigenvalue GAMMA=   1.6238
  3.1632  2.7508  2.3617  1.6491  1.6491  1.3218  1.1501  1.1501  0.9644  0.8509
  0.8509

 Free energy of the ion-electron system (eV)
  ---------------------------------------------------
  alpha Z        PSCENC =       751.52672365
  Ewald energy   TEWEN  =    -22871.33268198
  -Hartree energ DENC   =     -9078.15982807
  -exchange      EXHF   =         0.00000000
  -V(xc)+E(xc)   XCENC  =      1472.51324433
  PAW double counting   =     29498.26589273   -32317.63091439
  entropy T*S    EENTRO =        -0.00000000
  eigenvalues    EBANDS =     -5211.26268684
  atomic energy  EATOM  =     37532.17946992
  Solvation  Ediel_sol  =         0.00000000
  ---------------------------------------------------
  free energy    TOTEN  =      -223.90078064 eV

  energy without entropy =     -223.90078064  energy(sigma->0) =     -223.90078064


--------------------------------------------------------------------------------------------------------




--------------------------------------- Iteration      1(  17)  ---------------------------------------


    POTLOK:  cpu time      0.0360: real time      0.0363
    SETDIJ:  cpu time      0.0308: real time      0.0309
     EDDAV:  cpu time      8.3468: real time      8.3897
       DOS:  cpu time      0.0002: real time      0.0002
    CHARGE:  cpu time      0.3395: real time      0.3411
    MIXING:  cpu time      0.0021: real time      0.0021
    --------------------------------------------
      LOOP:  cpu time      8.7553: real time      8.8002

 eigenvalue-minimisations  :  3488
 total energy-change (2. order) : 0.4334288E-07  (-0.4824490E-09)
 number of electron     448.0000022 magnetization 
 augmentation part      112.8478617 magnetization 

 Broyden mixing:
  rms(total) = 0.14578E-04    rms(broyden)= 0.13253E-04
  rms(prec ) = 0.17586E-04
  weight for this iteration     100.00

 eigenvalues of (default mixing * dielectric matrix)
  average eigenvalue GAMMA=   1.5932
  3.1696  2.8347  2.2355  1.8826  1.5806  1.2781  1.2781  1.2540  0.8987  0.8987
  0.9267  0.8812

 Free energy of the ion-electron system (eV)
  ---------------------------------------------------
  alpha Z        PSCENC =       751.52672365
  Ewald energy   TEWEN  =    -22871.33268198
  -Hartree energ DENC   =     -9078.16080605
  -exchange      EXHF   =         0.00000000
  -V(xc)+E(xc)   XCENC  =      1472.51329911
  PAW double counting   =     29498.25529060   -32317.62039271
  entropy T*S    EENTRO =        -0.00000000
  eigenvalues    EBANDS =     -5211.26168315
  atomic energy  EATOM  =     37532.17946992
  Solvation  Ediel_sol  =         0.00000000
  ---------------------------------------------------
  free energy    TOTEN  =      -223.90078060 eV

  energy without entropy =     -223.90078060  energy(sigma->0) =     -223.90078060


--------------------------------------------------------------------------------------------------------




--------------------------------------- Iteration      1(  18)  ---------------------------------------


    POTLOK:  cpu time      0.0360: real time      0.0362
    SETDIJ:  cpu time      0.0307: real time      0.0308
     EDDAV:  cpu time      7.8142: real time      7.8544
       DOS:  cpu time      0.0002: real time      0.0002
    CHARGE:  cpu time      0.3528: real time      0.3546
    MIXING:  cpu time      0.0015: real time      0.0015
    --------------------------------------------
      LOOP:  cpu time      8.2354: real time      8.2778

 eigenvalue-minimisations  :  3168
 total energy-change (2. order) :-0.1660374E-07  (-0.3600252E-09)
 number of electron     448.0000022 magnetization 
 augmentation part      112.8478592 magnetization 

 Broyden mixing:
  rms(total) = 0.20879E-04    rms(broyden)= 0.19977E-04
  rms(prec ) = 0.21597E-04
  weight for this iteration     100.00

 eigenvalues of (default mixing * dielectric matrix)
  average eigenvalue GAMMA=   1.5810
  3.1722  2.8881  2.3207  2.3207  1.2755  1.2755  1.3246  1.1757  1.1757  1.0068
  0.9296  0.8440  0.8440

 Free energy of the ion-electron system (eV)
  ---------------------------------------------------
  alpha Z        PSCENC =       751.52672365
  Ewald energy   TEWEN  =    -22871.33268198
  -Hartree energ DENC   =     -9078.16257096
  -exchange      EXHF   =         0.00000000
  -V(xc)+E(xc)   XCENC  =      1472.51336607
  PAW double counting   =     29498.24424364   -32317.60923014
  entropy T*S    EENTRO =        -0.00000000
  eigenvalues    EBANDS =     -5211.26010081
  atomic energy  EATOM  =     37532.17946992
  Solvation  Ediel_sol  =         0.00000000
  ---------------------------------------------------
  free energy    TOTEN  =      -223.90078062 eV

  energy without entropy =     -223.90078062  energy(sigma->0) =     -223.90078062


--------------------------------------------------------------------------------------------------------




--------------------------------------- Iteration      1(  19)  ---------------------------------------


    POTLOK:  cpu time      0.0359: real time      0.0368
    SETDIJ:  cpu time      0.0307: real time      0.0308
     EDDAV:  cpu time      7.6539: real time      7.6935
       DOS:  cpu time      0.0002: real time      0.0002
    --------------------------------------------
      LOOP:  cpu time      7.7207: real time      7.7613

 eigenvalue-minimisations  :  3072
 total energy-change (2. order) :-0.2750312E-08  (-0.2239332E-09)
 number of electron     448.0000022 magnetization 
 augmentation part      112.8478592 magnetization 

 Free energy of the ion-electron system (eV)
  ---------------------------------------------------
  alpha Z        PSCENC =       751.52672365
  Ewald energy   TEWEN  =    -22871.33268198
  -Hartree energ DENC   =     -9078.16271041
  -exchange      EXHF   =         0.00000000
  -V(xc)+E(xc)   XCENC  =      1472.51336701
  PAW double counting   =     29498.24870781   -32317.61341501
  entropy T*S    EENTRO =        -0.00000000
  eigenvalues    EBANDS =     -5211.26024162
  atomic energy  EATOM  =     37532.17946992
  Solvation  Ediel_sol  =         0.00000000
  ---------------------------------------------------
  free energy    TOTEN  =      -223.90078062 eV

  energy without entropy =     -223.90078062  energy(sigma->0) =     -223.90078062


--------------------------------------------------------------------------------------------------------




 average (electrostatic) potential at core
  the test charge radii are     0.9254  0.9406
  (the norm of the test charge is              1.0000)
       1 -46.9440       2 -46.9440       3 -46.9440       4 -46.9440       5 -46.9483
       6 -46.9483       7 -46.9440       8 -46.9440       9 -46.9439      10 -46.9439
      11 -46.9483      12 -46.9483      13 -46.9484      14 -46.9484      15 -46.9483
      16 -46.9483      17 -46.9553      18 -46.9553      19 -46.9553      20 -46.9553
      21 -46.9509      22 -46.9509      23 -46.9553      24 -46.9553      25 -46.9553
      26 -46.9553      27 -46.9509      28 -46.9509      29 -46.9508      30 -46.9508
      31 -46.9509      32 -46.9509      33 -93.5854      34 -93.5854      35 -93.5649
      36 -93.5649      37 -93.5854      38 -93.5854      39 -93.5873      40 -93.5873
      41 -93.5855      42 -93.5855      43 -93.5872      44 -93.5872      45 -93.5855
      46 -93.5855      47 -93.5872      48 -93.5872      49 -93.5910      50 -93.5910
      51 -93.6116      52 -93.6116      53 -93.5910      54 -93.5910      55 -93.5891
      56 -93.5891      57 -93.5910      58 -93.5910      59 -93.5891      60 -93.5891
      61 -93.5910      62 -93.5910      63 -93.5892      64 -93.5892
 
 
 
 E-fermi :  -0.5622     XC(G=0):  -8.4227     alpha+bet : -8.2520

 Fermi energy:        -0.5621633281

 k-point     1 :       0.0000    0.0000    0.0000
  band No.  band energies     occupation 
      1     -21.3048      2.00000
      2     -21.3048      2.00000
      3     -21.3046      2.00000
      4     -21.3046      2.00000
      5     -21.2959      2.00000
      6     -21.2954      2.00000
      7     -21.2952      2.00000
      8     -21.2949      2.00000
      9     -21.2946      2.00000
     10     -21.2944      2.00000
     11     -21.2941      2.00000
     12     -21.2941      2.00000
     13     -21.2940      2.00000
     14     -21.2936      2.00000
     15     -21.2928      2.00000
     16     -21.2928      2.00000
     17     -21.2925      2.00000
     18     -21.2917      2.00000
     19     -21.2917      2.00000
     20     -21.2887      2.00000
     21     -21.2879      2.00000
     22     -21.2878      2.00000
     23     -21.2876      2.00000
     24     -21.2872      2.00000
     25     -21.2867      2.00000
     26     -21.2865      2.00000
     27     -21.2864      2.00000
     28     -21.2864      2.00000
     29     -21.2860      2.00000
     30     -21.2850      2.00000
     31     -21.2849      2.00000
     32     -21.2846      2.00000
     33     -21.2838      2.00000
     34     -21.2837      2.00000
     35     -21.2835      2.00000
     36     -21.2830      2.00000
     37     -21.2829      2.00000
     38     -21.2827      2.00000
     39     -21.2825      2.00000
     40     -21.2823      2.00000
     41     -21.2818      2.00000
     42     -21.2817      2.00000
     43     -21.2817      2.00000
     44     -21.2817      2.00000
     45     -21.2815      2.00000
     46     -21.2814      2.00000
     47     -21.2814      2.00000
     48     -21.2806      2.00000
     49     -21.2804      2.00000
     50     -21.2803      2.00000
     51     -21.2798      2.00000
     52     -21.2798      2.00000
     53     -21.2798      2.00000
     54     -21.2789      2.00000
     55     -21.2786      2.00000
     56     -21.2779      2.00000
     57     -21.2776      2.00000
     58     -21.2776      2.00000
     59     -21.2767      2.00000
     60     -21.2766      2.00000
     61     -21.2766      2.00000
     62     -21.2757      2.00000
     63     -21.2756      2.00000
     64     -21.2753      2.00000
     65     -21.2752      2.00000
     66     -21.2752      2.00000
     67     -21.2749      2.00000
     68     -21.2748      2.00000
     69     -21.2748      2.00000
     70     -21.2747      2.00000
     71     -21.2744      2.00000
     72     -21.2733      2.00000
     73     -21.2729      2.00000
     74     -21.2728      2.00000
     75     -21.2723      2.00000
     76     -21.2718      2.00000
     77     -21.2716      2.00000
     78     -21.2716      2.00000
     79     -21.2715      2.00000
     80     -21.2712      2.00000
     81     -21.2712      2.00000
     82     -21.2709      2.00000
     83     -21.2703      2.00000
     84     -21.2701      2.00000
     85     -21.2701      2.00000
     86     -21.2699      2.00000
     87     -21.2693      2.00000
     88     -21.2691      2.00000
     89     -21.2688      2.00000
     90     -21.2679      2.00000
     91     -21.2679      2.00000
     92     -21.2676      2.00000
     93     -21.2673      2.00000
     94     -21.2672      2.00000
     95     -21.2669      2.00000
[...]
         0         1         2         3         4         5         6         7         8         9
 total charge-density along one line
 
 pseudopotential strength for first ion, spin component:           1
-25.383  -0.000   0.000   2.508   0.000  -0.000  -0.000  -0.000
 -0.000 -25.383  -0.000   0.000   2.508   0.000  -0.000  -0.000
  0.000  -0.000 -25.383  -0.000   0.000   2.508   0.000   0.001
  2.508   0.000  -0.000   6.529   0.000   0.000   0.000  -0.000
  0.000   2.508   0.000   0.000   6.529   0.000   0.000  -0.000
 -0.000   0.000   2.508   0.000   0.000   6.529  -0.000  -0.000
 -0.000  -0.000   0.000   0.000   0.000  -0.000   1.428   6.993
 -0.000  -0.000   0.001  -0.000  -0.000  -0.000   6.993  33.988
 total augmentation occupancy for first ion, spin component:           1
  2.002   0.000  -0.000   0.002   0.000  -0.000   0.000  -0.000
  0.000   2.002   0.000   0.000   0.002   0.000   0.000   0.000
 -0.000   0.000   2.002  -0.000   0.000   0.002  -0.001   0.000
  0.002   0.000  -0.000   0.017   0.000  -0.000   0.000   0.000
  0.000   0.002   0.000   0.000   0.017   0.000   0.000   0.000
 -0.000   0.000   0.002  -0.000   0.000   0.017  -0.003   0.000
  0.000   0.000  -0.001   0.000   0.000  -0.003   0.403  -0.001
 -0.000   0.000   0.000   0.000   0.000   0.000  -0.001   0.000


------------------------ aborting loop because EDIFF is reached ----------------------------------------


    CHARGE:  cpu time      0.3398: real time      0.3417
    FORLOC:  cpu time      0.0115: real time      0.0115
    FORNL :  cpu time      2.2813: real time      2.2946
    STRESS:  cpu time     13.0095: real time     13.0732
    FORCOR:  cpu time      0.0432: real time      0.0434
    FORHAR:  cpu time      0.0171: real time      0.0172
    MIXING:  cpu time      0.0013: real time      0.0013
    OFIELD:  cpu time      0.0000: real time      0.0000

  FORCE on cell =-STRESS in cart. coord.  units (eV):
  Direction    XX          YY          ZZ          XY          YZ          ZX
  --------------------------------------------------------------------------------------
  Alpha Z   751.52672   751.52672   751.52672
  Ewald   -7623.64025 -7623.90289 -7623.92688    -0.00667     0.00000     0.00000
  Hartree  3026.11623  3026.03149  3026.01362    -0.00627    -0.00000    -0.00000
  E(xc)   -2014.34808 -2014.34819 -2014.34820     0.00000     0.00000     0.00000
  Local   -2025.13513 -2024.79251 -2024.75095     0.01295     0.00000    -0.00000
  n-local  1887.63220  1887.62091  1887.62092     0.00002     0.00000     0.00000
  augment   687.00908   687.00962   687.00936     0.00000    -0.00010    -0.00009
  Kinetic  5310.52626  5310.52236  5310.52242    -0.00007     0.00000     0.00000
  Fock        0.00000     0.00000     0.00000     0.00000     0.00000     0.00000
  -------------------------------------------------------------------------------------
  Total      -0.31296    -0.33250    -0.33298    -0.00003     0.00000     0.00000
  in kB      -0.35651    -0.37878    -0.37932    -0.00003     0.00000     0.00000
  external pressure =       -0.37 kB  Pullay stress =        0.00 kB


 VOLUME and BASIS-vectors are now :
 -----------------------------------------------------------------------------
  energy-cutoff  :      341.21
  volume of cell :     1406.43
      direct lattice vectors                 reciprocal lattice vectors
    11.204002360  0.000000000  0.000000000     0.089253819  0.000000000  0.000000000
     0.000000000 11.204002360  0.000000000     0.000000000  0.089253819  0.000000000
     0.000000000  0.000000000 11.204002360     0.000000000  0.000000000  0.089253819

  length of vectors
    11.204002360 11.204002360 11.204002360     0.089253819  0.089253819  0.089253819


 FORCES acting on ions
    electron-ion (+dipol)            ewald-force                    non-local-force                 convergence-correction
 -----------------------------------------------------------------------------------------------
   -.427E+01 -.429E+00 0.674E-05   0.423E+01 0.462E+00 -.121E-13   0.112E+00 -.266E-01 -.372E-22   -.409E-04 -.955E-06 -.408E-14
   0.427E+01 0.429E+00 -.674E-05   -.423E+01 -.462E+00 -.166E-13   -.112E+00 0.266E-01 -.420E-22   0.409E-04 0.955E-06 -.970E-13
   0.546E+00 -.248E-02 0.440E+00   -.558E+00 0.259E-02 -.473E+00   0.950E-02 -.928E-04 0.269E-01   0.479E-04 -.508E-07 0.223E-05
   -.546E+00 0.248E-02 0.440E+00   0.558E+00 -.259E-02 -.473E+00   -.950E-02 0.928E-04 0.269E-01   -.479E-04 0.508E-07 0.223E-05
   -.172E+00 -.395E-01 0.279E-07   0.172E+00 0.391E-01 0.180E-14   0.345E-03 0.407E-03 -.930E-25   -.461E-04 0.327E-06 -.271E-12
   0.172E+00 0.395E-01 -.279E-07   -.172E+00 -.391E-01 0.125E-13   -.345E-03 -.407E-03 -.109E-24   0.461E-04 -.327E-06 -.164E-12
   0.546E+00 -.248E-02 -.440E+00   -.558E+00 0.259E-02 0.473E+00   0.950E-02 -.928E-04 -.269E-01   0.479E-04 -.508E-07 -.223E-05
   -.546E+00 0.248E-02 -.440E+00   0.558E+00 -.259E-02 0.473E+00   -.950E-02 0.928E-04 -.269E-01   -.479E-04 0.508E-07 -.223E-05
   -.409E+00 0.438E+00 -.785E-09   0.414E+00 -.470E+00 0.131E-13   -.272E-02 0.268E-01 0.273E-26   -.427E-04 0.167E-05 -.123E-12
   0.409E+00 -.438E+00 0.785E-09   -.414E+00 0.470E+00 0.954E-14   0.272E-02 -.268E-01 -.807E-26   0.427E-04 -.167E-05 -.346E-13
   0.309E+00 0.248E-02 0.420E-01   -.317E+00 -.259E-02 -.416E-01   0.643E-02 0.898E-04 -.318E-03   0.470E-04 0.736E-07 -.513E-06
   -.309E+00 -.248E-02 0.420E-01   0.317E+00 0.259E-02 -.416E-01   -.643E-02 -.898E-04 -.318E-03   -.470E-04 -.736E-07 -.513E-06
   -.737E-01 0.395E-01 0.278E-10   0.762E-01 -.391E-01 0.160E-13   -.199E-02 -.406E-03 0.511E-25   -.461E-04 -.868E-06 -.199E-12
   0.737E-01 -.395E-01 -.264E-10   -.762E-01 0.391E-01 0.125E-13   0.199E-02 0.406E-03 -.613E-26   0.461E-04 0.868E-06 -.169E-12
   0.309E+00 0.248E-02 -.420E-01   -.317E+00 -.259E-02 0.416E-01   0.643E-02 0.898E-04 0.318E-03   0.470E-04 0.736E-07 0.513E-06
   -.309E+00 -.248E-02 -.420E-01   0.317E+00 0.259E-02 0.416E-01   -.643E-02 -.898E-04 0.318E-03   -.470E-04 -.736E-07 0.513E-06
   0.209E+00 0.445E+00 -.502E-05   -.269E+00 -.479E+00 -.153E-13   0.530E-01 0.273E-01 -.227E-22   0.514E-04 0.344E-05 -.526E-13
   -.209E+00 -.445E+00 0.502E-05   0.269E+00 0.479E+00 0.599E-14   -.530E-01 -.273E-01 0.109E-24   -.514E-04 -.344E-05 -.314E-13
   0.759E-01 0.752E-03 -.446E+00   -.736E-01 -.777E-03 0.479E+00   -.259E-02 0.203E-04 -.273E-01   -.484E-04 0.216E-06 -.297E-05
   -.759E-01 -.752E-03 -.446E+00   0.736E-01 0.777E-03 0.479E+00   0.259E-02 -.203E-04 -.273E-01   0.484E-04 -.216E-06 -.297E-05
   0.119E+00 0.397E-01 0.279E-07   -.121E+00 -.392E-01 0.160E-13   0.130E-02 -.427E-03 -.796E-25   0.481E-04 0.333E-06 -.278E-12
   -.119E+00 -.397E-01 -.279E-07   0.121E+00 0.392E-01 0.891E-14   -.130E-02 0.427E-03 0.875E-25   -.481E-04 -.333E-06 -.180E-12
   0.759E-01 0.752E-03 0.446E+00   -.736E-01 -.777E-03 -.479E+00   -.259E-02 0.203E-04 0.273E-01   -.484E-04 0.216E-06 0.297E-05
   -.759E-01 -.752E-03 0.446E+00   0.736E-01 0.777E-03 -.479E+00   0.259E-02 -.203E-04 0.273E-01   0.484E-04 -.216E-06 0.297E-05
   -.116E+00 -.445E+00 -.786E-09   0.119E+00 0.479E+00 -.162E-13   -.172E-02 -.273E-01 0.395E-25   0.462E-04 -.263E-05 -.121E-12
   0.116E+00 0.445E+00 0.781E-09   -.119E+00 -.479E+00 0.194E-13   0.172E-02 0.273E-01 -.457E-25   -.462E-04 0.263E-05 -.577E-14
   -.159E+00 -.753E-03 -.404E-01   0.166E+00 0.777E-03 0.400E-01   -.560E-02 -.197E-04 0.407E-03   -.495E-04 -.181E-06 -.214E-06
   0.159E+00 0.753E-03 -.404E-01   -.166E+00 -.777E-03 0.400E-01   0.560E-02 0.197E-04 0.407E-03   0.495E-04 0.181E-06 -.214E-06
   0.533E-01 -.397E-01 0.170E-10   -.560E-01 0.392E-01 0.142E-13   0.211E-02 0.428E-03 0.180E-25   0.480E-04 -.689E-06 -.222E-12
   -.533E-01 0.397E-01 -.934E-11   0.560E-01 -.392E-01 0.892E-14   -.211E-02 -.428E-03 -.282E-25   -.480E-04 0.689E-06 -.233E-12
   -.159E+00 -.753E-03 0.404E-01   0.166E+00 0.777E-03 -.400E-01   -.560E-02 -.197E-04 -.407E-03   -.495E-04 -.181E-06 0.214E-06
   0.159E+00 0.753E-03 0.404E-01   -.166E+00 -.777E-03 -.400E-01   0.560E-02 0.197E-04 -.407E-03   0.495E-04 0.181E-06 0.214E-06
   0.971E+00 0.157E+00 0.172E+00   -.983E+00 -.159E+00 -.174E+00   0.171E-01 0.325E-02 0.320E-02   0.432E-04 0.793E-06 0.702E-06
   -.971E+00 -.157E+00 0.172E+00   0.983E+00 0.159E+00 -.174E+00   -.171E-01 -.325E-02 0.320E-02   -.432E-04 -.793E-06 0.702E-06
   -.289E+01 0.152E-01 0.148E-05   0.291E+01 -.153E-01 0.869E-14   -.140E-01 -.714E-04 0.560E-24   -.421E-04 -.340E-06 -.173E-13
   0.289E+01 -.152E-01 -.148E-05   -.291E+01 0.153E-01 -.135E-13   0.140E-01 0.714E-04 -.412E-24   0.421E-04 0.340E-06 -.332E-13
   0.971E+00 0.157E+00 -.172E+00   -.983E+00 -.159E+00 0.174E+00   0.171E-01 0.325E-02 -.320E-02   0.432E-04 0.793E-06 -.702E-06
   -.971E+00 -.157E+00 -.172E+00   0.983E+00 0.159E+00 0.174E+00   -.171E-01 -.325E-02 -.320E-02   -.432E-04 -.793E-06 -.702E-06
   -.127E+00 0.382E-03 0.835E-08   0.128E+00 -.398E-03 -.354E-14   -.115E-02 0.257E-04 -.735E-25   -.409E-04 -.111E-05 -.160E-12
   0.127E+00 -.382E-03 -.834E-08   -.128E+00 0.398E-03 0.623E-14   0.115E-02 -.257E-04 0.765E-25   0.409E-04 0.111E-05 -.184E-12
   0.173E+00 -.157E+00 0.157E+00   -.174E+00 0.159E+00 -.159E+00   0.212E-02 -.325E-02 0.327E-02   0.396E-04 -.603E-06 0.101E-05
   -.173E+00 0.157E+00 0.157E+00   0.174E+00 -.159E+00 -.159E+00   -.212E-02 0.325E-02 0.327E-02   -.396E-04 0.603E-06 0.101E-05
   -.926E+00 -.152E-01 0.296E-10   0.937E+00 0.153E-01 0.237E-14   -.162E-01 0.459E-04 -.202E-24   -.423E-04 0.730E-06 -.215E-13
   0.926E+00 0.152E-01 -.269E-10   -.937E+00 -.153E-01 -.145E-13   0.162E-01 -.459E-04 -.107E-24   0.423E-04 -.730E-06 -.700E-13
   0.173E+00 -.157E+00 -.157E+00   -.174E+00 0.159E+00 0.159E+00   0.212E-02 -.325E-02 -.327E-02   0.396E-04 -.603E-06 -.101E-05
   -.173E+00 0.157E+00 -.157E+00   0.174E+00 -.159E+00 0.159E+00   -.212E-02 0.325E-02 -.327E-02   -.396E-04 0.603E-06 -.101E-05
   -.111E+00 -.384E-03 -.733E-11   0.112E+00 0.398E-03 -.266E-14   -.152E-02 -.241E-04 -.913E-26   -.401E-04 0.183E-06 -.175E-12
   0.111E+00 0.384E-03 0.804E-11   -.112E+00 -.398E-03 0.771E-17   0.152E-02 0.241E-04 0.101E-25   0.401E-04 -.183E-06 -.127E-12
   -.216E+00 -.159E+00 -.160E+00   0.220E+00 0.161E+00 0.162E+00   -.657E-02 -.330E-02 -.333E-02   -.436E-04 -.150E-05 -.664E-06
   0.216E+00 0.159E+00 -.160E+00   -.220E+00 -.161E+00 0.162E+00   0.657E-02 0.330E-02 -.333E-02   0.436E-04 0.150E-05 -.664E-06
   -.177E+01 -.156E-02 0.148E-05   0.178E+01 0.158E-02 0.104E-13   0.148E-01 -.198E-04 -.485E-23   0.448E-04 -.741E-07 -.381E-13
   0.177E+01 0.156E-02 -.148E-05   -.178E+01 -.158E-02 -.829E-14   -.148E-01 0.198E-04 -.409E-23   -.448E-04 0.741E-07 0.843E-14
   -.216E+00 -.159E+00 0.160E+00   0.220E+00 0.161E+00 -.162E+00   -.657E-02 -.330E-02 0.333E-02   -.436E-04 -.150E-05 0.664E-06
   0.216E+00 0.159E+00 0.160E+00   -.220E+00 -.161E+00 -.162E+00   0.657E-02 0.330E-02 0.333E-02   0.436E-04 0.150E-05 0.664E-06
   0.760E-01 -.271E-03 0.834E-08   -.773E-01 0.274E-03 -.355E-14   0.211E-02 -.240E-05 0.236E-24   0.415E-04 -.441E-06 -.168E-12
   -.760E-01 0.271E-03 -.833E-08   0.773E-01 -.274E-03 0.837E-17   -.211E-02 0.240E-05 -.234E-24   -.415E-04 0.441E-06 -.223E-12
   -.313E-01 0.159E+00 -.159E+00   0.320E-01 -.161E+00 0.161E+00   -.112E-02 0.330E-02 -.330E-02   -.412E-04 0.124E-05 -.130E-05
   0.313E-01 -.159E+00 -.159E+00   -.320E-01 0.161E+00 0.161E+00   0.112E-02 -.330E-02 -.330E-02   0.412E-04 -.124E-05 -.130E-05
   0.260E+00 0.156E-02 0.296E-10   -.265E+00 -.158E-02 0.734E-14   0.756E-02 0.266E-04 0.160E-24   0.442E-04 -.262E-06 -.113E-13
   -.260E+00 -.156E-02 -.353E-10   0.265E+00 0.158E-02 -.140E-13   -.756E-02 -.266E-04 -.149E-24   -.442E-04 0.262E-06 -.574E-13
   -.313E-01 0.159E+00 0.159E+00   0.320E-01 -.161E+00 -.161E+00   -.112E-02 0.330E-02 0.330E-02   -.412E-04 0.124E-05 0.130E-05
   0.313E-01 -.159E+00 0.159E+00   -.320E-01 0.161E+00 -.161E+00   0.112E-02 -.330E-02 0.330E-02   0.412E-04 -.124E-05 0.130E-05
   0.908E-01 0.271E-03 -.454E-11   -.918E-01 -.274E-03 -.416E-16   0.169E-02 0.258E-05 -.224E-24   0.418E-04 0.755E-06 -.192E-12
   -.908E-01 -.271E-03 0.724E-11   0.918E-01 0.274E-03 -.583E-16   -.169E-02 -.258E-05 0.236E-24   -.418E-04 -.755E-06 -.155E-12
 -----------------------------------------------------------------------------------------------
   0.319E-10 0.927E-11 -.200E-10   0.294E-13 -.597E-13 0.988E-13   -.347E-17 -.347E-17 0.124E-25   -.515E-12 -.321E-12 -.126E-11
 
 
 POSITION                                       TOTAL-FORCE (eV/Angst)
 -----------------------------------------------------------------------------------
     11.17400      0.00000      0.00000         0.064316      0.005715      0.000000
      2.83100      2.80100      0.00000        -0.064316     -0.005715      0.000000
      2.80100      0.00000      2.80100        -0.003171      0.000021     -0.005821
      0.00000      2.80100      2.80100         0.003171     -0.000021     -0.005821
      0.00000      0.00000      5.60200         0.000028     -0.000073      0.000000
      2.80100      2.80100      5.60200        -0.000028      0.000073      0.000000
      2.80100      0.00000      8.40300        -0.003171      0.000021      0.005821
      0.00000      2.80100      8.40300         0.003171     -0.000021      0.005821
      0.00000      5.60200      0.00000         0.001558     -0.005799      0.000000
      2.80100      8.40300      0.00000        -0.001558      0.005799      0.000000
      2.80100      5.60200      2.80100        -0.001641     -0.000020      0.000054
      0.00000      8.40300      2.80100         0.001641      0.000020      0.000054
      0.00000      5.60200      5.60200         0.000432      0.000073      0.000000
      2.80100      8.40300      5.60200        -0.000432     -0.000073      0.000000
      2.80100      5.60200      8.40300        -0.001641     -0.000020     -0.000054
      0.00000      8.40300      8.40300         0.001641      0.000020     -0.000054
      5.60200      0.00000      0.00000        -0.007400     -0.005926      0.000000
      8.40300      2.80100      0.00000         0.007400      0.005926      0.000000
      8.40300      0.00000      2.80100        -0.000351     -0.000004      0.005930
      5.60200      2.80100      2.80100         0.000351      0.000004      0.005930
      5.60200      0.00000      5.60200        -0.000341      0.000077      0.000000
      8.40300      2.80100      5.60200         0.000341     -0.000077      0.000000
      8.40300      0.00000      8.40300        -0.000351     -0.000004     -0.005930
      5.60200      2.80100      8.40300         0.000351      0.000004     -0.005930
      5.60200      5.60200      0.00000         0.001206      0.005925      0.000000
      8.40300      8.40300      0.00000        -0.001206     -0.005925      0.000000
      8.40300      5.60200      2.80100         0.001196      0.000004     -0.000073
      5.60200      8.40300      2.80100        -0.001196     -0.000004     -0.000073
      5.60200      5.60200      5.60200        -0.000474     -0.000077      0.000000
      8.40300      8.40300      5.60200         0.000474      0.000077      0.000000
      8.40300      5.60200      8.40300         0.001196      0.000004      0.000073
      5.60200      8.40300      8.40300        -0.001196     -0.000004      0.000073
      2.80100      2.80100      2.80100         0.005234      0.001282      0.001158
      0.00000      0.00000      2.80100        -0.005234     -0.001282      0.001158
      0.00000      2.80100      0.00000         0.011184     -0.000156      0.000000
      2.80100      0.00000      0.00000        -0.011184      0.000156      0.000000
      2.80100      2.80100      8.40300         0.005234      0.001282     -0.001158
      0.00000      0.00000      8.40300        -0.005234     -0.001282     -0.001158
      0.00000      2.80100      5.60200        -0.000453      0.000009      0.000000
      2.80100      0.00000      5.60200         0.000453     -0.000009      0.000000
      2.80100      8.40300      2.80100         0.000833     -0.001282      0.001292
      0.00000      5.60200      2.80100        -0.000833      0.001282      0.001292
      0.00000      8.40300      0.00000        -0.004854      0.000125      0.000000
      2.80100      5.60200      0.00000         0.004854     -0.000125      0.000000
      2.80100      8.40300      8.40300         0.000833     -0.001282     -0.001292
      0.00000      5.60200      8.40300        -0.000833      0.001282     -0.001292
      0.00000      8.40300      5.60200        -0.000604     -0.000010      0.000000
      2.80100      5.60200      5.60200         0.000604      0.000010      0.000000
      8.40300      2.80100      2.80100        -0.002611     -0.001304     -0.001316
      5.60200      0.00000      2.80100         0.002611      0.001304     -0.001316
      5.60200      2.80100      0.00000         0.023054     -0.000002      0.000000
      8.40300      0.00000      0.00000        -0.023054      0.000002      0.000000
      8.40300      2.80100      8.40300        -0.002611     -0.001304      0.001316
      5.60200      0.00000      8.40300         0.002611      0.001304      0.001316
      5.60200      2.80100      5.60200         0.000834     -0.000001      0.000000
      8.40300      0.00000      5.60200        -0.000834      0.000001      0.000000
      8.40300      8.40300      2.80100        -0.000446      0.001305     -0.001305
      5.60200      5.60200      2.80100         0.000446     -0.001305     -0.001305
      5.60200      8.40300      0.00000         0.002996      0.000012      0.000000
      8.40300      5.60200      0.00000        -0.002996     -0.000012      0.000000
      8.40300      8.40300      8.40300        -0.000446      0.001305      0.001305
      5.60200      5.60200      8.40300         0.000446     -0.001305      0.001305
      5.60200      8.40300      5.60200         0.000664      0.000000      0.000000
      8.40300      5.60200      5.60200        -0.000664     -0.000000      0.000000
 -----------------------------------------------------------------------------------
    total drift:                                0.000000      0.000000     -0.000000


--------------------------------------------------------------------------------------------------------



  FREE ENERGIE OF THE ION-ELECTRON SYSTEM (eV)
  ---------------------------------------------------
  free  energy   TOTEN  =      -223.90078062 eV

  energy  without entropy=     -223.90078062  energy(sigma->0) =     -223.90078062
 


--------------------------------------------------------------------------------------------------------


    POTLOK:  cpu time      0.0694: real time      0.0697


--------------------------------------------------------------------------------------------------------


     LOOP+:  cpu time    232.3599: real time    233.6841
    4ORBIT:  cpu time      0.0000: real time      0.0000

 total amount of memory used by VASP MPI-rank0   129658. kBytes
=======================================================================

   base      :      30000. kBytes
   nonl-proj :      41680. kBytes
   fftplans  :      14405. kBytes
   grid      :      19342. kBytes
   one-center:        196. kBytes
   wavefun   :      24035. kBytes
 
  
  
 General timing and accounting informations for this job:
 ========================================================
  
                  Total CPU time used (sec):      236.812
                            User time (sec):      236.210
                          System time (sec):        0.602
                         Elapsed time (sec):      239.339
  
                   Maximum memory used (kb):      313800.
                   Average memory used (kb):          N/A
  
                          Minor page faults:       119003
                          Major page faults:          194
                 Voluntary context switches:         1574
