<?xml version="1.0" encoding="ISO-8859-1"?>
<modeling>
 <generator>
  <i name="program" type="string">vasp </i>
  <i name="version" type="string">6.3.2  </i>
  <i name="subversion" type="string">27Jun22 (build Oct 14 2022 12:13:54) complex                          parallel </i>
  <i name="platform" type="string">LinuxIFC </i>
  <i name="date" type="string">2025 08 28 </i>
  <i name="time" type="string">21:57:06 </i>
 </generator>
 <incar>
  <i type="string" name="PREC">Accurate</i>
  <i type="int" name="IALGO">    38</i>
  <i type="logical" name="ADDGRID"> T  </i>
  <i type="int" name="NELMIN">     5</i>
  <i type="int" name="IBRION">    -1</i>
  <i name="EDIFF">      0.00000001</i>
  <i name="ENCUT">    341.21360000</i>
  <i type="logical" name="LREAL"> F  </i>
  <i type="int" name="ISMEAR">     0</i>
  <i name="SIGMA">      0.02000000</i>
  <i type="logical" name="LWAVE"> F  </i>
  <i type="logical" name="LCHARG"> F  </i>
  <i type="string" name="GGA">PS</i>
 </incar>
 <primitive_cell>
  <structure name="primitive_cell" >
   <crystal>
    <varray name="basis" >
     <v>      11.20400236       0.00000000       0.00000000 </v>
     <v>       0.00000000      11.20400236       0.00000000 </v>
     <v>       0.00000000       0.00000000      11.20400236 </v>
    </varray>
    <i name="volume">   1406.43470641 </i>
    <varray name="rec_basis" >
     <v>       0.08925382       0.00000000       0.00000000 </v>
     <v>       0.00000000       0.08925382       0.00000000 </v>
     <v>       0.00000000       0.00000000       0.08925382 </v>
    </varray>
   </crystal>
   <varray name="positions" >
    <v>       0.99732239       0.00000000       0.00000000 </v>
    <v>       0.25267761       0.25000000       0.00000000 </v>
    <v>       0.25000000       0.00000000       0.25000000 </v>
    <v>       0.00000000       0.25000000       0.25000000 </v>
    <v>       0.00000000       0.00000000       0.50000000 </v>
    <v>       0.25000000       0.25000000       0.50000000 </v>
    <v>       0.25000000       0.00000000       0.75000000 </v>
    <v>       0.00000000       0.25000000       0.75000000 </v>
    <v>       0.00000000       0.50000000       0.00000000 </v>
    <v>       0.25000000       0.75000000       0.00000000 </v>
    <v>       0.25000000       0.50000000       0.25000000 </v>
    <v>       0.00000000       0.75000000       0.25000000 </v>
    <v>       0.00000000       0.50000000       0.50000000 </v>
    <v>       0.25000000       0.75000000       0.50000000 </v>
    <v>       0.25000000       0.50000000       0.75000000 </v>
    <v>       0.00000000       0.75000000       0.75000000 </v>
    <v>       0.50000000       0.00000000       0.00000000 </v>
    <v>       0.75000000       0.25000000       0.00000000 </v>
    <v>       0.75000000       0.00000000       0.25000000 </v>
    <v>       0.50000000       0.25000000       0.25000000 </v>
    <v>       0.50000000       0.00000000       0.50000000 </v>
    <v>       0.75000000       0.25000000       0.50000000 </v>
    <v>       0.75000000       0.00000000       0.75000000 </v>
    <v>       0.50000000       0.25000000       0.75000000 </v>
    <v>       0.50000000       0.50000000       0.00000000 </v>
    <v>       0.75000000       0.75000000       0.00000000 </v>
    <v>       0.75000000       0.50000000       0.25000000 </v>
    <v>       0.50000000       0.75000000       0.25000000 </v>
    <v>       0.50000000       0.50000000       0.50000000 </v>
    <v>       0.75000000       0.75000000       0.50000000 </v>
    <v>       0.75000000       0.50000000       0.75000000 </v>
    <v>       0.50000000       0.75000000       0.75000000 </v>
    <v>       0.25000000       0.25000000       0.25000000 </v>
    <v>       0.00000000       0.00000000       0.25000000 </v>
    <v>       0.00000000       0.25000000       0.00000000 </v>
    <v>       0.25000000       0.00000000       0.00000000 </v>
    <v>       0.25000000       0.25000000       0.75000000 </v>
    <v>       0.00000000       0.00000000       0.75000000 </v>
    <v>       0.00000000       0.25000000       0.50000000 </v>
    <v>       0.25000000       0.00000000       0.50000000 </v>
    <v>       0.25000000       0.75000000       0.25000000 </v>
    <v>       0.00000000       0.50000000       0.25000000 </v>
    <v>       0.00000000       0.75000000       0.00000000 </v>
    <v>       0.25000000       0.50000000       0.00000000 </v>
    <v>       0.25000000       0.75000000       0.75000000 </v>
    <v>       0.00000000       0.50000000       0.75000000 </v>
    <v>       0.00000000       0.75000000       0.50000000 </v>
    <v>       0.25000000       0.50000000       0.50000000 </v>
    <v>       0.75000000       0.25000000       0.25000000 </v>
    <v>       0.50000000       0.00000000       0.25000000 </v>
    <v>       0.50000000       0.25000000       0.00000000 </v>
    <v>       0.75000000       0.00000000       0.00000000 </v>
    <v>       0.75000000       0.25000000       0.75000000 </v>
    <v>       0.50000000       0.00000000       0.75000000 </v>
    <v>       0.50000000       0.25000000       0.50000000 </v>
    <v>       0.75000000       0.00000000       0.50000000 </v>
    <v>       0.75000000       0.75000000       0.25000000 </v>
    <v>       0.50000000       0.50000000       0.25000000 </v>
    <v>       0.50000000       0.75000000       0.00000000 </v>
    <v>       0.75000000       0.50000000       0.00000000 </v>
    <v>       0.75000000       0.75000000       0.75000000 </v>
    <v>       0.50000000       0.50000000       0.75000000 </v>
    <v>       0.50000000       0.75000000       0.50000000 </v>
    <v>       0.75000000       0.50000000       0.50000000 </v>
   </varray>
  </structure>
  <varray name="primitive_index" >
   <v type="int" >        1 </v>
   <v type="int" >        2 </v>
   <v type="int" >        3 </v>
   <v type="int" >        4 </v>
   <v type="int" >        5 </v>
   <v type="int" >        6 </v>
   <v type="int" >        7 </v>
   <v type="int" >        8 </v>
   <v type="int" >        9 </v>
   <v type="int" >       10 </v>
   <v type="int" >       11 </v>
   <v type="int" >       12 </v>
   <v type="int" >       13 </v>
   <v type="int" >       14 </v>
   <v type="int" >       15 </v>
   <v type="int" >       16 </v>
   <v type="int" >       17 </v>
   <v type="int" >       18 </v>
   <v type="int" >       19 </v>
   <v type="int" >       20 </v>
   <v type="int" >       21 </v>
   <v type="int" >       22 </v>
   <v type="int" >       23 </v>
   <v type="int" >       24 </v>
   <v type="int" >       25 </v>
   <v type="int" >       26 </v>
   <v type="int" >       27 </v>
   <v type="int" >       28 </v>
   <v type="int" >       29 </v>
   <v type="int" >       30 </v>
   <v type="int" >       31 </v>
   <v type="int" >       32 </v>
   <v type="int" >       33 </v>
   <v type="int" >       34 </v>
   <v type="int" >       35 </v>
   <v type="int" >       36 </v>
   <v type="int" >       37 </v>
   <v type="int" >       38 </v>
   <v type="int" >       39 </v>
   <v type="int" >       40 </v>
   <v type="int" >       41 </v>
   <v type="int" >       42 </v>
   <v type="int" >       43 </v>
   <v type="int" >       44 </v>
   <v type="int" >       45 </v>
   <v type="int" >       46 </v>
   <v type="int" >       47 </v>
   <v type="int" >       48 </v>
   <v type="int" >       49 </v>
   <v type="int" >       50 </v>
   <v type="int" >       51 </v>
   <v type="int" >       52 </v>
   <v type="int" >       53 </v>
   <v type="int" >       54 </v>
   <v type="int" >       55 </v>
   <v type="int" >       56 </v>
   <v type="int" >       57 </v>
   <v type="int" >       58 </v>
   <v type="int" >       59 </v>
   <v type="int" >       60 </v>
   <v type="int" >       61 </v>
   <v type="int" >       62 </v>
   <v type="int" >       63 </v>
   <v type="int" >       64 </v>
  </varray>
 </primitive_cell>
 <kpoints>
  <generation param="Gamma">
   <v type="int" name="divisions">       2        2        2 </v>
   <v name="usershift">      0.00000000       0.00000000       0.00000000 </v>
   <v name="genvec1">      0.50000000       0.00000000       0.00000000 </v>
   <v name="genvec2">      0.00000000       0.50000000       0.00000000 </v>
   <v name="genvec3">      0.00000000       0.00000000       0.50000000 </v>
   <v name="shift">      0.00000000       0.00000000       0.00000000 </v>
  </generation>
  <varray name="kpointlist" >
   <v>       0.00000000       0.00000000       0.00000000 </v>
   <v>       0.50000000       0.00000000       0.00000000 </v>
   <v>       0.00000000       0.50000000       0.00000000 </v>
   <v>       0.00000000       0.00000000       0.50000000 </v>
   <v>       0.50000000       0.50000000       0.00000000 </v>
   <v>       0.00000000       0.50000000       0.50000000 </v>
   <v>       0.50000000       0.00000000       0.50000000 </v>
   <v>       0.50000000       0.50000000       0.50000000 </v>
  </varray>
  <varray name="weights" >
   <v>       0.12500000 </v>
   <v>       0.12500000 </v>
   <v>       0.12500000 </v>
   <v>       0.12500000 </v>
   <v>       0.12500000 </v>
   <v>       0.12500000 </v>
   <v>       0.12500000 </v>
   <v>       0.12500000 </v>
  </varray>
 </kpoints>
 <parameters>
  <separator name="general" >
   <i type="string" name="SYSTEM">unknown system</i>
   <i type="logical" name="LCOMPAT"> F  </i>
  </separator>
  <separator name="electronic" >
   <i type="string" name="PREC">accura</i>
   <i name="ENMAX">    341.21360000</i>
   <i name="ENAUG">    368.05600000</i>
   <i name="EDIFF">      0.00000001</i>
   <i type="int" name="IALGO">    38</i>
   <i type="int" name="IWAVPR">    10</i>
   <i type="int" name="NBANDS">   288</i>
   <i type="int" name="NBANDSLOW">    -1</i>
   <i type="int" name="NBANDSHIGH">    -1</i>
   <i name="NELECT">    448.00000000</i>
   <i type="int" name="TURBO">     0</i>
   <i type="int" name="IRESTART">     0</i>
   <i type="int" name="NREBOOT">     0</i>
   <i type="int" name="NMIN">     0</i>
   <i name="EREF">      0.00000000</i>
   <separator name="electronic smearing" >
    <i type="int" name="ISMEAR">     0</i>
    <i name="SIGMA">      0.02000000</i>
    <i name="KSPACING">      0.50000000</i>
    <i type="logical" name="KGAMMA"> T  </i>
    <i type="logical" name="KBLOWUP"> T  </i>
   </separator>
   <separator name="electronic projectors" >
    <i type="logical" name="LREAL"> F  </i>
    <v name="ROPT">      0.00000000      0.00000000</v>
    <i type="int" name="LMAXPAW">  -100</i>
    <i type="int" name="LMAXMIX">     2</i>
    <i type="logical" name="NLSPLINE"> F  </i>
   </separator>
   <separator name="electronic startup" >
    <i type="int" name="ISTART">     0</i>
    <i type="int" name="ICHARG">     2</i>
    <i type="int" name="INIWAV">     1</i>
   </separator>
   <separator name="electronic spin" >
    <i type="int" name="ISPIN">     1</i>
    <i type="logical" name="LNONCOLLINEAR"> F  </i>
    <v name="MAGMOM">      1.00000000      1.00000000      1.00000000      1.00000000      1.00000000      1.00000000      1.00000000      1.00000000      1.00000000      1.00000000      1.00000000      1.00000000      1.00000000      1.00000000      1.00000000      1.00000000      1.00000000      1.00000000      1.00000000      1.00000000
      1.00000000      1.00000000      1.00000000      1.00000000      1.00000000      1.00000000      1.00000000      1.00000000      1.00000000      1.00000000      1.00000000      1.00000000      1.00000000      1.00000000      1.00000000      1.00000000      1.00000000      1.00000000      1.00000000      1.00000000
      1.00000000      1.00000000      1.00000000      1.00000000      1.00000000      1.00000000      1.00000000      1.00000000      1.00000000      1.00000000      1.00000000      1.00000000      1.00000000      1.00000000      1.00000000      1.00000000      1.00000000      1.00000000      1.00000000      1.00000000
      1.00000000      1.00000000      1.00000000      1.00000000</v>
    <i name="NUPDOWN">     -1.00000000</i>
    <i type="logical" name="LSORBIT"> F  </i>
    <v name="SAXIS">      0.00000000      0.00000000      1.00000000</v>
    <i type="logical" name="LSPIRAL"> F  </i>
    <v name="QSPIRAL">      0.00000000      0.00000000      0.00000000</v>
    <i type="logical" name="LZEROZ"> F  </i>
   </separator>
   <separator name="electronic exchange-correlation" >
    <i type="logical" name="LASPH"> F  </i>
    <i type="logical" name="LMETAGGA"> F  </i>
   </separator>
   <separator name="electronic convergence" >
    <i type="int" name="NELM">    60</i>
    <i type="int" name="NELMDL">    -5</i>
    <i type="int" name="NELMIN">     5</i>
    <i name="ENINI">    341.21360000</i>
    <separator name="electronic convergence detail" >
     <i type="logical" name="LDIAG"> T  </i>
     <i type="logical" name="LSUBROT"> F  </i>
     <i name="WEIMIN">      0.00000000</i>
     <i name="EBREAK">      0.00000000</i>
     <i name="DEPER">      0.30000000</i>
     <i type="int" name="NRMM">     4</i>
     <i name="TIME">      0.40000000</i>
    </separator>
   </separator>
   <separator name="electronic mixer" >
    <i name="AMIX">      0.40000000</i>
    <i name="BMIX">      1.00000000</i>
    <i name="AMIN">      0.10000000</i>
    <i name="AMIX_MAG">      1.60000000</i>
    <i name="BMIX_MAG">      1.00000000</i>
    <separator name="electronic mixer details" >
     <i type="int" name="IMIX">     4</i>
     <i type="logical" name="MIXFIRST"> F  </i>
     <i type="int" name="MAXMIX">   -45</i>
     <i name="WC">    100.00000000</i>
     <i type="int" name="INIMIX">     1</i>
     <i type="int" name="MIXPRE">     1</i>
     <i type="int" name="MREMOVE">     5</i>
    </separator>
   </separator>
   <separator name="electronic dipolcorrection" >
    <i type="logical" name="LDIPOL"> F  </i>
    <i type="logical" name="LMONO"> F  </i>
    <i type="int" name="IDIPOL">     0</i>
    <i name="EPSILON">      1.00000000</i>
    <v name="DIPOL">   -100.00000000   -100.00000000   -100.00000000</v>
    <i name="EFIELD">      0.00000000</i>
   </separator>
  </separator>
  <separator name="grids" >
   <i type="int" name="NGX">    70</i>
   <i type="int" name="NGY">    70</i>
   <i type="int" name="NGZ">    70</i>
   <i type="int" name="NGXF">   140</i>
   <i type="int" name="NGYF">   140</i>
   <i type="int" name="NGZF">   140</i>
   <i type="logical" name="ADDGRID"> T  </i>
  </separator>
  <separator name="ionic" >
   <i type="int" name="NSW">     0</i>
   <i type="int" name="IBRION">    -1</i>
   <i type="int" name="MDALGO">     0</i>
   <i type="int" name="ISIF">     2</i>
   <i name="PSTRESS">      0.00000000</i>
   <i name="EDIFFG">      0.00000010</i>
   <i type="int" name="NFREE">     0</i>
   <i name="POTIM">      0.50000000</i>
   <i name="SMASS">     -3.00000000</i>
   <i name="SCALEE">      1.00000000</i>
  </separator>
  <separator name="ionic md" >
   <i name="TEBEG">      0.00010000</i>
   <i name="TEEND">      0.00010000</i>
   <i type="int" name="NBLOCK">     1</i>
   <i type="int" name="KBLOCK">     1</i>
   <i type="int" name="NPACO">   256</i>
   <i name="APACO">     10.00000000</i>
  </separator>
  <separator name="symmetry" >
   <i type="int" name="ISYM">     2</i>
   <i name="SYMPREC">      0.00001000</i>
  </separator>
  <separator name="dos" >
   <i type="int" name="LORBIT">     0</i>
   <v name="RWIGS">     -1.00000000     -1.00000000</v>
   <i type="int" name="NEDOS">   301</i>
   <i name="EMIN">     10.00000000</i>
   <i name="EMAX">    -10.00000000</i>
   <i name="EFERMI">      0.00000000</i>
  </separator>
  <separator name="writing" >
   <i type="int" name="NWRITE">     2</i>
   <i type="logical" name="LWAVE"> F  </i>
   <i type="logical" name="LDOWNSAMPLE"> F  </i>
   <i type="logical" name="LCHARG"> F  </i>
   <i type="logical" name="LPARD"> F  </i>
   <i type="logical" name="LVTOT"> F  </i>
   <i type="logical" name="LVHAR"> F  </i>
   <i type="logical" name="LELF"> F  </i>
   <i type="logical" name="LOPTICS"> F  </i>
   <v name="STM">      0.00000000      0.00000000      0.00000000      0.00000000      0.00000000      0.00000000      0.00000000</v>
  </separator>
  <separator name="performance" >
   <i type="int" name="NPAR">    32</i>
   <i type="int" name="NSIM">     4</i>
   <i type="int" name="NBLK">    -1</i>
   <i type="logical" name="LPLANE"> T  </i>
   <i type="logical" name="LSCALAPACK"> T  </i>
   <i type="logical" name="LSCAAWARE"> F  </i>
   <i type="logical" name="LSCALU"> F  </i>
   <i type="logical" name="LASYNC"> F  </i>
   <i type="logical" name="LORBITALREAL"> F  </i>
  </separator>
  <separator name="miscellaneous" >
   <i type="int" name="IDIOT">     3</i>
   <i type="int" name="PHON_NSTRUCT">    -1</i>
   <i type="logical" name="LMUSIC"> F  </i>
   <v name="POMASS">     22.99000000     35.45300000</v>
   <v name="DARWINR">      0.00000000      0.00000000</v>
   <v name="DARWINV">      1.00000000      1.00000000</v>
   <i type="logical" name="LCORR"> T  </i>
  </separator>
  <i type="logical" name="GGA_COMPAT"> T  </i>
  <i type="logical" name="LBERRY"> F  </i>
  <i type="int" name="ICORELEVEL">     0</i>
  <i type="logical" name="LDAU"> F  </i>
  <i type="int" name="I_CONSTRAINED_M">     0</i>
  <separator name="electronic exchange-correlation" >
   <i type="string" name="GGA">PS</i>
   <i type="int" name="VOSKOWN">     0</i>
   <i type="logical" name="LHFCALC"> F  </i>
   <i type="string" name="PRECFOCK"></i>
   <i type="logical" name="LSYMGRAD"> F  </i>
   <i type="logical" name="LHFONE"> F  </i>
   <i type="logical" name="LRHFCALC"> F  </i>
   <i type="logical" name="LTHOMAS"> F  </i>
   <i type="logical" name="LMODELHF"> F  </i>
   <i type="logical" name="LFOCKACE"> F  </i>
   <i name="ENCUT4O">     -1.00000000</i>
   <i type="int" name="EXXOEP">     0</i>
   <i type="int" name="FOURORBIT">     0</i>
   <i name="AEXX">      0.00000000</i>
   <i name="HFALPHA">      0.00000000</i>
   <i name="MCALPHA">      0.00000000</i>
   <i name="ALDAX">      1.00000000</i>
   <i name="AGGAX">      1.00000000</i>
   <i name="ALDAC">      1.00000000</i>
   <i name="AGGAC">      1.00000000</i>
   <i type="int" name="NKREDX">     1</i>
   <i type="int" name="NKREDY">     1</i>
   <i type="int" name="NKREDZ">     1</i>
   <i type="logical" name="SHIFTRED"> F  </i>
   <i type="logical" name="ODDONLY"> F  </i>
   <i type="logical" name="EVENONLY"> F  </i>
   <i type="int" name="LMAXFOCK">     0</i>
   <i type="int" name="NMAXFOCKAE">     0</i>
   <i type="logical" name="LFOCKAEDFT"> F  </i>
   <i name="HFSCREEN">      0.00000000</i>
   <i name="HFSCREENC">      0.00000000</i>
   <i type="int" name="NBANDSGWLOW">     0</i>
  </separator>
  <separator name="vdW DFT" >
   <i type="logical" name="LUSE_VDW"> F  </i>
   <i name="Zab_VDW">     -0.84910000</i>
   <i name="PARAM1">      0.12340000</i>
   <i name="PARAM2">      1.00000000</i>
   <i name="PARAM3">      0.00000000</i>
  </separator>
  <separator name="model GW" >
   <i type="int" name="MODEL_GW">     0</i>
   <i name="MODEL_EPS0">     13.18532537</i>
   <i name="MODEL_ALPHA">      1.00000000</i>
  </separator>
  <separator name="linear response parameters" >
   <i type="logical" name="LEPSILON"> F  </i>
   <i type="logical" name="LRPA"> F  </i>
   <i type="logical" name="LNABLA"> F  </i>
   <i type="logical" name="LVEL"> F  </i>
   <i name="CSHIFT">      0.10000000</i>
   <i name="OMEGAMAX">     -1.00000000</i>
   <i name="DEG_THRESHOLD">      0.00200000</i>
   <i name="RTIME">     -0.10000000</i>
   <i name="WPLASMAI">      0.00000000</i>
   <v name="DFIELD">      0.00000000      0.00000000      0.00000000</v>
   <v name="WPLASMA">      0.00000000      0.00000000      0.00000000      0.00000000      0.00000000      0.00000000      0.00000000      0.00000000      0.00000000</v>
  </separator>
  <separator name="orbital magnetization" >
   <i type="logical" name="NUCIND"> F  </i>
   <v name="MAGPOS">      0.00000000      0.00000000      0.00000000</v>
   <i type="logical" name="LNICSALL"> T  </i>
   <i type="logical" name="ORBITALMAG"> F  </i>
   <i type="logical" name="LMAGBLOCH"> F  </i>
   <i type="logical" name="LCHIMAG"> F  </i>
   <i type="logical" name="LGAUGE"> T  </i>
   <i type="int" name="MAGATOM">     0</i>
   <v name="MAGDIPOL">      0.00000000      0.00000000      0.00000000</v>
   <v name="AVECCONST">      0.00000000      0.00000000      0.00000000</v>
  </separator>
  <separator name="response functions" >
   <i type="logical" name="LFINITE_TEMPERATURE"> F  </i>
   <i type="logical" name="LADDER"> F  </i>
   <i type="logical" name="LRPAFORCE"> F  </i>
   <i type="logical" name="LFXC"> F  </i>
   <i type="logical" name="LHARTREE"> T  </i>
   <i type="int" name="IBSE">     0</i>
   <v type="int" name="KPOINT">    -1     0     0     0</v>
   <i type="logical" name="LTCTC"> F  </i>
   <i type="logical" name="LTCTE"> F  </i>
   <i type="logical" name="LTETE"> F  </i>
   <i type="logical" name="LTRIPLET"> F  </i>
   <i type="logical" name="LFXCEPS"> F  </i>
   <i type="logical" name="LFXHEG"> F  </i>
   <i type="int" name="NATURALO">     2</i>
   <i type="logical" name="LHOLEGF"> F  </i>
   <i type="logical" name="L2ORDER"> F  </i>
   <i type="logical" name="LDMP1"> F  </i>
   <i type="logical" name="LMP2LT"> F  </i>
   <i type="logical" name="LSMP2LT"> F  </i>
   <i type="logical" name="LGWLF"> F  </i>
   <i name="ENCUTGW">     -2.00000000</i>
   <i name="ENCUTGWSOFT">     -2.00000000</i>
   <i name="ENCUTLF">     -1.00000000</i>
   <i type="logical" name="LESF_SPLINES"> F  </i>
   <i type="int" name="LMAXMP2">    -1</i>
   <i name="SCISSOR">      0.00000000</i>
   <i type="int" name="NOMEGA">     0</i>
   <i type="int" name="NOMEGAR">     0</i>
   <i type="int" name="NBANDSGW">    -1</i>
   <i type="int" name="NBANDSO">    -1</i>
   <i type="int" name="NBANDSV">    -1</i>
   <i type="int" name="NELMGW">     1</i>
   <i type="int" name="NELMHF">     1</i>
   <i type="int" name="DIM">     3</i>
   <i type="int" name="IESPILON">     4</i>
   <i type="int" name="ANTIRES">     0</i>
   <i name="OMEGAMAX">    -30.00000000</i>
   <i name="OMEGAMIN">    -30.00000000</i>
   <i name="OMEGATL">   -200.00000000</i>
   <i type="int" name="OMEGAGRID">     0</i>
   <i name="CSHIFT">     -0.10000000</i>
   <i type="logical" name="LSELFENERGY"> F  </i>
   <i type="logical" name="LSPECTRAL"> F  </i>
   <i type="logical" name="LSPECTRALGW"> F  </i>
   <i type="logical" name="LSINGLES"> F  </i>
   <i type="logical" name="LFERMIGW"> F  </i>
   <i type="logical" name="ODDONLYGW"> F  </i>
   <i type="logical" name="EVENONLYGW"> F  </i>
   <i type="int" name="NKREDLFX">     1</i>
   <i type="int" name="NKREDLFY">     1</i>
   <i type="int" name="NKREDLFZ">     1</i>
   <i type="int" name="MAXMEM">  2800</i>
   <i type="int" name="TELESCOPE">     0</i>
   <i type="int" name="NTAUPAR">    -1</i>
   <i type="int" name="NOMEGAPAR">    -1</i>
   <i name="DAMP_NEWTON">      0.80000001</i>
   <i name="LAMBDA">      1.00000000</i>
  </separator>
  <separator name="External order field" >
   <i name="OFIELD_KAPPA">      0.00000000</i>
   <v name="OFIELD_K">      0.00000000      0.00000000      0.00000000</v>
   <i name="OFIELD_Q6_NEAR">      0.00000000</i>
   <i name="OFIELD_Q6_FAR">      0.00000000</i>
   <i name="OFIELD_A">      0.00000000</i>
  </separator>
  <separator name="optional k-points parameters" >
   <i type="int" name="KPOINTS_OPT_MODE">     1</i>
   <i type="logical" name="LKPOINTS_OPT"> F  </i>
  </separator>
 </parameters>
 <atominfo>
  <atoms>      64 </atoms>
  <types>       2 </types>
  <array name="atoms" >
   <dimension dim="1">ion</dimension>
   <field type="string">element</field>
   <field type="int">atomtype</field>
   <set>
    <rc><c>Na</c><c>   1</c></rc>
    <rc><c>Na</c><c>   1</c></rc>
    <rc><c>Na</c><c>   1</c></rc>
    <rc><c>Na</c><c>   1</c></rc>
    <rc><c>Na</c><c>   1</c></rc>
    <rc><c>Na</c><c>   1</c></rc>
    <rc><c>Na</c><c>   1</c></rc>
    <rc><c>Na</c><c>   1</c></rc>
    <rc><c>Na</c><c>   1</c></rc>
    <rc><c>Na</c><c>   1</c></rc>
    <rc><c>Na</c><c>   1</c></rc>
    <rc><c>Na</c><c>   1</c></rc>
    <rc><c>Na</c><c>   1</c></rc>
    <rc><c>Na</c><c>   1</c></rc>
    <rc><c>Na</c><c>   1</c></rc>
    <rc><c>Na</c><c>   1</c></rc>
    <rc><c>Na</c><c>   1</c></rc>
    <rc><c>Na</c><c>   1</c></rc>
    <rc><c>Na</c><c>   1</c></rc>
    <rc><c>Na</c><c>   1</c></rc>
    <rc><c>Na</c><c>   1</c></rc>
    <rc><c>Na</c><c>   1</c></rc>
    <rc><c>Na</c><c>   1</c></rc>
    <rc><c>Na</c><c>   1</c></rc>
    <rc><c>Na</c><c>   1</c></rc>
    <rc><c>Na</c><c>   1</c></rc>
    <rc><c>Na</c><c>   1</c></rc>
    <rc><c>Na</c><c>   1</c></rc>
    <rc><c>Na</c><c>   1</c></rc>
    <rc><c>Na</c><c>   1</c></rc>
    <rc><c>Na</c><c>   1</c></rc>
    <rc><c>Na</c><c>   1</c></rc>
    <rc><c>Cl</c><c>   2</c></rc>
    <rc><c>Cl</c><c>   2</c></rc>
    <rc><c>Cl</c><c>   2</c></rc>
    <rc><c>Cl</c><c>   2</c></rc>
    <rc><c>Cl</c><c>   2</c></rc>
    <rc><c>Cl</c><c>   2</c></rc>
    <rc><c>Cl</c><c>   2</c></rc>
    <rc><c>Cl</c><c>   2</c></rc>
    <rc><c>Cl</c><c>   2</c></rc>
    <rc><c>Cl</c><c>   2</c></rc>
    <rc><c>Cl</c><c>   2</c></rc>
    <rc><c>Cl</c><c>   2</c></rc>
    <rc><c>Cl</c><c>   2</c></rc>
    <rc><c>Cl</c><c>   2</c></rc>
    <rc><c>Cl</c><c>   2</c></rc>
    <rc><c>Cl</c><c>   2</c></rc>
    <rc><c>Cl</c><c>   2</c></rc>
    <rc><c>Cl</c><c>   2</c></rc>
    <rc><c>Cl</c><c>   2</c></rc>
    <rc><c>Cl</c><c>   2</c></rc>
    <rc><c>Cl</c><c>   2</c></rc>
    <rc><c>Cl</c><c>   2</c></rc>
    <rc><c>Cl</c><c>   2</c></rc>
    <rc><c>Cl</c><c>   2</c></rc>
    <rc><c>Cl</c><c>   2</c></rc>
    <rc><c>Cl</c><c>   2</c></rc>
    <rc><c>Cl</c><c>   2</c></rc>
    <rc><c>Cl</c><c>   2</c></rc>
    <rc><c>Cl</c><c>   2</c></rc>
    <rc><c>Cl</c><c>   2</c></rc>
    <rc><c>Cl</c><c>   2</c></rc>
    <rc><c>Cl</c><c>   2</c></rc>
   </set>
  </array>
  <array name="atomtypes" >
   <dimension dim="1">type</dimension>
   <field type="int">atomspertype</field>
   <field type="string">element</field>
   <field>mass</field>
   <field>valence</field>
   <field type="string">pseudopotential</field>
   <set>
    <rc><c>  32</c><c>Na</c><c>     22.99000000</c><c>      7.00000000</c><c>  PAW_PBE Na_pv 19Sep2006               </c></rc>
    <rc><c>  32</c><c>Cl</c><c>     35.45300000</c><c>      7.00000000</c><c>  PAW_PBE Cl 06Sep2000                  </c></rc>
   </set>
  </array>
 </atominfo>
 <structure name="initialpos" >
  <crystal>
   <varray name="basis" >
    <v>      11.20400236       0.00000000       0.00000000 </v>
    <v>       0.00000000      11.20400236       0.00000000 </v>
    <v>       0.00000000       0.00000000      11.20400236 </v>
   </varray>
   <i name="volume">   1406.43470641 </i>
   <varray name="rec_basis" >
    <v>       0.08925382       0.00000000       0.00000000 </v>
    <v>       0.00000000       0.08925382       0.00000000 </v>
    <v>       0.00000000       0.00000000       0.08925382 </v>
   </varray>
  </crystal>
  <varray name="positions" >
   <v>       0.99732239       0.00000000       0.00000000 </v>
   <v>       0.25267761       0.25000000       0.00000000 </v>
   <v>       0.25000000       0.00000000       0.25000000 </v>
   <v>       0.00000000       0.25000000       0.25000000 </v>
   <v>       0.00000000       0.00000000       0.50000000 </v>
   <v>       0.25000000       0.25000000       0.50000000 </v>
   <v>       0.25000000       0.00000000       0.75000000 </v>
   <v>       0.00000000       0.25000000       0.75000000 </v>
   <v>       0.00000000       0.50000000       0.00000000 </v>
   <v>       0.25000000       0.75000000       0.00000000 </v>
   <v>       0.25000000       0.50000000       0.25000000 </v>
   <v>       0.00000000       0.75000000       0.25000000 </v>
   <v>       0.00000000       0.50000000       0.50000000 </v>
   <v>       0.25000000       0.75000000       0.50000000 </v>
   <v>       0.25000000       0.50000000       0.75000000 </v>
   <v>       0.00000000       0.75000000       0.75000000 </v>
   <v>       0.50000000       0.00000000       0.00000000 </v>
   <v>       0.75000000       0.25000000       0.00000000 </v>
   <v>       0.75000000       0.00000000       0.25000000 </v>
   <v>       0.50000000       0.25000000       0.25000000 </v>
   <v>       0.50000000       0.00000000       0.50000000 </v>
   <v>       0.75000000       0.25000000       0.50000000 </v>
   <v>       0.75000000       0.00000000       0.75000000 </v>
   <v>       0.50000000       0.25000000       0.75000000 </v>
   <v>       0.50000000       0.50000000       0.00000000 </v>
   <v>       0.75000000       0.75000000       0.00000000 </v>
   <v>       0.75000000       0.50000000       0.25000000 </v>
   <v>       0.50000000       0.75000000       0.25000000 </v>
   <v>       0.50000000       0.50000000       0.50000000 </v>
   <v>       0.75000000       0.75000000       0.50000000 </v>
   <v>       0.75000000       0.50000000       0.75000000 </v>
   <v>       0.50000000       0.75000000       0.75000000 </v>
   <v>       0.25000000       0.25000000       0.25000000 </v>
   <v>       0.00000000       0.00000000       0.25000000 </v>
   <v>       0.00000000       0.25000000       0.00000000 </v>
   <v>       0.25000000       0.00000000       0.00000000 </v>
   <v>       0.25000000       0.25000000       0.75000000 </v>
   <v>       0.00000000       0.00000000       0.75000000 </v>
   <v>       0.00000000       0.25000000       0.50000000 </v>
   <v>       0.25000000       0.00000000       0.50000000 </v>
   <v>       0.25000000       0.75000000       0.25000000 </v>
   <v>       0.00000000       0.50000000       0.25000000 </v>
   <v>       0.00000000       0.75000000       0.00000000 </v>
   <v>       0.25000000       0.50000000       0.00000000 </v>
   <v>       0.25000000       0.75000000       0.75000000 </v>
   <v>       0.00000000       0.50000000       0.75000000 </v>
   <v>       0.00000000       0.75000000       0.50000000 </v>
   <v>       0.25000000       0.50000000       0.50000000 </v>
   <v>       0.75000000       0.25000000       0.25000000 </v>
   <v>       0.50000000       0.00000000       0.25000000 </v>
   <v>       0.50000000       0.25000000       0.00000000 </v>
   <v>       0.75000000       0.00000000       0.00000000 </v>
   <v>       0.75000000       0.25000000       0.75000000 </v>
   <v>       0.50000000       0.00000000       0.75000000 </v>
   <v>       0.50000000       0.25000000       0.50000000 </v>
   <v>       0.75000000       0.00000000       0.50000000 </v>
   <v>       0.75000000       0.75000000       0.25000000 </v>
   <v>       0.50000000       0.50000000       0.25000000 </v>
   <v>       0.50000000       0.75000000       0.00000000 </v>
   <v>       0.75000000       0.50000000       0.00000000 </v>
   <v>       0.75000000       0.75000000       0.75000000 </v>
   <v>       0.50000000       0.50000000       0.75000000 </v>
   <v>       0.50000000       0.75000000       0.50000000 </v>
   <v>       0.75000000       0.50000000       0.50000000 </v>
  </varray>
 </structure>
 <calculation>
  <scstep>
   <time name="dav">   10.05   10.15</time>
   <time name="total">   10.13   10.24</time>
   <energy>
    <i name="alphaZ">    751.52672365 </i>
    <i name="ewald"> -22871.33268198 </i>
    <i name="hartreedc">  -8992.25166225 </i>
    <i name="XCdc">   1456.53425064 </i>
    <i name="pawpsdc">  26466.43774078 </i>
    <i name="pawaedc"> -29286.08056155 </i>
    <i name="eentropy">     -0.00180884 </i>
    <i name="bandstr">   -733.23401164 </i>
    <i name="atom">  37532.17946992 </i>
    <i name="e_fr_energy">   4323.77745873 </i>
    <i name="e_wo_entrp">   4323.77926757 </i>
    <i name="e_0_energy">   4323.77836315 </i>
   </energy>
  </scstep>
  <scstep>
   <time name="dav">   10.93   10.99</time>
   <time name="total">   10.93   10.99</time>
   <energy>
    <i name="e_fr_energy">    364.02126999 </i>
    <i name="e_wo_entrp">    364.02126999 </i>
    <i name="e_0_energy">    364.02126999 </i>
   </energy>
  </scstep>
  <scstep>
   <time name="dav">   11.76   11.82</time>
   <time name="total">   11.76   11.82</time>
   <energy>
    <i name="e_fr_energy">   -206.15715355 </i>
    <i name="e_wo_entrp">   -206.15715355 </i>
    <i name="e_0_energy">   -206.15715355 </i>
   </energy>
  </scstep>
  <scstep>
   <time name="dav">   11.66   11.73</time>
   <time name="total">   11.66   11.73</time>
   <energy>
    <i name="e_fr_energy">   -228.19036250 </i>
    <i name="e_wo_entrp">   -228.19036250 </i>
    <i name="e_0_energy">   -228.19036250 </i>
   </energy>
  </scstep>
  <scstep>
   <time name="dav">   11.77   11.83</time>
   <time name="total">   12.12   12.19</time>
   <energy>
    <i name="e_fr_energy">   -229.00324118 </i>
    <i name="e_wo_entrp">   -229.00324118 </i>
    <i name="e_0_energy">   -229.00324118 </i>
   </energy>
  </scstep>
  <scstep>
   <time name="dav">   12.05   12.12</time>
   <time name="total">   12.47   12.53</time>
   <energy>
    <i name="e_fr_energy">   -224.13951629 </i>
    <i name="e_wo_entrp">   -224.13951629 </i>
    <i name="e_0_energy">   -224.13951629 </i>
   </energy>
  </scstep>
  <scstep>
   <time name="dav">   12.84   12.91</time>
   <time name="total">   13.26   13.33</time>
   <energy>
    <i name="e_fr_energy">   -223.77726661 </i>
    <i name="e_wo_entrp">   -223.77726661 </i>
    <i name="e_0_energy">   -223.77726661 </i>
   </energy>
  </scstep>
  <scstep>
   <time name="dav">   11.41   11.48</time>
   <time name="total">   11.83   11.90</time>
   <energy>
    <i name="e_fr_energy">   -223.90240874 </i>
    <i name="e_wo_entrp">   -223.90240874 </i>
    <i name="e_0_energy">   -223.90240874 </i>
   </energy>
  </scstep>
  <scstep>
   <time name="dav">   12.09   12.16</time>
   <time name="total">   12.51   12.58</time>
   <energy>
    <i name="e_fr_energy">   -223.89704338 </i>
    <i name="e_wo_entrp">   -223.89704338 </i>
    <i name="e_0_energy">   -223.89704338 </i>
   </energy>
  </scstep>
  <scstep>
   <time name="dav">   11.46   11.52</time>
   <time name="total">   11.87   11.93</time>
   <energy>
    <i name="e_fr_energy">   -223.90148903 </i>
    <i name="e_wo_entrp">   -223.90148903 </i>
    <i name="e_0_energy">   -223.90148903 </i>
   </energy>
  </scstep>
  <scstep>
   <time name="dav">   12.27   12.33</time>
   <time name="total">   12.68   12.74</time>
   <energy>
    <i name="e_fr_energy">   -223.90080496 </i>
    <i name="e_wo_entrp">   -223.90080496 </i>
    <i name="e_0_energy">   -223.90080496 </i>
   </energy>
  </scstep>
  <scstep>
   <time name="dav">   12.19   12.25</time>
   <time name="total">   12.60   12.67</time>
   <energy>
    <i name="e_fr_energy">   -223.90077211 </i>
    <i name="e_wo_entrp">   -223.90077211 </i>
    <i name="e_0_energy">   -223.90077211 </i>
   </energy>
  </scstep>
  <scstep>
   <time name="dav">   11.49   11.55</time>
   <time name="total">   11.90   11.96</time>
   <energy>
    <i name="e_fr_energy">   -223.90077919 </i>
    <i name="e_wo_entrp">   -223.90077919 </i>
    <i name="e_0_energy">   -223.90077919 </i>
   </energy>
  </scstep>
  <scstep>
   <time name="dav">   13.09   13.16</time>
   <time name="total">   13.51   13.58</time>
   <energy>
    <i name="e_fr_energy">   -223.90077901 </i>
    <i name="e_wo_entrp">   -223.90077901 </i>
    <i name="e_0_energy">   -223.90077901 </i>
   </energy>
  </scstep>
  <scstep>
   <time name="dav">   10.77   10.82</time>
   <time name="total">   11.18   11.24</time>
   <energy>
    <i name="e_fr_energy">   -223.90078029 </i>
    <i name="e_wo_entrp">   -223.90078029 </i>
    <i name="e_0_energy">   -223.90078029 </i>
   </energy>
  </scstep>
  <scstep>
   <time name="dav">   11.03   11.08</time>
   <time name="total">   11.44   11.50</time>
   <energy>
    <i name="e_fr_energy">   -223.90078064 </i>
    <i name="e_wo_entrp">   -223.90078064 </i>
    <i name="e_0_energy">   -223.90078064 </i>
   </energy>
  </scstep>
  <scstep>
   <time name="dav">    8.35    8.39</time>
   <time name="total">    8.76    8.80</time>
   <energy>
    <i name="e_fr_energy">   -223.90078060 </i>
    <i name="e_wo_entrp">   -223.90078060 </i>
    <i name="e_0_energy">   -223.90078060 </i>
   </energy>
  </scstep>
  <scstep>
   <time name="dav">    7.81    7.85</time>
   <time name="total">    8.24    8.28</time>
   <energy>
    <i name="e_fr_energy">   -223.90078062 </i>
    <i name="e_wo_entrp">   -223.90078062 </i>
    <i name="e_0_energy">   -223.90078062 </i>
   </energy>
  </scstep>
  <scstep>
   <time name="dav">    7.65    7.69</time>
   <time name="total">    7.72    7.76</time>
   <energy>
    <i name="alphaZ">    751.52672365 </i>
    <i name="ewald"> -22871.33268198 </i>
    <i name="hartreedc">  -9078.16271041 </i>
    <i name="XCdc">   1472.51336701 </i>
    <i name="pawpsdc">  29498.24870781 </i>
    <i name="pawaedc"> -32317.61341501 </i>
    <i name="eentropy">     -0.00000000 </i>
    <i name="bandstr">  -5211.26024162 </i>
    <i name="atom">  37532.17946992 </i>
    <i name="e_fr_energy">   -223.90078062 </i>
    <i name="e_wo_entrp">   -223.90078062 </i>
    <i name="e_0_energy">   -223.90078062 </i>
   </energy>
  </scstep>
  <structure>
   <crystal>
    <varray name="basis" >
     <v>      11.20400236       0.00000000       0.00000000 </v>
     <v>       0.00000000      11.20400236       0.00000000 </v>
     <v>       0.00000000       0.00000000      11.20400236 </v>
    </varray>
    <i name="volume">   1406.43470641 </i>
    <varray name="rec_basis" >
     <v>       0.08925382       0.00000000       0.00000000 </v>
     <v>       0.00000000       0.08925382       0.00000000 </v>
     <v>       0.00000000       0.00000000       0.08925382 </v>
    </varray>
   </crystal>
   <varray name="positions" >
    <v>       0.99732239       0.00000000       0.00000000 </v>
    <v>       0.25267761       0.25000000       0.00000000 </v>
    <v>       0.25000000       0.00000000       0.25000000 </v>
    <v>       0.00000000       0.25000000       0.25000000 </v>
    <v>       0.00000000       0.00000000       0.50000000 </v>
    <v>       0.25000000       0.25000000       0.50000000 </v>
    <v>       0.25000000       0.00000000       0.75000000 </v>
    <v>       0.00000000       0.25000000       0.75000000 </v>
    <v>       0.00000000       0.50000000       0.00000000 </v>
    <v>       0.25000000       0.75000000       0.00000000 </v>
    <v>       0.25000000       0.50000000       0.25000000 </v>
    <v>       0.00000000       0.75000000       0.25000000 </v>
    <v>       0.00000000       0.50000000       0.50000000 </v>
    <v>       0.25000000       0.75000000       0.50000000 </v>
    <v>       0.25000000       0.50000000       0.75000000 </v>
    <v>       0.00000000       0.75000000       0.75000000 </v>
    <v>       0.50000000       0.00000000       0.00000000 </v>
    <v>       0.75000000       0.25000000       0.00000000 </v>
    <v>       0.75000000       0.00000000       0.25000000 </v>
    <v>       0.50000000       0.25000000       0.25000000 </v>
    <v>       0.50000000       0.00000000       0.50000000 </v>
    <v>       0.75000000       0.25000000       0.50000000 </v>
    <v>       0.75000000       0.00000000       0.75000000 </v>
    <v>       0.50000000       0.25000000       0.75000000 </v>
    <v>       0.50000000       0.50000000       0.00000000 </v>
    <v>       0.75000000       0.75000000       0.00000000 </v>
    <v>       0.75000000       0.50000000       0.25000000 </v>
    <v>       0.50000000       0.75000000       0.25000000 </v>
    <v>       0.50000000       0.50000000       0.50000000 </v>
    <v>       0.75000000       0.75000000       0.50000000 </v>
    <v>       0.75000000       0.50000000       0.75000000 </v>
    <v>       0.50000000       0.75000000       0.75000000 </v>
    <v>       0.25000000       0.25000000       0.25000000 </v>
    <v>       0.00000000       0.00000000       0.25000000 </v>
    <v>       0.00000000       0.25000000       0.00000000 </v>
    <v>       0.25000000       0.00000000       0.00000000 </v>
    <v>       0.25000000       0.25000000       0.75000000 </v>
    <v>       0.00000000       0.00000000       0.75000000 </v>
    <v>       0.00000000       0.25000000       0.50000000 </v>
    <v>       0.25000000       0.00000000       0.50000000 </v>
    <v>       0.25000000       0.75000000       0.25000000 </v>
    <v>       0.00000000       0.50000000       0.25000000 </v>
    <v>       0.00000000       0.75000000       0.00000000 </v>
    <v>       0.25000000       0.50000000       0.00000000 </v>
    <v>       0.25000000       0.75000000       0.75000000 </v>
    <v>       0.00000000       0.50000000       0.75000000 </v>
    <v>       0.00000000       0.75000000       0.50000000 </v>
    <v>       0.25000000       0.50000000       0.50000000 </v>
    <v>       0.75000000       0.25000000       0.25000000 </v>
    <v>       0.50000000       0.00000000       0.25000000 </v>
    <v>       0.50000000       0.25000000       0.00000000 </v>
    <v>       0.75000000       0.00000000       0.00000000 </v>
    <v>       0.75000000       0.25000000       0.75000000 </v>
    <v>       0.50000000       0.00000000       0.75000000 </v>
    <v>       0.50000000       0.25000000       0.50000000 </v>
    <v>       0.75000000       0.00000000       0.50000000 </v>
    <v>       0.75000000       0.75000000       0.25000000 </v>
    <v>       0.50000000       0.50000000       0.25000000 </v>
    <v>       0.50000000       0.75000000       0.00000000 </v>
    <v>       0.75000000       0.50000000       0.00000000 </v>
    <v>       0.75000000       0.75000000       0.75000000 </v>
    <v>       0.50000000       0.50000000       0.75000000 </v>
    <v>       0.50000000       0.75000000       0.50000000 </v>
    <v>       0.75000000       0.50000000       0.50000000 </v>
   </varray>
  </structure>
  <varray name="forces" >
   <v>       0.06431587       0.00571527       0.00000000 </v>
   <v>      -0.06431587      -0.00571527       0.00000000 </v>
   <v>      -0.00317073       0.00002056      -0.00582055 </v>
   <v>       0.00317073      -0.00002056      -0.00582055 </v>
   <v>       0.00002758      -0.00007338       0.00000000 </v>
   <v>      -0.00002758       0.00007338       0.00000000 </v>
   <v>      -0.00317073       0.00002056       0.00582055 </v>
   <v>       0.00317073      -0.00002056       0.00582055 </v>
   <v>       0.00155836      -0.00579944       0.00000000 </v>
   <v>      -0.00155836       0.00579944       0.00000000 </v>
   <v>      -0.00164123      -0.00001966       0.00005410 </v>
   <v>       0.00164123       0.00001966       0.00005410 </v>
   <v>       0.00043203       0.00007334       0.00000000 </v>
   <v>      -0.00043203      -0.00007334       0.00000000 </v>
   <v>      -0.00164123      -0.00001966      -0.00005410 </v>
   <v>       0.00164123       0.00001966      -0.00005410 </v>
   <v>      -0.00739998      -0.00592602       0.00000000 </v>
   <v>       0.00739998       0.00592602       0.00000000 </v>
   <v>      -0.00035136      -0.00000450       0.00593014 </v>
   <v>       0.00035136       0.00000450       0.00593014 </v>
   <v>      -0.00034140       0.00007732       0.00000000 </v>
   <v>       0.00034140      -0.00007732       0.00000000 </v>
   <v>      -0.00035136      -0.00000450      -0.00593014 </v>
   <v>       0.00035136       0.00000450      -0.00593014 </v>
   <v>       0.00120555       0.00592535       0.00000000 </v>
   <v>      -0.00120555      -0.00592535       0.00000000 </v>
   <v>       0.00119554       0.00000424      -0.00007288 </v>
   <v>      -0.00119554      -0.00000424      -0.00007288 </v>
   <v>      -0.00047413      -0.00007732       0.00000000 </v>
   <v>       0.00047413       0.00007732       0.00000000 </v>
   <v>       0.00119554       0.00000424       0.00007288 </v>
   <v>      -0.00119554      -0.00000424       0.00007288 </v>
   <v>       0.00523412       0.00128188       0.00115803 </v>
   <v>      -0.00523412      -0.00128188       0.00115803 </v>
   <v>       0.01118361      -0.00015606       0.00000000 </v>
   <v>      -0.01118361       0.00015606       0.00000000 </v>
   <v>       0.00523412       0.00128188      -0.00115803 </v>
   <v>      -0.00523412      -0.00128188      -0.00115803 </v>
   <v>      -0.00045292       0.00000881       0.00000000 </v>
   <v>       0.00045292      -0.00000881       0.00000000 </v>
   <v>       0.00083342      -0.00128229       0.00129191 </v>
   <v>      -0.00083342       0.00128229       0.00129191 </v>
   <v>      -0.00485353       0.00012465       0.00000000 </v>
   <v>       0.00485353      -0.00012465       0.00000000 </v>
   <v>       0.00083342      -0.00128229      -0.00129191 </v>
   <v>      -0.00083342       0.00128229      -0.00129191 </v>
   <v>      -0.00060419      -0.00000997       0.00000000 </v>
   <v>       0.00060419       0.00000997       0.00000000 </v>
   <v>      -0.00261052      -0.00130449      -0.00131591 </v>
   <v>       0.00261052       0.00130449      -0.00131591 </v>
   <v>       0.02305430      -0.00000211       0.00000000 </v>
   <v>      -0.02305430       0.00000211       0.00000000 </v>
   <v>      -0.00261052      -0.00130449       0.00131591 </v>
   <v>       0.00261052       0.00130449       0.00131591 </v>
   <v>       0.00083426      -0.00000058       0.00000000 </v>
   <v>      -0.00083426       0.00000058       0.00000000 </v>
   <v>      -0.00044580       0.00130454      -0.00130549 </v>
   <v>       0.00044580      -0.00130454      -0.00130549 </v>
   <v>       0.00299566       0.00001199       0.00000000 </v>
   <v>      -0.00299566      -0.00001199       0.00000000 </v>
   <v>      -0.00044580       0.00130454       0.00130549 </v>
   <v>       0.00044580      -0.00130454       0.00130549 </v>
   <v>       0.00066396       0.00000030       0.00000000 </v>
   <v>      -0.00066396      -0.00000030       0.00000000 </v>
  </varray>
  <varray name="stress" >
   <v>      -0.35651170      -0.00003408       0.00000000 </v>
   <v>      -0.00003410      -0.37877947       0.00000000 </v>
   <v>       0.00000000       0.00000000      -0.37932482 </v>
  </varray>
  <energy>
   <i name="e_fr_energy">   -223.90078062 </i>
   <i name="e_wo_entrp">   -223.90078062 </i>
   <i name="e_0_energy">   -223.90078062 </i>
  </energy>
  <time name="totalsc">  232.36  233.68</time>
  <eigenvalues>
   <array>
    <dimension dim="1">band</dimension>
    <dimension dim="2">kpoint</dimension>
    <dimension dim="3">spin</dimension>
    <field>eigene</field>
    <field>occ</field>
    <set>
     <set comment="spin 1">
      <set comment="kpoint 1">
       <r>  -21.3048    1.0000 </r>
       <r>  -21.3048    1.0000 </r>
       <r>  -21.3046    1.0000 </r>
       <r>  -21.3046    1.0000 </r>
       <r>  -21.2959    1.0000 </r>
       <r>  -21.2954    1.0000 </r>
       <r>  -21.2952    1.0000 </r>
       <r>  -21.2949    1.0000 </r>
       <r>  -21.2946    1.0000 </r>
       <r>  -21.2944    1.0000 </r>
       <r>  -21.2941    1.0000 </r>
       <r>  -21.2941    1.0000 </r>
       <r>  -21.2940    1.0000 </r>
       <r>  -21.2936    1.0000 </r>
       <r>  -21.2928    1.0000 </r>
       <r>  -21.2928    1.0000 </r>
       <r>  -21.2925    1.0000 </r>
       <r>  -21.2917    1.0000 </r>
       <r>  -21.2917    1.0000 </r>
       <r>  -21.2887    1.0000 </r>
       <r>  -21.2879    1.0000 </r>
       <r>  -21.2878    1.0000 </r>
       <r>  -21.2876    1.0000 </r>
       <r>  -21.2872    1.0000 </r>
       <r>  -21.2867    1.0000 </r>
       <r>  -21.2865    1.0000 </r>
       <r>  -21.2864    1.0000 </r>
       <r>  -21.2864    1.0000 </r>
       <r>  -21.2860    1.0000 </r>
       <r>  -21.2850    1.0000 </r>
       <r>  -21.2849    1.0000 </r>
       <r>  -21.2846    1.0000 </r>
       <r>  -21.2838    1.0000 </r>
       <r>  -21.2837    1.0000 </r>
       <r>  -21.2835    1.0000 </r>
       <r>  -21.2830    1.0000 </r>
       <r>  -21.2829    1.0000 </r>
       <r>  -21.2827    1.0000 </r>
       <r>  -21.2825    1.0000 </r>
       <r>  -21.2823    1.0000 </r>
       <r>  -21.2818    1.0000 </r>
       <r>  -21.2817    1.0000 </r>
       <r>  -21.2817    1.0000 </r>
       <r>  -21.2817    1.0000 </r>
       <r>  -21.2815    1.0000 </r>
       <r>  -21.2814    1.0000 </r>
       <r>  -21.2814    1.0000 </r>
       <r>  -21.2806    1.0000 </r>
       <r>  -21.2804    1.0000 </r>
       <r>  -21.2803    1.0000 </r>
       <r>  -21.2798    1.0000 </r>
       <r>  -21.2798    1.0000 </r>
       <r>  -21.2798    1.0000 </r>
       <r>  -21.2789    1.0000 </r>
       <r>  -21.2786    1.0000 </r>
       <r>  -21.2779    1.0000 </r>
       <r>  -21.2776    1.0000 </r>
       <r>  -21.2776    1.0000 </r>
       <r>  -21.2767    1.0000 </r>
       <r>  -21.2766    1.0000 </r>
       <r>  -21.2766    1.0000 </r>
       <r>  -21.2757    1.0000 </r>
       <r>  -21.2756    1.0000 </r>
       <r>  -21.2753    1.0000 </r>
       <r>  -21.2752    1.0000 </r>
       <r>  -21.2752    1.0000 </r>
       <r>  -21.2749    1.0000 </r>
       <r>  -21.2748    1.0000 </r>
       <r>  -21.2748    1.0000 </r>
       <r>  -21.2747    1.0000 </r>
       <r>  -21.2744    1.0000 </r>
       <r>  -21.2733    1.0000 </r>
       <r>  -21.2729    1.0000 </r>
       <r>  -21.2728    1.0000 </r>
       <r>  -21.2723    1.0000 </r>
       <r>  -21.2718    1.0000 </r>
       <r>  -21.2716    1.0000 </r>
       <r>  -21.2716    1.0000 </r>
       <r>  -21.2715    1.0000 </r>
       <r>  -21.2712    1.0000 </r>
       <r>  -21.2712    1.0000 </r>
       <r>  -21.2709    1.0000 </r>
       <r>  -21.2703    1.0000 </r>
       <r>  -21.2701    1.0000 </r>
       <r>  -21.2701    1.0000 </r>
       <r>  -21.2699    1.0000 </r>
       <r>  -21.2693    1.0000 </r>
       <r>  -21.2691    1.0000 </r>
       <r>  -21.2688    1.0000 </r>
       <r>  -21.2679    1.0000 </r>
       <r>  -21.2679    1.0000 </r>
       <r>  -21.2676    1.0000 </r>
       <r>  -21.2673    1.0000 </r>
       <r>  -21.2672    1.0000 </r>
       <r>  -21.2669    1.0000 </r>
       <r>  -21.2668    1.0000 </r>
       <r>  -13.3582    1.0000 </r>
       <r>  -13.1437    1.0000 </r>
       <r>  -13.1411    1.0000 </r>
       <r>  -13.1373    1.0000 </r>
       <r>  -13.1373    1.0000 </r>
       <r>  -13.1347    1.0000 </r>
       <r>  -13.1326    1.0000 </r>
       <r>  -13.0223    1.0000 </r>
       <r>  -13.0207    1.0000 </r>
       <r>  -13.0115    1.0000 </r>
       <r>  -13.0115    1.0000 </r>
       <r>  -13.0113    1.0000 </r>
       <r>  -13.0112    1.0000 </r>
       <r>  -13.0112    1.0000 </r>
       <r>  -13.0111    1.0000 </r>
       <r>  -13.0111    1.0000 </r>
       <r>  -13.0111    1.0000 </r>
       <r>  -13.0048    1.0000 </r>
       <r>  -13.0040    1.0000 </r>
       <r>  -12.9897    1.0000 </r>
       <r>  -12.9897    1.0000 </r>
       <r>  -12.9892    1.0000 </r>
       <r>  -12.9878    1.0000 </r>
       <r>  -12.9412    1.0000 </r>
       <r>  -12.9411    1.0000 </r>
       <r>  -12.9400    1.0000 </r>
       <r>  -12.9251    1.0000 </r>
       <r>  -12.9236    1.0000 </r>
       <r>  -12.9214    1.0000 </r>
       <r>  -12.9214    1.0000 </r>
       <r>  -12.9169    1.0000 </r>
       <r>  -12.9137    1.0000 </r>
       <r>   -2.7002    1.0000 </r>
       <r>   -2.7000    1.0000 </r>
       <r>   -2.7000    1.0000 </r>
       <r>   -2.7000    1.0000 </r>
       <r>   -2.4241    1.0000 </r>
       <r>   -2.4240    1.0000 </r>
       <r>   -2.4240    1.0000 </r>
       <r>   -2.2075    1.0000 </r>
       <r>   -2.2074    1.0000 </r>
       <r>   -2.2074    1.0000 </r>
       <r>   -2.2072    1.0000 </r>
       <r>   -2.2050    1.0000 </r>
       <r>   -2.2046    1.0000 </r>
       <r>   -2.2041    1.0000 </r>
       <r>   -2.2040    1.0000 </r>
       <r>   -2.2014    1.0000 </r>
       <r>   -2.2012    1.0000 </r>
       <r>   -2.2011    1.0000 </r>
       <r>   -2.2011    1.0000 </r>
       <r>   -1.9287    1.0000 </r>
       <r>   -1.9278    1.0000 </r>
       <r>   -1.9275    1.0000 </r>
       <r>   -1.9255    1.0000 </r>
       <r>   -1.9249    1.0000 </r>
       <r>   -1.9249    1.0000 </r>
       <r>   -1.9247    1.0000 </r>
       <r>   -1.9247    1.0000 </r>
       <r>   -1.9243    1.0000 </r>
       <r>   -1.9219    1.0000 </r>
       <r>   -1.9213    1.0000 </r>
       <r>   -1.9201    1.0000 </r>
       <r>   -1.7978    1.0000 </r>
       <r>   -1.7975    1.0000 </r>
       <r>   -1.7966    1.0000 </r>
       <r>   -1.7966    1.0000 </r>
       <r>   -1.7960    1.0000 </r>
       <r>   -1.7951    1.0000 </r>
       <r>   -1.5069    1.0000 </r>
       <r>   -1.5065    1.0000 </r>
       <r>   -1.5063    1.0000 </r>
       <r>   -1.5061    1.0000 </r>
       <r>   -1.5060    1.0000 </r>
       <r>   -1.5054    1.0000 </r>
       <r>   -1.5053    1.0000 </r>
       <r>   -1.5052    1.0000 </r>
       <r>   -1.5051    1.0000 </r>
       <r>   -1.5047    1.0000 </r>
       <r>   -1.5043    1.0000 </r>
       <r>   -1.5042    1.0000 </r>
       <r>   -1.4636    1.0000 </r>
       <r>   -1.4630    1.0000 </r>
       <r>   -1.4626    1.0000 </r>
       <r>   -1.4622    1.0000 </r>
       <r>   -1.4619    1.0000 </r>
       <r>   -1.4617    1.0000 </r>
       <r>   -1.2948    1.0000 </r>
       <r>   -1.2948    1.0000 </r>
       <r>   -1.2948    1.0000 </r>
       <r>   -1.2947    1.0000 </r>
       <r>   -1.2946    1.0000 </r>
       <r>   -1.2946    1.0000 </r>
       <r>   -1.0056    1.0000 </r>
       <r>   -1.0039    1.0000 </r>
       <r>   -1.0038    1.0000 </r>
       <r>   -1.0034    1.0000 </r>
       <r>   -1.0019    1.0000 </r>
       <r>   -1.0008    1.0000 </r>
       <r>   -1.0007    1.0000 </r>
       <r>   -1.0007    1.0000 </r>
       <r>   -1.0005    1.0000 </r>
       <r>   -0.9982    1.0000 </r>
       <r>   -0.9979    1.0000 </r>
       <r>   -0.9971    1.0000 </r>
       <r>   -0.9527    1.0000 </r>
       <r>   -0.9527    1.0000 </r>
       <r>   -0.9526    1.0000 </r>
       <r>   -0.9523    1.0000 </r>
       <r>   -0.9482    1.0000 </r>
       <r>   -0.9481    1.0000 </r>
       <r>   -0.9476    1.0000 </r>
       <r>   -0.9474    1.0000 </r>
       <r>   -0.9473    1.0000 </r>
       <r>   -0.9473    1.0000 </r>
       <r>   -0.9471    1.0000 </r>
       <r>   -0.9468    1.0000 </r>
       <r>   -0.9458    1.0000 </r>
       <r>   -0.9458    1.0000 </r>
       <r>   -0.9450    1.0000 </r>
       <r>   -0.9439    1.0000 </r>
       <r>   -0.9410    1.0000 </r>
       <r>   -0.9409    1.0000 </r>
       <r>   -0.9409    1.0000 </r>
       <r>   -0.9399    1.0000 </r>
       <r>   -0.6649    1.0000 </r>
       <r>   -0.6648    1.0000 </r>
       <r>   -0.6647    1.0000 </r>
       <r>    4.3403    0.0000 </r>
       <r>    6.3655    0.0000 </r>
       <r>    6.3659    0.0000 </r>
       <r>    6.3682    0.0000 </r>
       <r>    6.3682    0.0000 </r>
       <r>    6.3696    0.0000 </r>
       <r>    6.3716    0.0000 </r>
       <r>    6.4445    0.0000 </r>
       <r>    6.4446    0.0000 </r>
       <r>    6.4446    0.0000 </r>
       <r>    6.4447    0.0000 </r>
       <r>    6.8280    0.0000 </r>
       <r>    6.8280    0.0000 </r>
       <r>    6.8280    0.0000 </r>
       <r>    7.2068    0.0000 </r>
       <r>    7.2068    0.0000 </r>
       <r>    7.2069    0.0000 </r>
       <r>    7.4609    0.0000 </r>
       <r>    7.4613    0.0000 </r>
       <r>    7.4617    0.0000 </r>
       <r>    7.4631    0.0000 </r>
       <r>    7.4633    0.0000 </r>
       <r>    7.4634    0.0000 </r>
       <r>    7.4641    0.0000 </r>
       <r>    7.4645    0.0000 </r>
       <r>    7.4653    0.0000 </r>
       <r>    7.4667    0.0000 </r>
       <r>    7.4678    0.0000 </r>
       <r>    7.4682    0.0000 </r>
       <r>    8.1662    0.0000 </r>
       <r>    8.1671    0.0000 </r>
       <r>    8.1684    0.0000 </r>
       <r>    8.1684    0.0000 </r>
       <r>    8.1696    0.0000 </r>
       <r>    8.1706    0.0000 </r>
       <r>    8.2765    0.0000 </r>
       <r>    8.2777    0.0000 </r>
       <r>    8.2795    0.0000 </r>
       <r>    8.2796    0.0000 </r>
       <r>    8.2804    0.0000 </r>
       <r>    8.2836    0.0000 </r>
       <r>    8.8947    0.0000 </r>
       <r>    8.8965    0.0000 </r>
       <r>    8.8967    0.0000 </r>
       <r>    8.8975    0.0000 </r>
       <r>    8.8986    0.0000 </r>
       <r>    8.8993    0.0000 </r>
       <r>    8.9007    0.0000 </r>
       <r>    8.9013    0.0000 </r>
       <r>    8.9029    0.0000 </r>
       <r>    8.9034    0.0000 </r>
       <r>    8.9043    0.0000 </r>
       <r>    8.9050    0.0000 </r>
       <r>    8.9135    0.0000 </r>
       <r>    8.9144    0.0000 </r>
       <r>    8.9146    0.0000 </r>
       <r>    8.9150    0.0000 </r>
       <r>    8.9158    0.0000 </r>
       <r>    8.9166    0.0000 </r>
       <r>    8.9179    0.0000 </r>
       <r>    8.9192    0.0000 </r>
       <r>    8.9198    0.0000 </r>
       <r>    8.9238    0.0000 </r>
       <r>    8.9266    0.0000 </r>
      </set>
      <set comment="kpoint 2">
       <r>  -21.3027    1.0000 </r>
       <r>  -21.3027    1.0000 </r>
       <r>  -21.3023    1.0000 </r>
       <r>  -21.3022    1.0000 </r>
       <r>  -21.2971    1.0000 </r>
       <r>  -21.2970    1.0000 </r>
       <r>  -21.2969    1.0000 </r>
       <r>  -21.2969    1.0000 </r>
       <r>  -21.2949    1.0000 </r>
       <r>  -21.2945    1.0000 </r>
       <r>  -21.2943    1.0000 </r>
       <r>  -21.2935    1.0000 </r>
       <r>  -21.2933    1.0000 </r>
       <r>  -21.2928    1.0000 </r>
       <r>  -21.2926    1.0000 </r>
       <r>  -21.2925    1.0000 </r>
       <r>  -21.2925    1.0000 </r>
       <r>  -21.2924    1.0000 </r>
       <r>  -21.2915    1.0000 </r>
       <r>  -21.2902    1.0000 </r>
       <r>  -21.2898    1.0000 </r>
       <r>  -21.2893    1.0000 </r>
       <r>  -21.2888    1.0000 </r>
       <r>  -21.2887    1.0000 </r>
       <r>  -21.2887    1.0000 </r>
       <r>  -21.2882    1.0000 </r>
       <r>  -21.2873    1.0000 </r>
       <r>  -21.2872    1.0000 </r>
       <r>  -21.2871    1.0000 </r>
       <r>  -21.2868    1.0000 </r>
       <r>  -21.2867    1.0000 </r>
       <r>  -21.2866    1.0000 </r>
       <r>  -21.2861    1.0000 </r>
       <r>  -21.2856    1.0000 </r>
       <r>  -21.2844    1.0000 </r>
       <r>  -21.2840    1.0000 </r>
       <r>  -21.2834    1.0000 </r>
       <r>  -21.2833    1.0000 </r>
       <r>  -21.2830    1.0000 </r>
       <r>  -21.2830    1.0000 </r>
       <r>  -21.2818    1.0000 </r>
       <r>  -21.2811    1.0000 </r>
       <r>  -21.2802    1.0000 </r>
       <r>  -21.2800    1.0000 </r>
       <r>  -21.2792    1.0000 </r>
       <r>  -21.2785    1.0000 </r>
       <r>  -21.2785    1.0000 </r>
       <r>  -21.2784    1.0000 </r>
       <r>  -21.2784    1.0000 </r>
       <r>  -21.2781    1.0000 </r>
       <r>  -21.2779    1.0000 </r>
       <r>  -21.2776    1.0000 </r>
       <r>  -21.2775    1.0000 </r>
       <r>  -21.2774    1.0000 </r>
       <r>  -21.2773    1.0000 </r>
       <r>  -21.2772    1.0000 </r>
       <r>  -21.2767    1.0000 </r>
       <r>  -21.2765    1.0000 </r>
       <r>  -21.2763    1.0000 </r>
       <r>  -21.2759    1.0000 </r>
       <r>  -21.2757    1.0000 </r>
       <r>  -21.2756    1.0000 </r>
       <r>  -21.2754    1.0000 </r>
       <r>  -21.2752    1.0000 </r>
       <r>  -21.2752    1.0000 </r>
       <r>  -21.2752    1.0000 </r>
       <r>  -21.2748    1.0000 </r>
       <r>  -21.2748    1.0000 </r>
       <r>  -21.2745    1.0000 </r>
       <r>  -21.2744    1.0000 </r>
       <r>  -21.2743    1.0000 </r>
       <r>  -21.2736    1.0000 </r>
       <r>  -21.2734    1.0000 </r>
       <r>  -21.2731    1.0000 </r>
       <r>  -21.2731    1.0000 </r>
       <r>  -21.2730    1.0000 </r>
       <r>  -21.2729    1.0000 </r>
       <r>  -21.2724    1.0000 </r>
       <r>  -21.2722    1.0000 </r>
       <r>  -21.2720    1.0000 </r>
       <r>  -21.2715    1.0000 </r>
       <r>  -21.2712    1.0000 </r>
       <r>  -21.2707    1.0000 </r>
       <r>  -21.2705    1.0000 </r>
       <r>  -21.2703    1.0000 </r>
       <r>  -21.2703    1.0000 </r>
       <r>  -21.2696    1.0000 </r>
       <r>  -21.2693    1.0000 </r>
       <r>  -21.2691    1.0000 </r>
       <r>  -21.2690    1.0000 </r>
       <r>  -21.2679    1.0000 </r>
       <r>  -21.2676    1.0000 </r>
       <r>  -21.2674    1.0000 </r>
       <r>  -21.2674    1.0000 </r>
       <r>  -21.2672    1.0000 </r>
       <r>  -21.2671    1.0000 </r>
       <r>  -13.2950    1.0000 </r>
       <r>  -13.2878    1.0000 </r>
       <r>  -13.1066    1.0000 </r>
       <r>  -13.1022    1.0000 </r>
       <r>  -13.0988    1.0000 </r>
       <r>  -13.0980    1.0000 </r>
       <r>  -13.0957    1.0000 </r>
       <r>  -13.0949    1.0000 </r>
       <r>  -13.0927    1.0000 </r>
       <r>  -13.0894    1.0000 </r>
       <r>  -13.0105    1.0000 </r>
       <r>  -13.0080    1.0000 </r>
       <r>  -13.0034    1.0000 </r>
       <r>  -13.0034    1.0000 </r>
       <r>  -12.9980    1.0000 </r>
       <r>  -12.9978    1.0000 </r>
       <r>  -12.9978    1.0000 </r>
       <r>  -12.9969    1.0000 </r>
       <r>  -12.9929    1.0000 </r>
       <r>  -12.9896    1.0000 </r>
       <r>  -12.9519    1.0000 </r>
       <r>  -12.9484    1.0000 </r>
       <r>  -12.9457    1.0000 </r>
       <r>  -12.9449    1.0000 </r>
       <r>  -12.9426    1.0000 </r>
       <r>  -12.9418    1.0000 </r>
       <r>  -12.9396    1.0000 </r>
       <r>  -12.9371    1.0000 </r>
       <r>  -12.9347    1.0000 </r>
       <r>  -12.9346    1.0000 </r>
       <r>  -12.9245    1.0000 </r>
       <r>  -12.9226    1.0000 </r>
       <r>   -2.5087    1.0000 </r>
       <r>   -2.5086    1.0000 </r>
       <r>   -2.5081    1.0000 </r>
       <r>   -2.5081    1.0000 </r>
       <r>   -2.5006    1.0000 </r>
       <r>   -2.5006    1.0000 </r>
       <r>   -2.5003    1.0000 </r>
       <r>   -2.5001    1.0000 </r>
       <r>   -2.2912    1.0000 </r>
       <r>   -2.2912    1.0000 </r>
       <r>   -2.2842    1.0000 </r>
       <r>   -2.2842    1.0000 </r>
       <r>   -2.2781    1.0000 </r>
       <r>   -2.2705    1.0000 </r>
       <r>   -2.1432    1.0000 </r>
       <r>   -2.1395    1.0000 </r>
       <r>   -2.1369    1.0000 </r>
       <r>   -2.1366    1.0000 </r>
       <r>   -2.1363    1.0000 </r>
       <r>   -2.1359    1.0000 </r>
       <r>   -2.1336    1.0000 </r>
       <r>   -2.1298    1.0000 </r>
       <r>   -1.9888    1.0000 </r>
       <r>   -1.9878    1.0000 </r>
       <r>   -1.9878    1.0000 </r>
       <r>   -1.9858    1.0000 </r>
       <r>   -1.9848    1.0000 </r>
       <r>   -1.9830    1.0000 </r>
       <r>   -1.9830    1.0000 </r>
       <r>   -1.9822    1.0000 </r>
       <r>   -1.8136    1.0000 </r>
       <r>   -1.8126    1.0000 </r>
       <r>   -1.8125    1.0000 </r>
       <r>   -1.8109    1.0000 </r>
       <r>   -1.8066    1.0000 </r>
       <r>   -1.8050    1.0000 </r>
       <r>   -1.8049    1.0000 </r>
       <r>   -1.8039    1.0000 </r>
       <r>   -1.5010    1.0000 </r>
       <r>   -1.5010    1.0000 </r>
       <r>   -1.4945    1.0000 </r>
       <r>   -1.4945    1.0000 </r>
       <r>   -1.3860    1.0000 </r>
       <r>   -1.3859    1.0000 </r>
       <r>   -1.3752    1.0000 </r>
       <r>   -1.3752    1.0000 </r>
       <r>   -1.2162    1.0000 </r>
       <r>   -1.2162    1.0000 </r>
       <r>   -1.2092    1.0000 </r>
       <r>   -1.2091    1.0000 </r>
       <r>   -1.1942    1.0000 </r>
       <r>   -1.1940    1.0000 </r>
       <r>   -1.1939    1.0000 </r>
       <r>   -1.1914    1.0000 </r>
       <r>   -1.1912    1.0000 </r>
       <r>   -1.1894    1.0000 </r>
       <r>   -1.1891    1.0000 </r>
       <r>   -1.1887    1.0000 </r>
       <r>   -1.1802    1.0000 </r>
       <r>   -1.1791    1.0000 </r>
       <r>   -1.1765    1.0000 </r>
       <r>   -1.1763    1.0000 </r>
       <r>   -1.1725    1.0000 </r>
       <r>   -1.1724    1.0000 </r>
       <r>   -1.1687    1.0000 </r>
       <r>   -1.1673    1.0000 </r>
       <r>   -1.1633    1.0000 </r>
       <r>   -1.1628    1.0000 </r>
       <r>   -1.1627    1.0000 </r>
       <r>   -1.1616    1.0000 </r>
       <r>   -1.1578    1.0000 </r>
       <r>   -1.1558    1.0000 </r>
       <r>   -1.1555    1.0000 </r>
       <r>   -1.1540    1.0000 </r>
       <r>   -1.0865    1.0000 </r>
       <r>   -1.0796    1.0000 </r>
       <r>   -0.9519    1.0000 </r>
       <r>   -0.9518    1.0000 </r>
       <r>   -0.9518    1.0000 </r>
       <r>   -0.9517    1.0000 </r>
       <r>   -0.9423    1.0000 </r>
       <r>   -0.9423    1.0000 </r>
       <r>   -0.9423    1.0000 </r>
       <r>   -0.9419    1.0000 </r>
       <r>   -0.9398    1.0000 </r>
       <r>   -0.9357    1.0000 </r>
       <r>   -0.9327    1.0000 </r>
       <r>   -0.9322    1.0000 </r>
       <r>   -0.9321    1.0000 </r>
       <r>   -0.9319    1.0000 </r>
       <r>   -0.9286    1.0000 </r>
       <r>   -0.9238    1.0000 </r>
       <r>   -0.7716    1.0000 </r>
       <r>   -0.7716    1.0000 </r>
       <r>   -0.7649    1.0000 </r>
       <r>   -0.7649    1.0000 </r>
       <r>    5.0197    0.0000 </r>
       <r>    5.0250    0.0000 </r>
       <r>    6.7148    0.0000 </r>
       <r>    6.7156    0.0000 </r>
       <r>    6.7158    0.0000 </r>
       <r>    6.7168    0.0000 </r>
       <r>    6.7199    0.0000 </r>
       <r>    6.7209    0.0000 </r>
       <r>    6.7210    0.0000 </r>
       <r>    6.7218    0.0000 </r>
       <r>    6.8399    0.0000 </r>
       <r>    6.8399    0.0000 </r>
       <r>    6.8400    0.0000 </r>
       <r>    6.8400    0.0000 </r>
       <r>    6.8464    0.0000 </r>
       <r>    6.8464    0.0000 </r>
       <r>    6.8464    0.0000 </r>
       <r>    6.8465    0.0000 </r>
       <r>    6.9690    0.0000 </r>
       <r>    6.9732    0.0000 </r>
       <r>    7.3591    0.0000 </r>
       <r>    7.3591    0.0000 </r>
       <r>    7.3660    0.0000 </r>
       <r>    7.3660    0.0000 </r>
       <r>    7.4763    0.0000 </r>
       <r>    7.4842    0.0000 </r>
       <r>    7.7103    0.0000 </r>
       <r>    7.7103    0.0000 </r>
       <r>    7.7188    0.0000 </r>
       <r>    7.7189    0.0000 </r>
       <r>    8.2623    0.0000 </r>
       <r>    8.2627    0.0000 </r>
       <r>    8.2628    0.0000 </r>
       <r>    8.2646    0.0000 </r>
       <r>    8.2673    0.0000 </r>
       <r>    8.2691    0.0000 </r>
       <r>    8.2691    0.0000 </r>
       <r>    8.2696    0.0000 </r>
       <r>    8.5335    0.0000 </r>
       <r>    8.5344    0.0000 </r>
       <r>    8.5345    0.0000 </r>
       <r>    8.5356    0.0000 </r>
       <r>    8.5357    0.0000 </r>
       <r>    8.5360    0.0000 </r>
       <r>    8.5364    0.0000 </r>
       <r>    8.5367    0.0000 </r>
       <r>    8.5397    0.0000 </r>
       <r>    8.5402    0.0000 </r>
       <r>    8.5405    0.0000 </r>
       <r>    8.5408    0.0000 </r>
       <r>    8.5409    0.0000 </r>
       <r>    8.5430    0.0000 </r>
       <r>    8.5434    0.0000 </r>
       <r>    8.5444    0.0000 </r>
       <r>    8.9446    0.0000 </r>
       <r>    8.9466    0.0000 </r>
       <r>    8.9475    0.0000 </r>
       <r>    8.9489    0.0000 </r>
       <r>    8.9529    0.0000 </r>
       <r>    8.9544    0.0000 </r>
       <r>    8.9552    0.0000 </r>
       <r>    8.9573    0.0000 </r>
       <r>    9.4884    0.0000 </r>
       <r>    9.5049    0.0000 </r>
      </set>
      <set comment="kpoint 3">
       <r>  -21.3012    1.0000 </r>
       <r>  -21.3011    1.0000 </r>
       <r>  -21.3009    1.0000 </r>
       <r>  -21.3007    1.0000 </r>
       <r>  -21.3000    1.0000 </r>
       <r>  -21.3000    1.0000 </r>
       <r>  -21.3000    1.0000 </r>
       <r>  -21.2999    1.0000 </r>
       <r>  -21.2950    1.0000 </r>
       <r>  -21.2939    1.0000 </r>
       <r>  -21.2935    1.0000 </r>
       <r>  -21.2931    1.0000 </r>
       <r>  -21.2927    1.0000 </r>
       <r>  -21.2921    1.0000 </r>
       <r>  -21.2921    1.0000 </r>
       <r>  -21.2918    1.0000 </r>
       <r>  -21.2912    1.0000 </r>
       <r>  -21.2911    1.0000 </r>
       <r>  -21.2908    1.0000 </r>
       <r>  -21.2905    1.0000 </r>
       <r>  -21.2898    1.0000 </r>
       <r>  -21.2892    1.0000 </r>
       <r>  -21.2887    1.0000 </r>
       <r>  -21.2886    1.0000 </r>
       <r>  -21.2885    1.0000 </r>
       <r>  -21.2883    1.0000 </r>
       <r>  -21.2883    1.0000 </r>
       <r>  -21.2882    1.0000 </r>
       <r>  -21.2875    1.0000 </r>
       <r>  -21.2865    1.0000 </r>
       <r>  -21.2864    1.0000 </r>
       <r>  -21.2853    1.0000 </r>
       <r>  -21.2844    1.0000 </r>
       <r>  -21.2842    1.0000 </r>
       <r>  -21.2841    1.0000 </r>
       <r>  -21.2841    1.0000 </r>
       <r>  -21.2837    1.0000 </r>
       <r>  -21.2826    1.0000 </r>
       <r>  -21.2824    1.0000 </r>
       <r>  -21.2820    1.0000 </r>
       <r>  -21.2817    1.0000 </r>
       <r>  -21.2814    1.0000 </r>
       <r>  -21.2814    1.0000 </r>
       <r>  -21.2811    1.0000 </r>
       <r>  -21.2805    1.0000 </r>
       <r>  -21.2804    1.0000 </r>
       <r>  -21.2792    1.0000 </r>
       <r>  -21.2791    1.0000 </r>
       <r>  -21.2788    1.0000 </r>
       <r>  -21.2784    1.0000 </r>
       <r>  -21.2782    1.0000 </r>
       <r>  -21.2780    1.0000 </r>
       <r>  -21.2780    1.0000 </r>
       <r>  -21.2776    1.0000 </r>
       <r>  -21.2772    1.0000 </r>
       <r>  -21.2771    1.0000 </r>
       <r>  -21.2771    1.0000 </r>
       <r>  -21.2767    1.0000 </r>
       <r>  -21.2767    1.0000 </r>
       <r>  -21.2766    1.0000 </r>
       <r>  -21.2764    1.0000 </r>
       <r>  -21.2762    1.0000 </r>
       <r>  -21.2757    1.0000 </r>
       <r>  -21.2755    1.0000 </r>
       <r>  -21.2751    1.0000 </r>
       <r>  -21.2750    1.0000 </r>
       <r>  -21.2747    1.0000 </r>
       <r>  -21.2747    1.0000 </r>
       <r>  -21.2745    1.0000 </r>
       <r>  -21.2739    1.0000 </r>
       <r>  -21.2735    1.0000 </r>
       <r>  -21.2734    1.0000 </r>
       <r>  -21.2729    1.0000 </r>
       <r>  -21.2729    1.0000 </r>
       <r>  -21.2726    1.0000 </r>
       <r>  -21.2724    1.0000 </r>
       <r>  -21.2719    1.0000 </r>
       <r>  -21.2716    1.0000 </r>
       <r>  -21.2714    1.0000 </r>
       <r>  -21.2713    1.0000 </r>
       <r>  -21.2708    1.0000 </r>
       <r>  -21.2707    1.0000 </r>
       <r>  -21.2706    1.0000 </r>
       <r>  -21.2705    1.0000 </r>
       <r>  -21.2703    1.0000 </r>
       <r>  -21.2697    1.0000 </r>
       <r>  -21.2694    1.0000 </r>
       <r>  -21.2694    1.0000 </r>
       <r>  -21.2689    1.0000 </r>
       <r>  -21.2688    1.0000 </r>
       <r>  -21.2685    1.0000 </r>
       <r>  -21.2685    1.0000 </r>
       <r>  -21.2679    1.0000 </r>
       <r>  -21.2677    1.0000 </r>
       <r>  -21.2676    1.0000 </r>
       <r>  -21.2676    1.0000 </r>
       <r>  -13.2918    1.0000 </r>
       <r>  -13.2913    1.0000 </r>
       <r>  -13.1061    1.0000 </r>
       <r>  -13.1012    1.0000 </r>
       <r>  -13.0969    1.0000 </r>
       <r>  -13.0969    1.0000 </r>
       <r>  -13.0968    1.0000 </r>
       <r>  -13.0968    1.0000 </r>
       <r>  -13.0941    1.0000 </r>
       <r>  -13.0896    1.0000 </r>
       <r>  -13.0092    1.0000 </r>
       <r>  -13.0021    1.0000 </r>
       <r>  -13.0007    1.0000 </r>
       <r>  -13.0007    1.0000 </r>
       <r>  -13.0006    1.0000 </r>
       <r>  -13.0006    1.0000 </r>
       <r>  -13.0005    1.0000 </r>
       <r>  -13.0005    1.0000 </r>
       <r>  -12.9939    1.0000 </r>
       <r>  -12.9912    1.0000 </r>
       <r>  -12.9504    1.0000 </r>
       <r>  -12.9484    1.0000 </r>
       <r>  -12.9440    1.0000 </r>
       <r>  -12.9438    1.0000 </r>
       <r>  -12.9436    1.0000 </r>
       <r>  -12.9436    1.0000 </r>
       <r>  -12.9419    1.0000 </r>
       <r>  -12.9370    1.0000 </r>
       <r>  -12.9311    1.0000 </r>
       <r>  -12.9310    1.0000 </r>
       <r>  -12.9259    1.0000 </r>
       <r>  -12.9258    1.0000 </r>
       <r>   -2.5049    1.0000 </r>
       <r>   -2.5047    1.0000 </r>
       <r>   -2.5047    1.0000 </r>
       <r>   -2.5045    1.0000 </r>
       <r>   -2.5044    1.0000 </r>
       <r>   -2.5044    1.0000 </r>
       <r>   -2.5042    1.0000 </r>
       <r>   -2.5040    1.0000 </r>
       <r>   -2.2878    1.0000 </r>
       <r>   -2.2877    1.0000 </r>
       <r>   -2.2877    1.0000 </r>
       <r>   -2.2876    1.0000 </r>
       <r>   -2.2744    1.0000 </r>
       <r>   -2.2741    1.0000 </r>
       <r>   -2.1417    1.0000 </r>
       <r>   -2.1391    1.0000 </r>
       <r>   -2.1366    1.0000 </r>
       <r>   -2.1364    1.0000 </r>
       <r>   -2.1364    1.0000 </r>
       <r>   -2.1362    1.0000 </r>
       <r>   -2.1343    1.0000 </r>
       <r>   -2.1304    1.0000 </r>
       <r>   -1.9873    1.0000 </r>
       <r>   -1.9872    1.0000 </r>
       <r>   -1.9861    1.0000 </r>
       <r>   -1.9857    1.0000 </r>
       <r>   -1.9855    1.0000 </r>
       <r>   -1.9854    1.0000 </r>
       <r>   -1.9836    1.0000 </r>
       <r>   -1.9834    1.0000 </r>
       <r>   -1.8099    1.0000 </r>
       <r>   -1.8096    1.0000 </r>
       <r>   -1.8088    1.0000 </r>
       <r>   -1.8087    1.0000 </r>
       <r>   -1.8087    1.0000 </r>
       <r>   -1.8084    1.0000 </r>
       <r>   -1.8083    1.0000 </r>
       <r>   -1.8070    1.0000 </r>
       <r>   -1.4979    1.0000 </r>
       <r>   -1.4979    1.0000 </r>
       <r>   -1.4977    1.0000 </r>
       <r>   -1.4977    1.0000 </r>
       <r>   -1.3807    1.0000 </r>
       <r>   -1.3807    1.0000 </r>
       <r>   -1.3804    1.0000 </r>
       <r>   -1.3804    1.0000 </r>
       <r>   -1.2147    1.0000 </r>
       <r>   -1.2128    1.0000 </r>
       <r>   -1.2128    1.0000 </r>
       <r>   -1.2123    1.0000 </r>
       <r>   -1.1940    1.0000 </r>
       <r>   -1.1935    1.0000 </r>
       <r>   -1.1933    1.0000 </r>
       <r>   -1.1915    1.0000 </r>
       <r>   -1.1908    1.0000 </r>
       <r>   -1.1902    1.0000 </r>
       <r>   -1.1902    1.0000 </r>
       <r>   -1.1891    1.0000 </r>
       <r>   -1.1757    1.0000 </r>
       <r>   -1.1748    1.0000 </r>
       <r>   -1.1744    1.0000 </r>
       <r>   -1.1743    1.0000 </r>
       <r>   -1.1743    1.0000 </r>
       <r>   -1.1738    1.0000 </r>
       <r>   -1.1732    1.0000 </r>
       <r>   -1.1720    1.0000 </r>
       <r>   -1.1606    1.0000 </r>
       <r>   -1.1602    1.0000 </r>
       <r>   -1.1596    1.0000 </r>
       <r>   -1.1593    1.0000 </r>
       <r>   -1.1593    1.0000 </r>
       <r>   -1.1590    1.0000 </r>
       <r>   -1.1573    1.0000 </r>
       <r>   -1.1560    1.0000 </r>
       <r>   -1.0833    1.0000 </r>
       <r>   -1.0830    1.0000 </r>
       <r>   -0.9480    1.0000 </r>
       <r>   -0.9469    1.0000 </r>
       <r>   -0.9469    1.0000 </r>
       <r>   -0.9469    1.0000 </r>
       <r>   -0.9468    1.0000 </r>
       <r>   -0.9467    1.0000 </r>
       <r>   -0.9467    1.0000 </r>
       <r>   -0.9465    1.0000 </r>
       <r>   -0.9380    1.0000 </r>
       <r>   -0.9348    1.0000 </r>
       <r>   -0.9326    1.0000 </r>
       <r>   -0.9323    1.0000 </r>
       <r>   -0.9322    1.0000 </r>
       <r>   -0.9313    1.0000 </r>
       <r>   -0.9298    1.0000 </r>
       <r>   -0.9261    1.0000 </r>
       <r>   -0.7683    1.0000 </r>
       <r>   -0.7683    1.0000 </r>
       <r>   -0.7680    1.0000 </r>
       <r>   -0.7678    1.0000 </r>
       <r>    5.0224    0.0000 </r>
       <r>    5.0224    0.0000 </r>
       <r>    6.7145    0.0000 </r>
       <r>    6.7160    0.0000 </r>
       <r>    6.7181    0.0000 </r>
       <r>    6.7182    0.0000 </r>
       <r>    6.7183    0.0000 </r>
       <r>    6.7183    0.0000 </r>
       <r>    6.7201    0.0000 </r>
       <r>    6.7230    0.0000 </r>
       <r>    6.8421    0.0000 </r>
       <r>    6.8424    0.0000 </r>
       <r>    6.8427    0.0000 </r>
       <r>    6.8427    0.0000 </r>
       <r>    6.8437    0.0000 </r>
       <r>    6.8438    0.0000 </r>
       <r>    6.8440    0.0000 </r>
       <r>    6.8443    0.0000 </r>
       <r>    6.9711    0.0000 </r>
       <r>    6.9711    0.0000 </r>
       <r>    7.3625    0.0000 </r>
       <r>    7.3626    0.0000 </r>
       <r>    7.3626    0.0000 </r>
       <r>    7.3626    0.0000 </r>
       <r>    7.4802    0.0000 </r>
       <r>    7.4803    0.0000 </r>
       <r>    7.7145    0.0000 </r>
       <r>    7.7145    0.0000 </r>
       <r>    7.7146    0.0000 </r>
       <r>    7.7146    0.0000 </r>
       <r>    8.2625    0.0000 </r>
       <r>    8.2634    0.0000 </r>
       <r>    8.2646    0.0000 </r>
       <r>    8.2655    0.0000 </r>
       <r>    8.2658    0.0000 </r>
       <r>    8.2659    0.0000 </r>
       <r>    8.2682    0.0000 </r>
       <r>    8.2712    0.0000 </r>
       <r>    8.5349    0.0000 </r>
       <r>    8.5349    0.0000 </r>
       <r>    8.5360    0.0000 </r>
       <r>    8.5368    0.0000 </r>
       <r>    8.5374    0.0000 </r>
       <r>    8.5377    0.0000 </r>
       <r>    8.5380    0.0000 </r>
       <r>    8.5381    0.0000 </r>
       <r>    8.5382    0.0000 </r>
       <r>    8.5385    0.0000 </r>
       <r>    8.5386    0.0000 </r>
       <r>    8.5387    0.0000 </r>
       <r>    8.5403    0.0000 </r>
       <r>    8.5416    0.0000 </r>
       <r>    8.5416    0.0000 </r>
       <r>    8.5447    0.0000 </r>
       <r>    8.9449    0.0000 </r>
       <r>    8.9452    0.0000 </r>
       <r>    8.9504    0.0000 </r>
       <r>    8.9506    0.0000 </r>
       <r>    8.9508    0.0000 </r>
       <r>    8.9509    0.0000 </r>
       <r>    8.9537    0.0000 </r>
       <r>    8.9606    0.0000 </r>
       <r>    9.4928    0.0000 </r>
       <r>    9.5027    0.0000 </r>
      </set>
      <set comment="kpoint 4">
       <r>  -21.3013    1.0000 </r>
       <r>  -21.3013    1.0000 </r>
       <r>  -21.3008    1.0000 </r>
       <r>  -21.3007    1.0000 </r>
       <r>  -21.3001    1.0000 </r>
       <r>  -21.2999    1.0000 </r>
       <r>  -21.2997    1.0000 </r>
       <r>  -21.2996    1.0000 </r>
       <r>  -21.2950    1.0000 </r>
       <r>  -21.2943    1.0000 </r>
       <r>  -21.2933    1.0000 </r>
       <r>  -21.2930    1.0000 </r>
       <r>  -21.2929    1.0000 </r>
       <r>  -21.2926    1.0000 </r>
       <r>  -21.2923    1.0000 </r>
       <r>  -21.2915    1.0000 </r>
       <r>  -21.2908    1.0000 </r>
       <r>  -21.2908    1.0000 </r>
       <r>  -21.2906    1.0000 </r>
       <r>  -21.2906    1.0000 </r>
       <r>  -21.2898    1.0000 </r>
       <r>  -21.2897    1.0000 </r>
       <r>  -21.2895    1.0000 </r>
       <r>  -21.2887    1.0000 </r>
       <r>  -21.2884    1.0000 </r>
       <r>  -21.2884    1.0000 </r>
       <r>  -21.2880    1.0000 </r>
       <r>  -21.2877    1.0000 </r>
       <r>  -21.2876    1.0000 </r>
       <r>  -21.2864    1.0000 </r>
       <r>  -21.2861    1.0000 </r>
       <r>  -21.2848    1.0000 </r>
       <r>  -21.2842    1.0000 </r>
       <r>  -21.2841    1.0000 </r>
       <r>  -21.2840    1.0000 </r>
       <r>  -21.2840    1.0000 </r>
       <r>  -21.2837    1.0000 </r>
       <r>  -21.2836    1.0000 </r>
       <r>  -21.2821    1.0000 </r>
       <r>  -21.2818    1.0000 </r>
       <r>  -21.2815    1.0000 </r>
       <r>  -21.2814    1.0000 </r>
       <r>  -21.2814    1.0000 </r>
       <r>  -21.2811    1.0000 </r>
       <r>  -21.2810    1.0000 </r>
       <r>  -21.2803    1.0000 </r>
       <r>  -21.2793    1.0000 </r>
       <r>  -21.2793    1.0000 </r>
       <r>  -21.2791    1.0000 </r>
       <r>  -21.2791    1.0000 </r>
       <r>  -21.2788    1.0000 </r>
       <r>  -21.2780    1.0000 </r>
       <r>  -21.2777    1.0000 </r>
       <r>  -21.2777    1.0000 </r>
       <r>  -21.2775    1.0000 </r>
[...]
      </set>
     </set>
    </set>
   </array>
  </eigenvalues>
  <separator name="orbital magnetization" >
   <v name="MAGDIPOLOUT">      0.00000000      0.00000000      0.00000000</v>
  </separator>
  <dos>
   <i name="efermi">     -0.56216333 </i>
   <total>
    <array>
     <dimension dim="1">gridpoints</dimension>
     <dimension dim="2">spin</dimension>
     <field>energy</field>
     <field>total</field>
     <field>integrated</field>
     <set>
      <set comment="spin 1">
       <r>   -22.8453     0.0000     0.0000 </r>
       <r>   -22.7323     0.0000     0.0000 </r>
       <r>   -22.6193     0.0000     0.0000 </r>
       <r>   -22.5064     0.0000     0.0000 </r>
       <r>   -22.3934     0.0000     0.0000 </r>
       <r>   -22.2804     0.0000     0.0000 </r>
       <r>   -22.1675     0.0000     0.0000 </r>
       <r>   -22.0545     0.0000     0.0000 </r>
       <r>   -21.9415     0.0000     0.0000 </r>
       <r>   -21.8286     0.0000     0.0000 </r>
       <r>   -21.7156     0.0000     0.0000 </r>
       <r>   -21.6026     0.0000     0.0000 </r>
       <r>   -21.4897     0.0000     0.0000 </r>
       <r>   -21.3767     0.0000     0.0000 </r>
       <r>   -21.2637  1437.7057   162.4161 </r>
       <r>   -21.1508   261.8765   192.0000 </r>
       <r>   -21.0378     0.0000   192.0000 </r>
       <r>   -20.9248     0.0000   192.0000 </r>
       <r>   -20.8118     0.0000   192.0000 </r>
       <r>   -20.6989     0.0000   192.0000 </r>
       <r>   -20.5859     0.0000   192.0000 </r>
       <r>   -20.4729     0.0000   192.0000 </r>
       <r>   -20.3600     0.0000   192.0000 </r>
       <r>   -20.2470     0.0000   192.0000 </r>
       <r>   -20.1340     0.0000   192.0000 </r>
       <r>   -20.0211     0.0000   192.0000 </r>
       <r>   -19.9081     0.0000   192.0000 </r>
       <r>   -19.7951     0.0000   192.0000 </r>
       <r>   -19.6822     0.0000   192.0000 </r>
       <r>   -19.5692     0.0000   192.0000 </r>
       <r>   -19.4562     0.0000   192.0000 </r>
       <r>   -19.3432     0.0000   192.0000 </r>
       <r>   -19.2303     0.0000   192.0000 </r>
       <r>   -19.1173     0.0000   192.0000 </r>
       <r>   -19.0043     0.0000   192.0000 </r>
       <r>   -18.8914     0.0000   192.0000 </r>
       <r>   -18.7784     0.0000   192.0000 </r>
       <r>   -18.6654     0.0000   192.0000 </r>
       <r>   -18.5525     0.0000   192.0000 </r>
       <r>   -18.4395     0.0000   192.0000 </r>
       <r>   -18.3265     0.0000   192.0000 </r>
       <r>   -18.2136     0.0000   192.0000 </r>
       <r>   -18.1006     0.0000   192.0000 </r>
       <r>   -17.9876     0.0000   192.0000 </r>
       <r>   -17.8747     0.0000   192.0000 </r>
       <r>   -17.7617     0.0000   192.0000 </r>
       <r>   -17.6487     0.0000   192.0000 </r>
       <r>   -17.5357     0.0000   192.0000 </r>
       <r>   -17.4228     0.0000   192.0000 </r>
       <r>   -17.3098     0.0000   192.0000 </r>
       <r>   -17.1968     0.0000   192.0000 </r>
       <r>   -17.0839     0.0000   192.0000 </r>
       <r>   -16.9709     0.0000   192.0000 </r>
       <r>   -16.8579     0.0000   192.0000 </r>
       <r>   -16.7450     0.0000   192.0000 </r>
       <r>   -16.6320     0.0000   192.0000 </r>
       <r>   -16.5190     0.0000   192.0000 </r>
       <r>   -16.4061     0.0000   192.0000 </r>
       <r>   -16.2931     0.0000   192.0000 </r>
       <r>   -16.1801     0.0000   192.0000 </r>
       <r>   -16.0672     0.0000   192.0000 </r>
       <r>   -15.9542     0.0000   192.0000 </r>
       <r>   -15.8412     0.0000   192.0000 </r>
       <r>   -15.7282     0.0000   192.0000 </r>
       <r>   -15.6153     0.0000   192.0000 </r>
       <r>   -15.5023     0.0000   192.0000 </r>
       <r>   -15.3893     0.0000   192.0000 </r>
       <r>   -15.2764     0.0000   192.0000 </r>
       <r>   -15.1634     0.0000   192.0000 </r>
       <r>   -15.0504     0.0000   192.0000 </r>
       <r>   -14.9375     0.0000   192.0000 </r>
       <r>   -14.8245     0.0000   192.0000 </r>
       <r>   -14.7115     0.0000   192.0000 </r>
       <r>   -14.5986     0.0000   192.0000 </r>
       <r>   -14.4856     0.0000   192.0000 </r>
       <r>   -14.3726     0.0000   192.0000 </r>
       <r>   -14.2596     0.0000   192.0000 </r>
       <r>   -14.1467     0.0000   192.0000 </r>
       <r>   -14.0337     0.0000   192.0000 </r>
       <r>   -13.9207     0.0000   192.0000 </r>
       <r>   -13.8078     0.0000   192.0000 </r>
       <r>   -13.6948     0.0000   192.0000 </r>
       <r>   -13.5818     0.0000   192.0000 </r>
       <r>   -13.4689     0.0000   192.0000 </r>
       <r>   -13.3559     1.2495   192.1412 </r>
       <r>   -13.2429    20.2305   194.4266 </r>
       <r>   -13.1300    48.3656   199.8907 </r>
       <r>   -13.0170   128.0506   214.3567 </r>
       <r>   -12.9040   364.2245   255.5037 </r>
       <r>   -12.7911     4.3868   256.0000 </r>
       <r>   -12.6781     0.0000   256.0000 </r>
       <r>   -12.5651     0.0000   256.0000 </r>
       <r>   -12.4521     0.0000   256.0000 </r>
       <r>   -12.3392     0.0000   256.0000 </r>
       <r>   -12.2262     0.0000   256.0000 </r>
       <r>   -12.1132     0.0000   256.0000 </r>
       <r>   -12.0003     0.0000   256.0000 </r>
       <r>   -11.8873     0.0000   256.0000 </r>
       <r>   -11.7743     0.0000   256.0000 </r>
       <r>   -11.6614     0.0000   256.0000 </r>
       <r>   -11.5484     0.0000   256.0000 </r>
       <r>   -11.4354     0.0000   256.0000 </r>
       <r>   -11.3225     0.0000   256.0000 </r>
       <r>   -11.2095     0.0000   256.0000 </r>
       <r>   -11.0965     0.0000   256.0000 </r>
       <r>   -10.9835     0.0000   256.0000 </r>
       <r>   -10.8706     0.0000   256.0000 </r>
       <r>   -10.7576     0.0000   256.0000 </r>
       <r>   -10.6446     0.0000   256.0000 </r>
       <r>   -10.5317     0.0000   256.0000 </r>
       <r>   -10.4187     0.0000   256.0000 </r>
       <r>   -10.3057     0.0000   256.0000 </r>
       <r>   -10.1928     0.0000   256.0000 </r>
       <r>   -10.0798     0.0000   256.0000 </r>
       <r>    -9.9668     0.0000   256.0000 </r>
       <r>    -9.8539     0.0000   256.0000 </r>
       <r>    -9.7409     0.0000   256.0000 </r>
       <r>    -9.6279     0.0000   256.0000 </r>
       <r>    -9.5150     0.0000   256.0000 </r>
       <r>    -9.4020     0.0000   256.0000 </r>
       <r>    -9.2890     0.0000   256.0000 </r>
       <r>    -9.1760     0.0000   256.0000 </r>
       <r>    -9.0631     0.0000   256.0000 </r>
       <r>    -8.9501     0.0000   256.0000 </r>
       <r>    -8.8371     0.0000   256.0000 </r>
       <r>    -8.7242     0.0000   256.0000 </r>
       <r>    -8.6112     0.0000   256.0000 </r>
       <r>    -8.4982     0.0000   256.0000 </r>
       <r>    -8.3853     0.0000   256.0000 </r>
       <r>    -8.2723     0.0000   256.0000 </r>
       <r>    -8.1593     0.0000   256.0000 </r>
       <r>    -8.0464     0.0000   256.0000 </r>
       <r>    -7.9334     0.0000   256.0000 </r>
       <r>    -7.8204     0.0000   256.0000 </r>
       <r>    -7.7074     0.0000   256.0000 </r>
       <r>    -7.5945     0.0000   256.0000 </r>
       <r>    -7.4815     0.0000   256.0000 </r>
       <r>    -7.3685     0.0000   256.0000 </r>
       <r>    -7.2556     0.0000   256.0000 </r>
       <r>    -7.1426     0.0000   256.0000 </r>
       <r>    -7.0296     0.0000   256.0000 </r>
       <r>    -6.9167     0.0000   256.0000 </r>
       <r>    -6.8037     0.0000   256.0000 </r>
       <r>    -6.6907     0.0000   256.0000 </r>
       <r>    -6.5778     0.0000   256.0000 </r>
       <r>    -6.4648     0.0000   256.0000 </r>
       <r>    -6.3518     0.0000   256.0000 </r>
       <r>    -6.2389     0.0000   256.0000 </r>
       <r>    -6.1259     0.0000   256.0000 </r>
       <r>    -6.0129     0.0000   256.0000 </r>
       <r>    -5.8999     0.0000   256.0000 </r>
       <r>    -5.7870     0.0000   256.0000 </r>
       <r>    -5.6740     0.0000   256.0000 </r>
       <r>    -5.5610     0.0000   256.0000 </r>
       <r>    -5.4481     0.0000   256.0000 </r>
       <r>    -5.3351     0.0000   256.0000 </r>
       <r>    -5.2221     0.0000   256.0000 </r>
       <r>    -5.1092     0.0000   256.0000 </r>
       <r>    -4.9962     0.0000   256.0000 </r>
       <r>    -4.8832     0.0000   256.0000 </r>
       <r>    -4.7703     0.0000   256.0000 </r>
       <r>    -4.6573     0.0000   256.0000 </r>
       <r>    -4.5443     0.0000   256.0000 </r>
       <r>    -4.4313     0.0000   256.0000 </r>
       <r>    -4.3184     0.0000   256.0000 </r>
       <r>    -4.2054     0.0000   256.0000 </r>
       <r>    -4.0924     0.0000   256.0000 </r>
       <r>    -3.9795     0.0000   256.0000 </r>
       <r>    -3.8665     0.0000   256.0000 </r>
       <r>    -3.7535     0.0000   256.0000 </r>
       <r>    -3.6406     0.0000   256.0000 </r>
       <r>    -3.5276     0.0000   256.0000 </r>
       <r>    -3.4146     0.0000   256.0000 </r>
       <r>    -3.3017     0.0000   256.0000 </r>
       <r>    -3.1887     0.0000   256.0000 </r>
       <r>    -3.0757     0.0000   256.0000 </r>
       <r>    -2.9628     0.0000   256.0000 </r>
       <r>    -2.8498     0.0000   256.0000 </r>
       <r>    -2.7368     0.0414   256.0047 </r>
       <r>    -2.6238     8.8106   257.0000 </r>
       <r>    -2.5109    17.3647   258.9617 </r>
       <r>    -2.3979    87.5943   268.8571 </r>
       <r>    -2.2849    79.8034   277.8724 </r>
       <r>    -2.1720   157.5751   295.6738 </r>
       <r>    -2.0590    75.9166   304.2500 </r>
       <r>    -1.9460    54.7854   310.4390 </r>
       <r>    -1.8331    56.3273   316.8023 </r>
       <r>    -1.7201    79.2052   325.7500 </r>
       <r>    -1.6071     0.0000   325.7500 </r>
       <r>    -1.4942    52.6176   331.6942 </r>
       <r>    -1.3812   209.0331   355.3084 </r>
       <r>    -1.2682    30.1753   358.7173 </r>
       <r>    -1.1553   240.8377   385.9245 </r>
       <r>    -1.0423   146.9416   402.5244 </r>
       <r>    -0.9293   247.2369   430.4546 </r>
       <r>    -0.8163    71.8929   438.5766 </r>
       <r>    -0.7034    76.6232   447.2327 </r>
       <r>    -0.5904     6.7921   448.0000 </r>
       <r>    -0.4774     0.0000   448.0000 </r>
       <r>    -0.3645     0.0000   448.0000 </r>
       <r>    -0.2515     0.0000   448.0000 </r>
       <r>    -0.1385     0.0000   448.0000 </r>
       <r>    -0.0256     0.0000   448.0000 </r>
       <r>     0.0874     0.0000   448.0000 </r>
       <r>     0.2004     0.0000   448.0000 </r>
       <r>     0.3133     0.0000   448.0000 </r>
       <r>     0.4263     0.0000   448.0000 </r>
       <r>     0.5393     0.0000   448.0000 </r>
       <r>     0.6523     0.0000   448.0000 </r>
       <r>     0.7652     0.0000   448.0000 </r>
       <r>     0.8782     0.0000   448.0000 </r>
       <r>     0.9912     0.0000   448.0000 </r>
       <r>     1.1041     0.0000   448.0000 </r>
       <r>     1.2171     0.0000   448.0000 </r>
       <r>     1.3301     0.0000   448.0000 </r>
       <r>     1.4430     0.0000   448.0000 </r>
       <r>     1.5560     0.0000   448.0000 </r>
       <r>     1.6690     0.0000   448.0000 </r>
       <r>     1.7819     0.0000   448.0000 </r>
       <r>     1.8949     0.0000   448.0000 </r>
       <r>     2.0079     0.0000   448.0000 </r>
       <r>     2.1208     0.0000   448.0000 </r>
       <r>     2.2338     0.0000   448.0000 </r>
       <r>     2.3468     0.0000   448.0000 </r>
       <r>     2.4598     0.0000   448.0000 </r>
       <r>     2.5727     0.0000   448.0000 </r>
       <r>     2.6857     0.0000   448.0000 </r>
       <r>     2.7987     0.0000   448.0000 </r>
       <r>     2.9116     0.0000   448.0000 </r>
       <r>     3.0246     0.0000   448.0000 </r>
       <r>     3.1376     0.0000   448.0000 </r>
       <r>     3.2505     0.0000   448.0000 </r>
       <r>     3.3635     0.0000   448.0000 </r>
       <r>     3.4765     0.0000   448.0000 </r>
       <r>     3.5894     0.0000   448.0000 </r>
       <r>     3.7024     0.0000   448.0000 </r>
       <r>     3.8154     0.0000   448.0000 </r>
       <r>     3.9284     0.0000   448.0000 </r>
       <r>     4.0413     0.0000   448.0000 </r>
       <r>     4.1543     0.0000   448.0000 </r>
       <r>     4.2673     0.0000   448.0000 </r>
       <r>     4.3802     2.2077   448.2494 </r>
       <r>     4.4932     0.0053   448.2500 </r>
       <r>     4.6062     0.0000   448.2500 </r>
       <r>     4.7191     0.0000   448.2500 </r>
       <r>     4.8321     0.0000   448.2500 </r>
       <r>     4.9451     0.0000   448.2500 </r>
       <r>     5.0580    13.1974   449.7409 </r>
       <r>     5.1710     0.0806   449.7500 </r>
       <r>     5.2840     0.0000   449.7500 </r>
       <r>     5.3969     0.0000   449.7500 </r>
       <r>     5.5099     0.5213   449.8089 </r>
       <r>     5.6229    26.0347   452.7500 </r>
       <r>     5.7359     0.0000   452.7500 </r>
       <r>     5.8488    15.6516   454.5181 </r>
       <r>     5.9618     2.0524   454.7500 </r>
       <r>     6.0748     0.0000   454.7500 </r>
       <r>     6.1877     0.0000   454.7500 </r>
       <r>     6.3007     0.0000   454.7500 </r>
       <r>     6.4137    13.3949   456.2632 </r>
       <r>     6.5266     8.7335   457.2500 </r>
       <r>     6.6396    27.2943   460.3334 </r>
       <r>     6.7526    78.4775   469.1989 </r>
       <r>     6.8655    57.0457   475.6433 </r>
       <r>     6.9785    12.4522   477.0500 </r>
       <r>     7.0915     3.9831   477.5000 </r>
       <r>     7.2045     2.8760   477.8249 </r>
       <r>     7.3174     3.7840   478.2524 </r>
       <r>     7.4304    79.0314   487.1805 </r>
       <r>     7.5434   162.4652   505.5340 </r>
       <r>     7.6563    10.7636   506.7501 </r>
       <r>     7.7693    26.5535   509.7498 </r>
       <r>     7.8823     0.0107   509.7512 </r>
       <r>     7.9952    53.1002   515.7499 </r>
       <r>     8.1082     0.0002   515.7500 </r>
       <r>     8.2212    13.3270   517.2556 </r>
       <r>     8.3341    92.7533   527.7340 </r>
       <r>     8.4471     0.1411   527.7500 </r>
       <r>     8.5601   129.4530   542.3742 </r>
       <r>     8.6730    29.8828   545.7500 </r>
       <r>     8.7860     0.0000   545.7500 </r>
       <r>     8.8990    64.3153   553.0156 </r>
       <r>     9.0120   131.2174   567.8391 </r>
       <r>     9.1249    14.7010   569.5000 </r>
       <r>     9.2379    11.0702   570.7506 </r>
       <r>     9.3509    33.1898   574.5000 </r>
       <r>     9.4638     0.2718   574.5307 </r>
       <r>     9.5768    13.0062   576.0000 </r>
       <r>     9.6898     0.0000   576.0000 </r>
       <r>     9.8027     0.0000   576.0000 </r>
       <r>     9.9157     0.0000   576.0000 </r>
       <r>    10.0287     0.0000   576.0000 </r>
       <r>    10.1416     0.0000   576.0000 </r>
       <r>    10.2546     0.0000   576.0000 </r>
       <r>    10.3676     0.0000   576.0000 </r>
       <r>    10.4806     0.0000   576.0000 </r>
       <r>    10.5935     0.0000   576.0000 </r>
       <r>    10.7065     0.0000   576.0000 </r>
       <r>    10.8195     0.0000   576.0000 </r>
       <r>    10.9324     0.0000   576.0000 </r>
       <r>    11.0454     0.0000   576.0000 </r>
      </set>
     </set>
    </array>
   </total>
  </dos>
 </calculation>
 <structure name="finalpos" >
  <crystal>
   <varray name="basis" >
    <v>      11.20400236       0.00000000       0.00000000 </v>
    <v>       0.00000000      11.20400236       0.00000000 </v>
    <v>       0.00000000       0.00000000      11.20400236 </v>
   </varray>
   <i name="volume">   1406.43470641 </i>
   <varray name="rec_basis" >
    <v>       0.08925382       0.00000000       0.00000000 </v>
    <v>       0.00000000       0.08925382       0.00000000 </v>
    <v>       0.00000000       0.00000000       0.08925382 </v>
   </varray>
  </crystal>
  <varray name="positions" >
   <v>       0.99732239       0.00000000       0.00000000 </v>
   <v>       0.25267761       0.25000000       0.00000000 </v>
   <v>       0.25000000       0.00000000       0.25000000 </v>
   <v>       0.00000000       0.25000000       0.25000000 </v>
   <v>       0.00000000       0.00000000       0.50000000 </v>
   <v>       0.25000000       0.25000000       0.50000000 </v>
   <v>       0.25000000       0.00000000       0.75000000 </v>
   <v>       0.00000000       0.25000000       0.75000000 </v>
   <v>       0.00000000       0.50000000       0.00000000 </v>
   <v>       0.25000000       0.75000000       0.00000000 </v>
   <v>       0.25000000       0.50000000       0.25000000 </v>
   <v>       0.00000000       0.75000000       0.25000000 </v>
   <v>       0.00000000       0.50000000       0.50000000 </v>
   <v>       0.25000000       0.75000000       0.50000000 </v>
   <v>       0.25000000       0.50000000       0.75000000 </v>
   <v>       0.00000000       0.75000000       0.75000000 </v>
   <v>       0.50000000       0.00000000       0.00000000 </v>
   <v>       0.75000000       0.25000000       0.00000000 </v>
   <v>       0.75000000       0.00000000       0.25000000 </v>
   <v>       0.50000000       0.25000000       0.25000000 </v>
   <v>       0.50000000       0.00000000       0.50000000 </v>
   <v>       0.75000000       0.25000000       0.50000000 </v>
   <v>       0.75000000       0.00000000       0.75000000 </v>
   <v>       0.50000000       0.25000000       0.75000000 </v>
   <v>       0.50000000       0.50000000       0.00000000 </v>
   <v>       0.75000000       0.75000000       0.00000000 </v>
   <v>       0.75000000       0.50000000       0.25000000 </v>
   <v>       0.50000000       0.75000000       0.25000000 </v>
   <v>       0.50000000       0.50000000       0.50000000 </v>
   <v>       0.75000000       0.75000000       0.50000000 </v>
   <v>       0.75000000       0.50000000       0.75000000 </v>
   <v>       0.50000000       0.75000000       0.75000000 </v>
   <v>       0.25000000       0.25000000       0.25000000 </v>
   <v>       0.00000000       0.00000000       0.25000000 </v>
   <v>       0.00000000       0.25000000       0.00000000 </v>
   <v>       0.25000000       0.00000000       0.00000000 </v>
   <v>       0.25000000       0.25000000       0.75000000 </v>
   <v>       0.00000000       0.00000000       0.75000000 </v>
   <v>       0.00000000       0.25000000       0.50000000 </v>
   <v>       0.25000000       0.00000000       0.50000000 </v>
   <v>       0.25000000       0.75000000       0.25000000 </v>
   <v>       0.00000000       0.50000000       0.25000000 </v>
   <v>       0.00000000       0.75000000       0.00000000 </v>
   <v>       0.25000000       0.50000000       0.00000000 </v>
   <v>       0.25000000       0.75000000       0.75000000 </v>
   <v>       0.00000000       0.50000000       0.75000000 </v>
   <v>       0.00000000       0.75000000       0.50000000 </v>
   <v>       0.25000000       0.50000000       0.50000000 </v>
   <v>       0.75000000       0.25000000       0.25000000 </v>
   <v>       0.50000000       0.00000000       0.25000000 </v>
   <v>       0.50000000       0.25000000       0.00000000 </v>
   <v>       0.75000000       0.00000000       0.00000000 </v>
   <v>       0.75000000       0.25000000       0.75000000 </v>
   <v>       0.50000000       0.00000000       0.75000000 </v>
   <v>       0.50000000       0.25000000       0.50000000 </v>
   <v>       0.75000000       0.00000000       0.50000000 </v>
   <v>       0.75000000       0.75000000       0.25000000 </v>
   <v>       0.50000000       0.50000000       0.25000000 </v>
   <v>       0.50000000       0.75000000       0.00000000 </v>
   <v>       0.75000000       0.50000000       0.00000000 </v>
   <v>       0.75000000       0.75000000       0.75000000 </v>
   <v>       0.50000000       0.50000000       0.75000000 </v>
   <v>       0.50000000       0.75000000       0.50000000 </v>
   <v>       0.75000000       0.50000000       0.50000000 </v>
  </varray>
 </structure>
</modeling>
