 running on   32 total cores
 distrk:  each k-point on   32 cores,    1 groups
 distr:  one band on    4 cores,    8 groups
 vasp.6.3.2 27Jun22 (build Oct 14 2022 12:13:54) complex                        
  
 POSCAR found type information on POSCAR Si
 POSCAR found :  1 types and      64 ions
 scaLAPACK will be used
 -----------------------------------------------------------------------------
|                                                                             |
|               ----> ADVICE to this user running VASP <----                  |
|                                                                             |
|     You have a (more or less) 'large supercell' and for larger cells it     |
|     might be more efficient to use real-space projection operators.         |
|     Therefore, try LREAL= Auto in the INCAR file.                           |
|     Mind: For very accurate calculation, you might also keep the            |
|     reciprocal projection scheme (i.e. LREAL=.FALSE.).                      |
|                                                                             |
 -----------------------------------------------------------------------------

 -----------------------------------------------------------------------------
|                                                                             |
|               ----> ADVICE to this user running VASP <----                  |
|                                                                             |
|     You enforced a specific xc type in the INCAR file but a different       |
|     type was found in the POTCAR file.                                      |
|     I HOPE YOU KNOW WHAT YOU ARE DOING!                                     |
|                                                                             |
 -----------------------------------------------------------------------------

 LDA part: xc-table for Pade appr. of Perdew
 POSCAR, INCAR and KPOINTS ok, starting setup
 FFT: planning ... GRIDC
 FFT: planning ... GRID_SOFT
 FFT: planning ... GRID
 WAVECAR not read
 entering main loop
       N       E                     dE             d eps       ncg     rms          rms(c)
DAV:   1     0.451014095679E+03    0.45101E+03   -0.72608E+04  2688   0.852E+02
DAV:   2    -0.322075363430E+03   -0.77309E+03   -0.73081E+03  3232   0.155E+02
DAV:   3    -0.373414593798E+03   -0.51339E+02   -0.50478E+02  3304   0.365E+01
DAV:   4    -0.374602150015E+03   -0.11876E+01   -0.11798E+01  3248   0.671E+00
DAV:   5    -0.374640854972E+03   -0.38705E-01   -0.38660E-01  3216   0.108E+00    0.285E+01
DAV:   6    -0.369721407308E+03    0.49194E+01   -0.25928E+00  3040   0.242E+00    0.172E+01
DAV:   7    -0.367490373374E+03    0.22310E+01   -0.52398E+00  3056   0.349E+00    0.996E-01
DAV:   8    -0.367497465345E+03   -0.70920E-02   -0.28296E-01  3048   0.970E-01    0.352E-01
DAV:   9    -0.367498968408E+03   -0.15031E-02   -0.72122E-03  3328   0.163E-01    0.310E-01
DAV:  10    -0.367499820082E+03   -0.85167E-03   -0.20774E-03  3000   0.830E-02    0.228E-01
DAV:  11    -0.367499858763E+03   -0.38680E-04   -0.87638E-05  3112   0.188E-02    0.876E-03
DAV:  12    -0.367499861044E+03   -0.22809E-05   -0.32796E-06  3240   0.355E-03    0.810E-03
DAV:  13    -0.367499860048E+03    0.99539E-06   -0.84870E-07  3024   0.194E-03    0.194E-03
DAV:  14    -0.367499859894E+03    0.15414E-06   -0.27369E-08  2512   0.376E-04    0.490E-04
DAV:  15    -0.367499859881E+03    0.12872E-07   -0.10716E-08  1840   0.196E-04    0.121E-04
DAV:  16    -0.367499859874E+03    0.74842E-08   -0.17854E-09  1720   0.990E-05
   1 F= -.36749986E+03 E0= -.36749986E+03  d E =-.770642E-18
