<?xml version="1.0" encoding="ISO-8859-1"?>
<modeling>
 <generator>
  <i name="program" type="string">vasp </i>
  <i name="version" type="string">6.3.2  </i>
  <i name="subversion" type="string">27Jun22 (build Oct 14 2022 12:13:54) complex                          parallel </i>
  <i name="platform" type="string">LinuxIFC </i>
  <i name="date" type="string">2023 04 03 </i>
  <i name="time" type="string">14:41:23 </i>
 </generator>
 <incar>
  <i type="string" name="PREC">Accurate</i>
  <i type="int" name="IALGO">    38</i>
  <i type="logical" name="ADDGRID"> T  </i>
  <i type="int" name="NELMIN">     5</i>
  <i type="int" name="IBRION">    -1</i>
  <i name="EDIFF">      0.00000001</i>
  <i name="ENCUT">    318.00000000</i>
  <i type="logical" name="LREAL"> F  </i>
  <i type="int" name="ISMEAR">     0</i>
  <i name="SIGMA">      0.02000000</i>
  <i type="logical" name="LWAVE"> F  </i>
  <i type="logical" name="LCHARG"> F  </i>
  <i type="string" name="GGA">Ps</i>
 </incar>
 <primitive_cell>
  <structure name="primitive_cell" >
   <crystal>
    <varray name="basis" >
     <v>      10.86914512      -0.00000000      -0.00000000 </v>
     <v>      -0.00000000      10.86914512       0.00000000 </v>
     <v>       0.00000000       0.00000000      10.86914512 </v>
    </varray>
    <i name="volume">   1284.06249692 </i>
    <varray name="rec_basis" >
     <v>       0.09200356       0.00000000      -0.00000000 </v>
     <v>       0.00000000       0.09200356      -0.00000000 </v>
     <v>       0.00000000      -0.00000000       0.09200356 </v>
    </varray>
   </crystal>
   <varray name="positions" >
    <v>       0.24907996       0.25000000       0.25000000 </v>
    <v>       0.75000000       0.25000000       0.25000000 </v>
    <v>       0.25000000       0.75000000       0.25000000 </v>
    <v>       0.75000000       0.75000000       0.25000000 </v>
    <v>       0.25000000       0.25000000       0.75000000 </v>
    <v>       0.75000000       0.25000000       0.75000000 </v>
    <v>       0.25000000       0.75000000       0.75000000 </v>
    <v>       0.75000000       0.75000000       0.75000000 </v>
    <v>       0.25000000       0.00092004       1.00000000 </v>
    <v>       0.75000000       1.00000000       1.00000000 </v>
    <v>       0.25000000       0.50000000       0.00000000 </v>
    <v>       0.75000000       0.50000000       1.00000000 </v>
    <v>       0.25000000       0.00000000       0.50000000 </v>
    <v>       0.75000000       1.00000000       0.50000000 </v>
    <v>       0.25000000       0.50000000       0.50000000 </v>
    <v>       0.75000000       0.50000000       0.50000000 </v>
    <v>       1.00000000       0.25000000       0.00000000 </v>
    <v>       0.50000000       0.25000000       1.00000000 </v>
    <v>       1.00000000       0.75000000       0.00000000 </v>
    <v>       0.50000000       0.75000000       0.00000000 </v>
    <v>       0.00000000       0.25000000       0.50000000 </v>
    <v>       0.50000000       0.25000000       0.50000000 </v>
    <v>       1.00000000       0.75000000       0.50000000 </v>
    <v>       0.50000000       0.75000000       0.50000000 </v>
    <v>       0.00000000       0.00000000       0.25000000 </v>
    <v>       0.50000000       1.00000000       0.25000000 </v>
    <v>       1.00000000       0.50000000       0.25000000 </v>
    <v>       0.50000000       0.50000000       0.25000000 </v>
    <v>       0.00000000       0.00000000       0.75000000 </v>
    <v>       0.50000000       0.00000000       0.75000000 </v>
    <v>       0.00000000       0.50000000       0.75000000 </v>
    <v>       0.50000000       0.50000000       0.75000000 </v>
    <v>       0.37500000       0.37500000       0.37500000 </v>
    <v>       0.87500000       0.37500000       0.37500000 </v>
    <v>       0.37500000       0.87500000       0.37500000 </v>
    <v>       0.87500000       0.87500000       0.37500000 </v>
    <v>       0.37500000       0.37500000       0.87500000 </v>
    <v>       0.87500000       0.37500000       0.87500000 </v>
    <v>       0.37500000       0.87500000       0.87500000 </v>
    <v>       0.87500000       0.87500000       0.87500000 </v>
    <v>       0.37500000       0.12500000       0.12500000 </v>
    <v>       0.87500000       0.12500000       0.12500000 </v>
    <v>       0.37500000       0.62500000       0.12500000 </v>
    <v>       0.87500000       0.62500000       0.12500000 </v>
    <v>       0.37500000       0.12500000       0.62500000 </v>
    <v>       0.87500000       0.12500000       0.62500000 </v>
    <v>       0.37500000       0.62500000       0.62500000 </v>
    <v>       0.87500000       0.62500000       0.62500000 </v>
    <v>       0.12500000       0.37500000       0.12500000 </v>
    <v>       0.62500000       0.37500000       0.12500000 </v>
    <v>       0.12500000       0.87500000       0.12500000 </v>
    <v>       0.62500000       0.87500000       0.12500000 </v>
    <v>       0.12500000       0.37500000       0.62500000 </v>
    <v>       0.62500000       0.37500000       0.62500000 </v>
    <v>       0.12500000       0.87500000       0.62500000 </v>
    <v>       0.62500000       0.87500000       0.62500000 </v>
    <v>       0.12500000       0.12500000       0.37500000 </v>
    <v>       0.62500000       0.12500000       0.37500000 </v>
    <v>       0.12500000       0.62500000       0.37500000 </v>
    <v>       0.62500000       0.62500000       0.37500000 </v>
    <v>       0.12500000       0.12500000       0.87500000 </v>
    <v>       0.62500000       0.12500000       0.87500000 </v>
    <v>       0.12500000       0.62500000       0.87500000 </v>
    <v>       0.62500000       0.62500000       0.87500000 </v>
   </varray>
  </structure>
  <varray name="primitive_index" >
   <v type="int" >        1 </v>
   <v type="int" >        2 </v>
   <v type="int" >        3 </v>
   <v type="int" >        4 </v>
   <v type="int" >        5 </v>
   <v type="int" >        6 </v>
   <v type="int" >        7 </v>
   <v type="int" >        8 </v>
   <v type="int" >        9 </v>
   <v type="int" >       10 </v>
   <v type="int" >       11 </v>
   <v type="int" >       12 </v>
   <v type="int" >       13 </v>
   <v type="int" >       14 </v>
   <v type="int" >       15 </v>
   <v type="int" >       16 </v>
   <v type="int" >       17 </v>
   <v type="int" >       18 </v>
   <v type="int" >       19 </v>
   <v type="int" >       20 </v>
   <v type="int" >       21 </v>
   <v type="int" >       22 </v>
   <v type="int" >       23 </v>
   <v type="int" >       24 </v>
   <v type="int" >       25 </v>
   <v type="int" >       26 </v>
   <v type="int" >       27 </v>
   <v type="int" >       28 </v>
   <v type="int" >       29 </v>
   <v type="int" >       30 </v>
   <v type="int" >       31 </v>
   <v type="int" >       32 </v>
   <v type="int" >       33 </v>
   <v type="int" >       34 </v>
   <v type="int" >       35 </v>
   <v type="int" >       36 </v>
   <v type="int" >       37 </v>
   <v type="int" >       38 </v>
   <v type="int" >       39 </v>
   <v type="int" >       40 </v>
   <v type="int" >       41 </v>
   <v type="int" >       42 </v>
   <v type="int" >       43 </v>
   <v type="int" >       44 </v>
   <v type="int" >       45 </v>
   <v type="int" >       46 </v>
   <v type="int" >       47 </v>
   <v type="int" >       48 </v>
   <v type="int" >       49 </v>
   <v type="int" >       50 </v>
   <v type="int" >       51 </v>
   <v type="int" >       52 </v>
   <v type="int" >       53 </v>
   <v type="int" >       54 </v>
   <v type="int" >       55 </v>
   <v type="int" >       56 </v>
   <v type="int" >       57 </v>
   <v type="int" >       58 </v>
   <v type="int" >       59 </v>
   <v type="int" >       60 </v>
   <v type="int" >       61 </v>
   <v type="int" >       62 </v>
   <v type="int" >       63 </v>
   <v type="int" >       64 </v>
  </varray>
 </primitive_cell>
 <kpoints>
  <generation param="Gamma">
   <v type="int" name="divisions">       2        2        2 </v>
   <v name="usershift">      0.00000000       0.00000000       0.00000000 </v>
   <v name="genvec1">      0.50000000      -0.00000000       0.00000000 </v>
   <v name="genvec2">     -0.00000000       0.50000000       0.00000000 </v>
   <v name="genvec3">     -0.00000000       0.00000000       0.50000000 </v>
   <v name="shift">      0.00000000       0.00000000       0.00000000 </v>
  </generation>
  <varray name="kpointlist" >
   <v>       0.00000000       0.00000000       0.00000000 </v>
   <v>       0.50000000       0.00000000       0.00000000 </v>
   <v>      -0.00000000       0.50000000       0.00000000 </v>
   <v>       0.00000000      -0.00000000       0.50000000 </v>
   <v>       0.50000000       0.50000000       0.00000000 </v>
   <v>       0.00000000       0.50000000       0.50000000 </v>
   <v>       0.50000000      -0.00000000       0.50000000 </v>
   <v>       0.50000000       0.50000000       0.50000000 </v>
  </varray>
  <varray name="weights" >
   <v>       0.12500000 </v>
   <v>       0.12500000 </v>
   <v>       0.12500000 </v>
   <v>       0.12500000 </v>
   <v>       0.12500000 </v>
   <v>       0.12500000 </v>
   <v>       0.12500000 </v>
   <v>       0.12500000 </v>
  </varray>
 </kpoints>
 <parameters>
  <separator name="general" >
   <i type="string" name="SYSTEM">unknown system</i>
   <i type="logical" name="LCOMPAT"> F  </i>
  </separator>
  <separator name="electronic" >
   <i type="string" name="PREC">accura</i>
   <i name="ENMAX">    318.00000000</i>
   <i name="ENAUG">    322.06900000</i>
   <i name="EDIFF">      0.00000001</i>
   <i type="int" name="IALGO">    38</i>
   <i type="int" name="IWAVPR">    10</i>
   <i type="int" name="NBANDS">   168</i>
   <i type="int" name="NBANDSLOW">    -1</i>
   <i type="int" name="NBANDSHIGH">    -1</i>
   <i name="NELECT">    256.00000000</i>
   <i type="int" name="TURBO">     0</i>
   <i type="int" name="IRESTART">     0</i>
   <i type="int" name="NREBOOT">     0</i>
   <i type="int" name="NMIN">     0</i>
   <i name="EREF">      0.00000000</i>
   <separator name="electronic smearing" >
    <i type="int" name="ISMEAR">     0</i>
    <i name="SIGMA">      0.02000000</i>
    <i name="KSPACING">      0.50000000</i>
    <i type="logical" name="KGAMMA"> T  </i>
    <i type="logical" name="KBLOWUP"> T  </i>
   </separator>
   <separator name="electronic projectors" >
    <i type="logical" name="LREAL"> F  </i>
    <v name="ROPT">      0.00000000</v>
    <i type="int" name="LMAXPAW">  -100</i>
    <i type="int" name="LMAXMIX">     2</i>
    <i type="logical" name="NLSPLINE"> F  </i>
   </separator>
   <separator name="electronic startup" >
    <i type="int" name="ISTART">     0</i>
    <i type="int" name="ICHARG">     2</i>
    <i type="int" name="INIWAV">     1</i>
   </separator>
   <separator name="electronic spin" >
    <i type="int" name="ISPIN">     1</i>
    <i type="logical" name="LNONCOLLINEAR"> F  </i>
    <v name="MAGMOM">      1.00000000      1.00000000      1.00000000      1.00000000      1.00000000      1.00000000      1.00000000      1.00000000      1.00000000      1.00000000      1.00000000      1.00000000      1.00000000      1.00000000      1.00000000      1.00000000      1.00000000      1.00000000      1.00000000      1.00000000
      1.00000000      1.00000000      1.00000000      1.00000000      1.00000000      1.00000000      1.00000000      1.00000000      1.00000000      1.00000000      1.00000000      1.00000000      1.00000000      1.00000000      1.00000000      1.00000000      1.00000000      1.00000000      1.00000000      1.00000000
      1.00000000      1.00000000      1.00000000      1.00000000      1.00000000      1.00000000      1.00000000      1.00000000      1.00000000      1.00000000      1.00000000      1.00000000      1.00000000      1.00000000      1.00000000      1.00000000      1.00000000      1.00000000      1.00000000      1.00000000
      1.00000000      1.00000000      1.00000000      1.00000000</v>
    <i name="NUPDOWN">     -1.00000000</i>
    <i type="logical" name="LSORBIT"> F  </i>
    <v name="SAXIS">      0.00000000      0.00000000      1.00000000</v>
    <i type="logical" name="LSPIRAL"> F  </i>
    <v name="QSPIRAL">      0.00000000      0.00000000      0.00000000</v>
    <i type="logical" name="LZEROZ"> F  </i>
   </separator>
   <separator name="electronic exchange-correlation" >
    <i type="logical" name="LASPH"> F  </i>
    <i type="logical" name="LMETAGGA"> F  </i>
   </separator>
   <separator name="electronic convergence" >
    <i type="int" name="NELM">    60</i>
    <i type="int" name="NELMDL">    -5</i>
    <i type="int" name="NELMIN">     5</i>
    <i name="ENINI">    318.00000000</i>
    <separator name="electronic convergence detail" >
     <i type="logical" name="LDIAG"> T  </i>
     <i type="logical" name="LSUBROT"> F  </i>
     <i name="WEIMIN">      0.00000000</i>
     <i name="EBREAK">      0.00000000</i>
     <i name="DEPER">      0.30000000</i>
     <i type="int" name="NRMM">     4</i>
     <i name="TIME">      0.40000000</i>
    </separator>
   </separator>
   <separator name="electronic mixer" >
    <i name="AMIX">      0.40000000</i>
    <i name="BMIX">      1.00000000</i>
    <i name="AMIN">      0.10000000</i>
    <i name="AMIX_MAG">      1.60000000</i>
    <i name="BMIX_MAG">      1.00000000</i>
    <separator name="electronic mixer details" >
     <i type="int" name="IMIX">     4</i>
     <i type="logical" name="MIXFIRST"> F  </i>
     <i type="int" name="MAXMIX">   -45</i>
     <i name="WC">    100.00000000</i>
     <i type="int" name="INIMIX">     1</i>
     <i type="int" name="MIXPRE">     1</i>
     <i type="int" name="MREMOVE">     5</i>
    </separator>
   </separator>
   <separator name="electronic dipolcorrection" >
    <i type="logical" name="LDIPOL"> F  </i>
    <i type="logical" name="LMONO"> F  </i>
    <i type="int" name="IDIPOL">     0</i>
    <i name="EPSILON">      1.00000000</i>
    <v name="DIPOL">   -100.00000000   -100.00000000   -100.00000000</v>
    <i name="EFIELD">      0.00000000</i>
   </separator>
  </separator>
  <separator name="grids" >
   <i type="int" name="NGX">    64</i>
   <i type="int" name="NGY">    64</i>
   <i type="int" name="NGZ">    64</i>
   <i type="int" name="NGXF">   128</i>
   <i type="int" name="NGYF">   128</i>
   <i type="int" name="NGZF">   128</i>
   <i type="logical" name="ADDGRID"> T  </i>
  </separator>
  <separator name="ionic" >
   <i type="int" name="NSW">     0</i>
   <i type="int" name="IBRION">    -1</i>
   <i type="int" name="MDALGO">     0</i>
   <i type="int" name="ISIF">     2</i>
   <i name="PSTRESS">      0.00000000</i>
   <i name="EDIFFG">      0.00000010</i>
   <i type="int" name="NFREE">     0</i>
   <i name="POTIM">      0.50000000</i>
   <i name="SMASS">     -3.00000000</i>
   <i name="SCALEE">      1.00000000</i>
  </separator>
  <separator name="ionic md" >
   <i name="TEBEG">      0.00010000</i>
   <i name="TEEND">      0.00010000</i>
   <i type="int" name="NBLOCK">     1</i>
   <i type="int" name="KBLOCK">     1</i>
   <i type="int" name="NPACO">   256</i>
   <i name="APACO">     10.00000000</i>
  </separator>
  <separator name="symmetry" >
   <i type="int" name="ISYM">     2</i>
   <i name="SYMPREC">      0.00001000</i>
  </separator>
  <separator name="dos" >
   <i type="int" name="LORBIT">     0</i>
   <v name="RWIGS">     -1.00000000</v>
   <i type="int" name="NEDOS">   301</i>
   <i name="EMIN">     10.00000000</i>
   <i name="EMAX">    -10.00000000</i>
   <i name="EFERMI">      0.00000000</i>
  </separator>
  <separator name="writing" >
   <i type="int" name="NWRITE">     2</i>
   <i type="logical" name="LWAVE"> F  </i>
   <i type="logical" name="LDOWNSAMPLE"> F  </i>
   <i type="logical" name="LCHARG"> F  </i>
   <i type="logical" name="LPARD"> F  </i>
   <i type="logical" name="LVTOT"> F  </i>
   <i type="logical" name="LVHAR"> F  </i>
   <i type="logical" name="LELF"> F  </i>
   <i type="logical" name="LOPTICS"> F  </i>
   <v name="STM">      0.00000000      0.00000000      0.00000000      0.00000000      0.00000000      0.00000000      0.00000000</v>
  </separator>
  <separator name="performance" >
   <i type="int" name="NPAR">     8</i>
   <i type="int" name="NSIM">     4</i>
   <i type="int" name="NBLK">    -1</i>
   <i type="logical" name="LPLANE"> T  </i>
   <i type="logical" name="LSCALAPACK"> T  </i>
   <i type="logical" name="LSCAAWARE"> F  </i>
   <i type="logical" name="LSCALU"> F  </i>
   <i type="logical" name="LASYNC"> F  </i>
   <i type="logical" name="LORBITALREAL"> F  </i>
  </separator>
  <separator name="miscellaneous" >
   <i type="int" name="IDIOT">     3</i>
   <i type="int" name="PHON_NSTRUCT">    -1</i>
   <i type="logical" name="LMUSIC"> F  </i>
   <v name="POMASS">     28.08500000</v>
   <v name="DARWINR">      0.00000000</v>
   <v name="DARWINV">      1.00000000</v>
   <i type="logical" name="LCORR"> T  </i>
  </separator>
  <i type="logical" name="GGA_COMPAT"> T  </i>
  <i type="logical" name="LBERRY"> F  </i>
  <i type="int" name="ICORELEVEL">     0</i>
  <i type="logical" name="LDAU"> F  </i>
  <i type="int" name="I_CONSTRAINED_M">     0</i>
  <separator name="electronic exchange-correlation" >
   <i type="string" name="GGA">PS</i>
   <i type="int" name="VOSKOWN">     0</i>
   <i type="logical" name="LHFCALC"> F  </i>
   <i type="string" name="PRECFOCK"></i>
   <i type="logical" name="LSYMGRAD"> F  </i>
   <i type="logical" name="LHFONE"> F  </i>
   <i type="logical" name="LRHFCALC"> F  </i>
   <i type="logical" name="LTHOMAS"> F  </i>
   <i type="logical" name="LMODELHF"> F  </i>
   <i type="logical" name="LFOCKACE"> F  </i>
   <i name="ENCUT4O">     -1.00000000</i>
   <i type="int" name="EXXOEP">     0</i>
   <i type="int" name="FOURORBIT">     0</i>
   <i name="AEXX">      0.00000000</i>
   <i name="HFALPHA">      0.00000000</i>
   <i name="MCALPHA">      0.00000000</i>
   <i name="ALDAX">      1.00000000</i>
   <i name="AGGAX">      1.00000000</i>
   <i name="ALDAC">      1.00000000</i>
   <i name="AGGAC">      1.00000000</i>
   <i type="int" name="NKREDX">     1</i>
   <i type="int" name="NKREDY">     1</i>
   <i type="int" name="NKREDZ">     1</i>
   <i type="logical" name="SHIFTRED"> F  </i>
   <i type="logical" name="ODDONLY"> F  </i>
   <i type="logical" name="EVENONLY"> F  </i>
   <i type="int" name="LMAXFOCK">     0</i>
   <i type="int" name="NMAXFOCKAE">     0</i>
   <i type="logical" name="LFOCKAEDFT"> F  </i>
   <i name="HFSCREEN">      0.00000000</i>
   <i name="HFSCREENC">      0.00000000</i>
   <i type="int" name="NBANDSGWLOW">     0</i>
  </separator>
  <separator name="vdW DFT" >
   <i type="logical" name="LUSE_VDW"> F  </i>
   <i name="Zab_VDW">     -0.84910000</i>
   <i name="PARAM1">      0.12340000</i>
   <i name="PARAM2">      1.00000000</i>
   <i name="PARAM3">      0.00000000</i>
  </separator>
  <separator name="model GW" >
   <i type="int" name="MODEL_GW">     0</i>
   <i name="MODEL_EPS0">     12.03808591</i>
   <i name="MODEL_ALPHA">      1.00000000</i>
  </separator>
  <separator name="linear response parameters" >
   <i type="logical" name="LEPSILON"> F  </i>
   <i type="logical" name="LRPA"> F  </i>
   <i type="logical" name="LNABLA"> F  </i>
   <i type="logical" name="LVEL"> F  </i>
   <i name="CSHIFT">      0.10000000</i>
   <i name="OMEGAMAX">     -1.00000000</i>
   <i name="DEG_THRESHOLD">      0.00200000</i>
   <i name="RTIME">     -0.10000000</i>
   <i name="WPLASMAI">      0.00000000</i>
   <v name="DFIELD">      0.00000000      0.00000000      0.00000000</v>
   <v name="WPLASMA">      0.00000000      0.00000000      0.00000000      0.00000000      0.00000000      0.00000000      0.00000000      0.00000000      0.00000000</v>
  </separator>
  <separator name="orbital magnetization" >
   <i type="logical" name="NUCIND"> F  </i>
   <v name="MAGPOS">      0.00000000      0.00000000      0.00000000</v>
   <i type="logical" name="LNICSALL"> T  </i>
   <i type="logical" name="ORBITALMAG"> F  </i>
   <i type="logical" name="LMAGBLOCH"> F  </i>
   <i type="logical" name="LCHIMAG"> F  </i>
   <i type="logical" name="LGAUGE"> T  </i>
   <i type="int" name="MAGATOM">     0</i>
   <v name="MAGDIPOL">      0.00000000      0.00000000      0.00000000</v>
   <v name="AVECCONST">      0.00000000      0.00000000      0.00000000</v>
  </separator>
  <separator name="response functions" >
   <i type="logical" name="LFINITE_TEMPERATURE"> F  </i>
   <i type="logical" name="LADDER"> F  </i>
   <i type="logical" name="LRPAFORCE"> F  </i>
   <i type="logical" name="LFXC"> F  </i>
   <i type="logical" name="LHARTREE"> T  </i>
   <i type="int" name="IBSE">     0</i>
   <v type="int" name="KPOINT">    -1     0     0     0</v>
   <i type="logical" name="LTCTC"> F  </i>
   <i type="logical" name="LTCTE"> F  </i>
   <i type="logical" name="LTETE"> F  </i>
   <i type="logical" name="LTRIPLET"> F  </i>
   <i type="logical" name="LFXCEPS"> F  </i>
   <i type="logical" name="LFXHEG"> F  </i>
   <i type="int" name="NATURALO">     2</i>
   <i type="logical" name="LHOLEGF"> F  </i>
   <i type="logical" name="L2ORDER"> F  </i>
   <i type="logical" name="LDMP1"> F  </i>
   <i type="logical" name="LMP2LT"> F  </i>
   <i type="logical" name="LSMP2LT"> F  </i>
   <i type="logical" name="LGWLF"> F  </i>
   <i name="ENCUTGW">     -2.00000000</i>
   <i name="ENCUTGWSOFT">     -2.00000000</i>
   <i name="ENCUTLF">     -1.00000000</i>
   <i type="logical" name="LESF_SPLINES"> F  </i>
   <i type="int" name="LMAXMP2">    -1</i>
   <i name="SCISSOR">      0.00000000</i>
   <i type="int" name="NOMEGA">     0</i>
   <i type="int" name="NOMEGAR">     0</i>
   <i type="int" name="NBANDSGW">    -1</i>
   <i type="int" name="NBANDSO">    -1</i>
   <i type="int" name="NBANDSV">    -1</i>
   <i type="int" name="NELMGW">     1</i>
   <i type="int" name="NELMHF">     1</i>
   <i type="int" name="DIM">     3</i>
   <i type="int" name="IESPILON">     4</i>
   <i type="int" name="ANTIRES">     0</i>
   <i name="OMEGAMAX">    -30.00000000</i>
   <i name="OMEGAMIN">    -30.00000000</i>
   <i name="OMEGATL">   -200.00000000</i>
   <i type="int" name="OMEGAGRID">     0</i>
   <i name="CSHIFT">     -0.10000000</i>
   <i type="logical" name="LSELFENERGY"> F  </i>
   <i type="logical" name="LSPECTRAL"> F  </i>
   <i type="logical" name="LSPECTRALGW"> F  </i>
   <i type="logical" name="LSINGLES"> F  </i>
   <i type="logical" name="LFERMIGW"> F  </i>
   <i type="logical" name="ODDONLYGW"> F  </i>
   <i type="logical" name="EVENONLYGW"> F  </i>
   <i type="int" name="NKREDLFX">     1</i>
   <i type="int" name="NKREDLFY">     1</i>
   <i type="int" name="NKREDLFZ">     1</i>
   <i type="int" name="MAXMEM">  2800</i>
   <i type="int" name="TELESCOPE">     0</i>
   <i type="int" name="NTAUPAR">    -1</i>
   <i type="int" name="NOMEGAPAR">    -1</i>
   <i name="DAMP_NEWTON">      0.80000001</i>
   <i name="LAMBDA">      1.00000000</i>
  </separator>
  <separator name="External order field" >
   <i name="OFIELD_KAPPA">      0.00000000</i>
   <v name="OFIELD_K">      0.00000000      0.00000000      0.00000000</v>
   <i name="OFIELD_Q6_NEAR">      0.00000000</i>
   <i name="OFIELD_Q6_FAR">      0.00000000</i>
   <i name="OFIELD_A">      0.00000000</i>
  </separator>
  <separator name="optional k-points parameters" >
   <i type="int" name="KPOINTS_OPT_MODE">     1</i>
   <i type="logical" name="LKPOINTS_OPT"> F  </i>
  </separator>
 </parameters>
 <atominfo>
  <atoms>      64 </atoms>
  <types>       1 </types>
  <array name="atoms" >
   <dimension dim="1">ion</dimension>
   <field type="string">element</field>
   <field type="int">atomtype</field>
   <set>
    <rc><c>Si</c><c>   1</c></rc>
    <rc><c>Si</c><c>   1</c></rc>
    <rc><c>Si</c><c>   1</c></rc>
    <rc><c>Si</c><c>   1</c></rc>
    <rc><c>Si</c><c>   1</c></rc>
    <rc><c>Si</c><c>   1</c></rc>
    <rc><c>Si</c><c>   1</c></rc>
    <rc><c>Si</c><c>   1</c></rc>
    <rc><c>Si</c><c>   1</c></rc>
    <rc><c>Si</c><c>   1</c></rc>
    <rc><c>Si</c><c>   1</c></rc>
    <rc><c>Si</c><c>   1</c></rc>
    <rc><c>Si</c><c>   1</c></rc>
    <rc><c>Si</c><c>   1</c></rc>
    <rc><c>Si</c><c>   1</c></rc>
    <rc><c>Si</c><c>   1</c></rc>
    <rc><c>Si</c><c>   1</c></rc>
    <rc><c>Si</c><c>   1</c></rc>
    <rc><c>Si</c><c>   1</c></rc>
    <rc><c>Si</c><c>   1</c></rc>
    <rc><c>Si</c><c>   1</c></rc>
    <rc><c>Si</c><c>   1</c></rc>
    <rc><c>Si</c><c>   1</c></rc>
    <rc><c>Si</c><c>   1</c></rc>
    <rc><c>Si</c><c>   1</c></rc>
    <rc><c>Si</c><c>   1</c></rc>
    <rc><c>Si</c><c>   1</c></rc>
    <rc><c>Si</c><c>   1</c></rc>
    <rc><c>Si</c><c>   1</c></rc>
    <rc><c>Si</c><c>   1</c></rc>
    <rc><c>Si</c><c>   1</c></rc>
    <rc><c>Si</c><c>   1</c></rc>
    <rc><c>Si</c><c>   1</c></rc>
    <rc><c>Si</c><c>   1</c></rc>
    <rc><c>Si</c><c>   1</c></rc>
    <rc><c>Si</c><c>   1</c></rc>
    <rc><c>Si</c><c>   1</c></rc>
    <rc><c>Si</c><c>   1</c></rc>
    <rc><c>Si</c><c>   1</c></rc>
    <rc><c>Si</c><c>   1</c></rc>
    <rc><c>Si</c><c>   1</c></rc>
    <rc><c>Si</c><c>   1</c></rc>
    <rc><c>Si</c><c>   1</c></rc>
    <rc><c>Si</c><c>   1</c></rc>
    <rc><c>Si</c><c>   1</c></rc>
    <rc><c>Si</c><c>   1</c></rc>
    <rc><c>Si</c><c>   1</c></rc>
    <rc><c>Si</c><c>   1</c></rc>
    <rc><c>Si</c><c>   1</c></rc>
    <rc><c>Si</c><c>   1</c></rc>
    <rc><c>Si</c><c>   1</c></rc>
    <rc><c>Si</c><c>   1</c></rc>
    <rc><c>Si</c><c>   1</c></rc>
    <rc><c>Si</c><c>   1</c></rc>
    <rc><c>Si</c><c>   1</c></rc>
    <rc><c>Si</c><c>   1</c></rc>
    <rc><c>Si</c><c>   1</c></rc>
    <rc><c>Si</c><c>   1</c></rc>
    <rc><c>Si</c><c>   1</c></rc>
    <rc><c>Si</c><c>   1</c></rc>
    <rc><c>Si</c><c>   1</c></rc>
    <rc><c>Si</c><c>   1</c></rc>
    <rc><c>Si</c><c>   1</c></rc>
    <rc><c>Si</c><c>   1</c></rc>
   </set>
  </array>
  <array name="atomtypes" >
   <dimension dim="1">type</dimension>
   <field type="int">atomspertype</field>
   <field type="string">element</field>
   <field>mass</field>
   <field>valence</field>
   <field type="string">pseudopotential</field>
   <set>
    <rc><c>  64</c><c>Si</c><c>     28.08500000</c><c>      4.00000000</c><c>  PAW_PBE Si 05Jan2001                  </c></rc>
   </set>
  </array>
 </atominfo>
 <structure name="initialpos" >
  <crystal>
   <varray name="basis" >
    <v>      10.86914512      -0.00000000      -0.00000000 </v>
    <v>      -0.00000000      10.86914512       0.00000000 </v>
    <v>       0.00000000       0.00000000      10.86914512 </v>
   </varray>
   <i name="volume">   1284.06249692 </i>
   <varray name="rec_basis" >
    <v>       0.09200356       0.00000000      -0.00000000 </v>
    <v>       0.00000000       0.09200356      -0.00000000 </v>
    <v>       0.00000000      -0.00000000       0.09200356 </v>
   </varray>
  </crystal>
  <varray name="positions" >
   <v>       0.24907996       0.25000000       0.25000000 </v>
   <v>       0.75000000       0.25000000       0.25000000 </v>
   <v>       0.25000000       0.75000000       0.25000000 </v>
   <v>       0.75000000       0.75000000       0.25000000 </v>
   <v>       0.25000000       0.25000000       0.75000000 </v>
   <v>       0.75000000       0.25000000       0.75000000 </v>
   <v>       0.25000000       0.75000000       0.75000000 </v>
   <v>       0.75000000       0.75000000       0.75000000 </v>
   <v>       0.25000000       0.00092004       0.00000000 </v>
   <v>       0.75000000       0.00000000       0.00000000 </v>
   <v>       0.25000000       0.50000000       0.00000000 </v>
   <v>       0.75000000       0.50000000       0.00000000 </v>
   <v>       0.25000000       0.00000000       0.50000000 </v>
   <v>       0.75000000       0.00000000       0.50000000 </v>
   <v>       0.25000000       0.50000000       0.50000000 </v>
   <v>       0.75000000       0.50000000       0.50000000 </v>
   <v>       0.00000000       0.25000000       0.00000000 </v>
   <v>       0.50000000       0.25000000       0.00000000 </v>
   <v>       0.00000000       0.75000000       0.00000000 </v>
   <v>       0.50000000       0.75000000       0.00000000 </v>
   <v>       0.00000000       0.25000000       0.50000000 </v>
   <v>       0.50000000       0.25000000       0.50000000 </v>
   <v>       0.00000000       0.75000000       0.50000000 </v>
   <v>       0.50000000       0.75000000       0.50000000 </v>
   <v>       0.00000000       0.00000000       0.25000000 </v>
   <v>       0.50000000       0.00000000       0.25000000 </v>
   <v>       0.00000000       0.50000000       0.25000000 </v>
   <v>       0.50000000       0.50000000       0.25000000 </v>
   <v>       0.00000000       0.00000000       0.75000000 </v>
   <v>       0.50000000       0.00000000       0.75000000 </v>
   <v>       0.00000000       0.50000000       0.75000000 </v>
   <v>       0.50000000       0.50000000       0.75000000 </v>
   <v>       0.37500000       0.37500000       0.37500000 </v>
   <v>       0.87500000       0.37500000       0.37500000 </v>
   <v>       0.37500000       0.87500000       0.37500000 </v>
   <v>       0.87500000       0.87500000       0.37500000 </v>
   <v>       0.37500000       0.37500000       0.87500000 </v>
   <v>       0.87500000       0.37500000       0.87500000 </v>
   <v>       0.37500000       0.87500000       0.87500000 </v>
   <v>       0.87500000       0.87500000       0.87500000 </v>
   <v>       0.37500000       0.12500000       0.12500000 </v>
   <v>       0.87500000       0.12500000       0.12500000 </v>
   <v>       0.37500000       0.62500000       0.12500000 </v>
   <v>       0.87500000       0.62500000       0.12500000 </v>
   <v>       0.37500000       0.12500000       0.62500000 </v>
   <v>       0.87500000       0.12500000       0.62500000 </v>
   <v>       0.37500000       0.62500000       0.62500000 </v>
   <v>       0.87500000       0.62500000       0.62500000 </v>
   <v>       0.12500000       0.37500000       0.12500000 </v>
   <v>       0.62500000       0.37500000       0.12500000 </v>
   <v>       0.12500000       0.87500000       0.12500000 </v>
   <v>       0.62500000       0.87500000       0.12500000 </v>
   <v>       0.12500000       0.37500000       0.62500000 </v>
   <v>       0.62500000       0.37500000       0.62500000 </v>
   <v>       0.12500000       0.87500000       0.62500000 </v>
   <v>       0.62500000       0.87500000       0.62500000 </v>
   <v>       0.12500000       0.12500000       0.37500000 </v>
   <v>       0.62500000       0.12500000       0.37500000 </v>
   <v>       0.12500000       0.62500000       0.37500000 </v>
   <v>       0.62500000       0.62500000       0.37500000 </v>
   <v>       0.12500000       0.12500000       0.87500000 </v>
   <v>       0.62500000       0.12500000       0.87500000 </v>
   <v>       0.12500000       0.62500000       0.87500000 </v>
   <v>       0.62500000       0.62500000       0.87500000 </v>
  </varray>
 </structure>
 <calculation>
  <scstep>
   <time name="dav">    2.29    2.31</time>
   <time name="total">    2.34    2.35</time>
   <energy>
    <i name="alphaZ">    107.38120932 </i>
    <i name="ewald">  -7307.87536902 </i>
    <i name="hartreedc">   -353.25092867 </i>
    <i name="XCdc">   -558.85370801 </i>
    <i name="pawpsdc">   5598.62625415 </i>
    <i name="pawaedc">  -4492.17844134 </i>
    <i name="eentropy">     -0.00313878 </i>
    <i name="bandstr">    892.40119384 </i>
    <i name="atom">   6564.76702419 </i>
    <i name="e_fr_energy">    451.01409568 </i>
    <i name="e_wo_entrp">    451.01723446 </i>
    <i name="e_0_energy">    451.01566507 </i>
   </energy>
  </scstep>
  <scstep>
   <time name="dav">    2.62    2.64</time>
   <time name="total">    2.62    2.64</time>
   <energy>
    <i name="e_fr_energy">   -322.07536343 </i>
    <i name="e_wo_entrp">   -322.07536343 </i>
    <i name="e_0_energy">   -322.07536343 </i>
   </energy>
  </scstep>
  <scstep>
   <time name="dav">    2.67    2.69</time>
   <time name="total">    2.67    2.69</time>
   <energy>
    <i name="e_fr_energy">   -373.41459380 </i>
    <i name="e_wo_entrp">   -373.41459380 </i>
    <i name="e_0_energy">   -373.41459380 </i>
   </energy>
  </scstep>
  <scstep>
   <time name="dav">    2.64    2.66</time>
   <time name="total">    2.64    2.66</time>
   <energy>
    <i name="e_fr_energy">   -374.60215002 </i>
    <i name="e_wo_entrp">   -374.60215002 </i>
    <i name="e_0_energy">   -374.60215002 </i>
   </energy>
  </scstep>
  <scstep>
   <time name="dav">    2.62    2.64</time>
   <time name="total">    2.70    2.72</time>
   <energy>
    <i name="e_fr_energy">   -374.64085497 </i>
    <i name="e_wo_entrp">   -374.64085497 </i>
    <i name="e_0_energy">   -374.64085497 </i>
   </energy>
  </scstep>
  <scstep>
   <time name="dav">    2.50    2.52</time>
   <time name="total">    2.63    2.64</time>
   <energy>
    <i name="e_fr_energy">   -369.72140731 </i>
    <i name="e_wo_entrp">   -369.72140731 </i>
    <i name="e_0_energy">   -369.72140731 </i>
   </energy>
  </scstep>
  <scstep>
   <time name="dav">    2.51    2.52</time>
   <time name="total">    2.63    2.65</time>
   <energy>
    <i name="e_fr_energy">   -367.49037337 </i>
    <i name="e_wo_entrp">   -367.49037337 </i>
    <i name="e_0_energy">   -367.49037337 </i>
   </energy>
  </scstep>
  <scstep>
   <time name="dav">    2.51    2.53</time>
   <time name="total">    2.64    2.65</time>
   <energy>
    <i name="e_fr_energy">   -367.49746535 </i>
    <i name="e_wo_entrp">   -367.49746535 </i>
    <i name="e_0_energy">   -367.49746535 </i>
   </energy>
  </scstep>
  <scstep>
   <time name="dav">    2.68    2.69</time>
   <time name="total">    2.80    2.82</time>
   <energy>
    <i name="e_fr_energy">   -367.49896841 </i>
    <i name="e_wo_entrp">   -367.49896841 </i>
    <i name="e_0_energy">   -367.49896841 </i>
   </energy>
  </scstep>
  <scstep>
   <time name="dav">    2.48    2.49</time>
   <time name="total">    2.60    2.61</time>
   <energy>
    <i name="e_fr_energy">   -367.49982008 </i>
    <i name="e_wo_entrp">   -367.49982008 </i>
    <i name="e_0_energy">   -367.49982008 </i>
   </energy>
  </scstep>
  <scstep>
   <time name="dav">    2.54    2.55</time>
   <time name="total">    2.66    2.68</time>
   <energy>
    <i name="e_fr_energy">   -367.49985876 </i>
    <i name="e_wo_entrp">   -367.49985876 </i>
    <i name="e_0_energy">   -367.49985876 </i>
   </energy>
  </scstep>
  <scstep>
   <time name="dav">    2.62    2.64</time>
   <time name="total">    2.75    2.76</time>
   <energy>
    <i name="e_fr_energy">   -367.49986104 </i>
    <i name="e_wo_entrp">   -367.49986104 </i>
    <i name="e_0_energy">   -367.49986104 </i>
   </energy>
  </scstep>
  <scstep>
   <time name="dav">    2.49    2.50</time>
   <time name="total">    2.61    2.63</time>
   <energy>
    <i name="e_fr_energy">   -367.49986005 </i>
    <i name="e_wo_entrp">   -367.49986005 </i>
    <i name="e_0_energy">   -367.49986005 </i>
   </energy>
  </scstep>
  <scstep>
   <time name="dav">    2.18    2.19</time>
   <time name="total">    2.30    2.31</time>
   <energy>
    <i name="e_fr_energy">   -367.49985989 </i>
    <i name="e_wo_entrp">   -367.49985989 </i>
    <i name="e_0_energy">   -367.49985989 </i>
   </energy>
  </scstep>
  <scstep>
   <time name="dav">    1.77    1.78</time>
   <time name="total">    1.89    1.90</time>
   <energy>
    <i name="e_fr_energy">   -367.49985988 </i>
    <i name="e_wo_entrp">   -367.49985988 </i>
    <i name="e_0_energy">   -367.49985988 </i>
   </energy>
  </scstep>
  <scstep>
   <time name="dav">    1.70    1.71</time>
   <time name="total">    1.74    1.75</time>
   <energy>
    <i name="alphaZ">    107.38120932 </i>
    <i name="ewald">  -7307.87536902 </i>
    <i name="hartreedc">   -468.78598719 </i>
    <i name="XCdc">   -539.35382120 </i>
    <i name="pawpsdc">  28474.87796827 </i>
    <i name="pawaedc"> -27375.30471283 </i>
    <i name="eentropy">     -0.00000000 </i>
    <i name="bandstr">    176.79382859 </i>
    <i name="atom">   6564.76702419 </i>
    <i name="e_fr_energy">   -367.49985987 </i>
    <i name="e_wo_entrp">   -367.49985987 </i>
    <i name="e_0_energy">   -367.49985987 </i>
   </energy>
  </scstep>
  <structure>
   <crystal>
    <varray name="basis" >
     <v>      10.86914512      -0.00000000      -0.00000000 </v>
     <v>      -0.00000000      10.86914512       0.00000000 </v>
     <v>       0.00000000       0.00000000      10.86914512 </v>
    </varray>
    <i name="volume">   1284.06249692 </i>
    <varray name="rec_basis" >
     <v>       0.09200356       0.00000000      -0.00000000 </v>
     <v>       0.00000000       0.09200356      -0.00000000 </v>
     <v>       0.00000000      -0.00000000       0.09200356 </v>
    </varray>
   </crystal>
   <varray name="positions" >
    <v>       0.24907996       0.25000000       0.25000000 </v>
    <v>       0.75000000       0.25000000       0.25000000 </v>
    <v>       0.25000000       0.75000000       0.25000000 </v>
    <v>       0.75000000       0.75000000       0.25000000 </v>
    <v>       0.25000000       0.25000000       0.75000000 </v>
    <v>       0.75000000       0.25000000       0.75000000 </v>
    <v>       0.25000000       0.75000000       0.75000000 </v>
    <v>       0.75000000       0.75000000       0.75000000 </v>
    <v>       0.25000000       0.00092004       0.00000000 </v>
    <v>       0.75000000       0.00000000       0.00000000 </v>
    <v>       0.25000000       0.50000000       0.00000000 </v>
    <v>       0.75000000       0.50000000       0.00000000 </v>
    <v>       0.25000000       0.00000000       0.50000000 </v>
    <v>       0.75000000       0.00000000       0.50000000 </v>
    <v>       0.25000000       0.50000000       0.50000000 </v>
    <v>       0.75000000       0.50000000       0.50000000 </v>
    <v>       0.00000000       0.25000000       0.00000000 </v>
    <v>       0.50000000       0.25000000       0.00000000 </v>
    <v>       0.00000000       0.75000000       0.00000000 </v>
    <v>       0.50000000       0.75000000       0.00000000 </v>
    <v>       0.00000000       0.25000000       0.50000000 </v>
    <v>       0.50000000       0.25000000       0.50000000 </v>
    <v>       0.00000000       0.75000000       0.50000000 </v>
    <v>       0.50000000       0.75000000       0.50000000 </v>
    <v>       0.00000000       0.00000000       0.25000000 </v>
    <v>       0.50000000       0.00000000       0.25000000 </v>
    <v>       0.00000000       0.50000000       0.25000000 </v>
    <v>       0.50000000       0.50000000       0.25000000 </v>
    <v>       0.00000000       0.00000000       0.75000000 </v>
    <v>       0.50000000       0.00000000       0.75000000 </v>
    <v>       0.00000000       0.50000000       0.75000000 </v>
    <v>       0.50000000       0.50000000       0.75000000 </v>
    <v>       0.37500000       0.37500000       0.37500000 </v>
    <v>       0.87500000       0.37500000       0.37500000 </v>
    <v>       0.37500000       0.87500000       0.37500000 </v>
    <v>       0.87500000       0.87500000       0.37500000 </v>
    <v>       0.37500000       0.37500000       0.87500000 </v>
    <v>       0.87500000       0.37500000       0.87500000 </v>
    <v>       0.37500000       0.87500000       0.87500000 </v>
    <v>       0.87500000       0.87500000       0.87500000 </v>
    <v>       0.37500000       0.12500000       0.12500000 </v>
    <v>       0.87500000       0.12500000       0.12500000 </v>
    <v>       0.37500000       0.62500000       0.12500000 </v>
    <v>       0.87500000       0.62500000       0.12500000 </v>
    <v>       0.37500000       0.12500000       0.62500000 </v>
    <v>       0.87500000       0.12500000       0.62500000 </v>
    <v>       0.37500000       0.62500000       0.62500000 </v>
    <v>       0.87500000       0.62500000       0.62500000 </v>
    <v>       0.12500000       0.37500000       0.12500000 </v>
    <v>       0.62500000       0.37500000       0.12500000 </v>
    <v>       0.12500000       0.87500000       0.12500000 </v>
    <v>       0.62500000       0.87500000       0.12500000 </v>
    <v>       0.12500000       0.37500000       0.62500000 </v>
    <v>       0.62500000       0.37500000       0.62500000 </v>
    <v>       0.12500000       0.87500000       0.62500000 </v>
    <v>       0.62500000       0.87500000       0.62500000 </v>
    <v>       0.12500000       0.12500000       0.37500000 </v>
    <v>       0.62500000       0.12500000       0.37500000 </v>
    <v>       0.12500000       0.62500000       0.37500000 </v>
    <v>       0.62500000       0.62500000       0.37500000 </v>
    <v>       0.12500000       0.12500000       0.87500000 </v>
    <v>       0.62500000       0.12500000       0.87500000 </v>
    <v>       0.12500000       0.62500000       0.87500000 </v>
    <v>       0.62500000       0.62500000       0.87500000 </v>
   </varray>
  </structure>
  <varray name="forces" >
   <v>       0.13307542       0.00186860       0.00187300 </v>
   <v>      -0.00010464       0.00032685      -0.00060140 </v>
   <v>       0.00046111       0.00185924      -0.00185277 </v>
   <v>       0.00002948       0.00032708       0.00060406 </v>
   <v>      -0.00143294       0.00187652      -0.00186646 </v>
   <v>      -0.00012410       0.00032758       0.00060221 </v>
   <v>       0.00298517       0.00185962       0.00185513 </v>
   <v>      -0.00030219       0.00032616      -0.00060311 </v>
   <v>       0.00426779      -0.13308779      -0.00094051 </v>
   <v>       0.00003716       0.00040444      -0.00007696 </v>
   <v>       0.00427602      -0.00077278       0.00095367 </v>
   <v>       0.00004075      -0.00002866       0.00007536 </v>
   <v>       0.00427658       0.00143464      -0.00095432 </v>
   <v>       0.00004047      -0.00385209      -0.00007712 </v>
   <v>       0.00426750       0.00098933       0.00094070 </v>
   <v>       0.00003705       0.00030225       0.00007632 </v>
   <v>      -0.00374332       0.00283075      -0.00281773 </v>
   <v>       0.00000056       0.00281876       0.00281518 </v>
   <v>       0.00152711       0.00193717      -0.00034230 </v>
   <v>      -0.00217940       0.00193603       0.00033663 </v>
   <v>      -0.00127567      -0.00062713       0.00178866 </v>
   <v>      -0.00246284      -0.00061593      -0.00177681 </v>
   <v>      -0.00093015       0.00024944      -0.00067840 </v>
   <v>       0.00027722       0.00024963       0.00067990 </v>
   <v>      -0.00281881      -0.00613364       0.00189559 </v>
   <v>      -0.00281406      -0.00242136      -0.00000927 </v>
   <v>      -0.00195355       0.00183052      -0.00087736 </v>
   <v>      -0.00193613      -0.00189283      -0.00101811 </v>
   <v>       0.00062587      -0.00367541       0.00103063 </v>
   <v>       0.00061559      -0.00487251      -0.00086540 </v>
   <v>      -0.00025098      -0.00064122      -0.00000060 </v>
   <v>      -0.00025011       0.00056651      -0.00015365 </v>
   <v>      -0.03243521      -0.02217216      -0.02218124 </v>
   <v>      -0.00018163      -0.00051747      -0.00006965 </v>
   <v>       0.00010043      -0.00084865      -0.00007091 </v>
   <v>      -0.00047448       0.00186364      -0.00000361 </v>
   <v>       0.00017148      -0.00049732       0.00000101 </v>
   <v>      -0.00043927      -0.00003231       0.00003930 </v>
   <v>      -0.02447649       0.03193297       0.02214200 </v>
   <v>      -0.00016003      -0.00078011       0.00014025 </v>
   <v>      -0.00916976       0.05489949       0.04539212 </v>
   <v>       0.00043035      -0.00017626       0.00074575 </v>
   <v>       0.00085158       0.00025048       0.00075041 </v>
   <v>      -0.00001148       0.00043507       0.00050671 </v>
   <v>       0.00091712      -0.00010599       0.00068129 </v>
   <v>       0.00002893       0.00234372       0.00046953 </v>
   <v>      -0.00183042       0.00047054       0.00046483 </v>
   <v>       0.00044895       0.00009132       0.00054066 </v>
   <v>      -0.03214769       0.02291806      -0.02334264 </v>
   <v>       0.00030457       0.00056595      -0.00059745 </v>
   <v>       0.02291499       0.03252613      -0.02280521 </v>
   <v>       0.00011967      -0.00029836      -0.00066159 </v>
   <v>       0.00077033       0.00063037      -0.00055912 </v>
   <v>       0.00005123       0.00007296      -0.00048216 </v>
   <v>      -0.00167837      -0.00025690      -0.00059175 </v>
   <v>       0.00043113       0.00235314      -0.00052379 </v>
   <v>      -0.03289339      -0.02351754       0.02266266 </v>
   <v>      -0.00016521       0.00174714       0.00008736 </v>
   <v>       0.00026481      -0.00012390       0.00019453 </v>
   <v>      -0.00048972      -0.00039086      -0.00002037 </v>
   <v>      -0.02249001       0.03207855      -0.02266455 </v>
   <v>      -0.00056182      -0.00076713      -0.00019394 </v>
   <v>      -0.00242911      -0.00034139      -0.00008764 </v>
   <v>      -0.00003344      -0.00005298       0.00002245 </v>
  </varray>
  <varray name="stress" >
   <v>      -0.03100572       0.00000572       0.12324374 </v>
   <v>       0.00000569      -0.03099952      -0.12325221 </v>
   <v>       0.12324374      -0.12325218      -0.02867671 </v>
  </varray>
  <energy>
   <i name="e_fr_energy">   -367.49985987 </i>
   <i name="e_wo_entrp">   -367.49985987 </i>
   <i name="e_0_energy">   -367.49985987 </i>
  </energy>
  <time name="totalsc">   43.64   43.90</time>
  <eigenvalues>
   <array>
    <dimension dim="1">band</dimension>
    <dimension dim="2">kpoint</dimension>
    <dimension dim="3">spin</dimension>
    <field>eigene</field>
    <field>occ</field>
    <set>
     <set comment="spin 1">
      <set comment="kpoint 1">
       <r>   -6.2055    1.0000 </r>
       <r>   -5.1237    1.0000 </r>
       <r>   -5.1218    1.0000 </r>
       <r>   -5.1217    1.0000 </r>
       <r>   -5.1212    1.0000 </r>
       <r>   -5.1201    1.0000 </r>
       <r>   -5.1192    1.0000 </r>
       <r>   -4.1591    1.0000 </r>
       <r>   -4.1585    1.0000 </r>
       <r>   -4.1562    1.0000 </r>
       <r>   -4.1555    1.0000 </r>
       <r>   -4.1552    1.0000 </r>
       <r>   -4.1551    1.0000 </r>
       <r>   -4.1550    1.0000 </r>
       <r>   -4.1549    1.0000 </r>
       <r>   -4.1547    1.0000 </r>
       <r>   -4.1539    1.0000 </r>
       <r>   -4.1522    1.0000 </r>
       <r>   -4.1503    1.0000 </r>
       <r>   -3.8625    1.0000 </r>
       <r>   -3.8607    1.0000 </r>
       <r>   -3.8606    1.0000 </r>
       <r>   -3.8588    1.0000 </r>
       <r>   -2.0544    1.0000 </r>
       <r>   -2.0541    1.0000 </r>
       <r>   -2.0519    1.0000 </r>
       <r>   -2.0519    1.0000 </r>
       <r>   -2.0498    1.0000 </r>
       <r>   -2.0497    1.0000 </r>
       <r>   -1.8881    1.0000 </r>
       <r>   -1.8857    1.0000 </r>
       <r>   -1.8841    1.0000 </r>
       <r>   -1.8831    1.0000 </r>
       <r>   -1.8830    1.0000 </r>
       <r>   -1.8829    1.0000 </r>
       <r>   -1.8827    1.0000 </r>
       <r>   -1.8826    1.0000 </r>
       <r>   -1.8825    1.0000 </r>
       <r>   -1.8810    1.0000 </r>
       <r>   -1.8796    1.0000 </r>
       <r>   -1.8771    1.0000 </r>
       <r>   -1.2366    1.0000 </r>
       <r>   -1.2347    1.0000 </r>
       <r>   -1.2347    1.0000 </r>
       <r>   -1.2328    1.0000 </r>
       <r>    0.2782    1.0000 </r>
       <r>    0.2788    1.0000 </r>
       <r>    0.2799    1.0000 </r>
       <r>    0.2814    1.0000 </r>
       <r>    0.2817    1.0000 </r>
       <r>    0.2818    1.0000 </r>
       <r>    0.2819    1.0000 </r>
       <r>    0.2821    1.0000 </r>
       <r>    0.2822    1.0000 </r>
       <r>    0.2843    1.0000 </r>
       <r>    0.2849    1.0000 </r>
       <r>    0.2862    1.0000 </r>
       <r>    1.8688    1.0000 </r>
       <r>    1.8693    1.0000 </r>
       <r>    1.8705    1.0000 </r>
       <r>    1.8706    1.0000 </r>
       <r>    1.8708    1.0000 </r>
       <r>    1.8711    1.0000 </r>
       <r>    1.8714    1.0000 </r>
       <r>    1.8715    1.0000 </r>
       <r>    1.8717    1.0000 </r>
       <r>    1.8718    1.0000 </r>
       <r>    1.8724    1.0000 </r>
       <r>    1.8741    1.0000 </r>
       <r>    1.9713    1.0000 </r>
       <r>    1.9716    1.0000 </r>
       <r>    1.9719    1.0000 </r>
       <r>    1.9722    1.0000 </r>
       <r>    1.9723    1.0000 </r>
       <r>    1.9729    1.0000 </r>
       <r>    1.9733    1.0000 </r>
       <r>    1.9737    1.0000 </r>
       <r>    1.9743    1.0000 </r>
       <r>    1.9746    1.0000 </r>
       <r>    1.9756    1.0000 </r>
       <r>    1.9762    1.0000 </r>
       <r>    2.2488    1.0000 </r>
       <r>    2.2495    1.0000 </r>
       <r>    2.2507    1.0000 </r>
       <r>    2.2519    1.0000 </r>
       <r>    2.2536    1.0000 </r>
       <r>    2.2542    1.0000 </r>
       <r>    2.9008    1.0000 </r>
       <r>    2.9008    1.0000 </r>
       <r>    2.9017    1.0000 </r>
       <r>    2.9017    1.0000 </r>
       <r>    2.9026    1.0000 </r>
       <r>    2.9026    1.0000 </r>
       <r>    3.8625    1.0000 </r>
       <r>    3.8644    1.0000 </r>
       <r>    3.8658    1.0000 </r>
       <r>    3.8663    1.0000 </r>
       <r>    3.8665    1.0000 </r>
       <r>    3.8666    1.0000 </r>
       <r>    3.8667    1.0000 </r>
       <r>    3.8667    1.0000 </r>
       <r>    3.8673    1.0000 </r>
       <r>    3.8675    1.0000 </r>
       <r>    3.8692    1.0000 </r>
       <r>    3.8705    1.0000 </r>
       <r>    4.4324    1.0000 </r>
       <r>    4.4340    1.0000 </r>
       <r>    4.4358    1.0000 </r>
       <r>    4.4364    1.0000 </r>
       <r>    4.4367    1.0000 </r>
       <r>    4.4368    1.0000 </r>
       <r>    4.4369    1.0000 </r>
       <r>    4.4372    1.0000 </r>
       <r>    4.4376    1.0000 </r>
       <r>    4.4387    1.0000 </r>
       <r>    4.4401    1.0000 </r>
       <r>    4.4413    1.0000 </r>
       <r>    4.5667    1.0000 </r>
       <r>    4.5679    1.0000 </r>
       <r>    4.5691    1.0000 </r>
       <r>    4.5697    1.0000 </r>
       <r>    4.5700    1.0000 </r>
       <r>    4.5705    1.0000 </r>
       <r>    4.5718    1.0000 </r>
       <r>    4.5732    1.0000 </r>
       <r>    5.7698    1.0000 </r>
       <r>    5.7720    1.0000 </r>
       <r>    5.7741    1.0000 </r>
       <r>    6.3636    0.0000 </r>
       <r>    6.3648    0.0000 </r>
       <r>    6.3658    0.0000 </r>
       <r>    6.3658    0.0000 </r>
       <r>    6.3667    0.0000 </r>
       <r>    6.3679    0.0000 </r>
       <r>    6.8058    0.0000 </r>
       <r>    6.8067    0.0000 </r>
       <r>    6.8072    0.0000 </r>
       <r>    6.8084    0.0000 </r>
       <r>    6.8098    0.0000 </r>
       <r>    6.8105    0.0000 </r>
       <r>    7.2316    0.0000 </r>
       <r>    7.2320    0.0000 </r>
       <r>    7.2320    0.0000 </r>
       <r>    7.2324    0.0000 </r>
       <r>    8.1344    0.0000 </r>
       <r>    8.1355    0.0000 </r>
       <r>    8.1356    0.0000 </r>
       <r>    8.1368    0.0000 </r>
       <r>    8.1376    0.0000 </r>
       <r>    8.1379    0.0000 </r>
       <r>    8.1379    0.0000 </r>
       <r>    8.1382    0.0000 </r>
       <r>    8.1390    0.0000 </r>
       <r>    8.1399    0.0000 </r>
       <r>    8.1404    0.0000 </r>
       <r>    8.1416    0.0000 </r>
       <r>    8.2877    0.0000 </r>
       <r>    8.2889    0.0000 </r>
       <r>    8.2902    0.0000 </r>
       <r>    8.7967    0.0000 </r>
       <r>    8.7967    0.0000 </r>
       <r>    8.7979    0.0000 </r>
       <r>    8.7979    0.0000 </r>
       <r>    8.7991    0.0000 </r>
       <r>    8.7992    0.0000 </r>
       <r>    9.0493    0.0000 </r>
       <r>    9.0500    0.0000 </r>
       <r>    9.0536    0.0000 </r>
      </set>
      <set comment="kpoint 2">
       <r>   -5.9327    1.0000 </r>
       <r>   -5.9313    1.0000 </r>
       <r>   -4.8755    1.0000 </r>
       <r>   -4.8743    1.0000 </r>
       <r>   -4.8739    1.0000 </r>
       <r>   -4.8728    1.0000 </r>
       <r>   -4.8727    1.0000 </r>
       <r>   -4.8726    1.0000 </r>
       <r>   -4.8714    1.0000 </r>
       <r>   -4.8688    1.0000 </r>
       <r>   -4.0263    1.0000 </r>
       <r>   -4.0232    1.0000 </r>
       <r>   -4.0229    1.0000 </r>
       <r>   -4.0229    1.0000 </r>
       <r>   -4.0225    1.0000 </r>
       <r>   -4.0225    1.0000 </r>
       <r>   -4.0222    1.0000 </r>
       <r>   -4.0191    1.0000 </r>
       <r>   -3.8068    1.0000 </r>
       <r>   -3.8045    1.0000 </r>
       <r>   -3.0799    1.0000 </r>
       <r>   -3.0780    1.0000 </r>
       <r>   -3.0775    1.0000 </r>
       <r>   -3.0767    1.0000 </r>
       <r>   -3.0765    1.0000 </r>
       <r>   -3.0759    1.0000 </r>
       <r>   -3.0746    1.0000 </r>
       <r>   -3.0721    1.0000 </r>
       <r>   -1.9752    1.0000 </r>
       <r>   -1.9717    1.0000 </r>
       <r>   -1.9716    1.0000 </r>
       <r>   -1.9715    1.0000 </r>
       <r>   -1.9715    1.0000 </r>
       <r>   -1.9713    1.0000 </r>
       <r>   -1.9712    1.0000 </r>
       <r>   -1.9677    1.0000 </r>
       <r>   -0.8064    1.0000 </r>
       <r>   -0.8046    1.0000 </r>
       <r>   -0.8043    1.0000 </r>
       <r>   -0.8034    1.0000 </r>
       <r>   -0.8031    1.0000 </r>
       <r>   -0.8021    1.0000 </r>
       <r>   -0.8004    1.0000 </r>
       <r>   -0.8000    1.0000 </r>
       <r>   -0.6374    1.0000 </r>
       <r>   -0.6350    1.0000 </r>
       <r>   -0.6348    1.0000 </r>
       <r>   -0.6343    1.0000 </r>
       <r>   -0.6336    1.0000 </r>
       <r>   -0.6332    1.0000 </r>
       <r>   -0.6329    1.0000 </r>
       <r>   -0.6304    1.0000 </r>
       <r>    0.0225    1.0000 </r>
       <r>    0.0239    1.0000 </r>
       <r>    1.4713    1.0000 </r>
       <r>    1.4719    1.0000 </r>
       <r>    1.4733    1.0000 </r>
       <r>    1.4742    1.0000 </r>
       <r>    1.4745    1.0000 </r>
       <r>    1.4752    1.0000 </r>
       <r>    1.4756    1.0000 </r>
       <r>    1.4774    1.0000 </r>
       <r>    1.4916    1.0000 </r>
       <r>    1.4923    1.0000 </r>
       <r>    1.4926    1.0000 </r>
       <r>    1.4929    1.0000 </r>
       <r>    1.4933    1.0000 </r>
       <r>    1.4941    1.0000 </r>
       <r>    1.4947    1.0000 </r>
       <r>    1.4961    1.0000 </r>
       <r>    2.3166    1.0000 </r>
       <r>    2.3172    1.0000 </r>
       <r>    2.3176    1.0000 </r>
       <r>    2.3179    1.0000 </r>
       <r>    2.3182    1.0000 </r>
       <r>    2.3185    1.0000 </r>
       <r>    2.3189    1.0000 </r>
       <r>    2.3195    1.0000 </r>
       <r>    3.0224    1.0000 </r>
       <r>    3.0240    1.0000 </r>
       <r>    3.0242    1.0000 </r>
       <r>    3.0245    1.0000 </r>
       <r>    3.0248    1.0000 </r>
       <r>    3.0251    1.0000 </r>
       <r>    3.0260    1.0000 </r>
       <r>    3.0275    1.0000 </r>
       <r>    3.1464    1.0000 </r>
       <r>    3.1477    1.0000 </r>
       <r>    3.1484    1.0000 </r>
       <r>    3.1493    1.0000 </r>
       <r>    3.1569    1.0000 </r>
       <r>    3.1581    1.0000 </r>
       <r>    3.1582    1.0000 </r>
       <r>    3.1591    1.0000 </r>
       <r>    3.1595    1.0000 </r>
       <r>    3.1599    1.0000 </r>
       <r>    3.1606    1.0000 </r>
       <r>    3.1617    1.0000 </r>
       <r>    3.2834    1.0000 </r>
       <r>    3.2845    1.0000 </r>
       <r>    3.2851    1.0000 </r>
       <r>    3.2856    1.0000 </r>
       <r>    3.2859    1.0000 </r>
       <r>    3.2865    1.0000 </r>
       <r>    3.2870    1.0000 </r>
       <r>    3.2882    1.0000 </r>
       <r>    4.3290    1.0000 </r>
       <r>    4.3301    1.0000 </r>
       <r>    4.3315    1.0000 </r>
       <r>    4.3317    1.0000 </r>
       <r>    4.3320    1.0000 </r>
       <r>    4.3326    1.0000 </r>
       <r>    4.3329    1.0000 </r>
       <r>    4.3346    1.0000 </r>
       <r>    4.4329    1.0000 </r>
       <r>    4.4330    1.0000 </r>
       <r>    4.4965    1.0000 </r>
       <r>    4.5003    1.0000 </r>
       <r>    4.5008    1.0000 </r>
       <r>    4.5009    1.0000 </r>
       <r>    4.5009    1.0000 </r>
       <r>    4.5010    1.0000 </r>
       <r>    4.5014    1.0000 </r>
       <r>    4.5056    1.0000 </r>
       <r>    4.9528    1.0000 </r>
       <r>    4.9547    1.0000 </r>
       <r>    4.9557    1.0000 </r>
       <r>    4.9577    1.0000 </r>
       <r>    6.2790    0.0000 </r>
       <r>    6.2804    0.0000 </r>
       <r>    7.1933    0.0000 </r>
       <r>    7.1946    0.0000 </r>
       <r>    7.6431    0.0000 </r>
       <r>    7.6446    0.0000 </r>
       <r>    7.6454    0.0000 </r>
       <r>    7.6458    0.0000 </r>
       <r>    7.6459    0.0000 </r>
       <r>    7.6463    0.0000 </r>
       <r>    7.6471    0.0000 </r>
       <r>    7.6486    0.0000 </r>
       <r>    7.7139    0.0000 </r>
       <r>    7.7144    0.0000 </r>
       <r>    8.0571    0.0000 </r>
       <r>    8.0590    0.0000 </r>
       <r>    8.0594    0.0000 </r>
       <r>    8.0597    0.0000 </r>
       <r>    8.0598    0.0000 </r>
       <r>    8.0601    0.0000 </r>
       <r>    8.0604    0.0000 </r>
       <r>    8.0621    0.0000 </r>
       <r>    8.1436    0.0000 </r>
       <r>    8.1446    0.0000 </r>
       <r>    8.1448    0.0000 </r>
       <r>    8.1453    0.0000 </r>
       <r>    8.1456    0.0000 </r>
       <r>    8.1460    0.0000 </r>
       <r>    8.1473    0.0000 </r>
       <r>    8.1483    0.0000 </r>
       <r>    8.5507    0.0000 </r>
       <r>    8.5511    0.0000 </r>
       <r>    8.5520    0.0000 </r>
       <r>    8.5524    0.0000 </r>
       <r>    8.5534    0.0000 </r>
       <r>    8.5537    0.0000 </r>
       <r>    8.5541    0.0000 </r>
       <r>    8.5549    0.0000 </r>
       <r>    9.3205    0.0000 </r>
       <r>    9.3230    0.0000 </r>
      </set>
      <set comment="kpoint 3">
       <r>   -5.9327    1.0000 </r>
       <r>   -5.9313    1.0000 </r>
       <r>   -4.8761    1.0000 </r>
       <r>   -4.8742    1.0000 </r>
       <r>   -4.8733    1.0000 </r>
       <r>   -4.8729    1.0000 </r>
       <r>   -4.8724    1.0000 </r>
       <r>   -4.8717    1.0000 </r>
       <r>   -4.8709    1.0000 </r>
       <r>   -4.8703    1.0000 </r>
       <r>   -4.0264    1.0000 </r>
       <r>   -4.0243    1.0000 </r>
       <r>   -4.0230    1.0000 </r>
       <r>   -4.0227    1.0000 </r>
       <r>   -4.0224    1.0000 </r>
       <r>   -4.0217    1.0000 </r>
       <r>   -4.0208    1.0000 </r>
       <r>   -4.0203    1.0000 </r>
       <r>   -3.8068    1.0000 </r>
       <r>   -3.8045    1.0000 </r>
       <r>   -3.0803    1.0000 </r>
       <r>   -3.0776    1.0000 </r>
       <r>   -3.0769    1.0000 </r>
       <r>   -3.0767    1.0000 </r>
       <r>   -3.0764    1.0000 </r>
       <r>   -3.0757    1.0000 </r>
       <r>   -3.0750    1.0000 </r>
       <r>   -3.0726    1.0000 </r>
       <r>   -1.9755    1.0000 </r>
       <r>   -1.9725    1.0000 </r>
       <r>   -1.9717    1.0000 </r>
       <r>   -1.9714    1.0000 </r>
       <r>   -1.9713    1.0000 </r>
       <r>   -1.9712    1.0000 </r>
       <r>   -1.9693    1.0000 </r>
       <r>   -1.9689    1.0000 </r>
       <r>   -0.8062    1.0000 </r>
       <r>   -0.8045    1.0000 </r>
       <r>   -0.8042    1.0000 </r>
       <r>   -0.8034    1.0000 </r>
       <r>   -0.8031    1.0000 </r>
       <r>   -0.8022    1.0000 </r>
       <r>   -0.8012    1.0000 </r>
       <r>   -0.7994    1.0000 </r>
       <r>   -0.6371    1.0000 </r>
       <r>   -0.6360    1.0000 </r>
       <r>   -0.6348    1.0000 </r>
       <r>   -0.6340    1.0000 </r>
       <r>   -0.6336    1.0000 </r>
       <r>   -0.6332    1.0000 </r>
       <r>   -0.6322    1.0000 </r>
       <r>   -0.6307    1.0000 </r>
       <r>    0.0225    1.0000 </r>
       <r>    0.0240    1.0000 </r>
       <r>    1.4705    1.0000 </r>
       <r>    1.4723    1.0000 </r>
       <r>    1.4733    1.0000 </r>
       <r>    1.4743    1.0000 </r>
       <r>    1.4745    1.0000 </r>
       <r>    1.4752    1.0000 </r>
       <r>    1.4760    1.0000 </r>
       <r>    1.4769    1.0000 </r>
       <r>    1.4913    1.0000 </r>
       <r>    1.4923    1.0000 </r>
       <r>    1.4927    1.0000 </r>
       <r>    1.4933    1.0000 </r>
       <r>    1.4935    1.0000 </r>
       <r>    1.4943    1.0000 </r>
       <r>    1.4946    1.0000 </r>
       <r>    1.4958    1.0000 </r>
       <r>    2.3167    1.0000 </r>
       <r>    2.3170    1.0000 </r>
       <r>    2.3176    1.0000 </r>
       <r>    2.3180    1.0000 </r>
       <r>    2.3184    1.0000 </r>
       <r>    2.3185    1.0000 </r>
       <r>    2.3191    1.0000 </r>
       <r>    2.3192    1.0000 </r>
       <r>    3.0225    1.0000 </r>
       <r>    3.0237    1.0000 </r>
       <r>    3.0239    1.0000 </r>
       <r>    3.0244    1.0000 </r>
       <r>    3.0253    1.0000 </r>
       <r>    3.0256    1.0000 </r>
       <r>    3.0259    1.0000 </r>
       <r>    3.0270    1.0000 </r>
       <r>    3.1465    1.0000 </r>
       <r>    3.1477    1.0000 </r>
       <r>    3.1484    1.0000 </r>
       <r>    3.1495    1.0000 </r>
       <r>    3.1573    1.0000 </r>
       <r>    3.1580    1.0000 </r>
       <r>    3.1585    1.0000 </r>
       <r>    3.1587    1.0000 </r>
       <r>    3.1595    1.0000 </r>
       <r>    3.1600    1.0000 </r>
       <r>    3.1605    1.0000 </r>
       <r>    3.1613    1.0000 </r>
       <r>    3.2833    1.0000 </r>
       <r>    3.2844    1.0000 </r>
       <r>    3.2852    1.0000 </r>
       <r>    3.2856    1.0000 </r>
       <r>    3.2860    1.0000 </r>
       <r>    3.2865    1.0000 </r>
       <r>    3.2871    1.0000 </r>
       <r>    3.2881    1.0000 </r>
       <r>    4.3289    1.0000 </r>
       <r>    4.3304    1.0000 </r>
       <r>    4.3311    1.0000 </r>
       <r>    4.3318    1.0000 </r>
       <r>    4.3320    1.0000 </r>
       <r>    4.3327    1.0000 </r>
       <r>    4.3331    1.0000 </r>
       <r>    4.3345    1.0000 </r>
       <r>    4.4329    1.0000 </r>
       <r>    4.4330    1.0000 </r>
       <r>    4.4963    1.0000 </r>
       <r>    4.4998    1.0000 </r>
       <r>    4.5005    1.0000 </r>
       <r>    4.5009    1.0000 </r>
       <r>    4.5010    1.0000 </r>
       <r>    4.5016    1.0000 </r>
       <r>    4.5021    1.0000 </r>
       <r>    4.5051    1.0000 </r>
       <r>    4.9528    1.0000 </r>
       <r>    4.9547    1.0000 </r>
       <r>    4.9557    1.0000 </r>
       <r>    4.9577    1.0000 </r>
       <r>    6.2790    0.0000 </r>
       <r>    6.2804    0.0000 </r>
       <r>    7.1933    0.0000 </r>
       <r>    7.1946    0.0000 </r>
       <r>    7.6433    0.0000 </r>
       <r>    7.6449    0.0000 </r>
       <r>    7.6450    0.0000 </r>
       <r>    7.6454    0.0000 </r>
       <r>    7.6456    0.0000 </r>
       <r>    7.6468    0.0000 </r>
       <r>    7.6473    0.0000 </r>
       <r>    7.6485    0.0000 </r>
       <r>    7.7139    0.0000 </r>
       <r>    7.7144    0.0000 </r>
       <r>    8.0571    0.0000 </r>
       <r>    8.0590    0.0000 </r>
       <r>    8.0591    0.0000 </r>
       <r>    8.0597    0.0000 </r>
       <r>    8.0598    0.0000 </r>
       <r>    8.0601    0.0000 </r>
       <r>    8.0604    0.0000 </r>
       <r>    8.0622    0.0000 </r>
       <r>    8.1429    0.0000 </r>
       <r>    8.1443    0.0000 </r>
       <r>    8.1452    0.0000 </r>
       <r>    8.1454    0.0000 </r>
       <r>    8.1458    0.0000 </r>
       <r>    8.1462    0.0000 </r>
       <r>    8.1471    0.0000 </r>
       <r>    8.1483    0.0000 </r>
       <r>    8.5509    0.0000 </r>
       <r>    8.5512    0.0000 </r>
       <r>    8.5521    0.0000 </r>
       <r>    8.5522    0.0000 </r>
       <r>    8.5531    0.0000 </r>
       <r>    8.5535    0.0000 </r>
       <r>    8.5542    0.0000 </r>
       <r>    8.5551    0.0000 </r>
       <r>    9.3203    0.0000 </r>
       <r>    9.3224    0.0000 </r>
      </set>
      <set comment="kpoint 4">
       <r>   -5.9320    1.0000 </r>
       <r>   -5.9320    1.0000 </r>
       <r>   -4.8762    1.0000 </r>
       <r>   -4.8744    1.0000 </r>
       <r>   -4.8734    1.0000 </r>
       <r>   -4.8730    1.0000 </r>
       <r>   -4.8726    1.0000 </r>
       <r>   -4.8724    1.0000 </r>
       <r>   -4.8703    1.0000 </r>
       <r>   -4.8694    1.0000 </r>
       <r>   -4.0255    1.0000 </r>
       <r>   -4.0246    1.0000 </r>
       <r>   -4.0229    1.0000 </r>
       <r>   -4.0229    1.0000 </r>
       <r>   -4.0225    1.0000 </r>
       <r>   -4.0225    1.0000 </r>
       <r>   -4.0208    1.0000 </r>
       <r>   -4.0199    1.0000 </r>
       <r>   -3.8057    1.0000 </r>
       <r>   -3.8057    1.0000 </r>
       <r>   -3.0799    1.0000 </r>
       <r>   -3.0777    1.0000 </r>
       <r>   -3.0767    1.0000 </r>
       <r>   -3.0767    1.0000 </r>
       <r>   -3.0764    1.0000 </r>
       <r>   -3.0754    1.0000 </r>
       <r>   -3.0744    1.0000 </r>
       <r>   -3.0741    1.0000 </r>
       <r>   -1.9751    1.0000 </r>
       <r>   -1.9738    1.0000 </r>
       <r>   -1.9716    1.0000 </r>
       <r>   -1.9715    1.0000 </r>
       <r>   -1.9714    1.0000 </r>
       <r>   -1.9714    1.0000 </r>
       <r>   -1.9692    1.0000 </r>
       <r>   -1.9678    1.0000 </r>
       <r>   -0.8065    1.0000 </r>
       <r>   -0.8058    1.0000 </r>
       <r>   -0.8040    1.0000 </r>
       <r>   -0.8032    1.0000 </r>
       <r>   -0.8029    1.0000 </r>
       <r>   -0.8021    1.0000 </r>
       <r>   -0.8011    1.0000 </r>
       <r>   -0.7987    1.0000 </r>
       <r>   -0.6368    1.0000 </r>
       <r>   -0.6359    1.0000 </r>
       <r>   -0.6349    1.0000 </r>
       <r>   -0.6340    1.0000 </r>
       <r>   -0.6339    1.0000 </r>
       <r>   -0.6331    1.0000 </r>
       <r>   -0.6320    1.0000 </r>
       <r>   -0.6311    1.0000 </r>
       <r>    0.0232    1.0000 </r>
       <r>    0.0232    1.0000 </r>
       <r>    1.4710    1.0000 </r>
       <r>    1.4728    1.0000 </r>
       <r>    1.4735    1.0000 </r>
       <r>    1.4737    1.0000 </r>
       <r>    1.4745    1.0000 </r>
       <r>    1.4749    1.0000 </r>
       <r>    1.4764    1.0000 </r>
       <r>    1.4766    1.0000 </r>
       <r>    1.4918    1.0000 </r>
       <r>    1.4920    1.0000 </r>
       <r>    1.4929    1.0000 </r>
       <r>    1.4930    1.0000 </r>
       <r>    1.4932    1.0000 </r>
       <r>    1.4939    1.0000 </r>
       <r>    1.4943    1.0000 </r>
       <r>    1.4962    1.0000 </r>
       <r>    2.3163    1.0000 </r>
       <r>    2.3172    1.0000 </r>
       <r>    2.3176    1.0000 </r>
       <r>    2.3179    1.0000 </r>
       <r>    2.3182    1.0000 </r>
       <r>    2.3185    1.0000 </r>
       <r>    2.3189    1.0000 </r>
       <r>    2.3198    1.0000 </r>
       <r>    3.0235    1.0000 </r>
       <r>    3.0238    1.0000 </r>
       <r>    3.0242    1.0000 </r>
       <r>    3.0247    1.0000 </r>
       <r>    3.0248    1.0000 </r>
       <r>    3.0251    1.0000 </r>
       <r>    3.0257    1.0000 </r>
       <r>    3.0265    1.0000 </r>
       <r>    3.1479    1.0000 </r>
       <r>    3.1480    1.0000 </r>
       <r>    3.1481    1.0000 </r>
       <r>    3.1481    1.0000 </r>
       <r>    3.1571    1.0000 </r>
       <r>    3.1576    1.0000 </r>
       <r>    3.1588    1.0000 </r>
       <r>    3.1592    1.0000 </r>
       <r>    3.1598    1.0000 </r>
       <r>    3.1602    1.0000 </r>
       <r>    3.1604    1.0000 </r>
       <r>    3.1606    1.0000 </r>
       <r>    3.2828    1.0000 </r>
       <r>    3.2846    1.0000 </r>
       <r>    3.2849    1.0000 </r>
       <r>    3.2857    1.0000 </r>
       <r>    3.2858    1.0000 </r>
       <r>    3.2866    1.0000 </r>
       <r>    3.2870    1.0000 </r>
       <r>    3.2888    1.0000 </r>
       <r>    4.3288    1.0000 </r>
       <r>    4.3297    1.0000 </r>
       <r>    4.3307    1.0000 </r>
       <r>    4.3315    1.0000 </r>
       <r>    4.3318    1.0000 </r>
       <r>    4.3320    1.0000 </r>
       <r>    4.3343    1.0000 </r>
       <r>    4.3356    1.0000 </r>
       <r>    4.4329    1.0000 </r>
       <r>    4.4330    1.0000 </r>
       <r>    4.4985    1.0000 </r>
       <r>    4.5000    1.0000 </r>
       <r>    4.5007    1.0000 </r>
       <r>    4.5008    1.0000 </r>
       <r>    4.5009    1.0000 </r>
       <r>    4.5013    1.0000 </r>
       <r>    4.5019    1.0000 </r>
       <r>    4.5033    1.0000 </r>
       <r>    4.9552    1.0000 </r>
       <r>    4.9552    1.0000 </r>
       <r>    4.9552    1.0000 </r>
       <r>    4.9553    1.0000 </r>
       <r>    6.2797    0.0000 </r>
       <r>    6.2797    0.0000 </r>
       <r>    7.1939    0.0000 </r>
       <r>    7.1939    0.0000 </r>
       <r>    7.6436    0.0000 </r>
       <r>    7.6446    0.0000 </r>
       <r>    7.6451    0.0000 </r>
       <r>    7.6457    0.0000 </r>
       <r>    7.6460    0.0000 </r>
       <r>    7.6465    0.0000 </r>
       <r>    7.6472    0.0000 </r>
       <r>    7.6481    0.0000 </r>
       <r>    7.7141    0.0000 </r>
       <r>    7.7142    0.0000 </r>
       <r>    8.0590    0.0000 </r>
       <r>    8.0592    0.0000 </r>
       <r>    8.0596    0.0000 </r>
       <r>    8.0596    0.0000 </r>
       <r>    8.0597    0.0000 </r>
       <r>    8.0598    0.0000 </r>
       <r>    8.0602    0.0000 </r>
       <r>    8.0604    0.0000 </r>
       <r>    8.1435    0.0000 </r>
       <r>    8.1443    0.0000 </r>
       <r>    8.1451    0.0000 </r>
       <r>    8.1452    0.0000 </r>
       <r>    8.1460    0.0000 </r>
       <r>    8.1462    0.0000 </r>
       <r>    8.1471    0.0000 </r>
       <r>    8.1479    0.0000 </r>
       <r>    8.5509    0.0000 </r>
       <r>    8.5517    0.0000 </r>
       <r>    8.5522    0.0000 </r>
       <r>    8.5525    0.0000 </r>
       <r>    8.5534    0.0000 </r>
       <r>    8.5537    0.0000 </r>
       <r>    8.5540    0.0000 </r>
       <r>    8.5541    0.0000 </r>
       <r>    9.3204    0.0000 </r>
       <r>    9.3224    0.0000 </r>
      </set>
      <set comment="kpoint 5">
       <r>   -5.6659    1.0000 </r>
       <r>   -5.6638    1.0000 </r>
       <r>   -5.6633    1.0000 </r>
       <r>   -5.6627    1.0000 </r>
       <r>   -4.6465    1.0000 </r>
       <r>   -4.6459    1.0000 </r>
       <r>   -4.6442    1.0000 </r>
       <r>   -4.6441    1.0000 </r>
       <r>   -4.6439    1.0000 </r>
       <r>   -4.6434    1.0000 </r>
       <r>   -4.6429    1.0000 </r>
       <r>   -4.6422    1.0000 </r>
       <r>   -3.6097    1.0000 </r>
       <r>   -3.6076    1.0000 </r>
       <r>   -3.6055    1.0000 </r>
       <r>   -3.6054    1.0000 </r>
       <r>   -3.6052    1.0000 </r>
       <r>   -3.6046    1.0000 </r>
       <r>   -3.6036    1.0000 </r>
       <r>   -3.6014    1.0000 </r>
       <r>   -3.3259    1.0000 </r>
       <r>   -3.3229    1.0000 </r>
       <r>   -3.3218    1.0000 </r>
       <r>   -3.3216    1.0000 </r>
       <r>   -3.3215    1.0000 </r>
       <r>   -3.3209    1.0000 </r>
       <r>   -3.3195    1.0000 </r>
       <r>   -3.3188    1.0000 </r>
       <r>   -2.4611    1.0000 </r>
       <r>   -2.4599    1.0000 </r>
       <r>   -2.4599    1.0000 </r>
       <r>   -2.4581    1.0000 </r>
       <r>   -1.4638    1.0000 </r>
       <r>   -1.4636    1.0000 </r>
       <r>   -1.4616    1.0000 </r>
       <r>   -1.4616    1.0000 </r>
       <r>   -1.0415    1.0000 </r>
       <r>   -1.0401    1.0000 </r>
       <r>   -1.0393    1.0000 </r>
       <r>   -1.0384    1.0000 </r>
       <r>   -1.0380    1.0000 </r>
       <r>   -1.0376    1.0000 </r>
       <r>   -1.0372    1.0000 </r>
       <r>   -1.0346    1.0000 </r>
       <r>   -0.1986    1.0000 </r>
       <r>   -0.1971    1.0000 </r>
       <r>   -0.1958    1.0000 </r>
       <r>   -0.1953    1.0000 </r>
       <r>   -0.1951    1.0000 </r>
       <r>   -0.1943    1.0000 </r>
       <r>   -0.1936    1.0000 </r>
       <r>   -0.1922    1.0000 </r>
       <r>    0.4622    1.0000 </r>
       <r>    0.4629    1.0000 </r>
       <r>    0.4640    1.0000 </r>
       <r>    0.4650    1.0000 </r>
       <r>    0.4651    1.0000 </r>
       <r>    0.4657    1.0000 </r>
       <r>    0.4671    1.0000 </r>
       <r>    0.4678    1.0000 </r>
       <r>    1.4163    1.0000 </r>
       <r>    1.4169    1.0000 </r>
       <r>    1.4174    1.0000 </r>
       <r>    1.4175    1.0000 </r>
       <r>    2.2858    1.0000 </r>
       <r>    2.2862    1.0000 </r>
       <r>    2.2868    1.0000 </r>
       <r>    2.2871    1.0000 </r>
       <r>    2.2875    1.0000 </r>
       <r>    2.2876    1.0000 </r>
       <r>    2.2882    1.0000 </r>
       <r>    2.2892    1.0000 </r>
       <r>    2.3704    1.0000 </r>
       <r>    2.3710    1.0000 </r>
       <r>    2.3718    1.0000 </r>
       <r>    2.3721    1.0000 </r>
       <r>    2.3724    1.0000 </r>
       <r>    2.3730    1.0000 </r>
       <r>    2.3732    1.0000 </r>
       <r>    2.3736    1.0000 </r>
       <r>    2.9818    1.0000 </r>
       <r>    2.9824    1.0000 </r>
       <r>    2.9827    1.0000 </r>
       <r>    2.9831    1.0000 </r>
       <r>    2.9832    1.0000 </r>
       <r>    2.9834    1.0000 </r>
       <r>    2.9842    1.0000 </r>
       <r>    2.9848    1.0000 </r>
       <r>    3.0761    1.0000 </r>
       <r>    3.0762    1.0000 </r>
       <r>    3.0773    1.0000 </r>
       <r>    3.0773    1.0000 </r>
       <r>    3.3306    1.0000 </r>
       <r>    3.3309    1.0000 </r>
       <r>    3.3314    1.0000 </r>
       <r>    3.3326    1.0000 </r>
       <r>    3.5886    1.0000 </r>
       <r>    3.5894    1.0000 </r>
       <r>    3.5909    1.0000 </r>
       <r>    3.5911    1.0000 </r>
       <r>    3.5912    1.0000 </r>
       <r>    3.5915    1.0000 </r>
       <r>    3.5925    1.0000 </r>
       <r>    3.5936    1.0000 </r>
       <r>    3.9149    1.0000 </r>
       <r>    3.9163    1.0000 </r>
       <r>    3.9179    1.0000 </r>
       <r>    3.9182    1.0000 </r>
       <r>    3.9185    1.0000 </r>
       <r>    3.9192    1.0000 </r>
       <r>    3.9197    1.0000 </r>
       <r>    3.9211    1.0000 </r>
       <r>    4.1179    1.0000 </r>
       <r>    4.1184    1.0000 </r>
       <r>    4.1185    1.0000 </r>
       <r>    4.1189    1.0000 </r>
       <r>    4.1729    1.0000 </r>
       <r>    4.1734    1.0000 </r>
       <r>    4.1739    1.0000 </r>
       <r>    4.1741    1.0000 </r>
       <r>    4.1742    1.0000 </r>
       <r>    4.1743    1.0000 </r>
       <r>    4.1750    1.0000 </r>
       <r>    4.1755    1.0000 </r>
       <r>    5.4794    1.0000 </r>
       <r>    5.4803    1.0000 </r>
       <r>    5.4804    1.0000 </r>
       <r>    5.4808    1.0000 </r>
       <r>    6.8649    0.0000 </r>
       <r>    6.8656    0.0000 </r>
       <r>    6.8662    0.0000 </r>
       <r>    6.8664    0.0000 </r>
       <r>    7.6295    0.0000 </r>
       <r>    7.6301    0.0000 </r>
       <r>    7.6312    0.0000 </r>
       <r>    7.6315    0.0000 </r>
       <r>    7.6318    0.0000 </r>
       <r>    7.6321    0.0000 </r>
       <r>    7.6331    0.0000 </r>
       <r>    7.6336    0.0000 </r>
       <r>    7.9391    0.0000 </r>
       <r>    7.9393    0.0000 </r>
       <r>    7.9397    0.0000 </r>
       <r>    7.9399    0.0000 </r>
       <r>    7.9400    0.0000 </r>
       <r>    7.9402    0.0000 </r>
       <r>    7.9408    0.0000 </r>
       <r>    7.9409    0.0000 </r>
       <r>    8.3139    0.0000 </r>
       <r>    8.3141    0.0000 </r>
       <r>    8.3149    0.0000 </r>
       <r>    8.3151    0.0000 </r>
       <r>    8.3152    0.0000 </r>
       <r>    8.3157    0.0000 </r>
       <r>    8.3161    0.0000 </r>
       <r>    8.3163    0.0000 </r>
       <r>    8.7644    0.0000 </r>
       <r>    8.7659    0.0000 </r>
       <r>    8.7676    0.0000 </r>
       <r>    8.7690    0.0000 </r>
       <r>    8.7712    0.0000 </r>
       <r>    8.7721    0.0000 </r>
       <r>    8.7732    0.0000 </r>
       <r>    8.7788    0.0000 </r>
       <r>    8.7826    0.0000 </r>
       <r>    8.7900    0.0000 </r>
       <r>    8.7997    0.0000 </r>
       <r>    8.8127    0.0000 </r>
      </set>
      <set comment="kpoint 6">
       <r>   -5.6652    1.0000 </r>
       <r>   -5.6642    1.0000 </r>
       <r>   -5.6636    1.0000 </r>
       <r>   -5.6627    1.0000 </r>
       <r>   -4.6482    1.0000 </r>
       <r>   -4.6455    1.0000 </r>
       <r>   -4.6443    1.0000 </r>
       <r>   -4.6441    1.0000 </r>
       <r>   -4.6439    1.0000 </r>
       <r>   -4.6436    1.0000 </r>
       <r>   -4.6423    1.0000 </r>
       <r>   -4.6414    1.0000 </r>
       <r>   -3.6087    1.0000 </r>
       <r>   -3.6065    1.0000 </r>
       <r>   -3.6057    1.0000 </r>
       <r>   -3.6055    1.0000 </r>
       <r>   -3.6054    1.0000 </r>
       <r>   -3.6047    1.0000 </r>
       <r>   -3.6043    1.0000 </r>
       <r>   -3.6022    1.0000 </r>
       <r>   -3.3248    1.0000 </r>
       <r>   -3.3229    1.0000 </r>
       <r>   -3.3219    1.0000 </r>
       <r>   -3.3218    1.0000 </r>
       <r>   -3.3216    1.0000 </r>
       <r>   -3.3210    1.0000 </r>
       <r>   -3.3203    1.0000 </r>
       <r>   -3.3187    1.0000 </r>
       <r>   -2.4618    1.0000 </r>
       <r>   -2.4606    1.0000 </r>
       <r>   -2.4589    1.0000 </r>
       <r>   -2.4577    1.0000 </r>
       <r>   -1.4646    1.0000 </r>
       <r>   -1.4627    1.0000 </r>
       <r>   -1.4626    1.0000 </r>
       <r>   -1.4607    1.0000 </r>
       <r>   -1.0410    1.0000 </r>
       <r>   -1.0405    1.0000 </r>
       <r>   -1.0398    1.0000 </r>
       <r>   -1.0386    1.0000 </r>
       <r>   -1.0382    1.0000 </r>
       <r>   -1.0379    1.0000 </r>
       <r>   -1.0366    1.0000 </r>
       <r>   -1.0341    1.0000 </r>
       <r>   -0.1981    1.0000 </r>
       <r>   -0.1975    1.0000 </r>
       <r>   -0.1966    1.0000 </r>
       <r>   -0.1954    1.0000 </r>
       <r>   -0.1953    1.0000 </r>
       <r>   -0.1946    1.0000 </r>
       <r>   -0.1933    1.0000 </r>
       <r>   -0.1912    1.0000 </r>
       <r>    0.4623    1.0000 </r>
       <r>    0.4631    1.0000 </r>
       <r>    0.4643    1.0000 </r>
       <r>    0.4649    1.0000 </r>
       <r>    0.4650    1.0000 </r>
       <r>    0.4653    1.0000 </r>
       <r>    0.4671    1.0000 </r>
       <r>    0.4678    1.0000 </r>
       <r>    1.4160    1.0000 </r>
       <r>    1.4168    1.0000 </r>
       <r>    1.4172    1.0000 </r>
       <r>    1.4180    1.0000 </r>
       <r>    2.2847    1.0000 </r>
       <r>    2.2857    1.0000 </r>
       <r>    2.2867    1.0000 </r>
       <r>    2.2869    1.0000 </r>
       <r>    2.2876    1.0000 </r>
       <r>    2.2879    1.0000 </r>
       <r>    2.2891    1.0000 </r>
       <r>    2.2897    1.0000 </r>
       <r>    2.3709    1.0000 </r>
       <r>    2.3712    1.0000 </r>
       <r>    2.3716    1.0000 </r>
       <r>    2.3720    1.0000 </r>
       <r>    2.3721    1.0000 </r>
       <r>    2.3728    1.0000 </r>
       <r>    2.3732    1.0000 </r>
       <r>    2.3737    1.0000 </r>
       <r>    2.9815    1.0000 </r>
       <r>    2.9817    1.0000 </r>
       <r>    2.9826    1.0000 </r>
       <r>    2.9830    1.0000 </r>
       <r>    2.9832    1.0000 </r>
       <r>    2.9836    1.0000 </r>
       <r>    2.9849    1.0000 </r>
       <r>    2.9851    1.0000 </r>
       <r>    3.0750    1.0000 </r>
       <r>    3.0763    1.0000 </r>
       <r>    3.0772    1.0000 </r>
       <r>    3.0785    1.0000 </r>
       <r>    3.3299    1.0000 </r>
       <r>    3.3310    1.0000 </r>
       <r>    3.3318    1.0000 </r>
       <r>    3.3329    1.0000 </r>
       <r>    3.5895    1.0000 </r>
       <r>    3.5897    1.0000 </r>
       <r>    3.5904    1.0000 </r>
       <r>    3.5908    1.0000 </r>
       <r>    3.5913    1.0000 </r>
       <r>    3.5914    1.0000 </r>
       <r>    3.5923    1.0000 </r>
       <r>    3.5935    1.0000 </r>
       <r>    3.9153    1.0000 </r>
       <r>    3.9168    1.0000 </r>
[...]
      </set>
     </set>
    </set>
   </array>
  </eigenvalues>
  <separator name="orbital magnetization" >
   <v name="MAGDIPOLOUT">      0.00000000      0.00000000      0.00000000</v>
  </separator>
  <dos>
   <i name="efermi">      5.89316276 </i>
   <total>
    <array>
     <dimension dim="1">gridpoints</dimension>
     <dimension dim="2">spin</dimension>
     <field>energy</field>
     <field>total</field>
     <field>integrated</field>
     <set>
      <set comment="spin 1">
       <r>    -6.9819     0.0000     0.0000 </r>
       <r>    -6.9250     0.0000     0.0000 </r>
       <r>    -6.8681     0.0000     0.0000 </r>
       <r>    -6.8111     0.0000     0.0000 </r>
       <r>    -6.7542     0.0000     0.0000 </r>
       <r>    -6.6973     0.0000     0.0000 </r>
       <r>    -6.6403     0.0000     0.0000 </r>
       <r>    -6.5834     0.0000     0.0000 </r>
       <r>    -6.5264     0.0000     0.0000 </r>
       <r>    -6.4695     0.0000     0.0000 </r>
       <r>    -6.4126     0.0000     0.0000 </r>
       <r>    -6.3556     0.0000     0.0000 </r>
       <r>    -6.2987     0.0000     0.0000 </r>
       <r>    -6.2417     0.0228     0.0013 </r>
       <r>    -6.1848     4.0536     0.2321 </r>
       <r>    -6.1279     0.3143     0.2500 </r>
       <r>    -6.0709     0.0000     0.2500 </r>
       <r>    -6.0140     0.0000     0.2500 </r>
       <r>    -5.9571     1.0133     0.3077 </r>
       <r>    -5.9001    25.0125     1.7319 </r>
       <r>    -5.8432     0.3186     1.7500 </r>
       <r>    -5.7862     0.0000     1.7500 </r>
       <r>    -5.7293     0.0001     1.7500 </r>
       <r>    -5.6724    14.5162     2.5765 </r>
       <r>    -5.6154    38.1561     4.7491 </r>
       <r>    -5.5585     0.0164     4.7500 </r>
       <r>    -5.5016     0.0000     4.7500 </r>
       <r>    -5.4446     0.0717     4.7541 </r>
       <r>    -5.3877    30.5036     6.4909 </r>
       <r>    -5.3307     4.5506     6.7500 </r>
       <r>    -5.2738     0.0000     6.7500 </r>
       <r>    -5.2169     0.0000     6.7500 </r>
       <r>    -5.1599     0.0861     6.7549 </r>
       <r>    -5.1030    23.6449     8.1012 </r>
       <r>    -5.0461     2.6135     8.2500 </r>
       <r>    -4.9891     0.0000     8.2500 </r>
       <r>    -4.9322     0.0016     8.2501 </r>
       <r>    -4.8752    45.3576    10.8327 </r>
       <r>    -4.8183    60.0114    14.2496 </r>
       <r>    -4.7614     0.0072    14.2500 </r>
       <r>    -4.7044     0.0012    14.2501 </r>
       <r>    -4.6475    42.8958    16.6925 </r>
       <r>    -4.5905    62.4720    20.2495 </r>
       <r>    -4.5336     0.0088    20.2500 </r>
       <r>    -4.4767     0.0000    20.2500 </r>
       <r>    -4.4197     0.0000    20.2500 </r>
       <r>    -4.3628     0.0000    20.2500 </r>
       <r>    -4.3059     0.0000    20.2500 </r>
       <r>    -4.2489     0.0000    20.2500 </r>
       <r>    -4.1920     0.2607    20.2648 </r>
       <r>    -4.1350    48.1445    23.0061 </r>
       <r>    -4.0781     4.2891    23.2503 </r>
       <r>    -4.0212    57.2190    26.5082 </r>
       <r>    -3.9642    48.1512    29.2499 </r>
       <r>    -3.9073     0.0111    29.2505 </r>
       <r>    -3.8504    13.4591    30.0168 </r>
       <r>    -3.7934    25.3322    31.4592 </r>
       <r>    -3.7365     5.1071    31.7500 </r>
       <r>    -3.6795     0.0000    31.7500 </r>
       <r>    -3.6226    11.9801    32.4321 </r>
       <r>    -3.5657    93.1138    37.7338 </r>
       <r>    -3.5087     2.0349    37.8497 </r>
       <r>    -3.4518    99.7359    43.5285 </r>
       <r>    -3.3948     3.8908    43.7500 </r>
       <r>    -3.3379    13.3364    44.5093 </r>
       <r>    -3.2810    91.8133    49.7370 </r>
       <r>    -3.2240     0.2280    49.7500 </r>
       <r>    -3.1671     0.0000    49.7500 </r>
       <r>    -3.1102     0.9522    49.8042 </r>
       <r>    -3.0532    98.9081    55.4358 </r>
       <r>    -2.9963     5.5175    55.7500 </r>
       <r>    -2.9393     0.0000    55.7500 </r>
       <r>    -2.8824     0.0000    55.7500 </r>
       <r>    -2.8255     0.0000    55.7500 </r>
       <r>    -2.7685     0.0000    55.7500 </r>
       <r>    -2.7116     0.0000    55.7500 </r>
       <r>    -2.6547     0.0000    55.7500 </r>
       <r>    -2.5977     0.0000    55.7500 </r>
       <r>    -2.5408     0.0000    55.7500 </r>
       <r>    -2.4838     2.3806    55.8855 </r>
       <r>    -2.4269    49.7593    58.7187 </r>
       <r>    -2.3700     0.5490    58.7500 </r>
       <r>    -2.3130     0.0000    58.7500 </r>
       <r>    -2.2561     0.0000    58.7500 </r>
       <r>    -2.1992     0.0000    58.7500 </r>
       <r>    -2.1422     0.0000    58.7500 </r>
       <r>    -2.0853     0.2569    58.7646 </r>
       <r>    -2.0283    24.8073    60.1771 </r>
       <r>    -1.9714    54.1746    63.2617 </r>
       <r>    -1.9145    53.1983    66.2907 </r>
       <r>    -1.8575    49.8599    69.1296 </r>
       <r>    -1.8006     2.1141    69.2500 </r>
       <r>    -1.7436     0.0000    69.2500 </r>
       <r>    -1.6867     0.0000    69.2500 </r>
       <r>    -1.6298     0.0000    69.2500 </r>
       <r>    -1.5728     0.0000    69.2500 </r>
       <r>    -1.5159     0.0047    69.2503 </r>
       <r>    -1.4590    31.7792    71.0597 </r>
       <r>    -1.4020    20.9044    72.2500 </r>
       <r>    -1.3451     0.0005    72.2500 </r>
       <r>    -1.2881     0.0015    72.2501 </r>
       <r>    -1.2312    10.4823    72.8469 </r>
       <r>    -1.1743     7.0790    73.2500 </r>
       <r>    -1.1173     0.0002    73.2500 </r>
       <r>    -1.0604     6.4608    73.6179 </r>
       <r>    -1.0035    98.1461    79.2061 </r>
       <r>    -0.9465     0.7709    79.2500 </r>
       <r>    -0.8896     0.0000    79.2500 </r>
       <r>    -0.8326     2.0163    79.3648 </r>
       <r>    -0.7757   100.4050    85.0817 </r>
       <r>    -0.7188     2.9565    85.2500 </r>
       <r>    -0.6618     3.2273    85.4338 </r>
       <r>    -0.6049   196.0219    96.5949 </r>
       <r>    -0.5479    11.5063    97.2500 </r>
       <r>    -0.4910     0.0000    97.2500 </r>
       <r>    -0.4341     0.0000    97.2500 </r>
       <r>    -0.3771     0.0000    97.2500 </r>
       <r>    -0.3202     0.0000    97.2500 </r>
       <r>    -0.2633     0.0001    97.2500 </r>
       <r>    -0.2063    23.1076    98.5657 </r>
       <r>    -0.1494    82.1999   103.2460 </r>
       <r>    -0.0924     0.0702   103.2500 </r>
       <r>    -0.0355     0.0004   103.2500 </r>
       <r>     0.0214    11.8321   103.9237 </r>
       <r>     0.0784    14.5106   104.7499 </r>
       <r>     0.1353     0.0013   104.7500 </r>
       <r>     0.1922     0.0000   104.7500 </r>
       <r>     0.2492     0.5831   104.7832 </r>
       <r>     0.3061    49.6954   107.6128 </r>
       <r>     0.3631     2.4104   107.7500 </r>
       <r>     0.4200     0.0840   107.7548 </r>
       <r>     0.4769    84.1337   112.5452 </r>
       <r>     0.5339    21.1600   113.7500 </r>
       <r>     0.5908     0.0001   113.7500 </r>
       <r>     0.6477     0.0000   113.7500 </r>
       <r>     0.7047     0.0000   113.7500 </r>
       <r>     0.7616     0.0000   113.7500 </r>
       <r>     0.8186     0.0000   113.7500 </r>
       <r>     0.8755     0.0000   113.7500 </r>
       <r>     0.9324     0.0000   113.7500 </r>
       <r>     0.9894     0.0000   113.7500 </r>
       <r>     1.0463     0.0000   113.7500 </r>
       <r>     1.1033     0.0000   113.7500 </r>
       <r>     1.1602     0.0000   113.7500 </r>
       <r>     1.2171     0.0000   113.7500 </r>
       <r>     1.2741     0.0000   113.7500 </r>
       <r>     1.3310     0.0000   113.7500 </r>
       <r>     1.3879     1.0561   113.8101 </r>
       <r>     1.4449    52.4881   116.7987 </r>
       <r>     1.5018   177.8902   126.9274 </r>
       <r>     1.5588    32.0099   128.7500 </r>
       <r>     1.6157     0.0002   128.7500 </r>
       <r>     1.6726     0.0000   128.7500 </r>
       <r>     1.7296     0.0000   128.7500 </r>
       <r>     1.7865     0.1958   128.7611 </r>
       <r>     1.8434    33.7306   130.6817 </r>
       <r>     1.9004    52.8424   133.6904 </r>
       <r>     1.9573     7.9169   134.1412 </r>
       <r>     2.0143    45.7126   136.7440 </r>
       <r>     2.0712     0.1053   136.7500 </r>
       <r>     2.1281     0.0001   136.7500 </r>
       <r>     2.1851    18.6570   137.8123 </r>
       <r>     2.2420    93.3862   143.1295 </r>
       <r>     2.2990   112.7135   149.5472 </r>
       <r>     2.3559   130.4981   156.9775 </r>
       <r>     2.4128    92.3824   162.2376 </r>
       <r>     2.4698     0.2183   162.2500 </r>
       <r>     2.5267     0.0000   162.2500 </r>
       <r>     2.5836     0.0000   162.2500 </r>
       <r>     2.6406     0.0000   162.2500 </r>
       <r>     2.6975     0.0000   162.2500 </r>
       <r>     2.7545     0.0000   162.2500 </r>
       <r>     2.8114     0.0000   162.2500 </r>
       <r>     2.8683     0.2423   162.2638 </r>
       <r>     2.9253    24.8364   163.6779 </r>
       <r>     2.9822    51.1775   166.5919 </r>
       <r>     3.0391   144.6010   174.8252 </r>
       <r>     3.0961    64.3870   178.4912 </r>
       <r>     3.1530    73.0502   182.6506 </r>
       <r>     3.2100    89.5422   187.7489 </r>
       <r>     3.2669     9.7425   188.3036 </r>
       <r>     3.3238   110.8966   194.6179 </r>
       <r>     3.3808    37.4335   196.7493 </r>
       <r>     3.4377     0.0130   196.7500 </r>
       <r>     3.4946     0.0029   196.7502 </r>
       <r>     3.5516    50.4035   199.6200 </r>
       <r>     3.6085   148.7485   208.0895 </r>
       <r>     3.6655    11.6006   208.7500 </r>
       <r>     3.7224     0.0000   208.7500 </r>
       <r>     3.7793     0.0000   208.7500 </r>
       <r>     3.8363     0.8766   208.7999 </r>
       <r>     3.8932    54.3209   211.8928 </r>
       <r>     3.9502   101.5539   217.6751 </r>
       <r>     4.0071     1.3152   217.7500 </r>
       <r>     4.0640     0.0032   217.7502 </r>
       <r>     4.1210    30.0972   219.4639 </r>
       <r>     4.1779    86.2346   224.3739 </r>
       <r>     4.2348    41.7306   226.7499 </r>
       <r>     4.2918     0.2636   226.7649 </r>
       <r>     4.3487    92.7146   232.0439 </r>
       <r>     4.4057    13.8650   232.8334 </r>
       <r>     4.4626    75.5311   237.1340 </r>
       <r>     4.5195    97.2716   242.6724 </r>
       <r>     4.5765    33.9712   244.6067 </r>
       <r>     4.6334    11.2988   245.2500 </r>
       <r>     4.6903     0.0001   245.2500 </r>
       <r>     4.7473     0.0000   245.2500 </r>
       <r>     4.8042     0.0000   245.2500 </r>
       <r>     4.8612     0.0000   245.2500 </r>
       <r>     4.9181     0.2372   245.2635 </r>
       <r>     4.9750    49.0066   248.0538 </r>
       <r>     5.0320    70.4150   252.0631 </r>
       <r>     5.0889     3.2819   252.2500 </r>
       <r>     5.1459     0.0000   252.2500 </r>
       <r>     5.2028     0.0000   252.2500 </r>
       <r>     5.2597     0.0000   252.2500 </r>
       <r>     5.3167     0.0000   252.2500 </r>
       <r>     5.3736     0.0000   252.2500 </r>
       <r>     5.4305     0.0129   252.2507 </r>
       <r>     5.4875    36.5654   254.3327 </r>
       <r>     5.5444    16.1104   255.2500 </r>
       <r>     5.6014     0.0002   255.2500 </r>
       <r>     5.6583     0.0000   255.2500 </r>
       <r>     5.7152     0.0004   255.2500 </r>
       <r>     5.7722     6.6619   255.6293 </r>
       <r>     5.8291     6.5095   256.0000 </r>
       <r>     5.8860     0.0004   256.0000 </r>
       <r>     5.9430     0.0000   256.0000 </r>
       <r>     5.9999     0.0000   256.0000 </r>
       <r>     6.0569     0.0000   256.0000 </r>
       <r>     6.1138     0.0000   256.0000 </r>
       <r>     6.1707     0.0000   256.0000 </r>
       <r>     6.2277     0.0031   256.0002 </r>
       <r>     6.2846    16.7301   256.9528 </r>
       <r>     6.3415    10.7747   257.5662 </r>
       <r>     6.3985    24.9009   258.9840 </r>
       <r>     6.4554     0.2801   259.0000 </r>
       <r>     6.5124     0.0000   259.0000 </r>
       <r>     6.5693     0.0000   259.0000 </r>
       <r>     6.6262     0.0000   259.0000 </r>
       <r>     6.6832     0.0000   259.0000 </r>
       <r>     6.7401     0.0000   259.0000 </r>
       <r>     6.7971     5.7885   259.3296 </r>
       <r>     6.8540    31.2040   261.1063 </r>
       <r>     6.9109    42.0025   263.4978 </r>
       <r>     6.9679     0.0382   263.5000 </r>
       <r>     7.0248     0.0000   263.5000 </r>
       <r>     7.0817     0.0000   263.5000 </r>
       <r>     7.1387     0.0293   263.5017 </r>
       <r>     7.1956    86.4657   268.4249 </r>
       <r>     7.2526    61.5090   271.9271 </r>
       <r>     7.3095     1.2812   272.0000 </r>
       <r>     7.3664     0.0000   272.0000 </r>
       <r>     7.4234     0.0000   272.0000 </r>
       <r>     7.4803     0.0000   272.0000 </r>
       <r>     7.5372     0.0000   272.0000 </r>
       <r>     7.5942     0.4624   272.0263 </r>
       <r>     7.6511   163.9100   281.3590 </r>
       <r>     7.7081    58.6835   284.7004 </r>
       <r>     7.7650    49.0554   287.4935 </r>
       <r>     7.8219     0.1146   287.5000 </r>
       <r>     7.8789     0.0009   287.5001 </r>
       <r>     7.9358    40.4935   289.8057 </r>
       <r>     7.9928    64.8726   293.4994 </r>
       <r>     8.0497    25.3570   294.9432 </r>
       <r>     8.1066    81.0516   299.5581 </r>
       <r>     8.1636   144.1805   307.7674 </r>
       <r>     8.2205    12.8660   308.5000 </r>
       <r>     8.2774     3.1641   308.6802 </r>
       <r>     8.3344   106.0997   314.7213 </r>
       <r>     8.3913     9.2861   315.2500 </r>
       <r>     8.4483     0.0000   315.2500 </r>
       <r>     8.5052     0.0422   315.2524 </r>
       <r>     8.5621    78.4173   319.7173 </r>
       <r>     8.6191    26.9181   321.2500 </r>
       <r>     8.6760     0.0002   321.2500 </r>
       <r>     8.7329     0.5829   321.2832 </r>
       <r>     8.7899   121.4181   328.1965 </r>
       <r>     8.8468    62.2514   331.7410 </r>
       <r>     8.9038     0.1586   331.7500 </r>
       <r>     8.9607     0.0000   331.7500 </r>
       <r>     9.0176     0.1276   331.7573 </r>
       <r>     9.0746    12.3971   332.4631 </r>
       <r>     9.1315     0.6475   332.5000 </r>
       <r>     9.1884     0.0521   332.5030 </r>
       <r>     9.2454    29.6843   334.1931 </r>
       <r>     9.3023     7.7177   334.6326 </r>
       <r>     9.3593    23.9141   335.9942 </r>
       <r>     9.4162     0.1022   336.0000 </r>
       <r>     9.4731     0.0000   336.0000 </r>
       <r>     9.5301     0.0000   336.0000 </r>
       <r>     9.5870     0.0000   336.0000 </r>
       <r>     9.6440     0.0000   336.0000 </r>
       <r>     9.7009     0.0000   336.0000 </r>
       <r>     9.7578     0.0000   336.0000 </r>
       <r>     9.8148     0.0000   336.0000 </r>
       <r>     9.8717     0.0000   336.0000 </r>
       <r>     9.9286     0.0000   336.0000 </r>
       <r>     9.9856     0.0000   336.0000 </r>
       <r>    10.0425     0.0000   336.0000 </r>
       <r>    10.0995     0.0000   336.0000 </r>
      </set>
     </set>
    </array>
   </total>
  </dos>
 </calculation>
 <structure name="finalpos" >
  <crystal>
   <varray name="basis" >
    <v>      10.86914512      -0.00000000      -0.00000000 </v>
    <v>      -0.00000000      10.86914512       0.00000000 </v>
    <v>       0.00000000       0.00000000      10.86914512 </v>
   </varray>
   <i name="volume">   1284.06249692 </i>
   <varray name="rec_basis" >
    <v>       0.09200356       0.00000000      -0.00000000 </v>
    <v>       0.00000000       0.09200356      -0.00000000 </v>
    <v>       0.00000000      -0.00000000       0.09200356 </v>
   </varray>
  </crystal>
  <varray name="positions" >
   <v>       0.24907996       0.25000000       0.25000000 </v>
   <v>       0.75000000       0.25000000       0.25000000 </v>
   <v>       0.25000000       0.75000000       0.25000000 </v>
   <v>       0.75000000       0.75000000       0.25000000 </v>
   <v>       0.25000000       0.25000000       0.75000000 </v>
   <v>       0.75000000       0.25000000       0.75000000 </v>
   <v>       0.25000000       0.75000000       0.75000000 </v>
   <v>       0.75000000       0.75000000       0.75000000 </v>
   <v>       0.25000000       0.00092004       0.00000000 </v>
   <v>       0.75000000       0.00000000       0.00000000 </v>
   <v>       0.25000000       0.50000000       0.00000000 </v>
   <v>       0.75000000       0.50000000       0.00000000 </v>
   <v>       0.25000000       0.00000000       0.50000000 </v>
   <v>       0.75000000       0.00000000       0.50000000 </v>
   <v>       0.25000000       0.50000000       0.50000000 </v>
   <v>       0.75000000       0.50000000       0.50000000 </v>
   <v>       0.00000000       0.25000000       0.00000000 </v>
   <v>       0.50000000       0.25000000       0.00000000 </v>
   <v>       0.00000000       0.75000000       0.00000000 </v>
   <v>       0.50000000       0.75000000       0.00000000 </v>
   <v>       0.00000000       0.25000000       0.50000000 </v>
   <v>       0.50000000       0.25000000       0.50000000 </v>
   <v>       0.00000000       0.75000000       0.50000000 </v>
   <v>       0.50000000       0.75000000       0.50000000 </v>
   <v>       0.00000000       0.00000000       0.25000000 </v>
   <v>       0.50000000       0.00000000       0.25000000 </v>
   <v>       0.00000000       0.50000000       0.25000000 </v>
   <v>       0.50000000       0.50000000       0.25000000 </v>
   <v>       0.00000000       0.00000000       0.75000000 </v>
   <v>       0.50000000       0.00000000       0.75000000 </v>
   <v>       0.00000000       0.50000000       0.75000000 </v>
   <v>       0.50000000       0.50000000       0.75000000 </v>
   <v>       0.37500000       0.37500000       0.37500000 </v>
   <v>       0.87500000       0.37500000       0.37500000 </v>
   <v>       0.37500000       0.87500000       0.37500000 </v>
   <v>       0.87500000       0.87500000       0.37500000 </v>
   <v>       0.37500000       0.37500000       0.87500000 </v>
   <v>       0.87500000       0.37500000       0.87500000 </v>
   <v>       0.37500000       0.87500000       0.87500000 </v>
   <v>       0.87500000       0.87500000       0.87500000 </v>
   <v>       0.37500000       0.12500000       0.12500000 </v>
   <v>       0.87500000       0.12500000       0.12500000 </v>
   <v>       0.37500000       0.62500000       0.12500000 </v>
   <v>       0.87500000       0.62500000       0.12500000 </v>
   <v>       0.37500000       0.12500000       0.62500000 </v>
   <v>       0.87500000       0.12500000       0.62500000 </v>
   <v>       0.37500000       0.62500000       0.62500000 </v>
   <v>       0.87500000       0.62500000       0.62500000 </v>
   <v>       0.12500000       0.37500000       0.12500000 </v>
   <v>       0.62500000       0.37500000       0.12500000 </v>
   <v>       0.12500000       0.87500000       0.12500000 </v>
   <v>       0.62500000       0.87500000       0.12500000 </v>
   <v>       0.12500000       0.37500000       0.62500000 </v>
   <v>       0.62500000       0.37500000       0.62500000 </v>
   <v>       0.12500000       0.87500000       0.62500000 </v>
   <v>       0.62500000       0.87500000       0.62500000 </v>
   <v>       0.12500000       0.12500000       0.37500000 </v>
   <v>       0.62500000       0.12500000       0.37500000 </v>
   <v>       0.12500000       0.62500000       0.37500000 </v>
   <v>       0.62500000       0.62500000       0.37500000 </v>
   <v>       0.12500000       0.12500000       0.87500000 </v>
   <v>       0.62500000       0.12500000       0.87500000 </v>
   <v>       0.12500000       0.62500000       0.87500000 </v>
   <v>       0.62500000       0.62500000       0.87500000 </v>
  </varray>
 </structure>
</modeling>
