  64  64   0   0
  0.2197554E+02  0.1120400E-08  0.1120400E-08  0.1120400E-08  0.5000000E-15
  1.000000000000000E-004
  CAR 
 unknown system                          
     11.06144668    -22.84608182  301     -0.55188183      1.00000000
    -22.846  0.0000E+00  0.0000E+00
    -22.733  0.0000E+00  0.0000E+00
    -22.620  0.0000E+00  0.0000E+00
    -22.507  0.0000E+00  0.0000E+00
    -22.394  0.0000E+00  0.0000E+00
    -22.281  0.0000E+00  0.0000E+00
    -22.168  0.0000E+00  0.0000E+00
    -22.055  0.0000E+00  0.0000E+00
    -21.942  0.0000E+00  0.0000E+00
    -21.829  0.0000E+00  0.0000E+00
    -21.716  0.0000E+00  0.0000E+00
    -21.603  0.0000E+00  0.0000E+00
    -21.490  0.0000E+00  0.0000E+00
    -21.377  0.5313E-05  0.6005E-06
    -21.264  0.1437E+04  0.1624E+03
    -21.151  0.2618E+03  0.1920E+03
    -21.038  0.0000E+00  0.1920E+03
    -20.925  0.0000E+00  0.1920E+03
    -20.812  0.0000E+00  0.1920E+03
    -20.699  0.0000E+00  0.1920E+03
    -20.586  0.0000E+00  0.1920E+03
    -20.473  0.0000E+00  0.1920E+03
    -20.360  0.0000E+00  0.1920E+03
    -20.247  0.0000E+00  0.1920E+03
    -20.133  0.0000E+00  0.1920E+03
    -20.020  0.0000E+00  0.1920E+03
    -19.907  0.0000E+00  0.1920E+03
    -19.794  0.0000E+00  0.1920E+03
    -19.681  0.0000E+00  0.1920E+03
    -19.568  0.0000E+00  0.1920E+03
    -19.455  0.0000E+00  0.1920E+03
    -19.342  0.0000E+00  0.1920E+03
    -19.229  0.0000E+00  0.1920E+03
    -19.116  0.0000E+00  0.1920E+03
    -19.003  0.0000E+00  0.1920E+03
    -18.890  0.0000E+00  0.1920E+03
    -18.777  0.0000E+00  0.1920E+03
    -18.664  0.0000E+00  0.1920E+03
    -18.551  0.0000E+00  0.1920E+03
    -18.438  0.0000E+00  0.1920E+03
    -18.325  0.0000E+00  0.1920E+03
    -18.212  0.0000E+00  0.1920E+03
    -18.099  0.0000E+00  0.1920E+03
    -17.986  0.0000E+00  0.1920E+03
    -17.873  0.0000E+00  0.1920E+03
    -17.760  0.0000E+00  0.1920E+03
    -17.647  0.0000E+00  0.1920E+03
    -17.534  0.0000E+00  0.1920E+03
    -17.421  0.0000E+00  0.1920E+03
    -17.308  0.0000E+00  0.1920E+03
    -17.195  0.0000E+00  0.1920E+03
    -17.082  0.0000E+00  0.1920E+03
    -16.969  0.0000E+00  0.1920E+03
    -16.856  0.0000E+00  0.1920E+03
    -16.743  0.0000E+00  0.1920E+03
    -16.630  0.0000E+00  0.1920E+03
    -16.517  0.0000E+00  0.1920E+03
    -16.404  0.0000E+00  0.1920E+03
    -16.291  0.0000E+00  0.1920E+03
    -16.178  0.0000E+00  0.1920E+03
    -16.065  0.0000E+00  0.1920E+03
    -15.952  0.0000E+00  0.1920E+03
    -15.839  0.0000E+00  0.1920E+03
    -15.726  0.0000E+00  0.1920E+03
    -15.612  0.0000E+00  0.1920E+03
    -15.499  0.0000E+00  0.1920E+03
    -15.386  0.0000E+00  0.1920E+03
    -15.273  0.0000E+00  0.1920E+03
    -15.160  0.0000E+00  0.1920E+03
    -15.047  0.0000E+00  0.1920E+03
    -14.934  0.0000E+00  0.1920E+03
    -14.821  0.0000E+00  0.1920E+03
    -14.708  0.0000E+00  0.1920E+03
    -14.595  0.0000E+00  0.1920E+03
    -14.482  0.0000E+00  0.1920E+03
    -14.369  0.0000E+00  0.1920E+03
    -14.256  0.0000E+00  0.1920E+03
    -14.143  0.0000E+00  0.1920E+03
    -14.030  0.0000E+00  0.1920E+03
    -13.917  0.0000E+00  0.1920E+03
    -13.804  0.0000E+00  0.1920E+03
    -13.691  0.0000E+00  0.1920E+03
    -13.578  0.0000E+00  0.1920E+03
    -13.465  0.4727E-13  0.1920E+03
    -13.352  0.1482E+01  0.1922E+03
    -13.239  0.2237E+02  0.1947E+03
    -13.126  0.4783E+02  0.2001E+03
    -13.013  0.1338E+03  0.2152E+03
    -12.900  0.3583E+03  0.2557E+03
    -12.787  0.2437E+01  0.2560E+03
    -12.674  0.0000E+00  0.2560E+03
    -12.561  0.0000E+00  0.2560E+03
    -12.448  0.0000E+00  0.2560E+03
    -12.335  0.0000E+00  0.2560E+03
    -12.222  0.0000E+00  0.2560E+03
    -12.109  0.0000E+00  0.2560E+03
    -11.996  0.0000E+00  0.2560E+03
    -11.883  0.0000E+00  0.2560E+03
    -11.770  0.0000E+00  0.2560E+03
    -11.657  0.0000E+00  0.2560E+03
    -11.544  0.0000E+00  0.2560E+03
    -11.431  0.0000E+00  0.2560E+03
    -11.318  0.0000E+00  0.2560E+03
    -11.204  0.0000E+00  0.2560E+03
    -11.091  0.0000E+00  0.2560E+03
    -10.978  0.0000E+00  0.2560E+03
    -10.865  0.0000E+00  0.2560E+03
    -10.752  0.0000E+00  0.2560E+03
    -10.639  0.0000E+00  0.2560E+03
    -10.526  0.0000E+00  0.2560E+03
    -10.413  0.0000E+00  0.2560E+03
    -10.300  0.0000E+00  0.2560E+03
    -10.187  0.0000E+00  0.2560E+03
    -10.074  0.0000E+00  0.2560E+03
     -9.961  0.0000E+00  0.2560E+03
     -9.848  0.0000E+00  0.2560E+03
     -9.735  0.0000E+00  0.2560E+03
     -9.622  0.0000E+00  0.2560E+03
     -9.509  0.0000E+00  0.2560E+03
     -9.396  0.0000E+00  0.2560E+03
     -9.283  0.0000E+00  0.2560E+03
     -9.170  0.0000E+00  0.2560E+03
     -9.057  0.0000E+00  0.2560E+03
     -8.944  0.0000E+00  0.2560E+03
     -8.831  0.0000E+00  0.2560E+03
     -8.718  0.0000E+00  0.2560E+03
     -8.605  0.0000E+00  0.2560E+03
     -8.492  0.0000E+00  0.2560E+03
     -8.379  0.0000E+00  0.2560E+03
     -8.266  0.0000E+00  0.2560E+03
     -8.153  0.0000E+00  0.2560E+03
     -8.040  0.0000E+00  0.2560E+03
     -7.927  0.0000E+00  0.2560E+03
     -7.814  0.0000E+00  0.2560E+03
     -7.701  0.0000E+00  0.2560E+03
     -7.588  0.0000E+00  0.2560E+03
     -7.475  0.0000E+00  0.2560E+03
     -7.362  0.0000E+00  0.2560E+03
     -7.249  0.0000E+00  0.2560E+03
     -7.136  0.0000E+00  0.2560E+03
     -7.023  0.0000E+00  0.2560E+03
     -6.910  0.0000E+00  0.2560E+03
     -6.797  0.0000E+00  0.2560E+03
     -6.683  0.0000E+00  0.2560E+03
     -6.570  0.0000E+00  0.2560E+03
     -6.457  0.0000E+00  0.2560E+03
     -6.344  0.0000E+00  0.2560E+03
     -6.231  0.0000E+00  0.2560E+03
     -6.118  0.0000E+00  0.2560E+03
     -6.005  0.0000E+00  0.2560E+03
     -5.892  0.0000E+00  0.2560E+03
     -5.779  0.0000E+00  0.2560E+03
     -5.666  0.0000E+00  0.2560E+03
     -5.553  0.0000E+00  0.2560E+03
     -5.440  0.0000E+00  0.2560E+03
     -5.327  0.0000E+00  0.2560E+03
     -5.214  0.0000E+00  0.2560E+03
     -5.101  0.0000E+00  0.2560E+03
     -4.988  0.0000E+00  0.2560E+03
     -4.875  0.0000E+00  0.2560E+03
     -4.762  0.0000E+00  0.2560E+03
     -4.649  0.0000E+00  0.2560E+03
     -4.536  0.0000E+00  0.2560E+03
     -4.423  0.0000E+00  0.2560E+03
     -4.310  0.0000E+00  0.2560E+03
     -4.197  0.0000E+00  0.2560E+03
     -4.084  0.0000E+00  0.2560E+03
     -3.971  0.0000E+00  0.2560E+03
     -3.858  0.0000E+00  0.2560E+03
     -3.745  0.0000E+00  0.2560E+03
     -3.632  0.0000E+00  0.2560E+03
     -3.519  0.0000E+00  0.2560E+03
     -3.406  0.0000E+00  0.2560E+03
     -3.293  0.0000E+00  0.2560E+03
     -3.180  0.0000E+00  0.2560E+03
     -3.067  0.0000E+00  0.2560E+03
     -2.954  0.0000E+00  0.2560E+03
     -2.841  0.0000E+00  0.2560E+03
     -2.728  0.2274E+00  0.2560E+03
     -2.615  0.8620E+01  0.2570E+03
     -2.502  0.3078E+02  0.2605E+03
     -2.389  0.7968E+02  0.2695E+03
     -2.276  0.8604E+02  0.2792E+03
     -2.162  0.1526E+03  0.2965E+03
     -2.049  0.6892E+02  0.3043E+03
     -1.936  0.5856E+02  0.3109E+03
     -1.823  0.6623E+02  0.3184E+03
     -1.710  0.6542E+02  0.3257E+03
     -1.597  0.1219E-08  0.3258E+03
     -1.484  0.8664E+02  0.3355E+03
     -1.371  0.1844E+03  0.3564E+03
     -1.258  0.2172E+02  0.3588E+03
     -1.145  0.2608E+03  0.3883E+03
     -1.032  0.1323E+03  0.4033E+03
     -0.919  0.2619E+03  0.4329E+03
     -0.806  0.6002E+02  0.4397E+03
     -0.693  0.6736E+02  0.4473E+03
     -0.580  0.6503E+01  0.4480E+03
     -0.467  0.0000E+00  0.4480E+03
     -0.354  0.0000E+00  0.4480E+03
     -0.241  0.0000E+00  0.4480E+03
     -0.128  0.0000E+00  0.4480E+03
     -0.015  0.0000E+00  0.4480E+03
      0.098  0.0000E+00  0.4480E+03
      0.211  0.0000E+00  0.4480E+03
      0.324  0.0000E+00  0.4480E+03
      0.437  0.0000E+00  0.4480E+03
      0.550  0.0000E+00  0.4480E+03
      0.663  0.0000E+00  0.4480E+03
      0.776  0.0000E+00  0.4480E+03
      0.889  0.0000E+00  0.4480E+03
      1.002  0.0000E+00  0.4480E+03
      1.115  0.0000E+00  0.4480E+03
      1.228  0.0000E+00  0.4480E+03
      1.341  0.0000E+00  0.4480E+03
      1.454  0.0000E+00  0.4480E+03
      1.567  0.0000E+00  0.4480E+03
      1.680  0.0000E+00  0.4480E+03
      1.793  0.0000E+00  0.4480E+03
      1.906  0.0000E+00  0.4480E+03
      2.019  0.0000E+00  0.4480E+03
      2.132  0.0000E+00  0.4480E+03
      2.245  0.0000E+00  0.4480E+03
      2.359  0.0000E+00  0.4480E+03
      2.472  0.0000E+00  0.4480E+03
      2.585  0.0000E+00  0.4480E+03
      2.698  0.0000E+00  0.4480E+03
      2.811  0.0000E+00  0.4480E+03
      2.924  0.0000E+00  0.4480E+03
      3.037  0.0000E+00  0.4480E+03
      3.150  0.0000E+00  0.4480E+03
      3.263  0.0000E+00  0.4480E+03
      3.376  0.0000E+00  0.4480E+03
      3.489  0.0000E+00  0.4480E+03
      3.602  0.0000E+00  0.4480E+03
      3.715  0.0000E+00  0.4480E+03
      3.828  0.0000E+00  0.4480E+03
      3.941  0.0000E+00  0.4480E+03
      4.054  0.0000E+00  0.4480E+03
      4.167  0.0000E+00  0.4480E+03
      4.280  0.2172E-04  0.4480E+03
      4.393  0.2212E+01  0.4482E+03
      4.506  0.0000E+00  0.4482E+03
      4.619  0.0000E+00  0.4482E+03
      4.732  0.0000E+00  0.4482E+03
      4.845  0.0000E+00  0.4482E+03
      4.958  0.4111E-04  0.4483E+03
      5.071  0.1327E+02  0.4497E+03
      5.184  0.1217E-02  0.4498E+03
      5.297  0.0000E+00  0.4498E+03
      5.410  0.0000E+00  0.4498E+03
      5.523  0.3409E+01  0.4501E+03
      5.636  0.2313E+02  0.4527E+03
      5.749  0.1283E-06  0.4528E+03
      5.862  0.1740E+02  0.4547E+03
      5.975  0.2980E+00  0.4548E+03
      6.088  0.0000E+00  0.4548E+03
      6.201  0.0000E+00  0.4548E+03
      6.314  0.1125E-02  0.4548E+03
      6.427  0.1426E+02  0.4564E+03
      6.540  0.7858E+01  0.4573E+03
      6.653  0.4472E+02  0.4623E+03
      6.766  0.6143E+02  0.4692E+03
      6.880  0.5944E+02  0.4760E+03
      6.993  0.1270E+02  0.4774E+03
      7.106  0.8644E+00  0.4775E+03
      7.219  0.5290E+01  0.4781E+03
      7.332  0.1748E+01  0.4783E+03
      7.445  0.8202E+02  0.4876E+03
      7.558  0.1680E+03  0.5065E+03
      7.671  0.1804E+01  0.5068E+03
      7.784  0.2651E+02  0.5097E+03
      7.897  0.2991E+00  0.5098E+03
      8.010  0.5279E+02  0.5157E+03
      8.123  0.8892E-02  0.5158E+03
      8.236  0.1426E+02  0.5174E+03
      8.349  0.9190E+02  0.5277E+03
      8.462  0.5573E-05  0.5278E+03
      8.575  0.1525E+03  0.5450E+03
      8.688  0.6728E+01  0.5458E+03
      8.801  0.1635E-05  0.5458E+03
      8.914  0.8447E+02  0.5553E+03
      9.027  0.1230E+03  0.5692E+03
      9.140  0.2691E+01  0.5695E+03
      9.253  0.2524E+02  0.5724E+03
      9.366  0.1899E+02  0.5745E+03
      9.479  0.1642E+01  0.5747E+03
      9.592  0.1163E+02  0.5760E+03
      9.705  0.0000E+00  0.5760E+03
      9.818  0.0000E+00  0.5760E+03
      9.931  0.0000E+00  0.5760E+03
     10.044  0.0000E+00  0.5760E+03
     10.157  0.0000E+00  0.5760E+03
     10.270  0.0000E+00  0.5760E+03
     10.383  0.0000E+00  0.5760E+03
     10.496  0.0000E+00  0.5760E+03
     10.609  0.0000E+00  0.5760E+03
     10.722  0.0000E+00  0.5760E+03
     10.835  0.0000E+00  0.5760E+03
     10.948  0.0000E+00  0.5760E+03
     11.061  0.0000E+00  0.5760E+03
