       N       E                     dE             d eps       ncg     rms          rms(c)
DAV:   1     0.432221760472E+04    0.43222E+04   -0.17164E+05  4608   0.125E+03
DAV:   2     0.363796363633E+03   -0.39584E+04   -0.37661E+04  5120   0.368E+02
DAV:   3    -0.206192067996E+03   -0.56999E+03   -0.56574E+03  5600   0.156E+02
DAV:   4    -0.228192454569E+03   -0.22000E+02   -0.21899E+02  5536   0.331E+01
DAV:   5    -0.229002926398E+03   -0.81047E+00   -0.80901E+00  5632   0.616E+00    0.106E+01
DAV:   6    -0.224139653289E+03    0.48633E+01   -0.94600E+00  5696   0.528E+00    0.775E+00
DAV:   7    -0.223777587339E+03    0.36207E+00   -0.20721E+00  6272   0.235E+00    0.533E+00
DAV:   8    -0.223902865588E+03   -0.12528E+00   -0.26653E-01  5376   0.123E+00    0.142E+00
DAV:   9    -0.223897253487E+03    0.56121E-02   -0.11354E-02  5696   0.257E-01    0.601E-01
DAV:  10    -0.223901587311E+03   -0.43338E-02   -0.18798E-02  5408   0.224E-01    0.296E-01
DAV:  11    -0.223900808001E+03    0.77931E-03   -0.17668E-03  5760   0.815E-02    0.813E-02
DAV:  12    -0.223900772017E+03    0.35983E-04   -0.16392E-04  5856   0.232E-02    0.931E-03
DAV:  13    -0.223900779076E+03   -0.70591E-05   -0.12043E-05  5504   0.624E-03    0.227E-03
DAV:  14    -0.223900778681E+03    0.39546E-06   -0.12167E-06  6208   0.229E-03    0.842E-03
DAV:  15    -0.223900779920E+03   -0.12388E-05   -0.61093E-07  4768   0.137E-03    0.214E-03
DAV:  16    -0.223900780353E+03   -0.43338E-06   -0.64951E-08  5344   0.629E-04    0.324E-04
DAV:  17    -0.223900780286E+03    0.67506E-07   -0.53178E-09  3360   0.395E-04    0.129E-04
DAV:  18    -0.223900780293E+03   -0.73851E-08   -0.25523E-09  3488   0.261E-04
   1 F= -.22390078E+03 E0= -.22390078E+03  d E =-.607869E-16
