<?xml version="1.0" encoding="ISO-8859-1"?>
<modeling>
 <generator>
  <i name="program" type="string">vasp </i>
  <i name="version" type="string">6.3.2  </i>
  <i name="subversion" type="string">27Jun22 (build Oct 14 2022 12:13:54) complex                          parallel </i>
  <i name="platform" type="string">LinuxIFC </i>
  <i name="date" type="string">2025 08 28 </i>
  <i name="time" type="string">21:57:05 </i>
 </generator>
 <incar>
  <i type="string" name="PREC">Accurate</i>
  <i type="int" name="IALGO">    38</i>
  <i type="logical" name="ADDGRID"> T  </i>
  <i type="int" name="NELMIN">     5</i>
  <i type="int" name="IBRION">    -1</i>
  <i name="EDIFF">      0.00000001</i>
  <i name="ENCUT">    341.21360000</i>
  <i type="logical" name="LREAL"> F  </i>
  <i type="int" name="ISMEAR">     0</i>
  <i name="SIGMA">      0.02000000</i>
  <i type="logical" name="LWAVE"> F  </i>
  <i type="logical" name="LCHARG"> F  </i>
  <i type="string" name="GGA">PS</i>
 </incar>
 <primitive_cell>
  <structure name="primitive_cell" >
   <crystal>
    <varray name="basis" >
     <v>      11.20400236       0.00000000       0.00000000 </v>
     <v>       0.00000000      11.20400236       0.00000000 </v>
     <v>       0.00000000       0.00000000      11.20400236 </v>
    </varray>
    <i name="volume">   1406.43470641 </i>
    <varray name="rec_basis" >
     <v>       0.08925382       0.00000000       0.00000000 </v>
     <v>       0.00000000       0.08925382       0.00000000 </v>
     <v>       0.00000000       0.00000000       0.08925382 </v>
    </varray>
   </crystal>
   <varray name="positions" >
    <v>       0.00267761       0.00000000       0.00000000 </v>
    <v>       0.24732239       0.25000000       0.00000000 </v>
    <v>       0.25000000       0.00000000       0.25000000 </v>
    <v>       0.00000000       0.25000000       0.25000000 </v>
    <v>       0.00000000       0.00000000       0.50000000 </v>
    <v>       0.25000000       0.25000000       0.50000000 </v>
    <v>       0.25000000       0.00000000       0.75000000 </v>
    <v>       0.00000000       0.25000000       0.75000000 </v>
    <v>       0.00000000       0.50000000       0.00000000 </v>
    <v>       0.25000000       0.75000000       0.00000000 </v>
    <v>       0.25000000       0.50000000       0.25000000 </v>
    <v>       0.00000000       0.75000000       0.25000000 </v>
    <v>       0.00000000       0.50000000       0.50000000 </v>
    <v>       0.25000000       0.75000000       0.50000000 </v>
    <v>       0.25000000       0.50000000       0.75000000 </v>
    <v>       0.00000000       0.75000000       0.75000000 </v>
    <v>       0.50000000       0.00000000       0.00000000 </v>
    <v>       0.75000000       0.25000000       0.00000000 </v>
    <v>       0.75000000       0.00000000       0.25000000 </v>
    <v>       0.50000000       0.25000000       0.25000000 </v>
    <v>       0.50000000       0.00000000       0.50000000 </v>
    <v>       0.75000000       0.25000000       0.50000000 </v>
    <v>       0.75000000       0.00000000       0.75000000 </v>
    <v>       0.50000000       0.25000000       0.75000000 </v>
    <v>       0.50000000       0.50000000       0.00000000 </v>
    <v>       0.75000000       0.75000000       0.00000000 </v>
    <v>       0.75000000       0.50000000       0.25000000 </v>
    <v>       0.50000000       0.75000000       0.25000000 </v>
    <v>       0.50000000       0.50000000       0.50000000 </v>
    <v>       0.75000000       0.75000000       0.50000000 </v>
    <v>       0.75000000       0.50000000       0.75000000 </v>
    <v>       0.50000000       0.75000000       0.75000000 </v>
    <v>       0.25000000       0.25000000       0.25000000 </v>
    <v>       0.00000000       0.00000000       0.25000000 </v>
    <v>       0.00000000       0.25000000       0.00000000 </v>
    <v>       0.25000000       0.00000000       0.00000000 </v>
    <v>       0.25000000       0.25000000       0.75000000 </v>
    <v>       0.00000000       0.00000000       0.75000000 </v>
    <v>       0.00000000       0.25000000       0.50000000 </v>
    <v>       0.25000000       0.00000000       0.50000000 </v>
    <v>       0.25000000       0.75000000       0.25000000 </v>
    <v>       0.00000000       0.50000000       0.25000000 </v>
    <v>       0.00000000       0.75000000       0.00000000 </v>
    <v>       0.25000000       0.50000000       0.00000000 </v>
    <v>       0.25000000       0.75000000       0.75000000 </v>
    <v>       0.00000000       0.50000000       0.75000000 </v>
    <v>       0.00000000       0.75000000       0.50000000 </v>
    <v>       0.25000000       0.50000000       0.50000000 </v>
    <v>       0.75000000       0.25000000       0.25000000 </v>
    <v>       0.50000000       0.00000000       0.25000000 </v>
    <v>       0.50000000       0.25000000       0.00000000 </v>
    <v>       0.75000000       0.00000000       0.00000000 </v>
    <v>       0.75000000       0.25000000       0.75000000 </v>
    <v>       0.50000000       0.00000000       0.75000000 </v>
    <v>       0.50000000       0.25000000       0.50000000 </v>
    <v>       0.75000000       0.00000000       0.50000000 </v>
    <v>       0.75000000       0.75000000       0.25000000 </v>
    <v>       0.50000000       0.50000000       0.25000000 </v>
    <v>       0.50000000       0.75000000       0.00000000 </v>
    <v>       0.75000000       0.50000000       0.00000000 </v>
    <v>       0.75000000       0.75000000       0.75000000 </v>
    <v>       0.50000000       0.50000000       0.75000000 </v>
    <v>       0.50000000       0.75000000       0.50000000 </v>
    <v>       0.75000000       0.50000000       0.50000000 </v>
   </varray>
  </structure>
  <varray name="primitive_index" >
   <v type="int" >        1 </v>
   <v type="int" >        2 </v>
   <v type="int" >        3 </v>
   <v type="int" >        4 </v>
   <v type="int" >        5 </v>
   <v type="int" >        6 </v>
   <v type="int" >        7 </v>
   <v type="int" >        8 </v>
   <v type="int" >        9 </v>
   <v type="int" >       10 </v>
   <v type="int" >       11 </v>
   <v type="int" >       12 </v>
   <v type="int" >       13 </v>
   <v type="int" >       14 </v>
   <v type="int" >       15 </v>
   <v type="int" >       16 </v>
   <v type="int" >       17 </v>
   <v type="int" >       18 </v>
   <v type="int" >       19 </v>
   <v type="int" >       20 </v>
   <v type="int" >       21 </v>
   <v type="int" >       22 </v>
   <v type="int" >       23 </v>
   <v type="int" >       24 </v>
   <v type="int" >       25 </v>
   <v type="int" >       26 </v>
   <v type="int" >       27 </v>
   <v type="int" >       28 </v>
   <v type="int" >       29 </v>
   <v type="int" >       30 </v>
   <v type="int" >       31 </v>
   <v type="int" >       32 </v>
   <v type="int" >       33 </v>
   <v type="int" >       34 </v>
   <v type="int" >       35 </v>
   <v type="int" >       36 </v>
   <v type="int" >       37 </v>
   <v type="int" >       38 </v>
   <v type="int" >       39 </v>
   <v type="int" >       40 </v>
   <v type="int" >       41 </v>
   <v type="int" >       42 </v>
   <v type="int" >       43 </v>
   <v type="int" >       44 </v>
   <v type="int" >       45 </v>
   <v type="int" >       46 </v>
   <v type="int" >       47 </v>
   <v type="int" >       48 </v>
   <v type="int" >       49 </v>
   <v type="int" >       50 </v>
   <v type="int" >       51 </v>
   <v type="int" >       52 </v>
   <v type="int" >       53 </v>
   <v type="int" >       54 </v>
   <v type="int" >       55 </v>
   <v type="int" >       56 </v>
   <v type="int" >       57 </v>
   <v type="int" >       58 </v>
   <v type="int" >       59 </v>
   <v type="int" >       60 </v>
   <v type="int" >       61 </v>
   <v type="int" >       62 </v>
   <v type="int" >       63 </v>
   <v type="int" >       64 </v>
  </varray>
 </primitive_cell>
 <kpoints>
  <generation param="Gamma">
   <v type="int" name="divisions">       2        2        2 </v>
   <v name="usershift">      0.00000000       0.00000000       0.00000000 </v>
   <v name="genvec1">      0.50000000       0.00000000       0.00000000 </v>
   <v name="genvec2">      0.00000000       0.50000000       0.00000000 </v>
   <v name="genvec3">      0.00000000       0.00000000       0.50000000 </v>
   <v name="shift">      0.00000000       0.00000000       0.00000000 </v>
  </generation>
  <varray name="kpointlist" >
   <v>       0.00000000       0.00000000       0.00000000 </v>
   <v>       0.50000000       0.00000000       0.00000000 </v>
   <v>       0.00000000       0.50000000       0.00000000 </v>
   <v>       0.00000000       0.00000000       0.50000000 </v>
   <v>       0.50000000       0.50000000       0.00000000 </v>
   <v>       0.00000000       0.50000000       0.50000000 </v>
   <v>       0.50000000       0.00000000       0.50000000 </v>
   <v>       0.50000000       0.50000000       0.50000000 </v>
  </varray>
  <varray name="weights" >
   <v>       0.12500000 </v>
   <v>       0.12500000 </v>
   <v>       0.12500000 </v>
   <v>       0.12500000 </v>
   <v>       0.12500000 </v>
   <v>       0.12500000 </v>
   <v>       0.12500000 </v>
   <v>       0.12500000 </v>
  </varray>
 </kpoints>
 <parameters>
  <separator name="general" >
   <i type="string" name="SYSTEM">unknown system</i>
   <i type="logical" name="LCOMPAT"> F  </i>
  </separator>
  <separator name="electronic" >
   <i type="string" name="PREC">accura</i>
   <i name="ENMAX">    341.21360000</i>
   <i name="ENAUG">    368.05600000</i>
   <i name="EDIFF">      0.00000001</i>
   <i type="int" name="IALGO">    38</i>
   <i type="int" name="IWAVPR">    10</i>
   <i type="int" name="NBANDS">   288</i>
   <i type="int" name="NBANDSLOW">    -1</i>
   <i type="int" name="NBANDSHIGH">    -1</i>
   <i name="NELECT">    448.00000000</i>
   <i type="int" name="TURBO">     0</i>
   <i type="int" name="IRESTART">     0</i>
   <i type="int" name="NREBOOT">     0</i>
   <i type="int" name="NMIN">     0</i>
   <i name="EREF">      0.00000000</i>
   <separator name="electronic smearing" >
    <i type="int" name="ISMEAR">     0</i>
    <i name="SIGMA">      0.02000000</i>
    <i name="KSPACING">      0.50000000</i>
    <i type="logical" name="KGAMMA"> T  </i>
    <i type="logical" name="KBLOWUP"> T  </i>
   </separator>
   <separator name="electronic projectors" >
    <i type="logical" name="LREAL"> F  </i>
    <v name="ROPT">      0.00000000      0.00000000</v>
    <i type="int" name="LMAXPAW">  -100</i>
    <i type="int" name="LMAXMIX">     2</i>
    <i type="logical" name="NLSPLINE"> F  </i>
   </separator>
   <separator name="electronic startup" >
    <i type="int" name="ISTART">     0</i>
    <i type="int" name="ICHARG">     2</i>
    <i type="int" name="INIWAV">     1</i>
   </separator>
   <separator name="electronic spin" >
    <i type="int" name="ISPIN">     1</i>
    <i type="logical" name="LNONCOLLINEAR"> F  </i>
    <v name="MAGMOM">      1.00000000      1.00000000      1.00000000      1.00000000      1.00000000      1.00000000      1.00000000      1.00000000      1.00000000      1.00000000      1.00000000      1.00000000      1.00000000      1.00000000      1.00000000      1.00000000      1.00000000      1.00000000      1.00000000      1.00000000
      1.00000000      1.00000000      1.00000000      1.00000000      1.00000000      1.00000000      1.00000000      1.00000000      1.00000000      1.00000000      1.00000000      1.00000000      1.00000000      1.00000000      1.00000000      1.00000000      1.00000000      1.00000000      1.00000000      1.00000000
      1.00000000      1.00000000      1.00000000      1.00000000      1.00000000      1.00000000      1.00000000      1.00000000      1.00000000      1.00000000      1.00000000      1.00000000      1.00000000      1.00000000      1.00000000      1.00000000      1.00000000      1.00000000      1.00000000      1.00000000
      1.00000000      1.00000000      1.00000000      1.00000000</v>
    <i name="NUPDOWN">     -1.00000000</i>
    <i type="logical" name="LSORBIT"> F  </i>
    <v name="SAXIS">      0.00000000      0.00000000      1.00000000</v>
    <i type="logical" name="LSPIRAL"> F  </i>
    <v name="QSPIRAL">      0.00000000      0.00000000      0.00000000</v>
    <i type="logical" name="LZEROZ"> F  </i>
   </separator>
   <separator name="electronic exchange-correlation" >
    <i type="logical" name="LASPH"> F  </i>
    <i type="logical" name="LMETAGGA"> F  </i>
   </separator>
   <separator name="electronic convergence" >
    <i type="int" name="NELM">    60</i>
    <i type="int" name="NELMDL">    -5</i>
    <i type="int" name="NELMIN">     5</i>
    <i name="ENINI">    341.21360000</i>
    <separator name="electronic convergence detail" >
     <i type="logical" name="LDIAG"> T  </i>
     <i type="logical" name="LSUBROT"> F  </i>
     <i name="WEIMIN">      0.00000000</i>
     <i name="EBREAK">      0.00000000</i>
     <i name="DEPER">      0.30000000</i>
     <i type="int" name="NRMM">     4</i>
     <i name="TIME">      0.40000000</i>
    </separator>
   </separator>
   <separator name="electronic mixer" >
    <i name="AMIX">      0.40000000</i>
    <i name="BMIX">      1.00000000</i>
    <i name="AMIN">      0.10000000</i>
    <i name="AMIX_MAG">      1.60000000</i>
    <i name="BMIX_MAG">      1.00000000</i>
    <separator name="electronic mixer details" >
     <i type="int" name="IMIX">     4</i>
     <i type="logical" name="MIXFIRST"> F  </i>
     <i type="int" name="MAXMIX">   -45</i>
     <i name="WC">    100.00000000</i>
     <i type="int" name="INIMIX">     1</i>
     <i type="int" name="MIXPRE">     1</i>
     <i type="int" name="MREMOVE">     5</i>
    </separator>
   </separator>
   <separator name="electronic dipolcorrection" >
    <i type="logical" name="LDIPOL"> F  </i>
    <i type="logical" name="LMONO"> F  </i>
    <i type="int" name="IDIPOL">     0</i>
    <i name="EPSILON">      1.00000000</i>
    <v name="DIPOL">   -100.00000000   -100.00000000   -100.00000000</v>
    <i name="EFIELD">      0.00000000</i>
   </separator>
  </separator>
  <separator name="grids" >
   <i type="int" name="NGX">    70</i>
   <i type="int" name="NGY">    70</i>
   <i type="int" name="NGZ">    70</i>
   <i type="int" name="NGXF">   140</i>
   <i type="int" name="NGYF">   140</i>
   <i type="int" name="NGZF">   140</i>
   <i type="logical" name="ADDGRID"> T  </i>
  </separator>
  <separator name="ionic" >
   <i type="int" name="NSW">     0</i>
   <i type="int" name="IBRION">    -1</i>
   <i type="int" name="MDALGO">     0</i>
   <i type="int" name="ISIF">     2</i>
   <i name="PSTRESS">      0.00000000</i>
   <i name="EDIFFG">      0.00000010</i>
   <i type="int" name="NFREE">     0</i>
   <i name="POTIM">      0.50000000</i>
   <i name="SMASS">     -3.00000000</i>
   <i name="SCALEE">      1.00000000</i>
  </separator>
  <separator name="ionic md" >
   <i name="TEBEG">      0.00010000</i>
   <i name="TEEND">      0.00010000</i>
   <i type="int" name="NBLOCK">     1</i>
   <i type="int" name="KBLOCK">     1</i>
   <i type="int" name="NPACO">   256</i>
   <i name="APACO">     10.00000000</i>
  </separator>
  <separator name="symmetry" >
   <i type="int" name="ISYM">     2</i>
   <i name="SYMPREC">      0.00001000</i>
  </separator>
  <separator name="dos" >
   <i type="int" name="LORBIT">     0</i>
   <v name="RWIGS">     -1.00000000     -1.00000000</v>
   <i type="int" name="NEDOS">   301</i>
   <i name="EMIN">     10.00000000</i>
   <i name="EMAX">    -10.00000000</i>
   <i name="EFERMI">      0.00000000</i>
  </separator>
  <separator name="writing" >
   <i type="int" name="NWRITE">     2</i>
   <i type="logical" name="LWAVE"> F  </i>
   <i type="logical" name="LDOWNSAMPLE"> F  </i>
   <i type="logical" name="LCHARG"> F  </i>
   <i type="logical" name="LPARD"> F  </i>
   <i type="logical" name="LVTOT"> F  </i>
   <i type="logical" name="LVHAR"> F  </i>
   <i type="logical" name="LELF"> F  </i>
   <i type="logical" name="LOPTICS"> F  </i>
   <v name="STM">      0.00000000      0.00000000      0.00000000      0.00000000      0.00000000      0.00000000      0.00000000</v>
  </separator>
  <separator name="performance" >
   <i type="int" name="NPAR">    32</i>
   <i type="int" name="NSIM">     4</i>
   <i type="int" name="NBLK">    -1</i>
   <i type="logical" name="LPLANE"> T  </i>
   <i type="logical" name="LSCALAPACK"> T  </i>
   <i type="logical" name="LSCAAWARE"> F  </i>
   <i type="logical" name="LSCALU"> F  </i>
   <i type="logical" name="LASYNC"> F  </i>
   <i type="logical" name="LORBITALREAL"> F  </i>
  </separator>
  <separator name="miscellaneous" >
   <i type="int" name="IDIOT">     3</i>
   <i type="int" name="PHON_NSTRUCT">    -1</i>
   <i type="logical" name="LMUSIC"> F  </i>
   <v name="POMASS">     22.99000000     35.45300000</v>
   <v name="DARWINR">      0.00000000      0.00000000</v>
   <v name="DARWINV">      1.00000000      1.00000000</v>
   <i type="logical" name="LCORR"> T  </i>
  </separator>
  <i type="logical" name="GGA_COMPAT"> T  </i>
  <i type="logical" name="LBERRY"> F  </i>
  <i type="int" name="ICORELEVEL">     0</i>
  <i type="logical" name="LDAU"> F  </i>
  <i type="int" name="I_CONSTRAINED_M">     0</i>
  <separator name="electronic exchange-correlation" >
   <i type="string" name="GGA">PS</i>
   <i type="int" name="VOSKOWN">     0</i>
   <i type="logical" name="LHFCALC"> F  </i>
   <i type="string" name="PRECFOCK"></i>
   <i type="logical" name="LSYMGRAD"> F  </i>
   <i type="logical" name="LHFONE"> F  </i>
   <i type="logical" name="LRHFCALC"> F  </i>
   <i type="logical" name="LTHOMAS"> F  </i>
   <i type="logical" name="LMODELHF"> F  </i>
   <i type="logical" name="LFOCKACE"> F  </i>
   <i name="ENCUT4O">     -1.00000000</i>
   <i type="int" name="EXXOEP">     0</i>
   <i type="int" name="FOURORBIT">     0</i>
   <i name="AEXX">      0.00000000</i>
   <i name="HFALPHA">      0.00000000</i>
   <i name="MCALPHA">      0.00000000</i>
   <i name="ALDAX">      1.00000000</i>
   <i name="AGGAX">      1.00000000</i>
   <i name="ALDAC">      1.00000000</i>
   <i name="AGGAC">      1.00000000</i>
   <i type="int" name="NKREDX">     1</i>
   <i type="int" name="NKREDY">     1</i>
   <i type="int" name="NKREDZ">     1</i>
   <i type="logical" name="SHIFTRED"> F  </i>
   <i type="logical" name="ODDONLY"> F  </i>
   <i type="logical" name="EVENONLY"> F  </i>
   <i type="int" name="LMAXFOCK">     0</i>
   <i type="int" name="NMAXFOCKAE">     0</i>
   <i type="logical" name="LFOCKAEDFT"> F  </i>
   <i name="HFSCREEN">      0.00000000</i>
   <i name="HFSCREENC">      0.00000000</i>
   <i type="int" name="NBANDSGWLOW">     0</i>
  </separator>
  <separator name="vdW DFT" >
   <i type="logical" name="LUSE_VDW"> F  </i>
   <i name="Zab_VDW">     -0.84910000</i>
   <i name="PARAM1">      0.12340000</i>
   <i name="PARAM2">      1.00000000</i>
   <i name="PARAM3">      0.00000000</i>
  </separator>
  <separator name="model GW" >
   <i type="int" name="MODEL_GW">     0</i>
   <i name="MODEL_EPS0">     13.18532537</i>
   <i name="MODEL_ALPHA">      1.00000000</i>
  </separator>
  <separator name="linear response parameters" >
   <i type="logical" name="LEPSILON"> F  </i>
   <i type="logical" name="LRPA"> F  </i>
   <i type="logical" name="LNABLA"> F  </i>
   <i type="logical" name="LVEL"> F  </i>
   <i name="CSHIFT">      0.10000000</i>
   <i name="OMEGAMAX">     -1.00000000</i>
   <i name="DEG_THRESHOLD">      0.00200000</i>
   <i name="RTIME">     -0.10000000</i>
   <i name="WPLASMAI">      0.00000000</i>
   <v name="DFIELD">      0.00000000      0.00000000      0.00000000</v>
   <v name="WPLASMA">      0.00000000      0.00000000      0.00000000      0.00000000      0.00000000      0.00000000      0.00000000      0.00000000      0.00000000</v>
  </separator>
  <separator name="orbital magnetization" >
   <i type="logical" name="NUCIND"> F  </i>
   <v name="MAGPOS">      0.00000000      0.00000000      0.00000000</v>
   <i type="logical" name="LNICSALL"> T  </i>
   <i type="logical" name="ORBITALMAG"> F  </i>
   <i type="logical" name="LMAGBLOCH"> F  </i>
   <i type="logical" name="LCHIMAG"> F  </i>
   <i type="logical" name="LGAUGE"> T  </i>
   <i type="int" name="MAGATOM">     0</i>
   <v name="MAGDIPOL">      0.00000000      0.00000000      0.00000000</v>
   <v name="AVECCONST">      0.00000000      0.00000000      0.00000000</v>
  </separator>
  <separator name="response functions" >
   <i type="logical" name="LFINITE_TEMPERATURE"> F  </i>
   <i type="logical" name="LADDER"> F  </i>
   <i type="logical" name="LRPAFORCE"> F  </i>
   <i type="logical" name="LFXC"> F  </i>
   <i type="logical" name="LHARTREE"> T  </i>
   <i type="int" name="IBSE">     0</i>
   <v type="int" name="KPOINT">    -1     0     0     0</v>
   <i type="logical" name="LTCTC"> F  </i>
   <i type="logical" name="LTCTE"> F  </i>
   <i type="logical" name="LTETE"> F  </i>
   <i type="logical" name="LTRIPLET"> F  </i>
   <i type="logical" name="LFXCEPS"> F  </i>
   <i type="logical" name="LFXHEG"> F  </i>
   <i type="int" name="NATURALO">     2</i>
   <i type="logical" name="LHOLEGF"> F  </i>
   <i type="logical" name="L2ORDER"> F  </i>
   <i type="logical" name="LDMP1"> F  </i>
   <i type="logical" name="LMP2LT"> F  </i>
   <i type="logical" name="LSMP2LT"> F  </i>
   <i type="logical" name="LGWLF"> F  </i>
   <i name="ENCUTGW">     -2.00000000</i>
   <i name="ENCUTGWSOFT">     -2.00000000</i>
   <i name="ENCUTLF">     -1.00000000</i>
   <i type="logical" name="LESF_SPLINES"> F  </i>
   <i type="int" name="LMAXMP2">    -1</i>
   <i name="SCISSOR">      0.00000000</i>
   <i type="int" name="NOMEGA">     0</i>
   <i type="int" name="NOMEGAR">     0</i>
   <i type="int" name="NBANDSGW">    -1</i>
   <i type="int" name="NBANDSO">    -1</i>
   <i type="int" name="NBANDSV">    -1</i>
   <i type="int" name="NELMGW">     1</i>
   <i type="int" name="NELMHF">     1</i>
   <i type="int" name="DIM">     3</i>
   <i type="int" name="IESPILON">     4</i>
   <i type="int" name="ANTIRES">     0</i>
   <i name="OMEGAMAX">    -30.00000000</i>
   <i name="OMEGAMIN">    -30.00000000</i>
   <i name="OMEGATL">   -200.00000000</i>
   <i type="int" name="OMEGAGRID">     0</i>
   <i name="CSHIFT">     -0.10000000</i>
   <i type="logical" name="LSELFENERGY"> F  </i>
   <i type="logical" name="LSPECTRAL"> F  </i>
   <i type="logical" name="LSPECTRALGW"> F  </i>
   <i type="logical" name="LSINGLES"> F  </i>
   <i type="logical" name="LFERMIGW"> F  </i>
   <i type="logical" name="ODDONLYGW"> F  </i>
   <i type="logical" name="EVENONLYGW"> F  </i>
   <i type="int" name="NKREDLFX">     1</i>
   <i type="int" name="NKREDLFY">     1</i>
   <i type="int" name="NKREDLFZ">     1</i>
   <i type="int" name="MAXMEM">  2800</i>
   <i type="int" name="TELESCOPE">     0</i>
   <i type="int" name="NTAUPAR">    -1</i>
   <i type="int" name="NOMEGAPAR">    -1</i>
   <i name="DAMP_NEWTON">      0.80000001</i>
   <i name="LAMBDA">      1.00000000</i>
  </separator>
  <separator name="External order field" >
   <i name="OFIELD_KAPPA">      0.00000000</i>
   <v name="OFIELD_K">      0.00000000      0.00000000      0.00000000</v>
   <i name="OFIELD_Q6_NEAR">      0.00000000</i>
   <i name="OFIELD_Q6_FAR">      0.00000000</i>
   <i name="OFIELD_A">      0.00000000</i>
  </separator>
  <separator name="optional k-points parameters" >
   <i type="int" name="KPOINTS_OPT_MODE">     1</i>
   <i type="logical" name="LKPOINTS_OPT"> F  </i>
  </separator>
 </parameters>
 <atominfo>
  <atoms>      64 </atoms>
  <types>       2 </types>
  <array name="atoms" >
   <dimension dim="1">ion</dimension>
   <field type="string">element</field>
   <field type="int">atomtype</field>
   <set>
    <rc><c>Na</c><c>   1</c></rc>
    <rc><c>Na</c><c>   1</c></rc>
    <rc><c>Na</c><c>   1</c></rc>
    <rc><c>Na</c><c>   1</c></rc>
    <rc><c>Na</c><c>   1</c></rc>
    <rc><c>Na</c><c>   1</c></rc>
    <rc><c>Na</c><c>   1</c></rc>
    <rc><c>Na</c><c>   1</c></rc>
    <rc><c>Na</c><c>   1</c></rc>
    <rc><c>Na</c><c>   1</c></rc>
    <rc><c>Na</c><c>   1</c></rc>
    <rc><c>Na</c><c>   1</c></rc>
    <rc><c>Na</c><c>   1</c></rc>
    <rc><c>Na</c><c>   1</c></rc>
    <rc><c>Na</c><c>   1</c></rc>
    <rc><c>Na</c><c>   1</c></rc>
    <rc><c>Na</c><c>   1</c></rc>
    <rc><c>Na</c><c>   1</c></rc>
    <rc><c>Na</c><c>   1</c></rc>
    <rc><c>Na</c><c>   1</c></rc>
    <rc><c>Na</c><c>   1</c></rc>
    <rc><c>Na</c><c>   1</c></rc>
    <rc><c>Na</c><c>   1</c></rc>
    <rc><c>Na</c><c>   1</c></rc>
    <rc><c>Na</c><c>   1</c></rc>
    <rc><c>Na</c><c>   1</c></rc>
    <rc><c>Na</c><c>   1</c></rc>
    <rc><c>Na</c><c>   1</c></rc>
    <rc><c>Na</c><c>   1</c></rc>
    <rc><c>Na</c><c>   1</c></rc>
    <rc><c>Na</c><c>   1</c></rc>
    <rc><c>Na</c><c>   1</c></rc>
    <rc><c>Cl</c><c>   2</c></rc>
    <rc><c>Cl</c><c>   2</c></rc>
    <rc><c>Cl</c><c>   2</c></rc>
    <rc><c>Cl</c><c>   2</c></rc>
    <rc><c>Cl</c><c>   2</c></rc>
    <rc><c>Cl</c><c>   2</c></rc>
    <rc><c>Cl</c><c>   2</c></rc>
    <rc><c>Cl</c><c>   2</c></rc>
    <rc><c>Cl</c><c>   2</c></rc>
    <rc><c>Cl</c><c>   2</c></rc>
    <rc><c>Cl</c><c>   2</c></rc>
    <rc><c>Cl</c><c>   2</c></rc>
    <rc><c>Cl</c><c>   2</c></rc>
    <rc><c>Cl</c><c>   2</c></rc>
    <rc><c>Cl</c><c>   2</c></rc>
    <rc><c>Cl</c><c>   2</c></rc>
    <rc><c>Cl</c><c>   2</c></rc>
    <rc><c>Cl</c><c>   2</c></rc>
    <rc><c>Cl</c><c>   2</c></rc>
    <rc><c>Cl</c><c>   2</c></rc>
    <rc><c>Cl</c><c>   2</c></rc>
    <rc><c>Cl</c><c>   2</c></rc>
    <rc><c>Cl</c><c>   2</c></rc>
    <rc><c>Cl</c><c>   2</c></rc>
    <rc><c>Cl</c><c>   2</c></rc>
    <rc><c>Cl</c><c>   2</c></rc>
    <rc><c>Cl</c><c>   2</c></rc>
    <rc><c>Cl</c><c>   2</c></rc>
    <rc><c>Cl</c><c>   2</c></rc>
    <rc><c>Cl</c><c>   2</c></rc>
    <rc><c>Cl</c><c>   2</c></rc>
    <rc><c>Cl</c><c>   2</c></rc>
   </set>
  </array>
  <array name="atomtypes" >
   <dimension dim="1">type</dimension>
   <field type="int">atomspertype</field>
   <field type="string">element</field>
   <field>mass</field>
   <field>valence</field>
   <field type="string">pseudopotential</field>
   <set>
    <rc><c>  32</c><c>Na</c><c>     22.99000000</c><c>      7.00000000</c><c>  PAW_PBE Na_pv 19Sep2006               </c></rc>
    <rc><c>  32</c><c>Cl</c><c>     35.45300000</c><c>      7.00000000</c><c>  PAW_PBE Cl 06Sep2000                  </c></rc>
   </set>
  </array>
 </atominfo>
 <structure name="initialpos" >
  <crystal>
   <varray name="basis" >
    <v>      11.20400236       0.00000000       0.00000000 </v>
    <v>       0.00000000      11.20400236       0.00000000 </v>
    <v>       0.00000000       0.00000000      11.20400236 </v>
   </varray>
   <i name="volume">   1406.43470641 </i>
   <varray name="rec_basis" >
    <v>       0.08925382       0.00000000       0.00000000 </v>
    <v>       0.00000000       0.08925382       0.00000000 </v>
    <v>       0.00000000       0.00000000       0.08925382 </v>
   </varray>
  </crystal>
  <varray name="positions" >
   <v>       0.00267761       0.00000000       0.00000000 </v>
   <v>       0.24732239       0.25000000       0.00000000 </v>
   <v>       0.25000000       0.00000000       0.25000000 </v>
   <v>       0.00000000       0.25000000       0.25000000 </v>
   <v>       0.00000000       0.00000000       0.50000000 </v>
   <v>       0.25000000       0.25000000       0.50000000 </v>
   <v>       0.25000000       0.00000000       0.75000000 </v>
   <v>       0.00000000       0.25000000       0.75000000 </v>
   <v>       0.00000000       0.50000000       0.00000000 </v>
   <v>       0.25000000       0.75000000       0.00000000 </v>
   <v>       0.25000000       0.50000000       0.25000000 </v>
   <v>       0.00000000       0.75000000       0.25000000 </v>
   <v>       0.00000000       0.50000000       0.50000000 </v>
   <v>       0.25000000       0.75000000       0.50000000 </v>
   <v>       0.25000000       0.50000000       0.75000000 </v>
   <v>       0.00000000       0.75000000       0.75000000 </v>
   <v>       0.50000000       0.00000000       0.00000000 </v>
   <v>       0.75000000       0.25000000       0.00000000 </v>
   <v>       0.75000000       0.00000000       0.25000000 </v>
   <v>       0.50000000       0.25000000       0.25000000 </v>
   <v>       0.50000000       0.00000000       0.50000000 </v>
   <v>       0.75000000       0.25000000       0.50000000 </v>
   <v>       0.75000000       0.00000000       0.75000000 </v>
   <v>       0.50000000       0.25000000       0.75000000 </v>
   <v>       0.50000000       0.50000000       0.00000000 </v>
   <v>       0.75000000       0.75000000       0.00000000 </v>
   <v>       0.75000000       0.50000000       0.25000000 </v>
   <v>       0.50000000       0.75000000       0.25000000 </v>
   <v>       0.50000000       0.50000000       0.50000000 </v>
   <v>       0.75000000       0.75000000       0.50000000 </v>
   <v>       0.75000000       0.50000000       0.75000000 </v>
   <v>       0.50000000       0.75000000       0.75000000 </v>
   <v>       0.25000000       0.25000000       0.25000000 </v>
   <v>       0.00000000       0.00000000       0.25000000 </v>
   <v>       0.00000000       0.25000000       0.00000000 </v>
   <v>       0.25000000       0.00000000       0.00000000 </v>
   <v>       0.25000000       0.25000000       0.75000000 </v>
   <v>       0.00000000       0.00000000       0.75000000 </v>
   <v>       0.00000000       0.25000000       0.50000000 </v>
   <v>       0.25000000       0.00000000       0.50000000 </v>
   <v>       0.25000000       0.75000000       0.25000000 </v>
   <v>       0.00000000       0.50000000       0.25000000 </v>
   <v>       0.00000000       0.75000000       0.00000000 </v>
   <v>       0.25000000       0.50000000       0.00000000 </v>
   <v>       0.25000000       0.75000000       0.75000000 </v>
   <v>       0.00000000       0.50000000       0.75000000 </v>
   <v>       0.00000000       0.75000000       0.50000000 </v>
   <v>       0.25000000       0.50000000       0.50000000 </v>
   <v>       0.75000000       0.25000000       0.25000000 </v>
   <v>       0.50000000       0.00000000       0.25000000 </v>
   <v>       0.50000000       0.25000000       0.00000000 </v>
   <v>       0.75000000       0.00000000       0.00000000 </v>
   <v>       0.75000000       0.25000000       0.75000000 </v>
   <v>       0.50000000       0.00000000       0.75000000 </v>
   <v>       0.50000000       0.25000000       0.50000000 </v>
   <v>       0.75000000       0.00000000       0.50000000 </v>
   <v>       0.75000000       0.75000000       0.25000000 </v>
   <v>       0.50000000       0.50000000       0.25000000 </v>
   <v>       0.50000000       0.75000000       0.00000000 </v>
   <v>       0.75000000       0.50000000       0.00000000 </v>
   <v>       0.75000000       0.75000000       0.75000000 </v>
   <v>       0.50000000       0.50000000       0.75000000 </v>
   <v>       0.50000000       0.75000000       0.50000000 </v>
   <v>       0.75000000       0.50000000       0.50000000 </v>
  </varray>
 </structure>
 <calculation>
  <scstep>
   <time name="dav">   10.19   10.30</time>
   <time name="total">   10.26   10.39</time>
   <energy>
    <i name="alphaZ">    751.52672365 </i>
    <i name="ewald"> -22871.33288585 </i>
    <i name="hartreedc">  -8992.25143372 </i>
    <i name="XCdc">   1456.53425093 </i>
    <i name="pawpsdc">  26466.43774078 </i>
    <i name="pawaedc"> -29286.08056155 </i>
    <i name="eentropy">     -0.00245986 </i>
    <i name="bandstr">   -734.79323960 </i>
    <i name="atom">  37532.17946992 </i>
    <i name="e_fr_energy">   4322.21760472 </i>
    <i name="e_wo_entrp">   4322.22006458 </i>
    <i name="e_0_energy">   4322.21883465 </i>
   </energy>
  </scstep>
  <scstep>
   <time name="dav">   11.08   11.15</time>
   <time name="total">   11.08   11.15</time>
   <energy>
    <i name="e_fr_energy">    363.79636363 </i>
    <i name="e_wo_entrp">    363.79636363 </i>
    <i name="e_0_energy">    363.79636363 </i>
   </energy>
  </scstep>
  <scstep>
   <time name="dav">   11.92   11.99</time>
   <time name="total">   11.92   11.99</time>
   <energy>
    <i name="e_fr_energy">   -206.19206800 </i>
    <i name="e_wo_entrp">   -206.19206800 </i>
    <i name="e_0_energy">   -206.19206800 </i>
   </energy>
  </scstep>
  <scstep>
   <time name="dav">   11.76   11.84</time>
   <time name="total">   11.76   11.84</time>
   <energy>
    <i name="e_fr_energy">   -228.19245457 </i>
    <i name="e_wo_entrp">   -228.19245457 </i>
    <i name="e_0_energy">   -228.19245457 </i>
   </energy>
  </scstep>
  <scstep>
   <time name="dav">   11.94   12.01</time>
   <time name="total">   12.28   12.35</time>
   <energy>
    <i name="e_fr_energy">   -229.00292640 </i>
    <i name="e_wo_entrp">   -229.00292640 </i>
    <i name="e_0_energy">   -229.00292640 </i>
   </energy>
  </scstep>
  <scstep>
   <time name="dav">   12.04   12.11</time>
   <time name="total">   12.45   12.53</time>
   <energy>
    <i name="e_fr_energy">   -224.13965329 </i>
    <i name="e_wo_entrp">   -224.13965329 </i>
    <i name="e_0_energy">   -224.13965329 </i>
   </energy>
  </scstep>
  <scstep>
   <time name="dav">   13.06   13.13</time>
   <time name="total">   13.48   13.56</time>
   <energy>
    <i name="e_fr_energy">   -223.77758734 </i>
    <i name="e_wo_entrp">   -223.77758734 </i>
    <i name="e_0_energy">   -223.77758734 </i>
   </energy>
  </scstep>
  <scstep>
   <time name="dav">   11.51   11.57</time>
   <time name="total">   11.91   11.99</time>
   <energy>
    <i name="e_fr_energy">   -223.90286559 </i>
    <i name="e_wo_entrp">   -223.90286559 </i>
    <i name="e_0_energy">   -223.90286559 </i>
   </energy>
  </scstep>
  <scstep>
   <time name="dav">   12.08   12.15</time>
   <time name="total">   12.49   12.57</time>
   <energy>
    <i name="e_fr_energy">   -223.89725349 </i>
    <i name="e_wo_entrp">   -223.89725349 </i>
    <i name="e_0_energy">   -223.89725349 </i>
   </energy>
  </scstep>
  <scstep>
   <time name="dav">   11.57   11.63</time>
   <time name="total">   11.97   12.04</time>
   <energy>
    <i name="e_fr_energy">   -223.90158731 </i>
    <i name="e_wo_entrp">   -223.90158731 </i>
    <i name="e_0_energy">   -223.90158731 </i>
   </energy>
  </scstep>
  <scstep>
   <time name="dav">   12.15   12.22</time>
   <time name="total">   12.57   12.64</time>
   <energy>
    <i name="e_fr_energy">   -223.90080800 </i>
    <i name="e_wo_entrp">   -223.90080800 </i>
    <i name="e_0_energy">   -223.90080800 </i>
   </energy>
  </scstep>
  <scstep>
   <time name="dav">   12.35   12.41</time>
   <time name="total">   12.76   12.83</time>
   <energy>
    <i name="e_fr_energy">   -223.90077202 </i>
    <i name="e_wo_entrp">   -223.90077202 </i>
    <i name="e_0_energy">   -223.90077202 </i>
   </energy>
  </scstep>
  <scstep>
   <time name="dav">   11.72   11.78</time>
   <time name="total">   12.13   12.20</time>
   <energy>
    <i name="e_fr_energy">   -223.90077908 </i>
    <i name="e_wo_entrp">   -223.90077908 </i>
    <i name="e_0_energy">   -223.90077908 </i>
   </energy>
  </scstep>
  <scstep>
   <time name="dav">   12.96   13.02</time>
   <time name="total">   13.37   13.44</time>
   <energy>
    <i name="e_fr_energy">   -223.90077868 </i>
    <i name="e_wo_entrp">   -223.90077868 </i>
    <i name="e_0_energy">   -223.90077868 </i>
   </energy>
  </scstep>
  <scstep>
   <time name="dav">   10.50   10.56</time>
   <time name="total">   10.91   10.97</time>
   <energy>
    <i name="e_fr_energy">   -223.90077992 </i>
    <i name="e_wo_entrp">   -223.90077992 </i>
    <i name="e_0_energy">   -223.90077992 </i>
   </energy>
  </scstep>
  <scstep>
   <time name="dav">   11.50   11.56</time>
   <time name="total">   11.91   11.98</time>
   <energy>
    <i name="e_fr_energy">   -223.90078035 </i>
    <i name="e_wo_entrp">   -223.90078035 </i>
    <i name="e_0_energy">   -223.90078035 </i>
   </energy>
  </scstep>
  <scstep>
   <time name="dav">    8.18    8.22</time>
   <time name="total">    8.59    8.64</time>
   <energy>
    <i name="e_fr_energy">   -223.90078029 </i>
    <i name="e_wo_entrp">   -223.90078029 </i>
    <i name="e_0_energy">   -223.90078029 </i>
   </energy>
  </scstep>
  <scstep>
   <time name="dav">    8.40    8.44</time>
   <time name="total">    8.46    8.51</time>
   <energy>
    <i name="alphaZ">    751.52672365 </i>
    <i name="ewald"> -22871.33288585 </i>
    <i name="hartreedc">  -9078.16218717 </i>
    <i name="XCdc">   1472.51335273 </i>
    <i name="pawpsdc">  29498.25153947 </i>
    <i name="pawaedc"> -32317.61642139 </i>
    <i name="eentropy">     -0.00000000 </i>
    <i name="bandstr">  -5211.26037166 </i>
    <i name="atom">  37532.17946992 </i>
    <i name="e_fr_energy">   -223.90078029 </i>
    <i name="e_wo_entrp">   -223.90078029 </i>
    <i name="e_0_energy">   -223.90078029 </i>
   </energy>
  </scstep>
  <structure>
   <crystal>
    <varray name="basis" >
     <v>      11.20400236       0.00000000       0.00000000 </v>
     <v>       0.00000000      11.20400236       0.00000000 </v>
     <v>       0.00000000       0.00000000      11.20400236 </v>
    </varray>
    <i name="volume">   1406.43470641 </i>
    <varray name="rec_basis" >
     <v>       0.08925382       0.00000000       0.00000000 </v>
     <v>       0.00000000       0.08925382       0.00000000 </v>
     <v>       0.00000000       0.00000000       0.08925382 </v>
    </varray>
   </crystal>
   <varray name="positions" >
    <v>       0.00267761       0.00000000       0.00000000 </v>
    <v>       0.24732239       0.25000000       0.00000000 </v>
    <v>       0.25000000       0.00000000       0.25000000 </v>
    <v>       0.00000000       0.25000000       0.25000000 </v>
    <v>       0.00000000       0.00000000       0.50000000 </v>
    <v>       0.25000000       0.25000000       0.50000000 </v>
    <v>       0.25000000       0.00000000       0.75000000 </v>
    <v>       0.00000000       0.25000000       0.75000000 </v>
    <v>       0.00000000       0.50000000       0.00000000 </v>
    <v>       0.25000000       0.75000000       0.00000000 </v>
    <v>       0.25000000       0.50000000       0.25000000 </v>
    <v>       0.00000000       0.75000000       0.25000000 </v>
    <v>       0.00000000       0.50000000       0.50000000 </v>
    <v>       0.25000000       0.75000000       0.50000000 </v>
    <v>       0.25000000       0.50000000       0.75000000 </v>
    <v>       0.00000000       0.75000000       0.75000000 </v>
    <v>       0.50000000       0.00000000       0.00000000 </v>
    <v>       0.75000000       0.25000000       0.00000000 </v>
    <v>       0.75000000       0.00000000       0.25000000 </v>
    <v>       0.50000000       0.25000000       0.25000000 </v>
    <v>       0.50000000       0.00000000       0.50000000 </v>
    <v>       0.75000000       0.25000000       0.50000000 </v>
    <v>       0.75000000       0.00000000       0.75000000 </v>
    <v>       0.50000000       0.25000000       0.75000000 </v>
    <v>       0.50000000       0.50000000       0.00000000 </v>
    <v>       0.75000000       0.75000000       0.00000000 </v>
    <v>       0.75000000       0.50000000       0.25000000 </v>
    <v>       0.50000000       0.75000000       0.25000000 </v>
    <v>       0.50000000       0.50000000       0.50000000 </v>
    <v>       0.75000000       0.75000000       0.50000000 </v>
    <v>       0.75000000       0.50000000       0.75000000 </v>
    <v>       0.50000000       0.75000000       0.75000000 </v>
    <v>       0.25000000       0.25000000       0.25000000 </v>
    <v>       0.00000000       0.00000000       0.25000000 </v>
    <v>       0.00000000       0.25000000       0.00000000 </v>
    <v>       0.25000000       0.00000000       0.00000000 </v>
    <v>       0.25000000       0.25000000       0.75000000 </v>
    <v>       0.00000000       0.00000000       0.75000000 </v>
    <v>       0.00000000       0.25000000       0.50000000 </v>
    <v>       0.25000000       0.00000000       0.50000000 </v>
    <v>       0.25000000       0.75000000       0.25000000 </v>
    <v>       0.00000000       0.50000000       0.25000000 </v>
    <v>       0.00000000       0.75000000       0.00000000 </v>
    <v>       0.25000000       0.50000000       0.00000000 </v>
    <v>       0.25000000       0.75000000       0.75000000 </v>
    <v>       0.00000000       0.50000000       0.75000000 </v>
    <v>       0.00000000       0.75000000       0.50000000 </v>
    <v>       0.25000000       0.50000000       0.50000000 </v>
    <v>       0.75000000       0.25000000       0.25000000 </v>
    <v>       0.50000000       0.00000000       0.25000000 </v>
    <v>       0.50000000       0.25000000       0.00000000 </v>
    <v>       0.75000000       0.00000000       0.00000000 </v>
    <v>       0.75000000       0.25000000       0.75000000 </v>
    <v>       0.50000000       0.00000000       0.75000000 </v>
    <v>       0.50000000       0.25000000       0.50000000 </v>
    <v>       0.75000000       0.00000000       0.50000000 </v>
    <v>       0.75000000       0.75000000       0.25000000 </v>
    <v>       0.50000000       0.50000000       0.25000000 </v>
    <v>       0.50000000       0.75000000       0.00000000 </v>
    <v>       0.75000000       0.50000000       0.00000000 </v>
    <v>       0.75000000       0.75000000       0.75000000 </v>
    <v>       0.50000000       0.50000000       0.75000000 </v>
    <v>       0.50000000       0.75000000       0.50000000 </v>
    <v>       0.75000000       0.50000000       0.50000000 </v>
   </varray>
  </structure>
  <varray name="forces" >
   <v>      -0.06433524      -0.00601753       0.00000000 </v>
   <v>       0.06433524       0.00601753       0.00000000 </v>
   <v>       0.00317778       0.00002023       0.00590755 </v>
   <v>      -0.00317778      -0.00002023       0.00590755 </v>
   <v>      -0.00001582       0.00007746       0.00000000 </v>
   <v>       0.00001582      -0.00007746       0.00000000 </v>
   <v>       0.00317778       0.00002023      -0.00590755 </v>
   <v>      -0.00317778      -0.00002023      -0.00590755 </v>
   <v>      -0.00156743       0.00592818       0.00000000 </v>
   <v>       0.00156743      -0.00592818       0.00000000 </v>
   <v>       0.00163113      -0.00001949      -0.00009668 </v>
   <v>      -0.00163113       0.00001949      -0.00009668 </v>
   <v>      -0.00041966      -0.00007776       0.00000000 </v>
   <v>       0.00041966       0.00007776       0.00000000 </v>
   <v>       0.00163113      -0.00001949       0.00009668 </v>
   <v>      -0.00163113       0.00001949       0.00009668 </v>
   <v>       0.00740671       0.00580249       0.00000000 </v>
   <v>      -0.00740671      -0.00580249       0.00000000 </v>
   <v>       0.00034352      -0.00000459      -0.00579846 </v>
   <v>      -0.00034352       0.00000459      -0.00579846 </v>
   <v>       0.00032951      -0.00007288       0.00000000 </v>
   <v>      -0.00032951       0.00007288       0.00000000 </v>
   <v>       0.00034352      -0.00000459       0.00579846 </v>
   <v>      -0.00034352       0.00000459       0.00579846 </v>
   <v>      -0.00119774      -0.00580370       0.00000000 </v>
   <v>       0.00119774       0.00580370       0.00000000 </v>
   <v>      -0.00118393       0.00000446       0.00007772 </v>
   <v>       0.00118393      -0.00000446       0.00007772 </v>
   <v>       0.00046168       0.00007363       0.00000000 </v>
   <v>      -0.00046168      -0.00007363       0.00000000 </v>
   <v>      -0.00118393       0.00000446      -0.00007772 </v>
   <v>       0.00118393      -0.00000446      -0.00007772 </v>
   <v>      -0.00521307      -0.00130650      -0.00142941 </v>
   <v>       0.00521307       0.00130650      -0.00142941 </v>
   <v>      -0.01523622      -0.00015936       0.00000000 </v>
   <v>       0.01523622       0.00015936       0.00000000 </v>
   <v>      -0.00521307      -0.00130650       0.00142941 </v>
   <v>       0.00521307       0.00130650       0.00142941 </v>
   <v>       0.00042109       0.00001134       0.00000000 </v>
   <v>      -0.00042109      -0.00001134       0.00000000 </v>
   <v>      -0.00080919       0.00130638      -0.00129560 </v>
   <v>       0.00080919      -0.00130638      -0.00129560 </v>
   <v>       0.00482120       0.00012218       0.00000000 </v>
   <v>      -0.00482120      -0.00012218       0.00000000 </v>
   <v>      -0.00080919       0.00130638       0.00129560 </v>
   <v>       0.00080919      -0.00130638       0.00129560 </v>
   <v>       0.00059196      -0.00000930       0.00000000 </v>
   <v>      -0.00059196       0.00000930       0.00000000 </v>
   <v>       0.00258554       0.00128316       0.00127231 </v>
   <v>      -0.00258554      -0.00128316       0.00127231 </v>
   <v>      -0.01900970      -0.00000306       0.00000000 </v>
   <v>       0.01900970       0.00000306       0.00000000 </v>
   <v>       0.00258554       0.00128316      -0.00127231 </v>
   <v>      -0.00258554      -0.00128316      -0.00127231 </v>
   <v>      -0.00080188      -0.00000145       0.00000000 </v>
   <v>       0.00080188       0.00000145       0.00000000 </v>
   <v>       0.00042417      -0.00128297       0.00128309 </v>
   <v>      -0.00042417       0.00128297       0.00128309 </v>
   <v>      -0.00296748       0.00001188       0.00000000 </v>
   <v>       0.00296748      -0.00001188       0.00000000 </v>
   <v>       0.00042417      -0.00128297      -0.00128309 </v>
   <v>      -0.00042417       0.00128297      -0.00128309 </v>
   <v>      -0.00065348       0.00000097       0.00000000 </v>
   <v>       0.00065348      -0.00000097       0.00000000 </v>
  </varray>
  <varray name="stress" >
   <v>      -0.35693461      -0.00003076       0.00000000 </v>
   <v>      -0.00003076      -0.37921961       0.00000000 </v>
   <v>       0.00000000       0.00000000      -0.37978653 </v>
  </varray>
  <energy>
   <i name="e_fr_energy">   -223.90078029 </i>
   <i name="e_wo_entrp">   -223.90078029 </i>
   <i name="e_0_energy">   -223.90078029 </i>
  </energy>
  <time name="totalsc">  226.11  227.48</time>
  <eigenvalues>
   <array>
    <dimension dim="1">band</dimension>
    <dimension dim="2">kpoint</dimension>
    <dimension dim="3">spin</dimension>
    <field>eigene</field>
    <field>occ</field>
    <set>
     <set comment="spin 1">
      <set comment="kpoint 1">
       <r>  -21.3048    1.0000 </r>
       <r>  -21.3048    1.0000 </r>
       <r>  -21.3046    1.0000 </r>
       <r>  -21.3045    1.0000 </r>
       <r>  -21.2961    1.0000 </r>
       <r>  -21.2956    1.0000 </r>
       <r>  -21.2953    1.0000 </r>
       <r>  -21.2950    1.0000 </r>
       <r>  -21.2945    1.0000 </r>
       <r>  -21.2943    1.0000 </r>
       <r>  -21.2940    1.0000 </r>
       <r>  -21.2940    1.0000 </r>
       <r>  -21.2939    1.0000 </r>
       <r>  -21.2934    1.0000 </r>
       <r>  -21.2928    1.0000 </r>
       <r>  -21.2928    1.0000 </r>
       <r>  -21.2924    1.0000 </r>
       <r>  -21.2916    1.0000 </r>
       <r>  -21.2916    1.0000 </r>
       <r>  -21.2886    1.0000 </r>
       <r>  -21.2879    1.0000 </r>
       <r>  -21.2877    1.0000 </r>
       <r>  -21.2876    1.0000 </r>
       <r>  -21.2872    1.0000 </r>
       <r>  -21.2867    1.0000 </r>
       <r>  -21.2864    1.0000 </r>
       <r>  -21.2864    1.0000 </r>
       <r>  -21.2863    1.0000 </r>
       <r>  -21.2860    1.0000 </r>
       <r>  -21.2850    1.0000 </r>
       <r>  -21.2849    1.0000 </r>
       <r>  -21.2844    1.0000 </r>
       <r>  -21.2837    1.0000 </r>
       <r>  -21.2837    1.0000 </r>
       <r>  -21.2833    1.0000 </r>
       <r>  -21.2831    1.0000 </r>
       <r>  -21.2827    1.0000 </r>
       <r>  -21.2827    1.0000 </r>
       <r>  -21.2826    1.0000 </r>
       <r>  -21.2822    1.0000 </r>
       <r>  -21.2817    1.0000 </r>
       <r>  -21.2817    1.0000 </r>
       <r>  -21.2816    1.0000 </r>
       <r>  -21.2816    1.0000 </r>
       <r>  -21.2815    1.0000 </r>
       <r>  -21.2814    1.0000 </r>
       <r>  -21.2813    1.0000 </r>
       <r>  -21.2806    1.0000 </r>
       <r>  -21.2804    1.0000 </r>
       <r>  -21.2803    1.0000 </r>
       <r>  -21.2801    1.0000 </r>
       <r>  -21.2801    1.0000 </r>
       <r>  -21.2798    1.0000 </r>
       <r>  -21.2790    1.0000 </r>
       <r>  -21.2786    1.0000 </r>
       <r>  -21.2780    1.0000 </r>
       <r>  -21.2777    1.0000 </r>
       <r>  -21.2776    1.0000 </r>
       <r>  -21.2768    1.0000 </r>
       <r>  -21.2767    1.0000 </r>
       <r>  -21.2766    1.0000 </r>
       <r>  -21.2756    1.0000 </r>
       <r>  -21.2756    1.0000 </r>
       <r>  -21.2753    1.0000 </r>
       <r>  -21.2752    1.0000 </r>
       <r>  -21.2751    1.0000 </r>
       <r>  -21.2749    1.0000 </r>
       <r>  -21.2748    1.0000 </r>
       <r>  -21.2748    1.0000 </r>
       <r>  -21.2748    1.0000 </r>
       <r>  -21.2745    1.0000 </r>
       <r>  -21.2733    1.0000 </r>
       <r>  -21.2729    1.0000 </r>
       <r>  -21.2728    1.0000 </r>
       <r>  -21.2723    1.0000 </r>
       <r>  -21.2720    1.0000 </r>
       <r>  -21.2716    1.0000 </r>
       <r>  -21.2716    1.0000 </r>
       <r>  -21.2715    1.0000 </r>
       <r>  -21.2712    1.0000 </r>
       <r>  -21.2712    1.0000 </r>
       <r>  -21.2709    1.0000 </r>
       <r>  -21.2704    1.0000 </r>
       <r>  -21.2702    1.0000 </r>
       <r>  -21.2701    1.0000 </r>
       <r>  -21.2699    1.0000 </r>
       <r>  -21.2693    1.0000 </r>
       <r>  -21.2691    1.0000 </r>
       <r>  -21.2688    1.0000 </r>
       <r>  -21.2679    1.0000 </r>
       <r>  -21.2678    1.0000 </r>
       <r>  -21.2677    1.0000 </r>
       <r>  -21.2674    1.0000 </r>
       <r>  -21.2672    1.0000 </r>
       <r>  -21.2669    1.0000 </r>
       <r>  -21.2668    1.0000 </r>
       <r>  -13.3582    1.0000 </r>
       <r>  -13.1438    1.0000 </r>
       <r>  -13.1410    1.0000 </r>
       <r>  -13.1373    1.0000 </r>
       <r>  -13.1373    1.0000 </r>
       <r>  -13.1345    1.0000 </r>
       <r>  -13.1328    1.0000 </r>
       <r>  -13.0221    1.0000 </r>
       <r>  -13.0208    1.0000 </r>
       <r>  -13.0115    1.0000 </r>
       <r>  -13.0115    1.0000 </r>
       <r>  -13.0112    1.0000 </r>
       <r>  -13.0112    1.0000 </r>
       <r>  -13.0112    1.0000 </r>
       <r>  -13.0111    1.0000 </r>
       <r>  -13.0111    1.0000 </r>
       <r>  -13.0111    1.0000 </r>
       <r>  -13.0047    1.0000 </r>
       <r>  -13.0041    1.0000 </r>
       <r>  -12.9897    1.0000 </r>
       <r>  -12.9897    1.0000 </r>
       <r>  -12.9892    1.0000 </r>
       <r>  -12.9879    1.0000 </r>
       <r>  -12.9412    1.0000 </r>
       <r>  -12.9411    1.0000 </r>
       <r>  -12.9400    1.0000 </r>
       <r>  -12.9251    1.0000 </r>
       <r>  -12.9236    1.0000 </r>
       <r>  -12.9214    1.0000 </r>
       <r>  -12.9214    1.0000 </r>
       <r>  -12.9170    1.0000 </r>
       <r>  -12.9137    1.0000 </r>
       <r>   -2.7002    1.0000 </r>
       <r>   -2.7000    1.0000 </r>
       <r>   -2.7000    1.0000 </r>
       <r>   -2.7000    1.0000 </r>
       <r>   -2.4241    1.0000 </r>
       <r>   -2.4240    1.0000 </r>
       <r>   -2.4240    1.0000 </r>
       <r>   -2.2077    1.0000 </r>
       <r>   -2.2075    1.0000 </r>
       <r>   -2.2074    1.0000 </r>
       <r>   -2.2072    1.0000 </r>
       <r>   -2.2046    1.0000 </r>
       <r>   -2.2045    1.0000 </r>
       <r>   -2.2040    1.0000 </r>
       <r>   -2.2037    1.0000 </r>
       <r>   -2.2014    1.0000 </r>
       <r>   -2.2013    1.0000 </r>
       <r>   -2.2013    1.0000 </r>
       <r>   -2.2012    1.0000 </r>
       <r>   -1.9291    1.0000 </r>
       <r>   -1.9281    1.0000 </r>
       <r>   -1.9275    1.0000 </r>
       <r>   -1.9251    1.0000 </r>
       <r>   -1.9248    1.0000 </r>
       <r>   -1.9247    1.0000 </r>
       <r>   -1.9245    1.0000 </r>
       <r>   -1.9244    1.0000 </r>
       <r>   -1.9240    1.0000 </r>
       <r>   -1.9219    1.0000 </r>
       <r>   -1.9215    1.0000 </r>
       <r>   -1.9207    1.0000 </r>
       <r>   -1.7978    1.0000 </r>
       <r>   -1.7973    1.0000 </r>
       <r>   -1.7966    1.0000 </r>
       <r>   -1.7966    1.0000 </r>
       <r>   -1.7958    1.0000 </r>
       <r>   -1.7954    1.0000 </r>
       <r>   -1.5068    1.0000 </r>
       <r>   -1.5066    1.0000 </r>
       <r>   -1.5064    1.0000 </r>
       <r>   -1.5062    1.0000 </r>
       <r>   -1.5059    1.0000 </r>
       <r>   -1.5054    1.0000 </r>
       <r>   -1.5051    1.0000 </r>
       <r>   -1.5051    1.0000 </r>
       <r>   -1.5051    1.0000 </r>
       <r>   -1.5048    1.0000 </r>
       <r>   -1.5044    1.0000 </r>
       <r>   -1.5044    1.0000 </r>
       <r>   -1.4636    1.0000 </r>
       <r>   -1.4630    1.0000 </r>
       <r>   -1.4627    1.0000 </r>
       <r>   -1.4622    1.0000 </r>
       <r>   -1.4619    1.0000 </r>
       <r>   -1.4616    1.0000 </r>
       <r>   -1.2948    1.0000 </r>
       <r>   -1.2948    1.0000 </r>
       <r>   -1.2948    1.0000 </r>
       <r>   -1.2947    1.0000 </r>
       <r>   -1.2946    1.0000 </r>
       <r>   -1.2946    1.0000 </r>
       <r>   -1.0058    1.0000 </r>
       <r>   -1.0039    1.0000 </r>
       <r>   -1.0038    1.0000 </r>
       <r>   -1.0032    1.0000 </r>
       <r>   -1.0020    1.0000 </r>
       <r>   -1.0009    1.0000 </r>
       <r>   -1.0007    1.0000 </r>
       <r>   -1.0007    1.0000 </r>
       <r>   -1.0007    1.0000 </r>
       <r>   -0.9980    1.0000 </r>
       <r>   -0.9979    1.0000 </r>
       <r>   -0.9970    1.0000 </r>
       <r>   -0.9528    1.0000 </r>
       <r>   -0.9526    1.0000 </r>
       <r>   -0.9526    1.0000 </r>
       <r>   -0.9522    1.0000 </r>
       <r>   -0.9478    1.0000 </r>
       <r>   -0.9478    1.0000 </r>
       <r>   -0.9476    1.0000 </r>
       <r>   -0.9474    1.0000 </r>
       <r>   -0.9473    1.0000 </r>
       <r>   -0.9473    1.0000 </r>
       <r>   -0.9470    1.0000 </r>
       <r>   -0.9468    1.0000 </r>
       <r>   -0.9458    1.0000 </r>
       <r>   -0.9458    1.0000 </r>
       <r>   -0.9450    1.0000 </r>
       <r>   -0.9440    1.0000 </r>
       <r>   -0.9411    1.0000 </r>
       <r>   -0.9410    1.0000 </r>
       <r>   -0.9409    1.0000 </r>
       <r>   -0.9404    1.0000 </r>
       <r>   -0.6649    1.0000 </r>
       <r>   -0.6648    1.0000 </r>
       <r>   -0.6647    1.0000 </r>
       <r>    4.3403    0.0000 </r>
       <r>    6.3646    0.0000 </r>
       <r>    6.3668    0.0000 </r>
       <r>    6.3682    0.0000 </r>
       <r>    6.3682    0.0000 </r>
       <r>    6.3704    0.0000 </r>
       <r>    6.3709    0.0000 </r>
       <r>    6.4445    0.0000 </r>
       <r>    6.4446    0.0000 </r>
       <r>    6.4446    0.0000 </r>
       <r>    6.4447    0.0000 </r>
       <r>    6.8280    0.0000 </r>
       <r>    6.8280    0.0000 </r>
       <r>    6.8280    0.0000 </r>
       <r>    7.2068    0.0000 </r>
       <r>    7.2068    0.0000 </r>
       <r>    7.2069    0.0000 </r>
       <r>    7.4602    0.0000 </r>
       <r>    7.4606    0.0000 </r>
       <r>    7.4618    0.0000 </r>
       <r>    7.4631    0.0000 </r>
       <r>    7.4639    0.0000 </r>
       <r>    7.4643    0.0000 </r>
       <r>    7.4649    0.0000 </r>
       <r>    7.4650    0.0000 </r>
       <r>    7.4653    0.0000 </r>
       <r>    7.4666    0.0000 </r>
       <r>    7.4671    0.0000 </r>
       <r>    7.4675    0.0000 </r>
       <r>    8.1662    0.0000 </r>
       <r>    8.1671    0.0000 </r>
       <r>    8.1684    0.0000 </r>
       <r>    8.1684    0.0000 </r>
       <r>    8.1696    0.0000 </r>
       <r>    8.1706    0.0000 </r>
       <r>    8.2754    0.0000 </r>
       <r>    8.2787    0.0000 </r>
       <r>    8.2795    0.0000 </r>
       <r>    8.2796    0.0000 </r>
       <r>    8.2814    0.0000 </r>
       <r>    8.2826    0.0000 </r>
       <r>    8.8912    0.0000 </r>
       <r>    8.8939    0.0000 </r>
       <r>    8.8950    0.0000 </r>
       <r>    8.8986    0.0000 </r>
       <r>    8.8995    0.0000 </r>
       <r>    8.9007    0.0000 </r>
       <r>    8.9026    0.0000 </r>
       <r>    8.9029    0.0000 </r>
       <r>    8.9035    0.0000 </r>
       <r>    8.9042    0.0000 </r>
       <r>    8.9049    0.0000 </r>
       <r>    8.9069    0.0000 </r>
       <r>    8.9124    0.0000 </r>
       <r>    8.9130    0.0000 </r>
       <r>    8.9152    0.0000 </r>
       <r>    8.9168    0.0000 </r>
       <r>    8.9174    0.0000 </r>
       <r>    8.9179    0.0000 </r>
       <r>    8.9191    0.0000 </r>
       <r>    8.9195    0.0000 </r>
       <r>    8.9206    0.0000 </r>
       <r>    8.9218    0.0000 </r>
       <r>    8.9232    0.0000 </r>
      </set>
      <set comment="kpoint 2">
       <r>  -21.3027    1.0000 </r>
       <r>  -21.3027    1.0000 </r>
       <r>  -21.3023    1.0000 </r>
       <r>  -21.3022    1.0000 </r>
       <r>  -21.2971    1.0000 </r>
       <r>  -21.2970    1.0000 </r>
       <r>  -21.2969    1.0000 </r>
       <r>  -21.2969    1.0000 </r>
       <r>  -21.2950    1.0000 </r>
       <r>  -21.2947    1.0000 </r>
       <r>  -21.2944    1.0000 </r>
       <r>  -21.2934    1.0000 </r>
       <r>  -21.2932    1.0000 </r>
       <r>  -21.2926    1.0000 </r>
       <r>  -21.2926    1.0000 </r>
       <r>  -21.2925    1.0000 </r>
       <r>  -21.2924    1.0000 </r>
       <r>  -21.2924    1.0000 </r>
       <r>  -21.2914    1.0000 </r>
       <r>  -21.2902    1.0000 </r>
       <r>  -21.2898    1.0000 </r>
       <r>  -21.2892    1.0000 </r>
       <r>  -21.2889    1.0000 </r>
       <r>  -21.2886    1.0000 </r>
       <r>  -21.2885    1.0000 </r>
       <r>  -21.2880    1.0000 </r>
       <r>  -21.2872    1.0000 </r>
       <r>  -21.2871    1.0000 </r>
       <r>  -21.2871    1.0000 </r>
       <r>  -21.2868    1.0000 </r>
       <r>  -21.2867    1.0000 </r>
       <r>  -21.2866    1.0000 </r>
       <r>  -21.2862    1.0000 </r>
       <r>  -21.2858    1.0000 </r>
       <r>  -21.2843    1.0000 </r>
       <r>  -21.2839    1.0000 </r>
       <r>  -21.2833    1.0000 </r>
       <r>  -21.2833    1.0000 </r>
       <r>  -21.2830    1.0000 </r>
       <r>  -21.2830    1.0000 </r>
       <r>  -21.2818    1.0000 </r>
       <r>  -21.2810    1.0000 </r>
       <r>  -21.2802    1.0000 </r>
       <r>  -21.2800    1.0000 </r>
       <r>  -21.2792    1.0000 </r>
       <r>  -21.2786    1.0000 </r>
       <r>  -21.2785    1.0000 </r>
       <r>  -21.2784    1.0000 </r>
       <r>  -21.2784    1.0000 </r>
       <r>  -21.2781    1.0000 </r>
       <r>  -21.2779    1.0000 </r>
       <r>  -21.2776    1.0000 </r>
       <r>  -21.2775    1.0000 </r>
       <r>  -21.2774    1.0000 </r>
       <r>  -21.2773    1.0000 </r>
       <r>  -21.2772    1.0000 </r>
       <r>  -21.2767    1.0000 </r>
       <r>  -21.2765    1.0000 </r>
       <r>  -21.2763    1.0000 </r>
       <r>  -21.2760    1.0000 </r>
       <r>  -21.2758    1.0000 </r>
       <r>  -21.2757    1.0000 </r>
       <r>  -21.2755    1.0000 </r>
       <r>  -21.2753    1.0000 </r>
       <r>  -21.2752    1.0000 </r>
       <r>  -21.2752    1.0000 </r>
       <r>  -21.2749    1.0000 </r>
       <r>  -21.2748    1.0000 </r>
       <r>  -21.2744    1.0000 </r>
       <r>  -21.2744    1.0000 </r>
       <r>  -21.2742    1.0000 </r>
       <r>  -21.2736    1.0000 </r>
       <r>  -21.2734    1.0000 </r>
       <r>  -21.2731    1.0000 </r>
       <r>  -21.2731    1.0000 </r>
       <r>  -21.2731    1.0000 </r>
       <r>  -21.2729    1.0000 </r>
       <r>  -21.2724    1.0000 </r>
       <r>  -21.2723    1.0000 </r>
       <r>  -21.2721    1.0000 </r>
       <r>  -21.2716    1.0000 </r>
       <r>  -21.2713    1.0000 </r>
       <r>  -21.2707    1.0000 </r>
       <r>  -21.2705    1.0000 </r>
       <r>  -21.2704    1.0000 </r>
       <r>  -21.2704    1.0000 </r>
       <r>  -21.2697    1.0000 </r>
       <r>  -21.2692    1.0000 </r>
       <r>  -21.2690    1.0000 </r>
       <r>  -21.2689    1.0000 </r>
       <r>  -21.2679    1.0000 </r>
       <r>  -21.2677    1.0000 </r>
       <r>  -21.2674    1.0000 </r>
       <r>  -21.2673    1.0000 </r>
       <r>  -21.2672    1.0000 </r>
       <r>  -21.2671    1.0000 </r>
       <r>  -13.2950    1.0000 </r>
       <r>  -13.2879    1.0000 </r>
       <r>  -13.1066    1.0000 </r>
       <r>  -13.1022    1.0000 </r>
       <r>  -13.0988    1.0000 </r>
       <r>  -13.0979    1.0000 </r>
       <r>  -13.0957    1.0000 </r>
       <r>  -13.0949    1.0000 </r>
       <r>  -13.0928    1.0000 </r>
       <r>  -13.0894    1.0000 </r>
       <r>  -13.0104    1.0000 </r>
       <r>  -13.0079    1.0000 </r>
       <r>  -13.0033    1.0000 </r>
       <r>  -13.0033    1.0000 </r>
       <r>  -12.9979    1.0000 </r>
       <r>  -12.9979    1.0000 </r>
       <r>  -12.9979    1.0000 </r>
       <r>  -12.9970    1.0000 </r>
       <r>  -12.9931    1.0000 </r>
       <r>  -12.9896    1.0000 </r>
       <r>  -12.9519    1.0000 </r>
       <r>  -12.9483    1.0000 </r>
       <r>  -12.9456    1.0000 </r>
       <r>  -12.9448    1.0000 </r>
       <r>  -12.9427    1.0000 </r>
       <r>  -12.9419    1.0000 </r>
       <r>  -12.9396    1.0000 </r>
       <r>  -12.9372    1.0000 </r>
       <r>  -12.9347    1.0000 </r>
       <r>  -12.9345    1.0000 </r>
       <r>  -12.9246    1.0000 </r>
       <r>  -12.9227    1.0000 </r>
       <r>   -2.5087    1.0000 </r>
       <r>   -2.5085    1.0000 </r>
       <r>   -2.5081    1.0000 </r>
       <r>   -2.5081    1.0000 </r>
       <r>   -2.5007    1.0000 </r>
       <r>   -2.5007    1.0000 </r>
       <r>   -2.5003    1.0000 </r>
       <r>   -2.5002    1.0000 </r>
       <r>   -2.2912    1.0000 </r>
       <r>   -2.2912    1.0000 </r>
       <r>   -2.2842    1.0000 </r>
       <r>   -2.2842    1.0000 </r>
       <r>   -2.2780    1.0000 </r>
       <r>   -2.2706    1.0000 </r>
       <r>   -2.1432    1.0000 </r>
       <r>   -2.1395    1.0000 </r>
       <r>   -2.1370    1.0000 </r>
       <r>   -2.1367    1.0000 </r>
       <r>   -2.1363    1.0000 </r>
       <r>   -2.1358    1.0000 </r>
       <r>   -2.1336    1.0000 </r>
       <r>   -2.1297    1.0000 </r>
       <r>   -1.9887    1.0000 </r>
       <r>   -1.9877    1.0000 </r>
       <r>   -1.9877    1.0000 </r>
       <r>   -1.9856    1.0000 </r>
       <r>   -1.9850    1.0000 </r>
       <r>   -1.9831    1.0000 </r>
       <r>   -1.9831    1.0000 </r>
       <r>   -1.9823    1.0000 </r>
       <r>   -1.8135    1.0000 </r>
       <r>   -1.8125    1.0000 </r>
       <r>   -1.8125    1.0000 </r>
       <r>   -1.8109    1.0000 </r>
       <r>   -1.8066    1.0000 </r>
       <r>   -1.8051    1.0000 </r>
       <r>   -1.8050    1.0000 </r>
       <r>   -1.8040    1.0000 </r>
       <r>   -1.5009    1.0000 </r>
       <r>   -1.5009    1.0000 </r>
       <r>   -1.4946    1.0000 </r>
       <r>   -1.4946    1.0000 </r>
       <r>   -1.3859    1.0000 </r>
       <r>   -1.3859    1.0000 </r>
       <r>   -1.3752    1.0000 </r>
       <r>   -1.3752    1.0000 </r>
       <r>   -1.2161    1.0000 </r>
       <r>   -1.2161    1.0000 </r>
       <r>   -1.2093    1.0000 </r>
       <r>   -1.2092    1.0000 </r>
       <r>   -1.1942    1.0000 </r>
       <r>   -1.1941    1.0000 </r>
       <r>   -1.1938    1.0000 </r>
       <r>   -1.1913    1.0000 </r>
       <r>   -1.1912    1.0000 </r>
       <r>   -1.1895    1.0000 </r>
       <r>   -1.1891    1.0000 </r>
       <r>   -1.1888    1.0000 </r>
       <r>   -1.1802    1.0000 </r>
       <r>   -1.1791    1.0000 </r>
       <r>   -1.1765    1.0000 </r>
       <r>   -1.1763    1.0000 </r>
       <r>   -1.1724    1.0000 </r>
       <r>   -1.1723    1.0000 </r>
       <r>   -1.1685    1.0000 </r>
       <r>   -1.1672    1.0000 </r>
       <r>   -1.1633    1.0000 </r>
       <r>   -1.1628    1.0000 </r>
       <r>   -1.1626    1.0000 </r>
       <r>   -1.1616    1.0000 </r>
       <r>   -1.1578    1.0000 </r>
       <r>   -1.1559    1.0000 </r>
       <r>   -1.1556    1.0000 </r>
       <r>   -1.1542    1.0000 </r>
       <r>   -1.0864    1.0000 </r>
       <r>   -1.0796    1.0000 </r>
       <r>   -0.9518    1.0000 </r>
       <r>   -0.9518    1.0000 </r>
       <r>   -0.9517    1.0000 </r>
       <r>   -0.9516    1.0000 </r>
       <r>   -0.9424    1.0000 </r>
       <r>   -0.9423    1.0000 </r>
       <r>   -0.9422    1.0000 </r>
       <r>   -0.9420    1.0000 </r>
       <r>   -0.9397    1.0000 </r>
       <r>   -0.9357    1.0000 </r>
       <r>   -0.9327    1.0000 </r>
       <r>   -0.9322    1.0000 </r>
       <r>   -0.9320    1.0000 </r>
       <r>   -0.9319    1.0000 </r>
       <r>   -0.9286    1.0000 </r>
       <r>   -0.9239    1.0000 </r>
       <r>   -0.7716    1.0000 </r>
       <r>   -0.7716    1.0000 </r>
       <r>   -0.7649    1.0000 </r>
       <r>   -0.7649    1.0000 </r>
       <r>    5.0198    0.0000 </r>
       <r>    5.0250    0.0000 </r>
       <r>    6.7148    0.0000 </r>
       <r>    6.7157    0.0000 </r>
       <r>    6.7158    0.0000 </r>
       <r>    6.7169    0.0000 </r>
       <r>    6.7199    0.0000 </r>
       <r>    6.7209    0.0000 </r>
       <r>    6.7210    0.0000 </r>
       <r>    6.7218    0.0000 </r>
       <r>    6.8399    0.0000 </r>
       <r>    6.8400    0.0000 </r>
       <r>    6.8400    0.0000 </r>
       <r>    6.8401    0.0000 </r>
       <r>    6.8464    0.0000 </r>
       <r>    6.8464    0.0000 </r>
       <r>    6.8464    0.0000 </r>
       <r>    6.8465    0.0000 </r>
       <r>    6.9690    0.0000 </r>
       <r>    6.9732    0.0000 </r>
       <r>    7.3591    0.0000 </r>
       <r>    7.3591    0.0000 </r>
       <r>    7.3659    0.0000 </r>
       <r>    7.3659    0.0000 </r>
       <r>    7.4763    0.0000 </r>
       <r>    7.4842    0.0000 </r>
       <r>    7.7104    0.0000 </r>
       <r>    7.7104    0.0000 </r>
       <r>    7.7188    0.0000 </r>
       <r>    7.7188    0.0000 </r>
       <r>    8.2622    0.0000 </r>
       <r>    8.2627    0.0000 </r>
       <r>    8.2628    0.0000 </r>
       <r>    8.2646    0.0000 </r>
       <r>    8.2673    0.0000 </r>
       <r>    8.2690    0.0000 </r>
       <r>    8.2691    0.0000 </r>
       <r>    8.2696    0.0000 </r>
       <r>    8.5330    0.0000 </r>
       <r>    8.5338    0.0000 </r>
       <r>    8.5343    0.0000 </r>
       <r>    8.5358    0.0000 </r>
       <r>    8.5363    0.0000 </r>
       <r>    8.5365    0.0000 </r>
       <r>    8.5365    0.0000 </r>
       <r>    8.5367    0.0000 </r>
       <r>    8.5397    0.0000 </r>
       <r>    8.5405    0.0000 </r>
       <r>    8.5407    0.0000 </r>
       <r>    8.5409    0.0000 </r>
       <r>    8.5410    0.0000 </r>
       <r>    8.5429    0.0000 </r>
       <r>    8.5431    0.0000 </r>
       <r>    8.5440    0.0000 </r>
       <r>    8.9447    0.0000 </r>
       <r>    8.9467    0.0000 </r>
       <r>    8.9476    0.0000 </r>
       <r>    8.9490    0.0000 </r>
       <r>    8.9529    0.0000 </r>
       <r>    8.9543    0.0000 </r>
       <r>    8.9551    0.0000 </r>
       <r>    8.9571    0.0000 </r>
       <r>    9.4912    0.0000 </r>
       <r>    9.5045    0.0000 </r>
      </set>
      <set comment="kpoint 3">
       <r>  -21.3012    1.0000 </r>
       <r>  -21.3012    1.0000 </r>
       <r>  -21.3009    1.0000 </r>
       <r>  -21.3006    1.0000 </r>
       <r>  -21.3001    1.0000 </r>
       <r>  -21.3000    1.0000 </r>
       <r>  -21.2999    1.0000 </r>
       <r>  -21.2998    1.0000 </r>
       <r>  -21.2950    1.0000 </r>
       <r>  -21.2939    1.0000 </r>
       <r>  -21.2934    1.0000 </r>
       <r>  -21.2930    1.0000 </r>
       <r>  -21.2927    1.0000 </r>
       <r>  -21.2922    1.0000 </r>
       <r>  -21.2919    1.0000 </r>
       <r>  -21.2918    1.0000 </r>
       <r>  -21.2912    1.0000 </r>
       <r>  -21.2911    1.0000 </r>
       <r>  -21.2908    1.0000 </r>
       <r>  -21.2905    1.0000 </r>
       <r>  -21.2898    1.0000 </r>
       <r>  -21.2891    1.0000 </r>
       <r>  -21.2885    1.0000 </r>
       <r>  -21.2885    1.0000 </r>
       <r>  -21.2884    1.0000 </r>
       <r>  -21.2883    1.0000 </r>
       <r>  -21.2883    1.0000 </r>
       <r>  -21.2880    1.0000 </r>
       <r>  -21.2875    1.0000 </r>
       <r>  -21.2865    1.0000 </r>
       <r>  -21.2863    1.0000 </r>
       <r>  -21.2853    1.0000 </r>
       <r>  -21.2845    1.0000 </r>
       <r>  -21.2842    1.0000 </r>
       <r>  -21.2841    1.0000 </r>
       <r>  -21.2841    1.0000 </r>
       <r>  -21.2837    1.0000 </r>
       <r>  -21.2826    1.0000 </r>
       <r>  -21.2825    1.0000 </r>
       <r>  -21.2821    1.0000 </r>
       <r>  -21.2816    1.0000 </r>
       <r>  -21.2815    1.0000 </r>
       <r>  -21.2814    1.0000 </r>
       <r>  -21.2812    1.0000 </r>
       <r>  -21.2805    1.0000 </r>
       <r>  -21.2804    1.0000 </r>
       <r>  -21.2791    1.0000 </r>
       <r>  -21.2791    1.0000 </r>
       <r>  -21.2788    1.0000 </r>
       <r>  -21.2785    1.0000 </r>
       <r>  -21.2781    1.0000 </r>
       <r>  -21.2780    1.0000 </r>
       <r>  -21.2779    1.0000 </r>
       <r>  -21.2776    1.0000 </r>
       <r>  -21.2772    1.0000 </r>
       <r>  -21.2772    1.0000 </r>
       <r>  -21.2771    1.0000 </r>
       <r>  -21.2767    1.0000 </r>
       <r>  -21.2767    1.0000 </r>
       <r>  -21.2767    1.0000 </r>
       <r>  -21.2764    1.0000 </r>
       <r>  -21.2762    1.0000 </r>
       <r>  -21.2757    1.0000 </r>
       <r>  -21.2755    1.0000 </r>
       <r>  -21.2750    1.0000 </r>
       <r>  -21.2750    1.0000 </r>
       <r>  -21.2748    1.0000 </r>
       <r>  -21.2747    1.0000 </r>
       <r>  -21.2746    1.0000 </r>
       <r>  -21.2739    1.0000 </r>
       <r>  -21.2735    1.0000 </r>
       <r>  -21.2734    1.0000 </r>
       <r>  -21.2730    1.0000 </r>
       <r>  -21.2729    1.0000 </r>
       <r>  -21.2726    1.0000 </r>
       <r>  -21.2726    1.0000 </r>
       <r>  -21.2719    1.0000 </r>
       <r>  -21.2716    1.0000 </r>
       <r>  -21.2714    1.0000 </r>
       <r>  -21.2714    1.0000 </r>
       <r>  -21.2708    1.0000 </r>
       <r>  -21.2707    1.0000 </r>
       <r>  -21.2706    1.0000 </r>
       <r>  -21.2705    1.0000 </r>
       <r>  -21.2704    1.0000 </r>
       <r>  -21.2697    1.0000 </r>
       <r>  -21.2695    1.0000 </r>
       <r>  -21.2695    1.0000 </r>
       <r>  -21.2689    1.0000 </r>
       <r>  -21.2688    1.0000 </r>
       <r>  -21.2684    1.0000 </r>
       <r>  -21.2684    1.0000 </r>
       <r>  -21.2679    1.0000 </r>
       <r>  -21.2677    1.0000 </r>
       <r>  -21.2676    1.0000 </r>
       <r>  -21.2676    1.0000 </r>
       <r>  -13.2918    1.0000 </r>
       <r>  -13.2913    1.0000 </r>
       <r>  -13.1062    1.0000 </r>
       <r>  -13.1009    1.0000 </r>
       <r>  -13.0969    1.0000 </r>
       <r>  -13.0969    1.0000 </r>
       <r>  -13.0968    1.0000 </r>
       <r>  -13.0968    1.0000 </r>
       <r>  -13.0939    1.0000 </r>
       <r>  -13.0897    1.0000 </r>
       <r>  -13.0090    1.0000 </r>
       <r>  -13.0022    1.0000 </r>
       <r>  -13.0007    1.0000 </r>
       <r>  -13.0007    1.0000 </r>
       <r>  -13.0006    1.0000 </r>
       <r>  -13.0006    1.0000 </r>
       <r>  -13.0005    1.0000 </r>
       <r>  -13.0005    1.0000 </r>
       <r>  -12.9940    1.0000 </r>
       <r>  -12.9912    1.0000 </r>
       <r>  -12.9505    1.0000 </r>
       <r>  -12.9483    1.0000 </r>
       <r>  -12.9440    1.0000 </r>
       <r>  -12.9438    1.0000 </r>
       <r>  -12.9436    1.0000 </r>
       <r>  -12.9436    1.0000 </r>
       <r>  -12.9419    1.0000 </r>
       <r>  -12.9371    1.0000 </r>
       <r>  -12.9311    1.0000 </r>
       <r>  -12.9310    1.0000 </r>
       <r>  -12.9260    1.0000 </r>
       <r>  -12.9258    1.0000 </r>
       <r>   -2.5052    1.0000 </r>
       <r>   -2.5048    1.0000 </r>
       <r>   -2.5047    1.0000 </r>
       <r>   -2.5044    1.0000 </r>
       <r>   -2.5043    1.0000 </r>
       <r>   -2.5042    1.0000 </r>
       <r>   -2.5042    1.0000 </r>
       <r>   -2.5040    1.0000 </r>
       <r>   -2.2878    1.0000 </r>
       <r>   -2.2877    1.0000 </r>
       <r>   -2.2877    1.0000 </r>
       <r>   -2.2876    1.0000 </r>
       <r>   -2.2744    1.0000 </r>
       <r>   -2.2741    1.0000 </r>
       <r>   -2.1422    1.0000 </r>
       <r>   -2.1385    1.0000 </r>
       <r>   -2.1366    1.0000 </r>
       <r>   -2.1364    1.0000 </r>
       <r>   -2.1364    1.0000 </r>
       <r>   -2.1362    1.0000 </r>
       <r>   -2.1339    1.0000 </r>
       <r>   -2.1310    1.0000 </r>
       <r>   -1.9876    1.0000 </r>
       <r>   -1.9872    1.0000 </r>
       <r>   -1.9857    1.0000 </r>
       <r>   -1.9855    1.0000 </r>
       <r>   -1.9855    1.0000 </r>
       <r>   -1.9852    1.0000 </r>
       <r>   -1.9839    1.0000 </r>
       <r>   -1.9836    1.0000 </r>
       <r>   -1.8102    1.0000 </r>
       <r>   -1.8092    1.0000 </r>
       <r>   -1.8088    1.0000 </r>
       <r>   -1.8087    1.0000 </r>
       <r>   -1.8086    1.0000 </r>
       <r>   -1.8084    1.0000 </r>
       <r>   -1.8080    1.0000 </r>
       <r>   -1.8076    1.0000 </r>
       <r>   -1.4979    1.0000 </r>
       <r>   -1.4979    1.0000 </r>
       <r>   -1.4978    1.0000 </r>
       <r>   -1.4977    1.0000 </r>
       <r>   -1.3807    1.0000 </r>
       <r>   -1.3807    1.0000 </r>
       <r>   -1.3804    1.0000 </r>
       <r>   -1.3804    1.0000 </r>
       <r>   -1.2146    1.0000 </r>
       <r>   -1.2129    1.0000 </r>
       <r>   -1.2128    1.0000 </r>
       <r>   -1.2123    1.0000 </r>
       <r>   -1.1943    1.0000 </r>
       <r>   -1.1941    1.0000 </r>
       <r>   -1.1933    1.0000 </r>
       <r>   -1.1915    1.0000 </r>
       <r>   -1.1909    1.0000 </r>
       <r>   -1.1901    1.0000 </r>
       <r>   -1.1898    1.0000 </r>
       <r>   -1.1888    1.0000 </r>
       <r>   -1.1759    1.0000 </r>
       <r>   -1.1745    1.0000 </r>
       <r>   -1.1743    1.0000 </r>
       <r>   -1.1742    1.0000 </r>
       <r>   -1.1740    1.0000 </r>
       <r>   -1.1740    1.0000 </r>
       <r>   -1.1730    1.0000 </r>
       <r>   -1.1721    1.0000 </r>
       <r>   -1.1606    1.0000 </r>
       <r>   -1.1601    1.0000 </r>
       <r>   -1.1596    1.0000 </r>
       <r>   -1.1591    1.0000 </r>
       <r>   -1.1591    1.0000 </r>
       <r>   -1.1589    1.0000 </r>
       <r>   -1.1578    1.0000 </r>
       <r>   -1.1563    1.0000 </r>
       <r>   -1.0833    1.0000 </r>
       <r>   -1.0830    1.0000 </r>
       <r>   -0.9480    1.0000 </r>
       <r>   -0.9469    1.0000 </r>
       <r>   -0.9469    1.0000 </r>
       <r>   -0.9469    1.0000 </r>
       <r>   -0.9468    1.0000 </r>
       <r>   -0.9467    1.0000 </r>
       <r>   -0.9466    1.0000 </r>
       <r>   -0.9465    1.0000 </r>
       <r>   -0.9381    1.0000 </r>
       <r>   -0.9347    1.0000 </r>
       <r>   -0.9327    1.0000 </r>
       <r>   -0.9323    1.0000 </r>
       <r>   -0.9322    1.0000 </r>
       <r>   -0.9313    1.0000 </r>
       <r>   -0.9298    1.0000 </r>
       <r>   -0.9263    1.0000 </r>
       <r>   -0.7683    1.0000 </r>
       <r>   -0.7683    1.0000 </r>
       <r>   -0.7681    1.0000 </r>
       <r>   -0.7678    1.0000 </r>
       <r>    5.0224    0.0000 </r>
       <r>    5.0224    0.0000 </r>
       <r>    6.7135    0.0000 </r>
       <r>    6.7166    0.0000 </r>
       <r>    6.7183    0.0000 </r>
       <r>    6.7183    0.0000 </r>
       <r>    6.7185    0.0000 </r>
       <r>    6.7186    0.0000 </r>
       <r>    6.7206    0.0000 </r>
       <r>    6.7221    0.0000 </r>
       <r>    6.8421    0.0000 </r>
       <r>    6.8424    0.0000 </r>
       <r>    6.8426    0.0000 </r>
       <r>    6.8429    0.0000 </r>
       <r>    6.8437    0.0000 </r>
       <r>    6.8438    0.0000 </r>
       <r>    6.8440    0.0000 </r>
       <r>    6.8443    0.0000 </r>
       <r>    6.9711    0.0000 </r>
       <r>    6.9711    0.0000 </r>
       <r>    7.3625    0.0000 </r>
       <r>    7.3626    0.0000 </r>
       <r>    7.3626    0.0000 </r>
       <r>    7.3626    0.0000 </r>
       <r>    7.4802    0.0000 </r>
       <r>    7.4803    0.0000 </r>
       <r>    7.7145    0.0000 </r>
       <r>    7.7145    0.0000 </r>
       <r>    7.7146    0.0000 </r>
       <r>    7.7146    0.0000 </r>
       <r>    8.2605    0.0000 </r>
       <r>    8.2637    0.0000 </r>
       <r>    8.2658    0.0000 </r>
       <r>    8.2659    0.0000 </r>
       <r>    8.2664    0.0000 </r>
       <r>    8.2673    0.0000 </r>
       <r>    8.2685    0.0000 </r>
       <r>    8.2693    0.0000 </r>
       <r>    8.5330    0.0000 </r>
       <r>    8.5353    0.0000 </r>
       <r>    8.5356    0.0000 </r>
       <r>    8.5365    0.0000 </r>
       <r>    8.5381    0.0000 </r>
       <r>    8.5381    0.0000 </r>
       <r>    8.5382    0.0000 </r>
       <r>    8.5384    0.0000 </r>
       <r>    8.5389    0.0000 </r>
       <r>    8.5390    0.0000 </r>
       <r>    8.5396    0.0000 </r>
       <r>    8.5396    0.0000 </r>
       <r>    8.5400    0.0000 </r>
       <r>    8.5414    0.0000 </r>
       <r>    8.5419    0.0000 </r>
       <r>    8.5425    0.0000 </r>
       <r>    8.9412    0.0000 </r>
       <r>    8.9480    0.0000 </r>
       <r>    8.9508    0.0000 </r>
       <r>    8.9509    0.0000 </r>
       <r>    8.9512    0.0000 </r>
       <r>    8.9514    0.0000 </r>
       <r>    8.9566    0.0000 </r>
       <r>    8.9569    0.0000 </r>
       <r>    9.4909    0.0000 </r>
       <r>    9.5202    0.0000 </r>
      </set>
      <set comment="kpoint 4">
       <r>  -21.3014    1.0000 </r>
       <r>  -21.3014    1.0000 </r>
       <r>  -21.3008    1.0000 </r>
       <r>  -21.3007    1.0000 </r>
       <r>  -21.3001    1.0000 </r>
       <r>  -21.2999    1.0000 </r>
       <r>  -21.2997    1.0000 </r>
       <r>  -21.2996    1.0000 </r>
       <r>  -21.2951    1.0000 </r>
       <r>  -21.2944    1.0000 </r>
       <r>  -21.2933    1.0000 </r>
       <r>  -21.2928    1.0000 </r>
       <r>  -21.2927    1.0000 </r>
       <r>  -21.2927    1.0000 </r>
       <r>  -21.2921    1.0000 </r>
       <r>  -21.2914    1.0000 </r>
       <r>  -21.2908    1.0000 </r>
       <r>  -21.2907    1.0000 </r>
       <r>  -21.2907    1.0000 </r>
       <r>  -21.2905    1.0000 </r>
       <r>  -21.2898    1.0000 </r>
       <r>  -21.2896    1.0000 </r>
       <r>  -21.2895    1.0000 </r>
       <r>  -21.2887    1.0000 </r>
       <r>  -21.2881    1.0000 </r>
       <r>  -21.2881    1.0000 </r>
       <r>  -21.2880    1.0000 </r>
       <r>  -21.2877    1.0000 </r>
       <r>  -21.2876    1.0000 </r>
       <r>  -21.2862    1.0000 </r>
       <r>  -21.2862    1.0000 </r>
       <r>  -21.2848    1.0000 </r>
       <r>  -21.2842    1.0000 </r>
       <r>  -21.2842    1.0000 </r>
       <r>  -21.2842    1.0000 </r>
       <r>  -21.2840    1.0000 </r>
       <r>  -21.2837    1.0000 </r>
       <r>  -21.2836    1.0000 </r>
       <r>  -21.2819    1.0000 </r>
       <r>  -21.2819    1.0000 </r>
       <r>  -21.2815    1.0000 </r>
       <r>  -21.2814    1.0000 </r>
       <r>  -21.2814    1.0000 </r>
       <r>  -21.2811    1.0000 </r>
       <r>  -21.2810    1.0000 </r>
       <r>  -21.2803    1.0000 </r>
       <r>  -21.2792    1.0000 </r>
       <r>  -21.2792    1.0000 </r>
       <r>  -21.2791    1.0000 </r>
       <r>  -21.2790    1.0000 </r>
       <r>  -21.2788    1.0000 </r>
       <r>  -21.2779    1.0000 </r>
       <r>  -21.2777    1.0000 </r>
       <r>  -21.2777    1.0000 </r>
       <r>  -21.2776    1.0000 </r>
       <r>  -21.2772    1.0000 </r>
       <r>  -21.2771    1.0000 </r>
       <r>  -21.2765    1.0000 </r>
       <r>  -21.2764    1.0000 </r>
       <r>  -21.2762    1.0000 </r>
       <r>  -21.2761    1.0000 </r>
       <r>  -21.2761    1.0000 </r>
       <r>  -21.2757    1.0000 </r>
[...]
      </set>
     </set>
    </set>
   </array>
  </eigenvalues>
  <separator name="orbital magnetization" >
   <v name="MAGDIPOLOUT">      0.00000000      0.00000000      0.00000000</v>
  </separator>
  <dos>
   <i name="efermi">     -0.55188183 </i>
   <total>
    <array>
     <dimension dim="1">gridpoints</dimension>
     <dimension dim="2">spin</dimension>
     <field>energy</field>
     <field>total</field>
     <field>integrated</field>
     <set>
      <set comment="spin 1">
       <r>   -22.8461     0.0000     0.0000 </r>
       <r>   -22.7331     0.0000     0.0000 </r>
       <r>   -22.6200     0.0000     0.0000 </r>
       <r>   -22.5070     0.0000     0.0000 </r>
       <r>   -22.3940     0.0000     0.0000 </r>
       <r>   -22.2810     0.0000     0.0000 </r>
       <r>   -22.1679     0.0000     0.0000 </r>
       <r>   -22.0549     0.0000     0.0000 </r>
       <r>   -21.9419     0.0000     0.0000 </r>
       <r>   -21.8289     0.0000     0.0000 </r>
       <r>   -21.7158     0.0000     0.0000 </r>
       <r>   -21.6028     0.0000     0.0000 </r>
       <r>   -21.4898     0.0000     0.0000 </r>
       <r>   -21.3768     0.0000     0.0000 </r>
       <r>   -21.2637  1436.9399   162.4103 </r>
       <r>   -21.1507   261.7979   192.0000 </r>
       <r>   -21.0377     0.0000   192.0000 </r>
       <r>   -20.9247     0.0000   192.0000 </r>
       <r>   -20.8116     0.0000   192.0000 </r>
       <r>   -20.6986     0.0000   192.0000 </r>
       <r>   -20.5856     0.0000   192.0000 </r>
       <r>   -20.4726     0.0000   192.0000 </r>
       <r>   -20.3595     0.0000   192.0000 </r>
       <r>   -20.2465     0.0000   192.0000 </r>
       <r>   -20.1335     0.0000   192.0000 </r>
       <r>   -20.0205     0.0000   192.0000 </r>
       <r>   -19.9074     0.0000   192.0000 </r>
       <r>   -19.7944     0.0000   192.0000 </r>
       <r>   -19.6814     0.0000   192.0000 </r>
       <r>   -19.5684     0.0000   192.0000 </r>
       <r>   -19.4553     0.0000   192.0000 </r>
       <r>   -19.3423     0.0000   192.0000 </r>
       <r>   -19.2293     0.0000   192.0000 </r>
       <r>   -19.1163     0.0000   192.0000 </r>
       <r>   -19.0032     0.0000   192.0000 </r>
       <r>   -18.8902     0.0000   192.0000 </r>
       <r>   -18.7772     0.0000   192.0000 </r>
       <r>   -18.6642     0.0000   192.0000 </r>
       <r>   -18.5511     0.0000   192.0000 </r>
       <r>   -18.4381     0.0000   192.0000 </r>
       <r>   -18.3251     0.0000   192.0000 </r>
       <r>   -18.2121     0.0000   192.0000 </r>
       <r>   -18.0990     0.0000   192.0000 </r>
       <r>   -17.9860     0.0000   192.0000 </r>
       <r>   -17.8730     0.0000   192.0000 </r>
       <r>   -17.7600     0.0000   192.0000 </r>
       <r>   -17.6469     0.0000   192.0000 </r>
       <r>   -17.5339     0.0000   192.0000 </r>
       <r>   -17.4209     0.0000   192.0000 </r>
       <r>   -17.3079     0.0000   192.0000 </r>
       <r>   -17.1948     0.0000   192.0000 </r>
       <r>   -17.0818     0.0000   192.0000 </r>
       <r>   -16.9688     0.0000   192.0000 </r>
       <r>   -16.8558     0.0000   192.0000 </r>
       <r>   -16.7427     0.0000   192.0000 </r>
       <r>   -16.6297     0.0000   192.0000 </r>
       <r>   -16.5167     0.0000   192.0000 </r>
       <r>   -16.4037     0.0000   192.0000 </r>
       <r>   -16.2906     0.0000   192.0000 </r>
       <r>   -16.1776     0.0000   192.0000 </r>
       <r>   -16.0646     0.0000   192.0000 </r>
       <r>   -15.9516     0.0000   192.0000 </r>
       <r>   -15.8385     0.0000   192.0000 </r>
       <r>   -15.7255     0.0000   192.0000 </r>
       <r>   -15.6125     0.0000   192.0000 </r>
       <r>   -15.4995     0.0000   192.0000 </r>
       <r>   -15.3864     0.0000   192.0000 </r>
       <r>   -15.2734     0.0000   192.0000 </r>
       <r>   -15.1604     0.0000   192.0000 </r>
       <r>   -15.0474     0.0000   192.0000 </r>
       <r>   -14.9343     0.0000   192.0000 </r>
       <r>   -14.8213     0.0000   192.0000 </r>
       <r>   -14.7083     0.0000   192.0000 </r>
       <r>   -14.5952     0.0000   192.0000 </r>
       <r>   -14.4822     0.0000   192.0000 </r>
       <r>   -14.3692     0.0000   192.0000 </r>
       <r>   -14.2562     0.0000   192.0000 </r>
       <r>   -14.1431     0.0000   192.0000 </r>
       <r>   -14.0301     0.0000   192.0000 </r>
       <r>   -13.9171     0.0000   192.0000 </r>
       <r>   -13.8041     0.0000   192.0000 </r>
       <r>   -13.6910     0.0000   192.0000 </r>
       <r>   -13.5780     0.0000   192.0000 </r>
       <r>   -13.4650     0.0000   192.0000 </r>
       <r>   -13.3520     1.4821   192.1675 </r>
       <r>   -13.2389    22.3733   194.6963 </r>
       <r>   -13.1259    47.8273   200.1021 </r>
       <r>   -13.0129   133.8299   215.2284 </r>
       <r>   -12.8999   358.2819   255.7238 </r>
       <r>   -12.7868     2.4367   256.0000 </r>
       <r>   -12.6738     0.0000   256.0000 </r>
       <r>   -12.5608     0.0000   256.0000 </r>
       <r>   -12.4478     0.0000   256.0000 </r>
       <r>   -12.3347     0.0000   256.0000 </r>
       <r>   -12.2217     0.0000   256.0000 </r>
       <r>   -12.1087     0.0000   256.0000 </r>
       <r>   -11.9957     0.0000   256.0000 </r>
       <r>   -11.8826     0.0000   256.0000 </r>
       <r>   -11.7696     0.0000   256.0000 </r>
       <r>   -11.6566     0.0000   256.0000 </r>
       <r>   -11.5436     0.0000   256.0000 </r>
       <r>   -11.4305     0.0000   256.0000 </r>
       <r>   -11.3175     0.0000   256.0000 </r>
       <r>   -11.2045     0.0000   256.0000 </r>
       <r>   -11.0915     0.0000   256.0000 </r>
       <r>   -10.9784     0.0000   256.0000 </r>
       <r>   -10.8654     0.0000   256.0000 </r>
       <r>   -10.7524     0.0000   256.0000 </r>
       <r>   -10.6394     0.0000   256.0000 </r>
       <r>   -10.5263     0.0000   256.0000 </r>
       <r>   -10.4133     0.0000   256.0000 </r>
       <r>   -10.3003     0.0000   256.0000 </r>
       <r>   -10.1873     0.0000   256.0000 </r>
       <r>   -10.0742     0.0000   256.0000 </r>
       <r>    -9.9612     0.0000   256.0000 </r>
       <r>    -9.8482     0.0000   256.0000 </r>
       <r>    -9.7352     0.0000   256.0000 </r>
       <r>    -9.6221     0.0000   256.0000 </r>
       <r>    -9.5091     0.0000   256.0000 </r>
       <r>    -9.3961     0.0000   256.0000 </r>
       <r>    -9.2831     0.0000   256.0000 </r>
       <r>    -9.1700     0.0000   256.0000 </r>
       <r>    -9.0570     0.0000   256.0000 </r>
       <r>    -8.9440     0.0000   256.0000 </r>
       <r>    -8.8310     0.0000   256.0000 </r>
       <r>    -8.7179     0.0000   256.0000 </r>
       <r>    -8.6049     0.0000   256.0000 </r>
       <r>    -8.4919     0.0000   256.0000 </r>
       <r>    -8.3789     0.0000   256.0000 </r>
       <r>    -8.2658     0.0000   256.0000 </r>
       <r>    -8.1528     0.0000   256.0000 </r>
       <r>    -8.0398     0.0000   256.0000 </r>
       <r>    -7.9268     0.0000   256.0000 </r>
       <r>    -7.8137     0.0000   256.0000 </r>
       <r>    -7.7007     0.0000   256.0000 </r>
       <r>    -7.5877     0.0000   256.0000 </r>
       <r>    -7.4747     0.0000   256.0000 </r>
       <r>    -7.3616     0.0000   256.0000 </r>
       <r>    -7.2486     0.0000   256.0000 </r>
       <r>    -7.1356     0.0000   256.0000 </r>
       <r>    -7.0226     0.0000   256.0000 </r>
       <r>    -6.9095     0.0000   256.0000 </r>
       <r>    -6.7965     0.0000   256.0000 </r>
       <r>    -6.6835     0.0000   256.0000 </r>
       <r>    -6.5705     0.0000   256.0000 </r>
       <r>    -6.4574     0.0000   256.0000 </r>
       <r>    -6.3444     0.0000   256.0000 </r>
       <r>    -6.2314     0.0000   256.0000 </r>
       <r>    -6.1184     0.0000   256.0000 </r>
       <r>    -6.0053     0.0000   256.0000 </r>
       <r>    -5.8923     0.0000   256.0000 </r>
       <r>    -5.7793     0.0000   256.0000 </r>
       <r>    -5.6663     0.0000   256.0000 </r>
       <r>    -5.5532     0.0000   256.0000 </r>
       <r>    -5.4402     0.0000   256.0000 </r>
       <r>    -5.3272     0.0000   256.0000 </r>
       <r>    -5.2142     0.0000   256.0000 </r>
       <r>    -5.1011     0.0000   256.0000 </r>
       <r>    -4.9881     0.0000   256.0000 </r>
       <r>    -4.8751     0.0000   256.0000 </r>
       <r>    -4.7621     0.0000   256.0000 </r>
       <r>    -4.6490     0.0000   256.0000 </r>
       <r>    -4.5360     0.0000   256.0000 </r>
       <r>    -4.4230     0.0000   256.0000 </r>
       <r>    -4.3100     0.0000   256.0000 </r>
       <r>    -4.1969     0.0000   256.0000 </r>
       <r>    -4.0839     0.0000   256.0000 </r>
       <r>    -3.9709     0.0000   256.0000 </r>
       <r>    -3.8579     0.0000   256.0000 </r>
       <r>    -3.7448     0.0000   256.0000 </r>
       <r>    -3.6318     0.0000   256.0000 </r>
       <r>    -3.5188     0.0000   256.0000 </r>
       <r>    -3.4058     0.0000   256.0000 </r>
       <r>    -3.2927     0.0000   256.0000 </r>
       <r>    -3.1797     0.0000   256.0000 </r>
       <r>    -3.0667     0.0000   256.0000 </r>
       <r>    -2.9537     0.0000   256.0000 </r>
       <r>    -2.8406     0.0000   256.0000 </r>
       <r>    -2.7276     0.2274   256.0257 </r>
       <r>    -2.6146     8.6202   257.0000 </r>
       <r>    -2.5016    30.7819   260.4791 </r>
       <r>    -2.3885    79.6795   269.4849 </r>
       <r>    -2.2755    86.0366   279.2092 </r>
       <r>    -2.1625   152.6258   296.4603 </r>
       <r>    -2.0495    68.9201   304.2500 </r>
       <r>    -1.9364    58.5559   310.8683 </r>
       <r>    -1.8234    66.2322   318.3555 </r>
       <r>    -1.7104    65.4231   325.7500 </r>
       <r>    -1.5974     0.0000   325.7500 </r>
       <r>    -1.4843    86.6416   335.5427 </r>
       <r>    -1.3713   184.3529   356.3792 </r>
       <r>    -1.2583    21.7197   358.8341 </r>
       <r>    -1.1453   260.7554   388.3060 </r>
       <r>    -1.0322   132.3131   403.2614 </r>
       <r>    -0.9192   261.9288   432.8663 </r>
       <r>    -0.8062    60.0234   439.6508 </r>
       <r>    -0.6932    67.3646   447.2647 </r>
       <r>    -0.5801     6.5035   448.0000 </r>
       <r>    -0.4671     0.0000   448.0000 </r>
       <r>    -0.3541     0.0000   448.0000 </r>
       <r>    -0.2411     0.0000   448.0000 </r>
       <r>    -0.1280     0.0000   448.0000 </r>
       <r>    -0.0150     0.0000   448.0000 </r>
       <r>     0.0980     0.0000   448.0000 </r>
       <r>     0.2110     0.0000   448.0000 </r>
       <r>     0.3241     0.0000   448.0000 </r>
       <r>     0.4371     0.0000   448.0000 </r>
       <r>     0.5501     0.0000   448.0000 </r>
       <r>     0.6631     0.0000   448.0000 </r>
       <r>     0.7762     0.0000   448.0000 </r>
       <r>     0.8892     0.0000   448.0000 </r>
       <r>     1.0022     0.0000   448.0000 </r>
       <r>     1.1152     0.0000   448.0000 </r>
       <r>     1.2283     0.0000   448.0000 </r>
       <r>     1.3413     0.0000   448.0000 </r>
       <r>     1.4543     0.0000   448.0000 </r>
       <r>     1.5673     0.0000   448.0000 </r>
       <r>     1.6804     0.0000   448.0000 </r>
       <r>     1.7934     0.0000   448.0000 </r>
       <r>     1.9064     0.0000   448.0000 </r>
       <r>     2.0194     0.0000   448.0000 </r>
       <r>     2.1325     0.0000   448.0000 </r>
       <r>     2.2455     0.0000   448.0000 </r>
       <r>     2.3585     0.0000   448.0000 </r>
       <r>     2.4715     0.0000   448.0000 </r>
       <r>     2.5846     0.0000   448.0000 </r>
       <r>     2.6976     0.0000   448.0000 </r>
       <r>     2.8106     0.0000   448.0000 </r>
       <r>     2.9236     0.0000   448.0000 </r>
       <r>     3.0367     0.0000   448.0000 </r>
       <r>     3.1497     0.0000   448.0000 </r>
       <r>     3.2627     0.0000   448.0000 </r>
       <r>     3.3757     0.0000   448.0000 </r>
       <r>     3.4888     0.0000   448.0000 </r>
       <r>     3.6018     0.0000   448.0000 </r>
       <r>     3.7148     0.0000   448.0000 </r>
       <r>     3.8278     0.0000   448.0000 </r>
       <r>     3.9409     0.0000   448.0000 </r>
       <r>     4.0539     0.0000   448.0000 </r>
       <r>     4.1669     0.0000   448.0000 </r>
       <r>     4.2799     0.0000   448.0000 </r>
       <r>     4.3930     2.2117   448.2500 </r>
       <r>     4.5060     0.0000   448.2500 </r>
       <r>     4.6190     0.0000   448.2500 </r>
       <r>     4.7320     0.0000   448.2500 </r>
       <r>     4.8451     0.0000   448.2500 </r>
       <r>     4.9581     0.0000   448.2500 </r>
       <r>     5.0711    13.2673   449.7495 </r>
       <r>     5.1841     0.0012   449.7500 </r>
       <r>     5.2972     0.0000   449.7500 </r>
       <r>     5.4102     0.0000   449.7500 </r>
       <r>     5.5232     3.4086   450.1353 </r>
       <r>     5.6362    23.1342   452.7500 </r>
       <r>     5.7493     0.0000   452.7500 </r>
       <r>     5.8623    17.3972   454.7163 </r>
       <r>     5.9753     0.2980   454.7500 </r>
       <r>     6.0883     0.0000   454.7500 </r>
       <r>     6.2014     0.0000   454.7500 </r>
       <r>     6.3144     0.0011   454.7501 </r>
       <r>     6.4274    14.2601   456.3619 </r>
       <r>     6.5404     7.8576   457.2500 </r>
       <r>     6.6535    44.7237   462.3049 </r>
       <r>     6.7665    61.4266   469.2476 </r>
       <r>     6.8795    59.4405   475.9669 </r>
       <r>     6.9925    12.6990   477.4023 </r>
       <r>     7.1056     0.8644   477.5000 </r>
       <r>     7.2186     5.2900   478.0979 </r>
       <r>     7.3316     1.7478   478.2955 </r>
       <r>     7.4446    82.0203   487.5658 </r>
       <r>     7.5577   167.9561   506.5494 </r>
       <r>     7.6707     1.8042   506.7533 </r>
       <r>     7.7837    26.5132   509.7500 </r>
       <r>     7.8967     0.2991   509.7838 </r>
       <r>     8.0098    52.7865   515.7500 </r>
       <r>     8.1228     0.0089   515.7510 </r>
       <r>     8.2358    14.2567   517.3624 </r>
       <r>     8.3488    91.9011   527.7495 </r>
       <r>     8.4619     0.0000   527.7500 </r>
       <r>     8.5749   152.5289   544.9896 </r>
       <r>     8.6879     6.7278   545.7500 </r>
       <r>     8.8009     0.0000   545.7500 </r>
       <r>     8.9140    84.4671   555.2969 </r>
       <r>     9.0270   122.9720   569.1958 </r>
       <r>     9.1400     2.6913   569.5000 </r>
       <r>     9.2530    25.2446   572.3533 </r>
       <r>     9.3661    18.9933   574.5000 </r>
       <r>     9.4791     1.6424   574.6856 </r>
       <r>     9.5921    11.6290   576.0000 </r>
       <r>     9.7051     0.0000   576.0000 </r>
       <r>     9.8182     0.0000   576.0000 </r>
       <r>     9.9312     0.0000   576.0000 </r>
       <r>    10.0442     0.0000   576.0000 </r>
       <r>    10.1572     0.0000   576.0000 </r>
       <r>    10.2703     0.0000   576.0000 </r>
       <r>    10.3833     0.0000   576.0000 </r>
       <r>    10.4963     0.0000   576.0000 </r>
       <r>    10.6093     0.0000   576.0000 </r>
       <r>    10.7224     0.0000   576.0000 </r>
       <r>    10.8354     0.0000   576.0000 </r>
       <r>    10.9484     0.0000   576.0000 </r>
       <r>    11.0614     0.0000   576.0000 </r>
      </set>
     </set>
    </array>
   </total>
  </dos>
 </calculation>
 <structure name="finalpos" >
  <crystal>
   <varray name="basis" >
    <v>      11.20400236       0.00000000       0.00000000 </v>
    <v>       0.00000000      11.20400236       0.00000000 </v>
    <v>       0.00000000       0.00000000      11.20400236 </v>
   </varray>
   <i name="volume">   1406.43470641 </i>
   <varray name="rec_basis" >
    <v>       0.08925382       0.00000000       0.00000000 </v>
    <v>       0.00000000       0.08925382       0.00000000 </v>
    <v>       0.00000000       0.00000000       0.08925382 </v>
   </varray>
  </crystal>
  <varray name="positions" >
   <v>       0.00267761       0.00000000       0.00000000 </v>
   <v>       0.24732239       0.25000000       0.00000000 </v>
   <v>       0.25000000       0.00000000       0.25000000 </v>
   <v>       0.00000000       0.25000000       0.25000000 </v>
   <v>       0.00000000       0.00000000       0.50000000 </v>
   <v>       0.25000000       0.25000000       0.50000000 </v>
   <v>       0.25000000       0.00000000       0.75000000 </v>
   <v>       0.00000000       0.25000000       0.75000000 </v>
   <v>       0.00000000       0.50000000       0.00000000 </v>
   <v>       0.25000000       0.75000000       0.00000000 </v>
   <v>       0.25000000       0.50000000       0.25000000 </v>
   <v>       0.00000000       0.75000000       0.25000000 </v>
   <v>       0.00000000       0.50000000       0.50000000 </v>
   <v>       0.25000000       0.75000000       0.50000000 </v>
   <v>       0.25000000       0.50000000       0.75000000 </v>
   <v>       0.00000000       0.75000000       0.75000000 </v>
   <v>       0.50000000       0.00000000       0.00000000 </v>
   <v>       0.75000000       0.25000000       0.00000000 </v>
   <v>       0.75000000       0.00000000       0.25000000 </v>
   <v>       0.50000000       0.25000000       0.25000000 </v>
   <v>       0.50000000       0.00000000       0.50000000 </v>
   <v>       0.75000000       0.25000000       0.50000000 </v>
   <v>       0.75000000       0.00000000       0.75000000 </v>
   <v>       0.50000000       0.25000000       0.75000000 </v>
   <v>       0.50000000       0.50000000       0.00000000 </v>
   <v>       0.75000000       0.75000000       0.00000000 </v>
   <v>       0.75000000       0.50000000       0.25000000 </v>
   <v>       0.50000000       0.75000000       0.25000000 </v>
   <v>       0.50000000       0.50000000       0.50000000 </v>
   <v>       0.75000000       0.75000000       0.50000000 </v>
   <v>       0.75000000       0.50000000       0.75000000 </v>
   <v>       0.50000000       0.75000000       0.75000000 </v>
   <v>       0.25000000       0.25000000       0.25000000 </v>
   <v>       0.00000000       0.00000000       0.25000000 </v>
   <v>       0.00000000       0.25000000       0.00000000 </v>
   <v>       0.25000000       0.00000000       0.00000000 </v>
   <v>       0.25000000       0.25000000       0.75000000 </v>
   <v>       0.00000000       0.00000000       0.75000000 </v>
   <v>       0.00000000       0.25000000       0.50000000 </v>
   <v>       0.25000000       0.00000000       0.50000000 </v>
   <v>       0.25000000       0.75000000       0.25000000 </v>
   <v>       0.00000000       0.50000000       0.25000000 </v>
   <v>       0.00000000       0.75000000       0.00000000 </v>
   <v>       0.25000000       0.50000000       0.00000000 </v>
   <v>       0.25000000       0.75000000       0.75000000 </v>
   <v>       0.00000000       0.50000000       0.75000000 </v>
   <v>       0.00000000       0.75000000       0.50000000 </v>
   <v>       0.25000000       0.50000000       0.50000000 </v>
   <v>       0.75000000       0.25000000       0.25000000 </v>
   <v>       0.50000000       0.00000000       0.25000000 </v>
   <v>       0.50000000       0.25000000       0.00000000 </v>
   <v>       0.75000000       0.00000000       0.00000000 </v>
   <v>       0.75000000       0.25000000       0.75000000 </v>
   <v>       0.50000000       0.00000000       0.75000000 </v>
   <v>       0.50000000       0.25000000       0.50000000 </v>
   <v>       0.75000000       0.00000000       0.50000000 </v>
   <v>       0.75000000       0.75000000       0.25000000 </v>
   <v>       0.50000000       0.50000000       0.25000000 </v>
   <v>       0.50000000       0.75000000       0.00000000 </v>
   <v>       0.75000000       0.50000000       0.00000000 </v>
   <v>       0.75000000       0.75000000       0.75000000 </v>
   <v>       0.50000000       0.50000000       0.75000000 </v>
   <v>       0.50000000       0.75000000       0.50000000 </v>
   <v>       0.75000000       0.50000000       0.50000000 </v>
  </varray>
 </structure>
</modeling>
