  64  64   0   0
  0.2019411E+02  0.1089268E-08  0.1089268E-08  0.1089268E-08  0.5000000E-15
  1.000000000000000E-004
  CAR 
 unknown system                          
      9.92947000     -6.99564739  301      5.81807690      1.00000000
     -6.996  0.0000E+00  0.0000E+00
     -6.939  0.0000E+00  0.0000E+00
     -6.883  0.0000E+00  0.0000E+00
     -6.826  0.0000E+00  0.0000E+00
     -6.770  0.0000E+00  0.0000E+00
     -6.714  0.0000E+00  0.0000E+00
     -6.657  0.0000E+00  0.0000E+00
     -6.601  0.0000E+00  0.0000E+00
     -6.544  0.0000E+00  0.0000E+00
     -6.488  0.0000E+00  0.0000E+00
     -6.431  0.0000E+00  0.0000E+00
     -6.375  0.0000E+00  0.0000E+00
     -6.319  0.1478E-09  0.8336E-11
     -6.262  0.2466E-01  0.1391E-02
     -6.206  0.4081E+01  0.2316E+00
     -6.149  0.3254E+00  0.2500E+00
     -6.093  0.1181E-06  0.2500E+00
     -6.037  0.8231E-07  0.2500E+00
     -5.980  0.9096E+00  0.3013E+00
     -5.924  0.2528E+02  0.1727E+01
     -5.867  0.4019E+00  0.1750E+01
     -5.811  0.9895E-08  0.1750E+01
     -5.754  0.6381E-04  0.1750E+01
     -5.698  0.1242E+02  0.2451E+01
     -5.642  0.4073E+02  0.4748E+01
     -5.585  0.2940E-01  0.4750E+01
     -5.529  0.4358E-10  0.4750E+01
     -5.472  0.3965E-01  0.4752E+01
     -5.416  0.2919E+02  0.6399E+01
     -5.360  0.6223E+01  0.6750E+01
     -5.303  0.1520E-04  0.6750E+01
     -5.247  0.4150E-10  0.6750E+01
     -5.190  0.3797E-01  0.6752E+01
     -5.134  0.2237E+02  0.8014E+01
     -5.077  0.4177E+01  0.8250E+01
     -5.021  0.7791E-05  0.8250E+01
     -4.965  0.3831E-03  0.8250E+01
     -4.908  0.3288E+02  0.1010E+02
     -4.852  0.7345E+02  0.1425E+02
     -4.795  0.2559E-01  0.1425E+02
     -4.739  0.2490E-03  0.1425E+02
     -4.683  0.2955E+02  0.1592E+02
     -4.626  0.7677E+02  0.2025E+02
     -4.570  0.3583E-01  0.2025E+02
     -4.513  0.0000E+00  0.2025E+02
     -4.457  0.0000E+00  0.2025E+02
     -4.400  0.0000E+00  0.2025E+02
     -4.344  0.0000E+00  0.2025E+02
     -4.288  0.5508E-10  0.2025E+02
     -4.231  0.6284E-01  0.2025E+02
     -4.175  0.4400E+02  0.2274E+02
     -4.118  0.9110E+01  0.2325E+02
     -4.062  0.4014E+02  0.2551E+02
     -4.006  0.6619E+02  0.2925E+02
     -3.949  0.1512E-01  0.2925E+02
     -3.893  0.1139E+02  0.2989E+02
     -3.836  0.2244E+02  0.3116E+02
     -3.780  0.1048E+02  0.3175E+02
     -3.723  0.2750E-03  0.3175E+02
     -3.667  0.3688E+01  0.3196E+02
     -3.611  0.1011E+03  0.3766E+02
     -3.554  0.1905E+01  0.3777E+02
     -3.498  0.9469E+02  0.4311E+02
     -3.441  0.1133E+02  0.4375E+02
     -3.385  0.5270E+01  0.4405E+02
     -3.329  0.1001E+03  0.4969E+02
     -3.272  0.1025E+01  0.4975E+02
     -3.216  0.1323E-07  0.4975E+02
     -3.159  0.1416E+00  0.4976E+02
     -3.103  0.8895E+02  0.5478E+02
     -3.046  0.1726E+02  0.5575E+02
     -2.990  0.3481E-04  0.5575E+02
     -2.934  0.0000E+00  0.5575E+02
     -2.877  0.0000E+00  0.5575E+02
     -2.821  0.0000E+00  0.5575E+02
     -2.764  0.0000E+00  0.5575E+02
     -2.708  0.0000E+00  0.5575E+02
     -2.652  0.0000E+00  0.5575E+02
     -2.595  0.4055E-08  0.5575E+02
     -2.539  0.4200E+00  0.5577E+02
     -2.482  0.4970E+02  0.5858E+02
     -2.426  0.3060E+01  0.5875E+02
     -2.369  0.6969E-06  0.5875E+02
     -2.313  0.0000E+00  0.5875E+02
     -2.257  0.0000E+00  0.5875E+02
     -2.200  0.2729E-11  0.5875E+02
     -2.144  0.1051E-01  0.5875E+02
     -2.087  0.1958E+02  0.5986E+02
     -2.031  0.2464E+02  0.6125E+02
     -1.975  0.8862E+02  0.6624E+02
     -1.918  0.4269E+02  0.6865E+02
     -1.862  0.1057E+02  0.6925E+02
     -1.805  0.3536E-04  0.6925E+02
     -1.749  0.0000E+00  0.6925E+02
     -1.692  0.0000E+00  0.6925E+02
     -1.636  0.0000E+00  0.6925E+02
     -1.580  0.1850E-04  0.6925E+02
     -1.523  0.8786E+01  0.6975E+02
     -1.467  0.4432E+02  0.7225E+02
     -1.410  0.6809E-01  0.7225E+02
     -1.354  0.2139E-07  0.7225E+02
     -1.298  0.4244E+00  0.7227E+02
     -1.241  0.1691E+02  0.7323E+02
     -1.185  0.3929E+00  0.7325E+02
     -1.128  0.3261E-01  0.7325E+02
     -1.072  0.7585E+02  0.7753E+02
     -1.015  0.3047E+02  0.7925E+02
     -0.959  0.2814E-03  0.7925E+02
     -0.903  0.2765E-01  0.7925E+02
     -0.846  0.7422E+02  0.8344E+02
     -0.790  0.3210E+02  0.8525E+02
     -0.733  0.3254E-02  0.8525E+02
     -0.677  0.8753E+02  0.9019E+02
     -0.621  0.1252E+03  0.9725E+02
     -0.564  0.1901E-01  0.9725E+02
     -0.508  0.0000E+00  0.9725E+02
     -0.451  0.0000E+00  0.9725E+02
     -0.395  0.0000E+00  0.9725E+02
     -0.338  0.2374E-07  0.9725E+02
     -0.282  0.1308E+01  0.9732E+02
     -0.226  0.1007E+03  0.1030E+03
     -0.169  0.4337E+01  0.1032E+03
     -0.113  0.7445E-06  0.1033E+03
     -0.056  0.1287E+01  0.1033E+03
      0.000  0.2504E+02  0.1047E+03
      0.056  0.2642E+00  0.1047E+03
      0.113  0.3521E-08  0.1048E+03
      0.169  0.8107E-03  0.1048E+03
      0.226  0.2278E+02  0.1060E+03
      0.282  0.3039E+02  0.1077E+03
      0.339  0.3715E-02  0.1078E+03
      0.395  0.6732E+01  0.1081E+03
      0.451  0.9888E+02  0.1137E+03
      0.508  0.7355E+00  0.1137E+03
      0.564  0.5912E-08  0.1138E+03
      0.621  0.0000E+00  0.1138E+03
      0.677  0.0000E+00  0.1138E+03
      0.733  0.0000E+00  0.1138E+03
      0.790  0.0000E+00  0.1138E+03
      0.846  0.0000E+00  0.1138E+03
      0.903  0.0000E+00  0.1138E+03
      0.959  0.0000E+00  0.1138E+03
      1.016  0.0000E+00  0.1138E+03
      1.072  0.0000E+00  0.1138E+03
      1.128  0.0000E+00  0.1138E+03
      1.185  0.0000E+00  0.1138E+03
      1.241  0.0000E+00  0.1138E+03
      1.298  0.6202E-07  0.1138E+03
      1.354  0.1259E+01  0.1138E+03
      1.410  0.9137E+02  0.1190E+03
      1.467  0.1477E+03  0.1273E+03
      1.523  0.2556E+02  0.1287E+03
      1.580  0.1418E-03  0.1288E+03
      1.636  0.0000E+00  0.1288E+03
      1.693  0.1023E-05  0.1288E+03
      1.749  0.2674E+01  0.1289E+03
      1.805  0.3387E+02  0.1308E+03
      1.862  0.5091E+02  0.1337E+03
      1.918  0.9232E+01  0.1342E+03
      1.975  0.4503E+02  0.1367E+03
      2.031  0.8189E-01  0.1367E+03
      2.087  0.1314E-03  0.1368E+03
      2.144  0.2508E+02  0.1382E+03
      2.200  0.1045E+03  0.1441E+03
      2.257  0.1065E+03  0.1501E+03
      2.313  0.1233E+03  0.1570E+03
      2.370  0.9240E+02  0.1622E+03
      2.426  0.2126E+00  0.1622E+03
      2.482  0.3471E-09  0.1622E+03
      2.539  0.0000E+00  0.1622E+03
      2.595  0.0000E+00  0.1622E+03
      2.652  0.0000E+00  0.1622E+03
      2.708  0.0000E+00  0.1622E+03
      2.765  0.4403E-08  0.1623E+03
      2.821  0.2896E+00  0.1623E+03
      2.877  0.2510E+02  0.1637E+03
      2.934  0.4580E+02  0.1663E+03
      2.990  0.1509E+03  0.1748E+03
      3.047  0.6984E+02  0.1787E+03
      3.103  0.6361E+02  0.1823E+03
      3.159  0.9640E+02  0.1877E+03
      3.216  0.1353E+02  0.1885E+03
      3.272  0.1075E+03  0.1946E+03
      3.329  0.3849E+02  0.1967E+03
      3.385  0.1745E-01  0.1967E+03
      3.442  0.1712E-02  0.1968E+03
      3.498  0.4623E+02  0.1994E+03
      3.554  0.1498E+03  0.2078E+03
      3.611  0.1663E+02  0.2087E+03
      3.667  0.3065E-04  0.2088E+03
      3.724  0.5658E-08  0.2088E+03
      3.780  0.4826E+00  0.2088E+03
      3.836  0.5509E+02  0.2119E+03
      3.893  0.1029E+03  0.2177E+03
      3.949  0.1054E+01  0.2177E+03
      4.006  0.7803E-03  0.2178E+03
      4.062  0.2260E+02  0.2190E+03
      4.119  0.8440E+02  0.2238E+03
      4.175  0.5252E+02  0.2267E+03
      4.231  0.1285E+00  0.2268E+03
      4.288  0.8798E+02  0.2317E+03
      4.344  0.2162E+02  0.2329E+03
      4.401  0.7325E+02  0.2371E+03
      4.457  0.9444E+02  0.2424E+03
      4.513  0.3606E+02  0.2444E+03
      4.570  0.1443E+02  0.2452E+03
      4.626  0.4249E-03  0.2452E+03
      4.683  0.0000E+00  0.2452E+03
      4.739  0.0000E+00  0.2452E+03
      4.796  0.3733E-10  0.2453E+03
      4.852  0.5244E-01  0.2453E+03
      4.908  0.4352E+02  0.2477E+03
      4.965  0.7366E+02  0.2519E+03
      5.021  0.6849E+01  0.2522E+03
      5.078  0.4325E-05  0.2522E+03
      5.134  0.0000E+00  0.2522E+03
      5.190  0.0000E+00  0.2522E+03
      5.247  0.0000E+00  0.2522E+03
      5.303  0.5313E-13  0.2522E+03
      5.360  0.2082E-02  0.2523E+03
      5.416  0.2743E+02  0.2538E+03
      5.473  0.2574E+02  0.2552E+03
      5.529  0.1489E-02  0.2552E+03
      5.585  0.0000E+00  0.2552E+03
      5.642  0.3078E-04  0.2553E+03
      5.698  0.3683E+01  0.2555E+03
      5.755  0.9606E+01  0.2560E+03
      5.811  0.4517E-02  0.2560E+03
      5.867  0.0000E+00  0.2560E+03
      5.924  0.0000E+00  0.2560E+03
      5.980  0.0000E+00  0.2560E+03
      6.037  0.0000E+00  0.2560E+03
      6.093  0.0000E+00  0.2560E+03
      6.150  0.1815E-05  0.2560E+03
      6.206  0.2663E+01  0.2562E+03
      6.262  0.2384E+02  0.2575E+03
      6.319  0.1754E+02  0.2585E+03
      6.375  0.9134E+01  0.2590E+03
      6.432  0.1492E-03  0.2590E+03
      6.488  0.0000E+00  0.2590E+03
      6.544  0.0000E+00  0.2590E+03
      6.601  0.0000E+00  0.2590E+03
      6.657  0.1311E-08  0.2590E+03
      6.714  0.1748E+00  0.2590E+03
      6.770  0.2481E+02  0.2604E+03
      6.827  0.4863E+02  0.2632E+03
      6.883  0.6153E+01  0.2635E+03
      6.939  0.5712E-05  0.2635E+03
      6.996  0.0000E+00  0.2635E+03
      7.052  0.2056E-05  0.2635E+03
      7.109  0.7490E+01  0.2639E+03
      7.165  0.1404E+03  0.2718E+03
      7.221  0.2810E+01  0.2720E+03
      7.278  0.4394E-06  0.2720E+03
      7.334  0.0000E+00  0.2720E+03
      7.391  0.0000E+00  0.2720E+03
      7.447  0.0000E+00  0.2720E+03
      7.504  0.2412E-03  0.2720E+03
      7.560  0.3339E+02  0.2739E+03
      7.616  0.1802E+03  0.2841E+03
      7.673  0.5958E+02  0.2874E+03
      7.729  0.1543E+01  0.2875E+03
      7.786  0.4270E-06  0.2875E+03
      7.842  0.3121E+01  0.2877E+03
      7.898  0.1013E+03  0.2934E+03
      7.955  0.6672E+01  0.2938E+03
      8.011  0.1004E+03  0.2994E+03
      8.068  0.5081E+02  0.3023E+03
      8.124  0.1098E+03  0.3085E+03
      8.181  0.9707E-01  0.3085E+03
      8.237  0.2464E+02  0.3099E+03
      8.293  0.9473E+02  0.3152E+03
      8.350  0.2480E+00  0.3152E+03
      8.406  0.3877E-06  0.3153E+03
      8.463  0.2485E+01  0.3154E+03
      8.519  0.5014E+02  0.3182E+03
      8.575  0.5525E+00  0.3182E+03
      8.632  0.1596E-01  0.3183E+03
      8.688  0.3844E+02  0.3204E+03
      8.745  0.5160E+02  0.3233E+03
      8.801  0.2995E+01  0.3235E+03
      8.858  0.1345E-04  0.3235E+03
      8.914  0.0000E+00  0.3235E+03
      8.970  0.0000E+00  0.3235E+03
      9.027  0.0000E+00  0.3235E+03
      9.083  0.2362E-06  0.3235E+03
      9.140  0.6509E+00  0.3235E+03
      9.196  0.8162E+01  0.3240E+03
      9.252  0.4931E-01  0.3240E+03
      9.309  0.2955E-09  0.3240E+03
      9.365  0.0000E+00  0.3240E+03
      9.422  0.0000E+00  0.3240E+03
      9.478  0.0000E+00  0.3240E+03
      9.535  0.0000E+00  0.3240E+03
      9.591  0.0000E+00  0.3240E+03
      9.647  0.0000E+00  0.3240E+03
      9.704  0.0000E+00  0.3240E+03
      9.760  0.0000E+00  0.3240E+03
      9.817  0.0000E+00  0.3240E+03
      9.873  0.0000E+00  0.3240E+03
      9.929  0.0000E+00  0.3240E+03
