 vasp.6.3.0 20Jan22 (build Aug 13 2022 13:28:16) complex                        
  
 executed on             LinuxIFC date 2022.09.07  11:45:33
 running on    2 total cores
 distrk:  each k-point on    2 cores,    1 groups
 distr:  one band on NCORE=   1 cores,    2 groups


--------------------------------------------------------------------------------------------------------


 INCAR:
   ADDGRID = True
   EDIFF = 1e-08
   ENCUT = 318
   GGA = Ps
   IALGO = 38
   IBRION = -1
   ISMEAR = 0
   LCHARG = False
   LREAL = False
   LWAVE = False
   NELMIN = 5
   NPAR = 4
   PREC = Accurate
   SIGMA = 0.02

 POTCAR:    PAW_PBE Si 05Jan2001                  
 -----------------------------------------------------------------------------
|                                                                             |
|           W    W    AA    RRRRR   N    N  II  N    N   GGGG   !!!           |
|           W    W   A  A   R    R  NN   N  II  NN   N  G    G  !!!           |
|           W    W  A    A  R    R  N N  N  II  N N  N  G       !!!           |
|           W WW W  AAAAAA  RRRRR   N  N N  II  N  N N  G  GGG   !            |
|           WW  WW  A    A  R   R   N   NN  II  N   NN  G    G                |
|           W    W  A    A  R    R  N    N  II  N    N   GGGG   !!!           |
|                                                                             |
|     The value NPAR = 4 specified in the INCAR file was overwritten,         |
|     because it was not compatible with the 2 processes available:           |
|     NPAR = 2                                                                |
|     was used instead, please check that this makes sense for your           |
|     machine.                                                                |
|                                                                             |
 -----------------------------------------------------------------------------

 POTCAR:    PAW_PBE Si 05Jan2001                  
   VRHFIN =Si: s2p2                                                                                 
   LEXCH  = PE                                                                                      
   EATOM  =   103.0669 eV,    7.5752 Ry                                                             
                                                                                                    
   TITEL  = PAW_PBE Si 05Jan2001                                                                    
   LULTRA =        F    use ultrasoft PP ?                                                          
   IUNSCR =        1    unscreen: 0-lin 1-nonlin 2-no                                               
   RPACOR =    1.500    partial core radius                                                         
   POMASS =   28.085; ZVAL   =    4.000    mass and valenz                                          
   RCORE  =    1.900    outmost cutoff radius                                                       
   RWIGS  =    2.480; RWIGS  =    1.312    wigner-seitz radius (au A)                               
   ENMAX  =  245.345; ENMIN  =  184.009 eV                                                          
   ICORE  =        2    local potential                                                             
   LCOR   =        T    correct aug charges                                                         
   LPAW   =        T    paw PP                                                                      
   EAUG   =  322.069                                                                                
   DEXC   =    0.000                                                                                
   RMAX   =    1.950    core radius for proj-oper                                                   
   RAUG   =    1.300    factor for augmentation sphere                                              
   RDEP   =    1.993    radius for radial grids                                                     
   RDEPT  =    1.837    core radius for aug-charge                                                  
                                                                                                    
   Atomic configuration                                                                             
    6 entries                                                                                       
     n  l   j            E        occ.                                                              
     1  0  0.50     -1785.8828   2.0000                                                             
     2  0  0.50      -139.4969   2.0000                                                             
     2  1  1.50       -95.5546   6.0000                                                             
     3  0  0.50       -10.8127   2.0000                                                             
     3  1  0.50        -4.0811   2.0000                                                             
     3  2  1.50        -4.0817   0.0000                                                             
   Description                                                                                      
     l       E           TYP  RCUT    TYP  RCUT                                                     
     0    -10.8127223     23  1.900                                                                 
     0     -7.6451159     23  1.900                                                                 
     1     -4.0811372     23  1.900                                                                 
     1      2.4879257     23  1.900                                                                 
     2     -4.0817478      7  1.900                                                                 
  local pseudopotential read in
  partial core-charges read in
  partial kinetic energy density read in
  atomic valenz-charges read in
  non local Contribution for L=           0  read in
    real space projection operators read in
  non local Contribution for L=           0  read in
    real space projection operators read in
  non local Contribution for L=           1  read in
    real space projection operators read in
  non local Contribution for L=           1  read in
    real space projection operators read in
    PAW grid and wavefunctions read in
 
   number of l-projection  operators is LMAX  =           4
   number of lm-projection operators is LMMAX =           8
 
 -----------------------------------------------------------------------------
|                                                                             |
|               ----> ADVICE to this user running VASP <----                  |
|                                                                             |
|     You have a (more or less) 'large supercell' and for larger cells it     |
|     might be more efficient to use real-space projection operators.         |
|     Therefore, try LREAL= Auto in the INCAR file.                           |
|     Mind: For very accurate calculation, you might also keep the            |
|     reciprocal projection scheme (i.e. LREAL=.FALSE.).                      |
|                                                                             |
 -----------------------------------------------------------------------------

 -----------------------------------------------------------------------------
|                                                                             |
|               ----> ADVICE to this user running VASP <----                  |
|                                                                             |
|     You enforced a specific xc type in the INCAR file but a different       |
|     type was found in the POTCAR file.                                      |
|     I HOPE YOU KNOW WHAT YOU ARE DOING!                                     |
|                                                                             |
 -----------------------------------------------------------------------------

  PAW_PBE Si 05Jan2001                  :
 energy of atom  1       EATOM= -103.0669
 kinetic energy error for atom=    0.0016 (will be added to EATOM!!)
 
 
 POSCAR: Si
  positions in cartesian coordinates
  No initial velocities read in
 exchange correlation table for  LEXCH =       14
   RHO(1)=    0.500       N(1)  =     2000
   RHO(2)=  100.500       N(2)  =     4000
 


--------------------------------------------------------------------------------------------------------


 ion  position               nearest neighbor table
   1  0.250  0.250  0.250-   2 2.36   4 2.36   6 2.36   8 2.36
   2  0.375  0.375  0.375-   1 2.36  31 2.36  45 2.36  51 2.36
   3  0.000  0.000  0.250-   4 2.36  22 2.36  40 2.36  50 2.36
   4  0.125  0.125  0.375-   1 2.36   3 2.36  13 2.36  15 2.36
   5  0.000  0.250  0.000-   6 2.36  12 2.36  40 2.36  42 2.36
   6  0.125  0.375  0.125-   1 2.36   5 2.36  19 2.36  23 2.36
   7  0.250  0.000  0.000-   8 2.36  12 2.36  22 2.36  26 2.36
   8  0.375  0.125  0.125-   1 2.36   7 2.36  35 2.36  37 2.36
   9  0.250  0.250  0.750-  10 2.36  12 2.36  14 2.36  16 2.36
  10  0.375  0.375  0.875-   9 2.36  23 2.36  37 2.36  59 2.36
  11  0.000  0.000  0.750-  12 2.36  30 2.36  48 2.36  58 2.36
  12  0.125  0.125  0.875-   5 2.36   7 2.36   9 2.36  11 2.36
  13  0.000  0.250  0.500-   4 2.36  14 2.36  34 2.36  48 2.36
  14  0.125  0.375  0.625-   9 2.36  13 2.36  27 2.36  31 2.36
  15  0.250  0.000  0.500-   4 2.36  16 2.36  18 2.36  30 2.36
  16  0.375  0.125  0.625-   9 2.36  15 2.36  43 2.36  45 2.36
  17  0.250  0.750  0.250-  18 2.36  20 2.36  22 2.36  24 2.36
  18  0.375  0.875  0.375-  15 2.36  17 2.36  35 2.36  61 2.36
  19  0.000  0.500  0.250-   6 2.36  20 2.36  34 2.36  56 2.36
  20  0.125  0.625  0.375-  17 2.36  19 2.36  29 2.36  31 2.36
  21  0.000  0.750  0.000-  22 2.36  28 2.36  56 2.36  58 2.36
  22  0.125  0.875  0.125-   3 2.36   7 2.36  17 2.36  21 2.36
  23  0.250  0.500  0.000-   6 2.36  10 2.36  24 2.36  28 2.36
  24  0.375  0.625  0.125-  17 2.36  23 2.36  51 2.36  53 2.36
  25  0.250  0.750  0.750-  26 2.36  28 2.36  30 2.36  32 2.36
  26  0.375  0.875  0.875-   7 2.36  25 2.36  43 2.36  53 2.36
  27  0.000  0.500  0.750-  14 2.36  28 2.36  42 2.36  64 2.36
  28  0.125  0.625  0.875-  21 2.36  23 2.36  25 2.36  27 2.36
  29  0.000  0.750  0.500-  20 2.36  30 2.36  50 2.36  64 2.36
  30  0.125  0.875  0.625-  11 2.36  15 2.36  25 2.36  29 2.36
  31  0.250  0.500  0.500-   2 2.36  14 2.36  20 2.36  32 2.36
  32  0.375  0.625  0.625-  25 2.36  31 2.36  59 2.36  61 2.36
  33  0.750  0.250  0.250-  34 2.36  36 2.36  38 2.36  40 2.36
  34  0.875  0.375  0.375-  13 2.36  19 2.36  33 2.36  63 2.36
  35  0.500  0.000  0.250-   8 2.36  18 2.36  36 2.36  54 2.36
  36  0.625  0.125  0.375-  33 2.36  35 2.36  45 2.36  47 2.36
  37  0.500  0.250  0.000-   8 2.36  10 2.36  38 2.36  44 2.36
  38  0.625  0.375  0.125-  33 2.36  37 2.36  51 2.36  55 2.36
  39  0.750  0.000  0.000-  40 2.36  44 2.36  54 2.36  58 2.36
  40  0.875  0.125  0.125-   3 2.36   5 2.36  33 2.36  39 2.36
  41  0.750  0.250  0.750-  42 2.36  44 2.36  46 2.36  48 2.36
  42  0.875  0.375  0.875-   5 2.36  27 2.36  41 2.36  55 2.36
  43  0.500  0.000  0.750-  16 2.36  26 2.36  44 2.36  62 2.36
  44  0.625  0.125  0.875-  37 2.36  39 2.36  41 2.36  43 2.36
  45  0.500  0.250  0.500-   2 2.36  16 2.36  36 2.36  46 2.36
  46  0.625  0.375  0.625-  41 2.36  45 2.36  59 2.36  63 2.36
  47  0.750  0.000  0.500-  36 2.36  48 2.36  50 2.36  62 2.36
  48  0.875  0.125  0.625-  11 2.36  13 2.36  41 2.36  47 2.36
  49  0.750  0.750  0.250-  50 2.36  52 2.36  54 2.36  56 2.36
  50  0.875  0.875  0.375-   3 2.36  29 2.36  47 2.36  49 2.36
  51  0.500  0.500  0.250-   2 2.36  24 2.36  38 2.36  52 2.36
  52  0.625  0.625  0.375-  49 2.36  51 2.36  61 2.36  63 2.36
  53  0.500  0.750  0.000-  24 2.36  26 2.36  54 2.36  60 2.36
  54  0.625  0.875  0.125-  35 2.36  39 2.36  49 2.36  53 2.36
  55  0.750  0.500  0.000-  38 2.36  42 2.36  56 2.36  60 2.36
  56  0.875  0.625  0.125-  19 2.36  21 2.36  49 2.36  55 2.36
  57  0.750  0.750  0.750-  58 2.36  60 2.36  62 2.36  64 2.36
  58  0.875  0.875  0.875-  11 2.36  21 2.36  39 2.36  57 2.36
  59  0.500  0.500  0.750-  10 2.36  32 2.36  46 2.36  60 2.36
  60  0.625  0.625  0.875-  53 2.36  55 2.36  57 2.36  59 2.36
  61  0.500  0.750  0.500-  18 2.36  32 2.36  52 2.36  62 2.36
  62  0.625  0.875  0.625-  43 2.36  47 2.36  57 2.36  61 2.36
  63  0.750  0.500  0.500-  34 2.36  46 2.36  52 2.36  64 2.36
  64  0.875  0.625  0.625-  27 2.36  29 2.36  57 2.36  63 2.36
 
  LATTYP: Found a simple cubic cell.
 ALAT       =    10.8926831200
  
  Lattice vectors:
  
 A1 = (  10.8926831200,   0.0000000000,   0.0000000000)
 A2 = (   0.0000000000,  10.8926831200,   0.0000000000)
 A3 = (   0.0000000000,   0.0000000000,  10.8926831200)


Analysis of symmetry for initial positions (statically):
=====================================================================
 Subroutine PRICEL returns following result:
 
  LATTYP: Found a face centered cubic cell.
 ALAT       =     5.4463415600
  
  Lattice vectors:
  
 A1 = (   2.7231707800,  -2.7231707800,   0.0000000000)
 A2 = (   2.7231707800,   0.0000000000,   2.7231707800)
 A3 = (   0.0000000000,  -2.7231707800,   2.7231707800)
 
  32 primitive cells build up your supercell.
 

 Routine SETGRP: Setting up the symmetry group for a 
 simple cubic supercell.


 Subroutine GETGRP returns: Found 48 space group operations
 (whereof 24 operations were pure point group operations)
 out of a pool of 48 trial point group operations.


The static configuration has the point symmetry T_d .
 The point group associated with its full space group is O_h .


Analysis of symmetry for dynamics (positions and initial velocities):
=====================================================================
 Subroutine PRICEL returns following result:
 
  LATTYP: Found a face centered cubic cell.
 ALAT       =     5.4463415600
  
  Lattice vectors:
  
 A1 = (   2.7231707800,  -2.7231707800,   0.0000000000)
 A2 = (   2.7231707800,   0.0000000000,   2.7231707800)
 A3 = (   0.0000000000,  -2.7231707800,   2.7231707800)
 
  32 primitive cells build up your supercell.
 

 Routine SETGRP: Setting up the symmetry group for a 
 simple cubic supercell.


 Subroutine GETGRP returns: Found 48 space group operations
 (whereof 24 operations were pure point group operations)
 out of a pool of 48 trial point group operations.


The dynamic configuration has the point symmetry T_d .
 The point group associated with its full space group is O_h .


 Subroutine INISYM returns: Found 48 space group operations
 (whereof 24 operations are pure point group operations),
 and found    32 'primitive' translations


----------------------------------------------------------------------------------------

                                     Primitive cell                                     

  volume of cell :      40.3882

  direct lattice vectors                    reciprocal lattice vectors
     2.723170780 -2.723170780  0.000000000     0.183609491 -0.183609491 -0.183609491
     2.723170780  0.000000000  2.723170780     0.183609491  0.183609491  0.183609491
     0.000000000 -2.723170780  2.723170780    -0.183609491 -0.183609491  0.183609491

  length of vectors
     3.851145050  3.851145050  3.851145050     0.318020967  0.318020967  0.318020967

  position of ions in fractional coordinates (direct lattice)
     0.500000000  0.500000000  0.500000000
     0.250000000  0.250000000  0.250000000

  ion indices of the primitive-cell ions
   primitive index   ion index
                 1           1
                 2           2

----------------------------------------------------------------------------------------

 
 
 KPOINTS: KPOINTS created by Atomic Simulation Env

Automatic generation of k-mesh.
 Grid dimensions read from file:
 generate k-points for:    2    2    2

 Generating k-lattice:

  Cartesian coordinates                     Fractional coordinates (reciprocal lattice)
     0.045902373  0.000000000  0.000000000     0.500000000  0.000000000  0.000000000
     0.000000000  0.045902373  0.000000000     0.000000000  0.500000000  0.000000000
     0.000000000  0.000000000  0.045902373     0.000000000  0.000000000  0.500000000

  Length of vectors
     0.045902373  0.045902373  0.045902373

  Shift w.r.t. Gamma in fractional coordinates (k-lattice)
     0.000000000  0.000000000  0.000000000

 
 Subroutine IBZKPT returns following result:
 ===========================================
 
 Found      4 irreducible k-points:
 
 Following reciprocal coordinates:
            Coordinates               Weight
  0.000000  0.000000  0.000000      1.000000
  0.500000  0.000000  0.000000      3.000000
  0.500000  0.500000  0.000000      3.000000
  0.500000  0.500000  0.500000      1.000000
 
 Following cartesian coordinates:
            Coordinates               Weight
  0.000000  0.000000  0.000000      1.000000
  0.045902  0.000000  0.000000      3.000000
  0.045902  0.045902  0.000000      3.000000
  0.045902  0.045902  0.045902      1.000000
 


--------------------------------------------------------------------------------------------------------




 Dimension of arrays:
   k-points           NKPTS =      4   k-points in BZ     NKDIM =      4   number of bands    NBANDS=    162
   number of dos      NEDOS =    301   number of ions     NIONS =     64
   non local maximal  LDIM  =      4   non local SUM 2l+1 LMDIM =      8
   total plane-waves  NPLWV = 262144
   max r-space proj   IRMAX =      1   max aug-charges    IRDMAX=  54446
   dimension x,y,z NGX =    64 NGY =   64 NGZ =   64
   dimension x,y,z NGXF=   128 NGYF=  128 NGZF=  128
   support grid    NGXF=   256 NGYF=  256 NGZF=  256
   ions per type =              64
   NGX,Y,Z   is equivalent  to a cutoff of   9.77,  9.77,  9.77 a.u.
   NGXF,Y,Z  is equivalent  to a cutoff of  19.54, 19.54, 19.54 a.u.

 SYSTEM =  unknown system                          
 POSCAR =  Si                                      

 Startparameter for this run:
   NWRITE =      2    write-flag & timer
   PREC   = accura    normal or accurate (medium, high low for compatibility)
   ISTART =      0    job   : 0-new  1-cont  2-samecut
   ICHARG =      2    charge: 1-file 2-atom 10-const
   ISPIN  =      1    spin polarized calculation?
   LNONCOLLINEAR =      F non collinear calculations
   LSORBIT =      F    spin-orbit coupling
   INIWAV =      1    electr: 0-lowe 1-rand  2-diag
   LASPH  =      F    aspherical Exc in radial PAW
 Electronic Relaxation 1
   ENCUT  =  318.0 eV  23.37 Ry    4.83 a.u.  15.84 15.84 15.84*2*pi/ulx,y,z
   ENINI  =  318.0     initial cutoff
   ENAUG  =  322.1 eV  augmentation charge cutoff
   NELM   =     60;   NELMIN=  5; NELMDL= -5     # of ELM steps 
   EDIFF  = 0.1E-07   stopping-criterion for ELM
   LREAL  =      F    real-space projection
   NLSPLINE    = F    spline interpolate recip. space projectors
   LCOMPAT=      F    compatible to vasp.4.4
   GGA_COMPAT  = T    GGA compatible to vasp.4.4-vasp.4.6
   LMAXPAW     = -100 max onsite density
   LMAXMIX     =    2 max onsite mixed and CHGCAR
   VOSKOWN=      0    Vosko Wilk Nusair interpolation
   ROPT   =    0.00000
 Ionic relaxation
   EDIFFG = 0.1E-06   stopping-criterion for IOM
   NSW    =      0    number of steps for IOM
   NBLOCK =      1;   KBLOCK =      1    inner block; outer block 
   IBRION =     -1    ionic relax: 0-MD 1-quasi-New 2-CG
   NFREE  =      0    steps in history (QN), initial steepest desc. (CG)
   ISIF   =      2    stress and relaxation
   IWAVPR =     10    prediction:  0-non 1-charg 2-wave 3-comb
   ISYM   =      2    0-nonsym 1-usesym 2-fastsym
   LCORR  =      T    Harris-Foulkes like correction to forces

   POTIM  = 0.5000    time-step for ionic-motion
   TEIN   =    0.0    initial temperature
   TEBEG  =    0.0;   TEEND  =   0.0 temperature during run
   SMASS  =  -3.00    Nose mass-parameter (am)
   estimated Nose-frequenzy (Omega)   =  0.10E-29 period in steps = 0.13E+47 mass=  -0.271E-26a.u.
   SCALEE = 1.0000    scale energy and forces
   NPACO  =    256;   APACO  = 10.0  distance and # of slots for P.C.
   PSTRESS=    0.0 pullay stress

  Mass of Ions in am
   POMASS =  28.09
  Ionic Valenz
   ZVAL   =   4.00
  Atomic Wigner-Seitz radii
   RWIGS  =  -1.00
  virtual crystal weights 
   VCA    =   1.00
   NELECT =     256.0000    total number of electrons
   NUPDOWN=      -1.0000    fix difference up-down

 DOS related values:
   EMIN   =  10.00;   EMAX   =-10.00  energy-range for DOS
   EFERMI =   0.00
   ISMEAR =     0;   SIGMA  =   0.02  broadening in eV -4-tet -1-fermi 0-gaus

 Electronic relaxation 2 (details)
   IALGO  =     38    algorithm
   LDIAG  =      T    sub-space diagonalisation (order eigenvalues)
   LSUBROT=      F    optimize rotation matrix (better conditioning)
   TURBO    =      0    0=normal 1=particle mesh
   IRESTART =      0    0=no restart 2=restart with 2 vectors
   NREBOOT  =      0    no. of reboots
   NMIN     =      0    reboot dimension
   EREF     =   0.00    reference energy to select bands
   IMIX   =      4    mixing-type and parameters
     AMIX     =   0.40;   BMIX     =  1.00
     AMIX_MAG =   1.60;   BMIX_MAG =  1.00
     AMIN     =   0.10
     WC   =   100.;   INIMIX=   1;  MIXPRE=   1;  MAXMIX= -45

 Intra band minimization:
   WEIMIN = 0.0000     energy-eigenvalue tresh-hold
   EBREAK =  0.15E-10  absolut break condition
   DEPER  =   0.30     relativ break condition  

   TIME   =   0.40     timestep for ELM

  volume/ion in A,a.u.               =      20.19       136.28
  Fermi-wavevector in a.u.,A,eV,Ry     =   0.954304  1.803373 12.390766  0.910696
  Thomas-Fermi vector in A             =   2.083038
 
 Write flags
   LWAVE        =      F    write WAVECAR
   LDOWNSAMPLE  =      F    k-point downsampling of WAVECAR
   LCHARG       =      F    write CHGCAR
   LVTOT        =      F    write LOCPOT, total local potential
   LVHAR        =      F    write LOCPOT, Hartree potential only
   LELF         =      F    write electronic localiz. function (ELF)
   LORBIT       =      0    0 simple, 1 ext, 2 COOP (PROOUT), +10 PAW based schemes


 Dipole corrections
   LMONO  =      F    monopole corrections only (constant potential shift)
   LDIPOL =      F    correct potential (dipole corrections)
   IDIPOL =      0    1-x, 2-y, 3-z, 4-all directions 
   EPSILON=  1.0000000 bulk dielectric constant

 Exchange correlation treatment:
   GGA     =    PS    GGA type
   LEXCH   =    14    internal setting for exchange type
   LIBXC   =     F    Libxc                    
   VOSKOWN =     0    Vosko Wilk Nusair interpolation
   LHFCALC =     F    Hartree Fock is set to
   LHFONE  =     F    Hartree Fock one center treatment
   AEXX    =    0.0000 exact exchange contribution

 Linear response parameters
   LEPSILON=     F    determine dielectric tensor
   LRPA    =     F    only Hartree local field effects (RPA)
   LNABLA  =     F    use nabla operator in PAW spheres
   LVEL    =     F    velocity operator in full k-point grid
   CSHIFT  =0.1000    complex shift for real part using Kramers Kronig
   OMEGAMAX=  -1.0    maximum frequency
   DEG_THRESHOLD= 0.2000000E-02 threshold for treating states as degnerate
   RTIME   =   -0.100 relaxation time in fs
  (WPLASMAI=    0.000 imaginary part of plasma frequency in eV, 0.658/RTIME)
   DFIELD  = 0.0000000 0.0000000 0.0000000 field for delta impulse in time
 
  Optional k-point grid parameters
   LKPOINTS_OPT  =     F    use optional k-point grid
   KPOINTS_OPT_MODE=     1    mode for optional k-point grid
 
 Orbital magnetization related:
   ORBITALMAG=     F  switch on orbital magnetization
   LCHIMAG   =     F  perturbation theory with respect to B field
   DQ        =  0.001000  dq finite difference perturbation B field
   LLRAUG    =     F  two centre corrections for induced B field



--------------------------------------------------------------------------------------------------------


 Static calculation
 charge density and potential will be updated during run
 non-spin polarized calculation
 Variant of blocked Davidson
 Davidson routine will perform the subspace rotation
 perform sub-space diagonalisation
    after iterative eigenvector-optimisation
 modified Broyden-mixing scheme, WC =      100.0
 initial mixing is a Kerker type mixing with AMIX =  0.4000 and BMIX =      1.0000
 Hartree-type preconditioning will be used
 using additional bands           34
 reciprocal scheme for non local part
 use partial core corrections
 calculate Harris-corrections to forces 
   (improved forces if not selfconsistent)
 use gradient corrections 
 use of overlap-Matrix (Vanderbilt PP)
 Gauss-broadening in eV      SIGMA  =   0.02


--------------------------------------------------------------------------------------------------------


  energy-cutoff  :      318.00
  volume of cell :     1292.42
      direct lattice vectors                 reciprocal lattice vectors
    10.892683120  0.000000000  0.000000000     0.091804745  0.000000000  0.000000000
     0.000000000 10.892683120  0.000000000     0.000000000  0.091804745  0.000000000
     0.000000000  0.000000000 10.892683120     0.000000000  0.000000000  0.091804745

  length of vectors
    10.892683120 10.892683120 10.892683120     0.091804745  0.091804745  0.091804745


 
 k-points in units of 2pi/SCALE and weight: KPOINTS created by Atomic Simulation Env
   0.00000000  0.00000000  0.00000000       0.125
   0.04590237  0.00000000  0.00000000       0.375
   0.04590237  0.04590237  0.00000000       0.375
   0.04590237  0.04590237  0.04590237       0.125
 
 k-points in reciprocal lattice and weights: KPOINTS created by Atomic Simulation Env
   0.00000000  0.00000000  0.00000000       0.125
   0.50000000  0.00000000  0.00000000       0.375
   0.50000000  0.50000000  0.00000000       0.375
   0.50000000  0.50000000  0.50000000       0.125
 
 position of ions in fractional coordinates (direct lattice) 
   0.25000000  0.25000000  0.25000000
   0.37500000  0.37500000  0.37500000
   0.00000000  0.00000000  0.25000000
   0.12500000  0.12500000  0.37500000
   0.00000000  0.25000000  0.00000000
   0.12500000  0.37500000  0.12500000
   0.25000000  0.00000000  0.00000000
   0.37500000  0.12500000  0.12500000
   0.25000000  0.25000000  0.75000000
   0.37500000  0.37500000  0.87500000
   0.00000000  0.00000000  0.75000000
   0.12500000  0.12500000  0.87500000
   0.00000000  0.25000000  0.50000000
   0.12500000  0.37500000  0.62500000
   0.25000000  0.00000000  0.50000000
   0.37500000  0.12500000  0.62500000
   0.25000000  0.75000000  0.25000000
   0.37500000  0.87500000  0.37500000
   0.00000000  0.50000000  0.25000000
   0.12500000  0.62500000  0.37500000
   0.00000000  0.75000000  0.00000000
   0.12500000  0.87500000  0.12500000
   0.25000000  0.50000000  0.00000000
   0.37500000  0.62500000  0.12500000
   0.25000000  0.75000000  0.75000000
   0.37500000  0.87500000  0.87500000
   0.00000000  0.50000000  0.75000000
   0.12500000  0.62500000  0.87500000
   0.00000000  0.75000000  0.50000000
   0.12500000  0.87500000  0.62500000
   0.25000000  0.50000000  0.50000000
   0.37500000  0.62500000  0.62500000
   0.75000000  0.25000000  0.25000000
   0.87500000  0.37500000  0.37500000
   0.50000000  0.00000000  0.25000000
   0.62500000  0.12500000  0.37500000
   0.50000000  0.25000000  0.00000000
   0.62500000  0.37500000  0.12500000
   0.75000000  0.00000000  0.00000000
   0.87500000  0.12500000  0.12500000
   0.75000000  0.25000000  0.75000000
   0.87500000  0.37500000  0.87500000
   0.50000000  0.00000000  0.75000000
   0.62500000  0.12500000  0.87500000
   0.50000000  0.25000000  0.50000000
   0.62500000  0.37500000  0.62500000
   0.75000000  0.00000000  0.50000000
   0.87500000  0.12500000  0.62500000
   0.75000000  0.75000000  0.25000000
   0.87500000  0.87500000  0.37500000
   0.50000000  0.50000000  0.25000000
   0.62500000  0.62500000  0.37500000
   0.50000000  0.75000000  0.00000000
   0.62500000  0.87500000  0.12500000
   0.75000000  0.50000000  0.00000000
   0.87500000  0.62500000  0.12500000
   0.75000000  0.75000000  0.75000000
   0.87500000  0.87500000  0.87500000
   0.50000000  0.50000000  0.75000000
   0.62500000  0.62500000  0.87500000
   0.50000000  0.75000000  0.50000000
   0.62500000  0.87500000  0.62500000
   0.75000000  0.50000000  0.50000000
   0.87500000  0.62500000  0.62500000
 
 position of ions in cartesian coordinates  (Angst):
   2.72317078  2.72317078  2.72317078
   4.08475617  4.08475617  4.08475617
   0.00000000  0.00000000  2.72317078
   1.36158539  1.36158539  4.08475617
   0.00000000  2.72317078  0.00000000
   1.36158539  4.08475617  1.36158539
   2.72317078  0.00000000  0.00000000
   4.08475617  1.36158539  1.36158539
   2.72317078  2.72317078  8.16951234
   4.08475617  4.08475617  9.53109773
   0.00000000  0.00000000  8.16951234
   1.36158539  1.36158539  9.53109773
   0.00000000  2.72317078  5.44634156
   1.36158539  4.08475617  6.80792695
   2.72317078  0.00000000  5.44634156
   4.08475617  1.36158539  6.80792695
   2.72317078  8.16951234  2.72317078
   4.08475617  9.53109773  4.08475617
   0.00000000  5.44634156  2.72317078
   1.36158539  6.80792695  4.08475617
   0.00000000  8.16951234  0.00000000
   1.36158539  9.53109773  1.36158539
   2.72317078  5.44634156  0.00000000
   4.08475617  6.80792695  1.36158539
   2.72317078  8.16951234  8.16951234
   4.08475617  9.53109773  9.53109773
   0.00000000  5.44634156  8.16951234
   1.36158539  6.80792695  9.53109773
   0.00000000  8.16951234  5.44634156
   1.36158539  9.53109773  6.80792695
   2.72317078  5.44634156  5.44634156
   4.08475617  6.80792695  6.80792695
   8.16951234  2.72317078  2.72317078
   9.53109773  4.08475617  4.08475617
   5.44634156  0.00000000  2.72317078
   6.80792695  1.36158539  4.08475617
   5.44634156  2.72317078  0.00000000
   6.80792695  4.08475617  1.36158539
   8.16951234  0.00000000  0.00000000
   9.53109773  1.36158539  1.36158539
   8.16951234  2.72317078  8.16951234
   9.53109773  4.08475617  9.53109773
   5.44634156  0.00000000  8.16951234
   6.80792695  1.36158539  9.53109773
   5.44634156  2.72317078  5.44634156
   6.80792695  4.08475617  6.80792695
   8.16951234  0.00000000  5.44634156
   9.53109773  1.36158539  6.80792695
   8.16951234  8.16951234  2.72317078
   9.53109773  9.53109773  4.08475617
   5.44634156  5.44634156  2.72317078
   6.80792695  6.80792695  4.08475617
   5.44634156  8.16951234  0.00000000
   6.80792695  9.53109773  1.36158539
   8.16951234  5.44634156  0.00000000
   9.53109773  6.80792695  1.36158539
   8.16951234  8.16951234  8.16951234
   9.53109773  9.53109773  9.53109773
   5.44634156  5.44634156  8.16951234
   6.80792695  6.80792695  9.53109773
   5.44634156  8.16951234  5.44634156
   6.80792695  9.53109773  6.80792695
   8.16951234  5.44634156  5.44634156
   9.53109773  6.80792695  6.80792695
 


--------------------------------------------------------------------------------------------------------


 k-point   1 :   0.0000 0.0000 0.0000  plane waves:   16663
 k-point   2 :   0.5000 0.0000 0.0000  plane waves:   16648
 k-point   3 :   0.5000 0.5000 0.0000  plane waves:   16652
 k-point   4 :   0.5000 0.5000 0.5000  plane waves:   16656

 maximum and minimum number of plane-waves per node :     16663    16648

 maximum number of plane-waves:     16663
 maximum index in each direction: 
   IXMAX=   15   IYMAX=   15   IZMAX=   15
   IXMIN=  -16   IYMIN=  -16   IZMIN=  -16


 serial   3D FFT for wavefunctions
 parallel 3D FFT for charge:
    minimum data exchange during FFTs selected (reduces bandwidth)


 total amount of memory used by VASP MPI-rank0   356973. kBytes
=======================================================================

   base      :      30000. kBytes
   nonl-proj :      21329. kBytes
   fftplans  :     155001. kBytes
   grid      :      61407. kBytes
   one-center:        196. kBytes
   wavefun   :      89040. kBytes
 
     INWAV:  cpu time      0.0000: real time      0.0000
 Broyden mixing: mesh for mixing (old mesh)
   NGX = 31   NGY = 31   NGZ = 31
  (NGX  =128   NGY  =128   NGZ  =128)
  gives a total of  29791 points

 initial charge density was supplied:
 charge density of overlapping atoms calculated
 number of electron     256.0000000 magnetization 
 keeping initial charge density in first step


--------------------------------------------------------------------------------------------------------


 Maximum index for augmentation-charges        26211 (set IRDMAX)


--------------------------------------------------------------------------------------------------------


 First call to EWALD:  gamma=   0.163
 Maximum number of real-space cells 3x 3x 3
 Maximum number of reciprocal cells 3x 3x 3

    FEWALD:  cpu time      0.0050: real time      0.0050


--------------------------------------- Iteration      1(   1)  ---------------------------------------


    POTLOK:  cpu time      0.3044: real time      0.3045
    SETDIJ:  cpu time      0.2189: real time      0.2189
     EDDAV:  cpu time     18.6682: real time     18.6687
       DOS:  cpu time      0.0006: real time      0.0006
    --------------------------------------------
      LOOP:  cpu time     19.1922: real time     19.1927

 eigenvalue-minimisations  :  1296
 total energy-change (2. order) : 0.4624170E+03  (-0.7279075E+04)
 number of electron     256.0000000 magnetization 
 augmentation part      256.0000000 magnetization 

 Free energy of the ion-electron system (eV)
  ---------------------------------------------------
  alpha Z        PSCENC =       106.68659228
  Ewald energy   TEWEN  =     -7292.08850402
  -Hartree energ DENC   =      -356.37732993
  -exchange      EXHF   =         0.00000000
  -V(xc)+E(xc)   XCENC  =      -559.61007576
  PAW double counting   =      5598.62625415    -4492.17844134
  entropy T*S    EENTRO =        -0.00582347
  eigenvalues    EBANDS =       892.59735335
  atomic energy  EATOM  =      6564.76702419
  Solvation  Ediel_sol  =         0.00000000
  ---------------------------------------------------
  free energy    TOTEN  =       462.41704945 eV

  energy without entropy =      462.42287292  energy(sigma->0) =      462.41996118


--------------------------------------------------------------------------------------------------------




--------------------------------------- Iteration      1(   2)  ---------------------------------------


     EDDAV:  cpu time     21.8715: real time     21.8730
       DOS:  cpu time      0.0002: real time      0.0002
    --------------------------------------------
      LOOP:  cpu time     21.8717: real time     21.8732

 eigenvalue-minimisations  :  1576
 total energy-change (2. order) :-0.7840002E+03  (-0.7432000E+03)
 number of electron     256.0000000 magnetization 
 augmentation part      256.0000000 magnetization 

 Free energy of the ion-electron system (eV)
  ---------------------------------------------------
  alpha Z        PSCENC =       106.68659228
  Ewald energy   TEWEN  =     -7292.08850402
  -Hartree energ DENC   =      -356.37732993
  -exchange      EXHF   =         0.00000000
  -V(xc)+E(xc)   XCENC  =      -559.61007576
  PAW double counting   =      5598.62625415    -4492.17844134
  entropy T*S    EENTRO =        -0.00000000
  eigenvalues    EBANDS =       108.59130492
  atomic energy  EATOM  =      6564.76702419
  Solvation  Ediel_sol  =         0.00000000
  ---------------------------------------------------
  free energy    TOTEN  =      -321.58317551 eV

  energy without entropy =     -321.58317551  energy(sigma->0) =     -321.58317551


--------------------------------------------------------------------------------------------------------




--------------------------------------- Iteration      1(   3)  ---------------------------------------


     EDDAV:  cpu time     21.8810: real time     21.8829
       DOS:  cpu time      0.0003: real time      0.0002
    --------------------------------------------
      LOOP:  cpu time     21.8813: real time     21.8832

 eigenvalue-minimisations  :  1568
 total energy-change (2. order) :-0.5163836E+02  (-0.5082618E+02)
 number of electron     256.0000000 magnetization 
 augmentation part      256.0000000 magnetization 

 Free energy of the ion-electron system (eV)
  ---------------------------------------------------
  alpha Z        PSCENC =       106.68659228
  Ewald energy   TEWEN  =     -7292.08850402
  -Hartree energ DENC   =      -356.37732993
  -exchange      EXHF   =         0.00000000
  -V(xc)+E(xc)   XCENC  =      -559.61007576
  PAW double counting   =      5598.62625415    -4492.17844134
  entropy T*S    EENTRO =        -0.00000000
  eigenvalues    EBANDS =        56.95294377
  atomic energy  EATOM  =      6564.76702419
  Solvation  Ediel_sol  =         0.00000000
  ---------------------------------------------------
  free energy    TOTEN  =      -373.22153666 eV

  energy without entropy =     -373.22153666  energy(sigma->0) =     -373.22153666


--------------------------------------------------------------------------------------------------------




--------------------------------------- Iteration      1(   4)  ---------------------------------------


     EDDAV:  cpu time     21.6572: real time     21.6584
       DOS:  cpu time      0.0002: real time      0.0002
    --------------------------------------------
      LOOP:  cpu time     21.6574: real time     21.6586

 eigenvalue-minimisations  :  1552
 total energy-change (2. order) :-0.1240085E+01  (-0.1231263E+01)
 number of electron     256.0000000 magnetization 
 augmentation part      256.0000000 magnetization 

 Free energy of the ion-electron system (eV)
  ---------------------------------------------------
  alpha Z        PSCENC =       106.68659228
  Ewald energy   TEWEN  =     -7292.08850402
  -Hartree energ DENC   =      -356.37732993
  -exchange      EXHF   =         0.00000000
  -V(xc)+E(xc)   XCENC  =      -559.61007576
  PAW double counting   =      5598.62625415    -4492.17844134
  entropy T*S    EENTRO =        -0.00000000
  eigenvalues    EBANDS =        55.71285923
  atomic energy  EATOM  =      6564.76702419
  Solvation  Ediel_sol  =         0.00000000
  ---------------------------------------------------
  free energy    TOTEN  =      -374.46162119 eV

  energy without entropy =     -374.46162119  energy(sigma->0) =     -374.46162119


--------------------------------------------------------------------------------------------------------




--------------------------------------- Iteration      1(   5)  ---------------------------------------


     EDDAV:  cpu time     21.6735: real time     21.6746
       DOS:  cpu time      0.0003: real time      0.0003
    CHARGE:  cpu time      0.7105: real time      0.7104
    MIXING:  cpu time      0.0096: real time      0.0096
    --------------------------------------------
      LOOP:  cpu time     22.3938: real time     22.3949

 eigenvalue-minimisations  :  1542
 total energy-change (2. order) :-0.4489072E-01  (-0.4481770E-01)
 number of electron     255.9999995 magnetization 
 augmentation part      -14.9464233 magnetization 

 Broyden mixing:
  rms(total) = 0.28234E+01    rms(broyden)= 0.28233E+01
  rms(prec ) = 0.31069E+01
  weight for this iteration     100.00

 Free energy of the ion-electron system (eV)
  ---------------------------------------------------
  alpha Z        PSCENC =       106.68659228
  Ewald energy   TEWEN  =     -7292.08850402
  -Hartree energ DENC   =      -356.37732993
  -exchange      EXHF   =         0.00000000
  -V(xc)+E(xc)   XCENC  =      -559.61007576
  PAW double counting   =      5598.62625415    -4492.17844134
  entropy T*S    EENTRO =        -0.00000000
  eigenvalues    EBANDS =        55.66796851
  atomic energy  EATOM  =      6564.76702419
  Solvation  Ediel_sol  =         0.00000000
  ---------------------------------------------------
  free energy    TOTEN  =      -374.50651192 eV

  energy without entropy =     -374.50651192  energy(sigma->0) =     -374.50651192


--------------------------------------------------------------------------------------------------------




--------------------------------------- Iteration      1(   6)  ---------------------------------------


    POTLOK:  cpu time      0.2919: real time      0.2928
    SETDIJ:  cpu time      0.2181: real time      0.2181
     EDDAV:  cpu time     20.2939: real time     20.2945
       DOS:  cpu time      0.0003: real time      0.0003
    CHARGE:  cpu time      0.6963: real time      0.6962
    MIXING:  cpu time      0.0104: real time      0.0105
    --------------------------------------------
      LOOP:  cpu time     21.5109: real time     21.5124

 eigenvalue-minimisations  :  1424
 total energy-change (2. order) : 0.4825698E+01  (-0.2584992E+00)
 number of electron     255.9999995 magnetization 
 augmentation part      -14.7898471 magnetization 

 Broyden mixing:
  rms(total) = 0.17016E+01    rms(broyden)= 0.17016E+01
  rms(prec ) = 0.18601E+01
  weight for this iteration     100.00

 eigenvalues of (default mixing * dielectric matrix)
  average eigenvalue GAMMA=   2.5096
  2.5096

 Free energy of the ion-electron system (eV)
  ---------------------------------------------------
  alpha Z        PSCENC =       106.68659228
  Ewald energy   TEWEN  =     -7292.08850402
  -Hartree energ DENC   =      -402.00575474
  -exchange      EXHF   =         0.00000000
  -V(xc)+E(xc)   XCENC  =      -552.38963192
  PAW double counting   =     12395.12104405   -11291.84971660
  entropy T*S    EENTRO =        -0.00000000
  eigenvalues    EBANDS =       102.07813253
  atomic energy  EATOM  =      6564.76702419
  Solvation  Ediel_sol  =         0.00000000
  ---------------------------------------------------
  free energy    TOTEN  =      -369.68081423 eV

  energy without entropy =     -369.68081423  energy(sigma->0) =     -369.68081423


--------------------------------------------------------------------------------------------------------




--------------------------------------- Iteration      1(   7)  ---------------------------------------


    POTLOK:  cpu time      0.2906: real time      0.2911
    SETDIJ:  cpu time      0.2185: real time      0.2187
     EDDAV:  cpu time     20.2569: real time     20.2576
       DOS:  cpu time      0.0003: real time      0.0002
    CHARGE:  cpu time      0.6936: real time      0.6936
    MIXING:  cpu time      0.0098: real time      0.0097
    --------------------------------------------
      LOOP:  cpu time     21.4696: real time     21.4709

 eigenvalue-minimisations  :  1424
 total energy-change (2. order) : 0.2199884E+01  (-0.5232773E+00)
 number of electron     255.9999995 magnetization 
 augmentation part      -14.5929057 magnetization 

 Broyden mixing:
  rms(total) = 0.97989E-01    rms(broyden)= 0.97989E-01
  rms(prec ) = 0.12169E+00
  weight for this iteration     100.00

 eigenvalues of (default mixing * dielectric matrix)
  average eigenvalue GAMMA=   2.2527
  2.2527  2.2527

 Free energy of the ion-electron system (eV)
  ---------------------------------------------------
  alpha Z        PSCENC =       106.68659228
  Ewald energy   TEWEN  =     -7292.08850402
  -Hartree energ DENC   =      -475.91777296
  -exchange      EXHF   =         0.00000000
  -V(xc)+E(xc)   XCENC  =      -540.03711529
  PAW double counting   =     28760.31978188   -27661.31864773
  entropy T*S    EENTRO =        -0.00000000
  eigenvalues    EBANDS =       170.10771105
  atomic energy  EATOM  =      6564.76702419
  Solvation  Ediel_sol  =         0.00000000
  ---------------------------------------------------
  free energy    TOTEN  =      -367.48093060 eV

  energy without entropy =     -367.48093060  energy(sigma->0) =     -367.48093060


--------------------------------------------------------------------------------------------------------




--------------------------------------- Iteration      1(   8)  ---------------------------------------


    POTLOK:  cpu time      0.2900: real time      0.2904
    SETDIJ:  cpu time      0.2180: real time      0.2180
     EDDAV:  cpu time     20.2292: real time     20.2301
       DOS:  cpu time      0.0002: real time      0.0002
    CHARGE:  cpu time      0.6946: real time      0.6946
    MIXING:  cpu time      0.0104: real time      0.0104
    --------------------------------------------
      LOOP:  cpu time     21.4425: real time     21.4436

 eigenvalue-minimisations  :  1424
 total energy-change (2. order) :-0.7932045E-02  (-0.2738890E-01)
 number of electron     255.9999995 magnetization 
 augmentation part      -14.6346007 magnetization 

 Broyden mixing:
  rms(total) = 0.35386E-01    rms(broyden)= 0.35385E-01
  rms(prec ) = 0.40758E-01
  weight for this iteration     100.00

 eigenvalues of (default mixing * dielectric matrix)
  average eigenvalue GAMMA=   2.4643
  2.8657  2.2636  2.2636

 Free energy of the ion-electron system (eV)
  ---------------------------------------------------
  alpha Z        PSCENC =       106.68659228
  Ewald energy   TEWEN  =     -7292.08850402
  -Hartree energ DENC   =      -469.09530632
  -exchange      EXHF   =         0.00000000
  -V(xc)+E(xc)   XCENC  =      -540.63189894
  PAW double counting   =     28237.38025760   -27137.59341434
  entropy T*S    EENTRO =        -0.00000000
  eigenvalues    EBANDS =       163.08638690
  atomic energy  EATOM  =      6564.76702419
  Solvation  Ediel_sol  =         0.00000000
  ---------------------------------------------------
  free energy    TOTEN  =      -367.48886264 eV

  energy without entropy =     -367.48886264  energy(sigma->0) =     -367.48886264


--------------------------------------------------------------------------------------------------------




--------------------------------------- Iteration      1(   9)  ---------------------------------------


    POTLOK:  cpu time      0.2914: real time      0.2922
    SETDIJ:  cpu time      0.2193: real time      0.2193
     EDDAV:  cpu time     21.7703: real time     21.7710
       DOS:  cpu time      0.0003: real time      0.0003
    CHARGE:  cpu time      0.6938: real time      0.6938
    MIXING:  cpu time      0.0103: real time      0.0103
    --------------------------------------------
      LOOP:  cpu time     22.9854: real time     22.9868

 eigenvalue-minimisations  :  1564
 total energy-change (2. order) :-0.1414944E-02  (-0.7367225E-03)
 number of electron     255.9999995 magnetization 
 augmentation part      -14.6349436 magnetization 

 Broyden mixing:
  rms(total) = 0.30825E-01    rms(broyden)= 0.30825E-01
  rms(prec ) = 0.31914E-01
  weight for this iteration     100.00

 eigenvalues of (default mixing * dielectric matrix)
  average eigenvalue GAMMA=   2.4333
  4.1194  0.9220  2.3460  2.3460

 Free energy of the ion-electron system (eV)
  ---------------------------------------------------
  alpha Z        PSCENC =       106.68659228
  Ewald energy   TEWEN  =     -7292.08850402
  -Hartree energ DENC   =      -471.04073684
  -exchange      EXHF   =         0.00000000
  -V(xc)+E(xc)   XCENC  =      -540.30530534
  PAW double counting   =     28378.45743756   -27278.77247688
  entropy T*S    EENTRO =        -0.00000000
  eigenvalues    EBANDS =       164.80569147
  atomic energy  EATOM  =      6564.76702419
  Solvation  Ediel_sol  =         0.00000000
  ---------------------------------------------------
  free energy    TOTEN  =      -367.49027759 eV

  energy without entropy =     -367.49027759  energy(sigma->0) =     -367.49027759


--------------------------------------------------------------------------------------------------------




--------------------------------------- Iteration      1(  10)  ---------------------------------------


    POTLOK:  cpu time      0.2895: real time      0.2901
    SETDIJ:  cpu time      0.2189: real time      0.2189
     EDDAV:  cpu time     19.7914: real time     19.7922
       DOS:  cpu time      0.0002: real time      0.0002
    CHARGE:  cpu time      0.6944: real time      0.6943
    MIXING:  cpu time      0.0106: real time      0.0106
    --------------------------------------------
      LOOP:  cpu time     21.0051: real time     21.0064

 eigenvalue-minimisations  :  1384
 total energy-change (2. order) :-0.8566359E-03  (-0.2194065E-03)
 number of electron     255.9999995 magnetization 
 augmentation part      -14.6371291 magnetization 

 Broyden mixing:
  rms(total) = 0.23069E-01    rms(broyden)= 0.23069E-01
  rms(prec ) = 0.23191E-01
  weight for this iteration     100.00

 eigenvalues of (default mixing * dielectric matrix)
  average eigenvalue GAMMA=   1.8672
  2.8818  2.2490  2.2490  0.9780  0.9780

 Free energy of the ion-electron system (eV)
  ---------------------------------------------------
  alpha Z        PSCENC =       106.68659228
  Ewald energy   TEWEN  =     -7292.08850402
  -Hartree energ DENC   =      -471.26146413
  -exchange      EXHF   =         0.00000000
  -V(xc)+E(xc)   XCENC  =      -540.23159266
  PAW double counting   =     27863.13318173   -26763.41303993
  entropy T*S    EENTRO =        -0.00000000
  eigenvalues    EBANDS =       164.91666832
  atomic energy  EATOM  =      6564.76702419
  Solvation  Ediel_sol  =         0.00000000
  ---------------------------------------------------
  free energy    TOTEN  =      -367.49113422 eV

  energy without entropy =     -367.49113422  energy(sigma->0) =     -367.49113422


--------------------------------------------------------------------------------------------------------




--------------------------------------- Iteration      1(  11)  ---------------------------------------


    POTLOK:  cpu time      0.2910: real time      0.2913
    SETDIJ:  cpu time      0.2181: real time      0.2181
     EDDAV:  cpu time     20.7422: real time     20.7429
       DOS:  cpu time      0.0003: real time      0.0002
    CHARGE:  cpu time      0.6153: real time      0.6152
    MIXING:  cpu time      0.0107: real time      0.0107
    --------------------------------------------
      LOOP:  cpu time     21.8776: real time     21.8785

 eigenvalue-minimisations  :  1474
 total energy-change (2. order) :-0.5260932E-04  (-0.9580681E-05)
 number of electron     255.9999995 magnetization 
 augmentation part      -14.6377680 magnetization 

 Broyden mixing:
  rms(total) = 0.71587E-03    rms(broyden)= 0.71584E-03
  rms(prec ) = 0.82351E-03
  weight for this iteration     100.00

 eigenvalues of (default mixing * dielectric matrix)
  average eigenvalue GAMMA=   1.9092
  2.8844  2.3882  2.3882  1.9181  1.0304  0.8458

 Free energy of the ion-electron system (eV)
  ---------------------------------------------------
  alpha Z        PSCENC =       106.68659228
  Ewald energy   TEWEN  =     -7292.08850402
  -Hartree energ DENC   =      -471.17211235
  -exchange      EXHF   =         0.00000000
  -V(xc)+E(xc)   XCENC  =      -540.24065787
  PAW double counting   =     28088.78438423   -26989.05717819
  entropy T*S    EENTRO =        -0.00000000
  eigenvalues    EBANDS =       164.82926489
  atomic energy  EATOM  =      6564.76702419
  Solvation  Ediel_sol  =         0.00000000
  ---------------------------------------------------
  free energy    TOTEN  =      -367.49118683 eV

  energy without entropy =     -367.49118683  energy(sigma->0) =     -367.49118683


--------------------------------------------------------------------------------------------------------




--------------------------------------- Iteration      1(  12)  ---------------------------------------


    POTLOK:  cpu time      0.2905: real time      0.2915
    SETDIJ:  cpu time      0.2183: real time      0.2183
     EDDAV:  cpu time     20.8788: real time     20.8794
       DOS:  cpu time      0.0002: real time      0.0002
    CHARGE:  cpu time      0.6156: real time      0.6155
    MIXING:  cpu time      0.0114: real time      0.0114
    --------------------------------------------
      LOOP:  cpu time     22.0148: real time     22.0163

 eigenvalue-minimisations  :  1488
 total energy-change (2. order) :-0.2805486E-05  (-0.3922063E-06)
 number of electron     255.9999995 magnetization 
 augmentation part      -14.6375936 magnetization 

 Broyden mixing:
  rms(total) = 0.88162E-03    rms(broyden)= 0.88162E-03
  rms(prec ) = 0.91211E-03
  weight for this iteration     100.00

 eigenvalues of (default mixing * dielectric matrix)
  average eigenvalue GAMMA=   1.8725
  3.0999  2.6055  2.2822  2.2822  0.9508  0.9508  0.9358

 Free energy of the ion-electron system (eV)
  ---------------------------------------------------
  alpha Z        PSCENC =       106.68659228
  Ewald energy   TEWEN  =     -7292.08850402
  -Hartree energ DENC   =      -471.21455621
  -exchange      EXHF   =         0.00000000
  -V(xc)+E(xc)   XCENC  =      -540.23839846
  PAW double counting   =     28095.55433869   -26995.82628118
  entropy T*S    EENTRO =        -0.00000000
  eigenvalues    EBANDS =       164.86859508
  atomic energy  EATOM  =      6564.76702419
  Solvation  Ediel_sol  =         0.00000000
  ---------------------------------------------------
  free energy    TOTEN  =      -367.49118964 eV

  energy without entropy =     -367.49118964  energy(sigma->0) =     -367.49118964


--------------------------------------------------------------------------------------------------------




--------------------------------------- Iteration      1(  13)  ---------------------------------------


    POTLOK:  cpu time      0.2897: real time      0.2903
    SETDIJ:  cpu time      0.2184: real time      0.2184
     EDDAV:  cpu time     20.4164: real time     20.4172
       DOS:  cpu time      0.0003: real time      0.0002
    CHARGE:  cpu time      0.6160: real time      0.6159
    MIXING:  cpu time      0.0113: real time      0.0113
    --------------------------------------------
      LOOP:  cpu time     21.5522: real time     21.5534

 eigenvalue-minimisations  :  1446
 total energy-change (2. order) : 0.1668404E-05  (-0.8949442E-07)
 number of electron     255.9999995 magnetization 
 augmentation part      -14.6375947 magnetization 

 Broyden mixing:
  rms(total) = 0.59826E-04    rms(broyden)= 0.59824E-04
  rms(prec ) = 0.61124E-04
  weight for this iteration     100.00

 eigenvalues of (default mixing * dielectric matrix)
  average eigenvalue GAMMA=   1.8847
  3.0827  2.6776  2.3550  2.1691  1.8974  0.9979  0.9491  0.9491

 Free energy of the ion-electron system (eV)
  ---------------------------------------------------
  alpha Z        PSCENC =       106.68659228
  Ewald energy   TEWEN  =     -7292.08850402
  -Hartree energ DENC   =      -471.20854054
  -exchange      EXHF   =         0.00000000
  -V(xc)+E(xc)   XCENC  =      -540.24145861
  PAW double counting   =     28087.24327348   -26987.51274500
  entropy T*S    EENTRO =        -0.00000000
  eigenvalues    EBANDS =       164.86317024
  atomic energy  EATOM  =      6564.76702419
  Solvation  Ediel_sol  =         0.00000000
  ---------------------------------------------------
  free energy    TOTEN  =      -367.49118797 eV

  energy without entropy =     -367.49118797  energy(sigma->0) =     -367.49118797


--------------------------------------------------------------------------------------------------------




--------------------------------------- Iteration      1(  14)  ---------------------------------------


    POTLOK:  cpu time      0.2892: real time      0.2899
    SETDIJ:  cpu time      0.2181: real time      0.2181
     EDDAV:  cpu time     15.5414: real time     15.5420
       DOS:  cpu time      0.0003: real time      0.0002
    CHARGE:  cpu time      0.6150: real time      0.6150
    MIXING:  cpu time      0.0118: real time      0.0118
    --------------------------------------------
      LOOP:  cpu time     16.6758: real time     16.6770

 eigenvalue-minimisations  :  1000
 total energy-change (2. order) :-0.4322192E-07  (-0.9138747E-09)
 number of electron     255.9999995 magnetization 
 augmentation part      -14.6375952 magnetization 

 Broyden mixing:
  rms(total) = 0.24308E-04    rms(broyden)= 0.24308E-04
  rms(prec ) = 0.24610E-04
  weight for this iteration     100.00

 eigenvalues of (default mixing * dielectric matrix)
  average eigenvalue GAMMA=   1.8746
  3.1074  2.7271  2.4511  2.4511  2.2182  1.0457  0.9320  0.9692  0.9692

 Free energy of the ion-electron system (eV)
  ---------------------------------------------------
  alpha Z        PSCENC =       106.68659228
  Ewald energy   TEWEN  =     -7292.08850402
  -Hartree energ DENC   =      -471.20798748
  -exchange      EXHF   =         0.00000000
  -V(xc)+E(xc)   XCENC  =      -540.24160959
  PAW double counting   =     28086.97709484   -26987.24665176
  entropy T*S    EENTRO =        -0.00000000
  eigenvalues    EBANDS =       164.86285353
  atomic energy  EATOM  =      6564.76702419
  Solvation  Ediel_sol  =         0.00000000
  ---------------------------------------------------
  free energy    TOTEN  =      -367.49118801 eV

  energy without entropy =     -367.49118801  energy(sigma->0) =     -367.49118801


--------------------------------------------------------------------------------------------------------




--------------------------------------- Iteration      1(  15)  ---------------------------------------


    POTLOK:  cpu time      0.2905: real time      0.2913
    SETDIJ:  cpu time      0.2182: real time      0.2182
     EDDAV:  cpu time     13.8675: real time     13.8680
       DOS:  cpu time      0.0002: real time      0.0002
    CHARGE:  cpu time      0.6157: real time      0.6156
    MIXING:  cpu time      0.0122: real time      0.0122
    --------------------------------------------
      LOOP:  cpu time     15.0044: real time     15.0056

 eigenvalue-minimisations  :   848
 total energy-change (2. order) :-0.2097568E-07  (-0.1659395E-09)
 number of electron     255.9999995 magnetization 
 augmentation part      -14.6375942 magnetization 

 Broyden mixing:
  rms(total) = 0.13373E-05    rms(broyden)= 0.13373E-05
  rms(prec ) = 0.14907E-05
  weight for this iteration     100.00

 eigenvalues of (default mixing * dielectric matrix)
  average eigenvalue GAMMA=   1.7969
  3.0941  2.7191  2.4395  2.4395  2.2091  0.9202  0.9202  1.0578  1.0578  1.1112

 Free energy of the ion-electron system (eV)
  ---------------------------------------------------
  alpha Z        PSCENC =       106.68659228
  Ewald energy   TEWEN  =     -7292.08850402
  -Hartree energ DENC   =      -471.20777732
  -exchange      EXHF   =         0.00000000
  -V(xc)+E(xc)   XCENC  =      -540.24163551
  PAW double counting   =     28086.82881072   -26987.09843994
  entropy T*S    EENTRO =        -0.00000000
  eigenvalues    EBANDS =       164.86274157
  atomic energy  EATOM  =      6564.76702419
  Solvation  Ediel_sol  =         0.00000000
  ---------------------------------------------------
  free energy    TOTEN  =      -367.49118803 eV

  energy without entropy =     -367.49118803  energy(sigma->0) =     -367.49118803


--------------------------------------------------------------------------------------------------------




--------------------------------------- Iteration      1(  16)  ---------------------------------------


    POTLOK:  cpu time      0.2889: real time      0.2895
    SETDIJ:  cpu time      0.2181: real time      0.2181
     EDDAV:  cpu time     13.1207: real time     13.1212
       DOS:  cpu time      0.0002: real time      0.0002
    --------------------------------------------
      LOOP:  cpu time     13.6279: real time     13.6289

 eigenvalue-minimisations  :   782
 total energy-change (2. order) : 0.8886673E-08  (-0.4416924E-10)
 number of electron     255.9999995 magnetization 
 augmentation part      -14.6375942 magnetization 

 Free energy of the ion-electron system (eV)
  ---------------------------------------------------
  alpha Z        PSCENC =       106.68659228
  Ewald energy   TEWEN  =     -7292.08850402
  -Hartree energ DENC   =      -471.20772251
  -exchange      EXHF   =         0.00000000
  -V(xc)+E(xc)   XCENC  =      -540.24163699
  PAW double counting   =     28086.85344974   -26987.12307025
  entropy T*S    EENTRO =        -0.00000000
  eigenvalues    EBANDS =       164.86267953
  atomic energy  EATOM  =      6564.76702419
  Solvation  Ediel_sol  =         0.00000000
  ---------------------------------------------------
  free energy    TOTEN  =      -367.49118803 eV

  energy without entropy =     -367.49118803  energy(sigma->0) =     -367.49118803


--------------------------------------------------------------------------------------------------------




 average (electrostatic) potential at core
  the test charge radii are     0.9892
  (the norm of the test charge is              1.0000)
       1 -83.1298       2 -83.1298       3 -83.1298       4 -83.1298       5 -83.1298
       6 -83.1298       7 -83.1298       8 -83.1298       9 -83.1298      10 -83.1298
      11 -83.1298      12 -83.1298      13 -83.1298      14 -83.1298      15 -83.1298
      16 -83.1298      17 -83.1298      18 -83.1298      19 -83.1298      20 -83.1298
      21 -83.1298      22 -83.1298      23 -83.1298      24 -83.1298      25 -83.1298
      26 -83.1298      27 -83.1298      28 -83.1298      29 -83.1298      30 -83.1298
      31 -83.1298      32 -83.1298      33 -83.1298      34 -83.1298      35 -83.1298
      36 -83.1298      37 -83.1298      38 -83.1298      39 -83.1298      40 -83.1298
      41 -83.1298      42 -83.1298      43 -83.1298      44 -83.1298      45 -83.1298
      46 -83.1298      47 -83.1298      48 -83.1298      49 -83.1298      50 -83.1298
      51 -83.1298      52 -83.1298      53 -83.1298      54 -83.1298      55 -83.1298
      56 -83.1298      57 -83.1298      58 -83.1298      59 -83.1298      60 -83.1298
      61 -83.1298      62 -83.1298      63 -83.1298      64 -83.1298
 
 
 
 E-fermi :   5.8181     XC(G=0):  -9.5197     alpha+bet :-11.8770

 Fermi energy:         5.8180768989

 k-point     1 :       0.0000    0.0000    0.0000
  band No.  band energies     occupation 
      1      -6.2263      2.00000
      2      -5.1481      2.00000
      3      -5.1481      2.00000
      4      -5.1481      2.00000
      5      -5.1481      2.00000
      6      -5.1481      2.00000
      7      -5.1481      2.00000
      8      -4.1882      2.00000
      9      -4.1882      2.00000
     10      -4.1882      2.00000
     11      -4.1882      2.00000
     12      -4.1882      2.00000
     13      -4.1882      2.00000
     14      -4.1882      2.00000
     15      -4.1882      2.00000
     16      -4.1882      2.00000
     17      -4.1882      2.00000
     18      -4.1882      2.00000
     19      -4.1882      2.00000
     20      -3.8979      2.00000
     21      -3.8979      2.00000
     22      -3.8979      2.00000
     23      -3.8979      2.00000
     24      -2.0963      2.00000
     25      -2.0963      2.00000
     26      -2.0963      2.00000
     27      -2.0963      2.00000
     28      -2.0963      2.00000
     29      -2.0963      2.00000
     30      -1.9301      2.00000
     31      -1.9301      2.00000
     32      -1.9301      2.00000
     33      -1.9301      2.00000
     34      -1.9301      2.00000
     35      -1.9301      2.00000
     36      -1.9301      2.00000
     37      -1.9301      2.00000
     38      -1.9301      2.00000
     39      -1.9301      2.00000
     40      -1.9301      2.00000
     41      -1.9301      2.00000
     42      -1.2695      2.00000
     43      -1.2695      2.00000
     44      -1.2695      2.00000
     45      -1.2695      2.00000
     46       0.2283      2.00000
     47       0.2283      2.00000
     48       0.2283      2.00000
     49       0.2283      2.00000
     50       0.2283      2.00000
     51       0.2283      2.00000
     52       0.2283      2.00000
     53       0.2283      2.00000
     54       0.2283      2.00000
     55       0.2283      2.00000
     56       0.2283      2.00000
     57       0.2283      2.00000
     58       1.8334      2.00000
     59       1.8334      2.00000
     60       1.8334      2.00000
     61       1.8334      2.00000
     62       1.8334      2.00000
     63       1.8334      2.00000
     64       1.8334      2.00000
     65       1.8334      2.00000
     66       1.8334      2.00000
     67       1.8334      2.00000
     68       1.8334      2.00000
     69       1.8334      2.00000
     70       1.9328      2.00000
     71       1.9328      2.00000
     72       1.9328      2.00000
     73       1.9328      2.00000
     74       1.9328      2.00000
     75       1.9328      2.00000
     76       1.9328      2.00000
     77       1.9328      2.00000
     78       1.9328      2.00000
     79       1.9328      2.00000
     80       1.9328      2.00000
     81       1.9328      2.00000
     82       2.1848      2.00000
     83       2.1848      2.00000
     84       2.1848      2.00000
     85       2.1848      2.00000
     86       2.1848      2.00000
     87       2.1848      2.00000
     88       2.8534      2.00000
     89       2.8534      2.00000
     90       2.8534      2.00000
     91       2.8534      2.00000
     92       2.8534      2.00000
     93       2.8534      2.00000
     94       3.8134      2.00000
     95       3.8134      2.00000
     96       3.8134      2.00000
     97       3.8134      2.00000
     98       3.8134      2.00000
     99       3.8134      2.00000
    100       3.8134      2.00000
    101       3.8134      2.00000
    102       3.8134      2.00000
    103       3.8134      2.00000
    104       3.8134      2.00000
    105       3.8134      2.00000
    106       4.3787      2.00000
    107       4.3787      2.00000
    108       4.3787      2.00000
    109       4.3787      2.00000
    110       4.3787      2.00000
    111       4.3787      2.00000
    112       4.3787      2.00000
    113       4.3787      2.00000
    114       4.3787      2.00000
    115       4.3787      2.00000
    116       4.3787      2.00000
    117       4.3787      2.00000
    118       4.5101      2.00000
    119       4.5101      2.00000
    120       4.5101      2.00000
    121       4.5101      2.00000
    122       4.5101      2.00000
    123       4.5101      2.00000
    124       4.5101      2.00000
    125       4.5101      2.00000
    126       5.7066      2.00000
    127       5.7066      2.00000
    128       5.7066      2.00000
    129       6.3131      0.00000
    130       6.3131      0.00000
    131       6.3131      0.00000
    132       6.3131      0.00000
    133       6.3131      0.00000
    134       6.3131      0.00000
    135       6.7488      0.00000
    136       6.7488      0.00000
    137       6.7488      0.00000
    138       6.7488      0.00000
    139       6.7488      0.00000
    140       6.7488      0.00000
    141       7.1437      0.00000
    142       7.1437      0.00000
    143       7.1437      0.00000
    144       7.1437      0.00000
    145       8.0681      0.00000
    146       8.0681      0.00000
    147       8.0681      0.00000
    148       8.0681      0.00000
    149       8.0681      0.00000
    150       8.0681      0.00000
    151       8.0681      0.00000
    152       8.0681      0.00000
    153       8.0681      0.00000
    154       8.0681      0.00000
    155       8.0681      0.00000
    156       8.0681      0.00000
    157       8.2209      0.00000
    158       8.2209      0.00000
    159       8.2209      0.00000
    160       8.7339      0.00000
    161       8.7339      0.00000
    162       8.7340      0.00000

 k-point     2 :       0.5000    0.0000    0.0000
  band No.  band energies     occupation 
      1      -5.9544      2.00000
      2      -5.9544      2.00000
      3      -4.9012      2.00000
      4      -4.9012      2.00000
      5      -4.9012      2.00000
      6      -4.9012      2.00000
      7      -4.9012      2.00000
      8      -4.9012      2.00000
      9      -4.9012      2.00000
     10      -4.9012      2.00000
     11      -4.0575      2.00000
     12      -4.0575      2.00000
     13      -4.0575      2.00000
     14      -4.0575      2.00000
     15      -4.0575      2.00000
     16      -4.0575      2.00000
     17      -4.0575      2.00000
     18      -4.0575      2.00000
     19      -3.8401      2.00000
     20      -3.8401      2.00000
     21      -3.1168      2.00000
     22      -3.1168      2.00000
     23      -3.1168      2.00000
     24      -3.1168      2.00000
     25      -3.1168      2.00000
     26      -3.1168      2.00000
     27      -3.1168      2.00000
     28      -3.1168      2.00000
     29      -2.0172      2.00000
     30      -2.0172      2.00000
     31      -2.0172      2.00000
     32      -2.0172      2.00000
     33      -2.0172      2.00000
     34      -2.0172      2.00000
     35      -2.0172      2.00000
     36      -2.0172      2.00000
     37      -0.8535      2.00000
     38      -0.8535      2.00000
     39      -0.8535      2.00000
     40      -0.8535      2.00000
     41      -0.8535      2.00000
     42      -0.8535      2.00000
     43      -0.8535      2.00000
     44      -0.8535      2.00000
     45      -0.6751      2.00000
     46      -0.6751      2.00000
     47      -0.6751      2.00000
     48      -0.6751      2.00000
     49      -0.6751      2.00000
     50      -0.6751      2.00000
     51      -0.6751      2.00000
     52      -0.6751      2.00000
     53      -0.0329      2.00000
     54      -0.0329      2.00000
     55       1.4148      2.00000
     56       1.4148      2.00000
     57       1.4148      2.00000
     58       1.4148      2.00000
     59       1.4148      2.00000
     60       1.4148      2.00000
     61       1.4148      2.00000
     62       1.4148      2.00000
     63       1.4569      2.00000
     64       1.4569      2.00000
     65       1.4569      2.00000
     66       1.4569      2.00000
     67       1.4569      2.00000
     68       1.4569      2.00000
     69       1.4569      2.00000
     70       1.4569      2.00000
     71       2.2758      2.00000
     72       2.2758      2.00000
     73       2.2758      2.00000
     74       2.2758      2.00000
     75       2.2758      2.00000
     76       2.2758      2.00000
     77       2.2758      2.00000
     78       2.2758      2.00000
     79       2.9775      2.00000
     80       2.9775      2.00000
     81       2.9775      2.00000
     82       2.9775      2.00000
     83       2.9775      2.00000
     84       2.9775      2.00000
     85       2.9775      2.00000
     86       2.9775      2.00000
     87       3.0985      2.00000
     88       3.0985      2.00000
     89       3.0985      2.00000
     90       3.0985      2.00000
     91       3.1112      2.00000
     92       3.1112      2.00000
     93       3.1112      2.00000
     94       3.1112      2.00000
     95       3.1112      2.00000
     96       3.1112      2.00000
     97       3.1112      2.00000
     98       3.1112      2.00000
     99       3.2320      2.00000
    100       3.2320      2.00000
    101       3.2320      2.00000
    102       3.2320      2.00000
    103       3.2320      2.00000
    104       3.2320      2.00000
    105       3.2320      2.00000
    106       3.2320      2.00000
    107       4.2744      2.00000
    108       4.2744      2.00000
    109       4.2744      2.00000
    110       4.2744      2.00000
    111       4.2744      2.00000
    112       4.2744      2.00000
    113       4.2744      2.00000
    114       4.2744      2.00000
    115       4.3613      2.00000
    116       4.3613      2.00000
    117       4.4418      2.00000
    118       4.4418      2.00000
    119       4.4418      2.00000
    120       4.4418      2.00000
    121       4.4418      2.00000
    122       4.4418      2.00000
    123       4.4418      2.00000
    124       4.4418      2.00000
    125       4.8957      2.00000
    126       4.8957      2.00000
    127       4.8957      2.00000
    128       4.8957      2.00000
    129       6.2241      0.00000
    130       6.2241      0.00000
    131       7.1395      0.00000
    132       7.1395      0.00000
    133       7.5850      0.00000
    134       7.5850      0.00000
    135       7.5850      0.00000
    136       7.5850      0.00000
    137       7.5850      0.00000
    138       7.5850      0.00000
    139       7.5850      0.00000
    140       7.5850      0.00000
    141       7.6492      0.00000
    142       7.6492      0.00000
    143       7.9789      0.00000
    144       7.9789      0.00000
    145       7.9789      0.00000
    146       7.9789      0.00000
    147       7.9789      0.00000
    148       7.9789      0.00000
    149       7.9789      0.00000
    150       7.9789      0.00000
    151       8.0785      0.00000
    152       8.0785      0.00000
    153       8.0785      0.00000
    154       8.0785      0.00000
    155       8.0785      0.00000
    156       8.0785      0.00000
    157       8.0785      0.00000
    158       8.0785      0.00000
    159       8.4863      0.00000
    160       8.4863      0.00000
    161       8.4863      0.00000
    162       8.4863      0.00000

 k-point     3 :       0.5000    0.5000    0.0000
  band No.  band energies     occupation 
      1      -5.6878      2.00000
      2      -5.6878      2.00000
      3      -5.6878      2.00000
      4      -5.6878      2.00000
      5      -4.6742      2.00000
      6      -4.6742      2.00000
      7      -4.6742      2.00000
      8      -4.6742      2.00000
      9      -4.6742      2.00000
     10      -4.6742      2.00000
     11      -4.6742      2.00000
     12      -4.6742      2.00000
     13      -3.6414      2.00000
     14      -3.6414      2.00000
     15      -3.6414      2.00000
     16      -3.6414      2.00000
     17      -3.6414      2.00000
     18      -3.6414      2.00000
     19      -3.6414      2.00000
     20      -3.6414      2.00000
     21      -3.3616      2.00000
     22      -3.3616      2.00000
     23      -3.3616      2.00000
     24      -3.3616      2.00000
     25      -3.3616      2.00000
     26      -3.3616      2.00000
     27      -3.3616      2.00000
     28      -3.3616      2.00000
     29      -2.5046      2.00000
     30      -2.5046      2.00000
     31      -2.5046      2.00000
     32      -2.5046      2.00000
     33      -1.5094      2.00000
     34      -1.5094      2.00000
     35      -1.5094      2.00000
     36      -1.5094      2.00000
     37      -1.0798      2.00000
     38      -1.0798      2.00000
     39      -1.0798      2.00000
     40      -1.0798      2.00000
     41      -1.0798      2.00000
     42      -1.0798      2.00000
     43      -1.0798      2.00000
     44      -1.0798      2.00000
     45      -0.2502      2.00000
     46      -0.2502      2.00000
     47      -0.2502      2.00000
     48      -0.2502      2.00000
     49      -0.2502      2.00000
     50      -0.2502      2.00000
     51      -0.2502      2.00000
     52      -0.2502      2.00000
     53       0.4166      2.00000
     54       0.4166      2.00000
     55       0.4166      2.00000
     56       0.4166      2.00000
     57       0.4166      2.00000
     58       0.4166      2.00000
     59       0.4166      2.00000
     60       0.4166      2.00000
     61       1.3821      2.00000
     62       1.3821      2.00000
     63       1.3821      2.00000
     64       1.3821      2.00000
     65       2.2401      2.00000
     66       2.2401      2.00000
     67       2.2401      2.00000
     68       2.2401      2.00000
     69       2.2401      2.00000
     70       2.2401      2.00000
     71       2.2401      2.00000
     72       2.2401      2.00000
     73       2.3289      2.00000
     74       2.3289      2.00000
     75       2.3289      2.00000
     76       2.3289      2.00000
     77       2.3289      2.00000
     78       2.3289      2.00000
     79       2.3289      2.00000
     80       2.3289      2.00000
     81       2.9367      2.00000
     82       2.9367      2.00000
     83       2.9367      2.00000
     84       2.9367      2.00000
     85       2.9367      2.00000
     86       2.9367      2.00000
     87       2.9367      2.00000
     88       2.9367      2.00000
     89       3.0137      2.00000
     90       3.0137      2.00000
     91       3.0137      2.00000
     92       3.0137      2.00000
     93       3.2805      2.00000
     94       3.2805      2.00000
     95       3.2805      2.00000
     96       3.2805      2.00000
     97       3.5401      2.00000
     98       3.5401      2.00000
     99       3.5401      2.00000
    100       3.5401      2.00000
    101       3.5401      2.00000
    102       3.5401      2.00000
    103       3.5401      2.00000
    104       3.5401      2.00000
    105       3.8599      2.00000
    106       3.8599      2.00000
    107       3.8599      2.00000
    108       3.8599      2.00000
    109       3.8599      2.00000
    110       3.8599      2.00000
    111       3.8599      2.00000
    112       3.8599      2.00000
    113       4.0648      2.00000
    114       4.0648      2.00000
    115       4.0648      2.00000
    116       4.0648      2.00000
    117       4.1183      2.00000
    118       4.1183      2.00000
    119       4.1183      2.00000
    120       4.1183      2.00000
    121       4.1183      2.00000
    122       4.1183      2.00000
    123       4.1183      2.00000
    124       4.1183      2.00000
    125       5.4155      2.00000
    126       5.4155      2.00000
    127       5.4155      2.00000
    128       5.4155      2.00000
    129       6.8096      0.00000
    130       6.8096      0.00000
    131       6.8096      0.00000
    132       6.8096      0.00000
    133       7.5684      0.00000
    134       7.5684      0.00000
    135       7.5684      0.00000
    136       7.5684      0.00000
    137       7.5684      0.00000
    138       7.5684      0.00000
    139       7.5684      0.00000
    140       7.5684      0.00000
    141       7.8688      0.00000
    142       7.8688      0.00000
    143       7.8688      0.00000
    144       7.8688      0.00000
    145       7.8688      0.00000
    146       7.8688      0.00000
    147       7.8688      0.00000
    148       7.8688      0.00000
    149       8.2534      0.00000
    150       8.2534      0.00000
    151       8.2534      0.00000
    152       8.2534      0.00000
    153       8.2534      0.00000
    154       8.2534      0.00000
    155       8.2534      0.00000
    156       8.2534      0.00000
    157       8.6771      0.00000
    158       8.6789      0.00000
    159       8.6876      0.00000
    160       8.6918      0.00000
    161       8.6958      0.00000
    162       8.7037      0.00000

 k-point     4 :       0.5000    0.5000    0.5000
  band No.  band energies     occupation 
      1      -5.4292      2.00000
      2      -5.4292      2.00000
      3      -5.4292      2.00000
      4      -5.4292      2.00000
      5      -5.4292      2.00000
      6      -5.4292      2.00000
      7      -5.4292      2.00000
      8      -5.4292      2.00000
      9      -3.5154      2.00000
     10      -3.5154      2.00000
     11      -3.5154      2.00000
     12      -3.5154      2.00000
     13      -3.5154      2.00000
     14      -3.5154      2.00000
     15      -3.5154      2.00000
     16      -3.5154      2.00000
     17      -3.5154      2.00000
     18      -3.5154      2.00000
     19      -3.5154      2.00000
     20      -3.5154      2.00000
     21      -3.5154      2.00000
     22      -3.5154      2.00000
     23      -3.5154      2.00000
     24      -3.5154      2.00000
     25      -3.5154      2.00000
     26      -3.5154      2.00000
     27      -3.5154      2.00000
[...]
         0         1         2         3         4         5         6         7         8         9
 total charge-density along one line
 
 pseudopotential strength for first ion, spin component:           1
 18.412  25.686   0.000  -0.000  -0.000   0.000  -0.000  -0.000
 25.686  35.840   0.000  -0.000  -0.000   0.000  -0.000  -0.000
  0.000   0.000   4.178  -0.000  -0.000   7.783  -0.000  -0.000
 -0.000  -0.000  -0.000   4.178  -0.000  -0.000   7.783  -0.000
 -0.000  -0.000  -0.000  -0.000   4.178  -0.000  -0.000   7.783
  0.000   0.000   7.783  -0.000  -0.000  14.512  -0.000  -0.000
 -0.000  -0.000  -0.000   7.783  -0.000  -0.000  14.512  -0.000
 -0.000  -0.000  -0.000  -0.000   7.783  -0.000  -0.000  14.512
 total augmentation occupancy for first ion, spin component:           1
  5.892  -2.257   0.000   0.000   0.000  -0.000   0.000  -0.000
 -2.257   0.973  -0.000  -0.000   0.000  -0.000   0.000  -0.000
  0.000  -0.000   2.977   0.000  -0.000  -0.674   0.000   0.000
  0.000  -0.000   0.000   2.977   0.000  -0.000  -0.674   0.000
  0.000   0.000  -0.000   0.000   2.977   0.000  -0.000  -0.674
 -0.000  -0.000  -0.674  -0.000   0.000   0.161  -0.000  -0.000
  0.000   0.000   0.000  -0.674  -0.000  -0.000   0.161  -0.000
 -0.000  -0.000   0.000   0.000  -0.674  -0.000  -0.000   0.161


------------------------ aborting loop because EDIFF is reached ----------------------------------------


    CHARGE:  cpu time      0.6257: real time      0.6256
    FORLOC:  cpu time      0.1573: real time      0.1573
    FORNL :  cpu time      9.0797: real time      9.0785
    STRESS:  cpu time     24.5111: real time     24.5073
    FORCOR:  cpu time      0.4419: real time      0.4418
    FORHAR:  cpu time      0.2057: real time      0.2057
    MIXING:  cpu time      0.0121: real time      0.0121
    OFIELD:  cpu time      0.0000: real time      0.0000

  FORCE on cell =-STRESS in cart. coord.  units (eV):
  Direction    XX          YY          ZZ          XY          YZ          ZX
  --------------------------------------------------------------------------------------
  Alpha Z   106.68659   106.68659   106.68659
  Ewald   -2430.71143 -2430.71143 -2430.71143    -0.00000     0.00000     0.00000
  Hartree   157.06926   157.06926   157.06926    -0.00000    -0.00000    -0.00000
  E(xc)    -816.14357  -816.14357  -816.14357    -0.00000     0.00000    -0.00000
  Local    -934.30334  -934.30334  -934.30334    -0.00000    -0.00000    -0.00000
  n-local  2475.76697  2486.66401  2474.92145     0.00000     0.00000    -0.00000
  augment  -368.08881  -368.08881  -368.08881    -0.00000     0.00000     0.00000
  Kinetic  1798.25579  1812.00662  1794.21182     0.00000    -0.00000    -0.00000
  Fock        0.00000     0.00000     0.00000     0.00000     0.00000     0.00000
  -------------------------------------------------------------------------------------
  Total      -4.88242    -4.88242    -4.88242    -0.00000     0.00000     0.00000
  in kB      -6.05259    -6.05259    -6.05259    -0.00000     0.00000     0.00000
  external pressure =       -6.05 kB  Pullay stress =        0.00 kB


 VOLUME and BASIS-vectors are now :
 -----------------------------------------------------------------------------
  energy-cutoff  :      318.00
  volume of cell :     1292.42
      direct lattice vectors                 reciprocal lattice vectors
    10.892683120  0.000000000  0.000000000     0.091804745  0.000000000  0.000000000
     0.000000000 10.892683120  0.000000000     0.000000000  0.091804745  0.000000000
     0.000000000  0.000000000 10.892683120     0.000000000  0.000000000  0.091804745

  length of vectors
    10.892683120 10.892683120 10.892683120     0.091804745  0.091804745  0.091804745


 FORCES acting on ions
    electron-ion (+dipol)            ewald-force                    non-local-force                 convergence-correction
 -----------------------------------------------------------------------------------------------
   -.849E-14 -.219E-12 0.413E-13   -.888E-14 -.118E-13 -.111E-14   0.313E-24 0.788E-24 0.223E-25   0.314E-13 -.858E-14 -.116E-12
   0.406E-14 0.178E-12 0.555E-12   0.251E-14 0.222E-14 -.444E-15   -.257E-24 -.199E-23 0.175E-23   0.565E-13 0.202E-13 -.379E-13
   0.312E-14 0.847E-14 -.638E-14   -.215E-13 -.160E-13 -.799E-14   -.146E-24 -.544E-24 -.172E-23   -.548E-13 -.202E-13 -.138E-12
   0.243E-14 0.138E-12 0.106E-12   -.324E-13 -.138E-13 -.222E-13   0.254E-24 0.405E-24 -.805E-25   -.871E-14 -.335E-13 -.532E-13
   -.842E-14 0.194E-14 -.616E-14   -.293E-13 -.755E-14 0.533E-14   -.405E-24 -.101E-23 -.336E-24   -.548E-13 -.436E-13 -.433E-13
   0.444E-14 0.131E-12 0.109E-12   -.173E-13 -.133E-13 -.552E-14   -.483E-24 -.355E-24 0.234E-23   -.877E-14 -.523E-14 -.123E-12
   -.115E-13 0.342E-13 0.151E-13   0.107E-13 -.147E-13 -.289E-14   0.127E-23 -.200E-24 0.169E-24   0.106E-13 -.176E-13 -.587E-13
   0.822E-14 -.523E-12 -.124E-12   0.210E-13 0.238E-14 -.756E-14   -.170E-23 -.572E-24 -.130E-24   0.587E-13 -.166E-13 -.123E-12
   0.893E-14 0.226E-12 0.723E-13   -.107E-13 0.400E-14 0.222E-14   0.795E-25 0.438E-24 -.746E-24   0.466E-13 -.200E-13 0.116E-12
   0.536E-14 0.122E-12 0.146E-12   -.170E-13 -.253E-13 -.533E-14   -.186E-23 0.720E-24 0.142E-23   0.613E-13 -.291E-14 0.369E-13
   -.226E-14 0.250E-14 -.204E-13   0.338E-13 -.266E-14 0.133E-14   0.638E-24 0.131E-23 -.410E-24   -.314E-13 -.532E-14 0.139E-12
   -.400E-14 0.125E-12 0.112E-12   -.240E-13 -.259E-13 0.400E-14   -.245E-24 0.869E-24 -.432E-24   -.183E-13 -.270E-13 0.526E-13
   0.361E-14 -.670E-14 -.177E-13   0.502E-13 -.711E-14 0.444E-15   0.183E-23 0.125E-23 -.196E-23   -.265E-13 -.407E-13 0.445E-13
   -.374E-14 0.115E-12 0.114E-12   -.178E-13 -.409E-13 0.488E-14   -.334E-23 -.937E-24 0.245E-24   0.355E-13 -.107E-13 0.123E-12
   -.284E-14 0.559E-14 -.103E-12   0.178E-14 0.164E-13 -.377E-14   0.175E-23 0.339E-23 -.821E-26   0.400E-13 -.293E-13 0.577E-13
   -.389E-14 0.272E-12 0.376E-12   -.136E-14 -.120E-13 0.398E-14   -.714E-24 -.484E-24 -.128E-23   0.555E-13 -.179E-13 0.123E-12
   -.242E-14 0.217E-12 0.697E-13   -.444E-15 0.400E-14 0.444E-14   0.102E-23 0.100E-23 0.725E-24   0.377E-13 0.791E-14 -.104E-12
   -.159E-14 0.486E-12 -.175E-12   -.885E-14 -.577E-14 0.888E-15   -.299E-23 -.128E-23 0.139E-23   0.533E-13 -.181E-13 -.349E-13
   -.662E-15 -.131E-13 -.128E-13   0.133E-14 0.488E-14 -.178E-14   0.174E-23 -.692E-24 -.382E-24   -.314E-13 0.150E-13 -.140E-12
   -.353E-14 0.909E-13 0.119E-12   -.888E-14 -.470E-15 -.213E-13   0.151E-23 0.723E-24 0.582E-24   0.317E-13 0.320E-13 -.569E-13
   -.328E-14 -.124E-13 -.763E-14   0.302E-13 0.666E-14 -.178E-14   -.581E-24 -.780E-24 -.103E-23   -.396E-13 0.370E-13 -.309E-13
   0.377E-14 0.103E-12 0.117E-12   -.444E-14 -.400E-14 0.358E-14   -.274E-23 -.417E-24 0.147E-23   -.245E-13 0.580E-14 -.118E-12
   -.923E-14 -.679E-14 -.101E-12   0.115E-13 -.222E-15 0.111E-13   0.330E-25 -.100E-24 0.314E-24   0.429E-13 0.122E-13 -.482E-13
   -.831E-14 0.653E-12 -.182E-13   -.530E-14 -.112E-14 0.757E-14   -.293E-23 -.434E-24 -.586E-24   0.574E-13 0.154E-13 -.103E-12
   -.658E-15 -.213E-12 0.786E-13   0.151E-13 0.488E-14 0.888E-15   0.936E-24 0.710E-24 -.220E-23   0.466E-13 0.163E-13 0.105E-12
   0.927E-14 -.369E-12 0.104E-12   -.290E-13 0.222E-14 0.444E-15   -.122E-23 -.175E-23 -.297E-24   0.466E-13 0.343E-15 0.358E-13
   0.143E-17 -.223E-13 -.252E-13   -.249E-13 0.178E-13 0.000E+00   0.339E-24 0.247E-25 -.251E-24   -.169E-13 0.460E-14 0.137E-12
   -.631E-14 -.155E-13 0.101E-13   0.178E-14 0.312E-14 0.888E-14   -.124E-23 0.212E-24 -.700E-24   0.152E-13 0.277E-13 0.568E-13
   0.490E-14 -.188E-13 -.226E-13   -.320E-13 0.711E-14 0.000E+00   0.104E-23 -.117E-23 -.112E-23   -.140E-13 0.389E-13 0.320E-13
   -.171E-14 0.116E-13 -.301E-14   -.160E-13 0.888E-14 0.377E-14   0.130E-23 -.938E-24 -.503E-24   0.183E-13 0.941E-14 0.116E-12
   -.151E-13 0.175E-13 0.192E-12   0.115E-13 0.142E-13 -.178E-14   0.244E-23 -.105E-23 -.907E-24   0.695E-13 0.249E-13 0.484E-13
   -.253E-14 -.637E-13 0.239E-12   -.705E-14 0.265E-14 0.102E-13   -.161E-23 0.136E-24 -.199E-23   0.480E-13 0.175E-13 0.100E-12
   -.186E-14 -.100E-11 -.672E-13   -.600E-14 -.355E-14 0.000E+00   0.468E-24 -.400E-25 -.201E-23   -.306E-13 -.381E-13 -.146E-12
   -.676E-14 0.897E-12 0.332E-12   -.107E-13 0.213E-13 0.178E-14   -.167E-23 0.849E-24 -.632E-24   -.546E-13 -.197E-13 -.806E-13
   -.432E-14 -.150E-13 -.120E-12   0.169E-13 -.160E-13 -.377E-14   0.246E-23 0.198E-23 -.441E-24   0.568E-13 -.259E-13 -.110E-12
   0.338E-13 0.357E-12 0.377E-13   -.129E-13 0.576E-14 -.195E-13   -.226E-23 0.297E-24 0.119E-23   0.862E-14 -.305E-13 -.569E-13
   0.206E-14 -.361E-13 -.176E-12   0.242E-13 -.133E-14 0.311E-14   -.193E-24 0.454E-24 -.888E-24   0.544E-13 -.867E-14 -.599E-13
   0.277E-13 0.268E-13 0.248E-12   -.444E-14 0.209E-13 0.425E-14   -.132E-23 0.171E-23 -.641E-24   0.747E-14 -.750E-14 -.127E-12
   -.263E-14 -.228E-13 0.507E-12   0.244E-14 -.111E-13 -.311E-14   0.980E-24 0.465E-26 -.139E-23   -.142E-13 -.280E-14 -.335E-13
   -.225E-13 0.169E-12 -.240E-12   -.278E-13 0.290E-15 -.531E-14   -.691E-24 0.236E-24 0.177E-23   -.572E-13 -.317E-13 -.133E-12
   -.795E-14 0.527E-12 -.460E-12   0.222E-14 0.711E-14 0.888E-15   0.825E-24 0.102E-23 -.593E-24   -.468E-13 -.380E-13 0.144E-12
   -.280E-14 -.834E-12 0.316E-13   -.977E-14 -.355E-13 -.178E-14   -.661E-25 0.153E-24 0.149E-23   -.598E-13 -.324E-13 0.783E-13
   -.247E-14 0.587E-14 -.639E-12   0.577E-14 -.222E-14 0.155E-14   -.537E-24 0.195E-23 0.934E-25   0.315E-13 -.564E-14 0.111E-12
   -.452E-14 0.336E-12 -.353E-12   -.289E-13 -.616E-14 0.444E-14   -.357E-24 0.536E-24 0.113E-23   0.179E-13 -.133E-13 0.567E-13
   -.120E-13 -.206E-12 -.618E-12   -.120E-13 -.488E-14 -.910E-14   0.507E-24 -.207E-24 -.182E-23   0.253E-13 -.150E-13 0.598E-13
   0.277E-13 0.241E-13 -.111E-12   -.142E-13 -.355E-13 0.355E-14   -.290E-25 0.609E-24 0.158E-23   -.331E-13 -.143E-13 0.128E-12
   -.403E-14 -.170E-13 -.116E-11   -.888E-15 0.133E-13 -.711E-14   -.174E-25 0.730E-24 -.337E-24   -.399E-13 -.130E-13 0.333E-13
   -.483E-14 0.410E-12 0.924E-12   0.537E-13 -.608E-14 -.312E-14   -.388E-24 0.150E-24 0.941E-24   -.523E-13 -.330E-13 0.131E-12
   0.334E-14 0.190E-12 -.226E-12   0.195E-13 0.173E-13 0.355E-14   -.200E-24 -.708E-25 0.314E-24   -.384E-13 0.341E-13 -.134E-12
   -.263E-15 -.108E-11 0.337E-12   -.133E-13 0.124E-13 0.355E-14   -.729E-24 0.737E-24 0.811E-24   -.539E-13 0.172E-13 -.784E-13
   -.417E-14 -.364E-12 -.402E-12   0.111E-13 -.215E-13 0.711E-14   0.581E-24 -.339E-25 -.128E-23   0.284E-13 0.228E-13 -.113E-12
   0.154E-13 -.124E-12 0.460E-13   -.711E-14 0.142E-13 -.124E-13   -.264E-23 -.482E-24 0.119E-23   -.293E-13 0.309E-13 -.649E-13
   -.431E-14 -.536E-12 -.165E-12   -.178E-14 0.711E-14 0.178E-14   -.101E-23 0.349E-24 -.122E-23   0.407E-13 0.961E-14 -.393E-13
   -.116E-13 -.280E-12 0.266E-12   -.977E-14 -.888E-15 0.869E-14   0.624E-26 -.449E-24 -.259E-24   0.281E-13 0.598E-14 -.111E-12
   -.259E-14 -.490E-12 -.662E-12   0.200E-13 0.577E-14 0.888E-14   0.905E-24 -.138E-23 -.110E-23   -.413E-13 -.365E-15 -.325E-13
   -.418E-14 -.230E-12 0.148E-11   -.129E-13 0.399E-14 0.631E-14   -.127E-23 -.611E-24 -.272E-24   -.564E-13 0.324E-13 -.118E-12
   0.412E-14 0.404E-12 0.112E-11   0.284E-13 0.249E-13 0.000E+00   -.675E-25 0.941E-24 -.110E-24   -.436E-13 0.336E-13 0.133E-12
   -.734E-14 0.280E-12 -.325E-13   0.142E-13 -.355E-14 0.124E-13   -.203E-23 -.481E-24 0.536E-24   -.464E-13 0.329E-13 0.786E-13
   0.149E-14 0.393E-12 -.343E-13   0.160E-13 0.182E-13 0.888E-15   0.164E-23 -.130E-23 -.180E-23   0.136E-13 0.124E-14 0.113E-12
   -.218E-13 -.102E-12 -.381E-12   0.000E+00 0.708E-14 0.888E-14   0.187E-24 0.887E-24 -.543E-24   -.127E-13 0.125E-13 0.644E-13
   0.112E-14 0.129E-12 0.235E-12   0.844E-13 0.120E-13 -.102E-13   0.132E-23 0.159E-23 -.131E-23   0.961E-14 0.723E-14 0.379E-13
   -.335E-13 -.286E-12 -.141E-12   -.711E-14 0.888E-14 0.355E-14   -.203E-23 -.753E-24 -.745E-24   -.173E-13 0.152E-13 0.109E-12
   -.881E-14 -.359E-12 0.582E-12   0.213E-13 -.711E-14 -.355E-14   -.401E-24 -.538E-24 0.349E-24   -.654E-13 0.122E-13 0.349E-13
   -.143E-13 -.330E-12 -.571E-12   0.107E-13 0.709E-14 0.353E-14   0.239E-24 0.550E-24 0.540E-24   -.496E-13 0.331E-13 0.118E-12
 -----------------------------------------------------------------------------------------------
   -.115E-12 -.713E-12 0.152E-11   0.258E-13 -.489E-13 0.164E-15   -.138E-22 0.666E-23 -.121E-22   0.133E-13 -.608E-13 -.140E-13
 
 
 POSITION                                       TOTAL-FORCE (eV/Angst)
 -----------------------------------------------------------------------------------
      2.72317      2.72317      2.72317         0.000000     -0.000000      0.000000
      4.08476      4.08476      4.08476        -0.000000     -0.000000     -0.000000
      0.00000      0.00000      2.72317         0.000000     -0.000000      0.000000
      1.36159      1.36159      4.08476        -0.000000      0.000000     -0.000000
      0.00000      2.72317      0.00000         0.000000     -0.000000      0.000000
      1.36159      4.08476      1.36159        -0.000000      0.000000     -0.000000
      2.72317      0.00000      0.00000         0.000000     -0.000000      0.000000
      4.08476      1.36159      1.36159        -0.000000     -0.000000     -0.000000
      2.72317      2.72317      8.16951         0.000000     -0.000000      0.000000
      4.08476      4.08476      9.53110        -0.000000      0.000000     -0.000000
      0.00000      0.00000      8.16951         0.000000     -0.000000      0.000000
      1.36159      1.36159      9.53110        -0.000000      0.000000     -0.000000
      0.00000      2.72317      5.44634         0.000000     -0.000000      0.000000
      1.36159      4.08476      6.80793        -0.000000     -0.000000     -0.000000
      2.72317      0.00000      5.44634         0.000000     -0.000000      0.000000
      4.08476      1.36159      6.80793        -0.000000      0.000000     -0.000000
      2.72317      8.16951      2.72317         0.000000      0.000000      0.000000
      4.08476      9.53110      4.08476        -0.000000      0.000000     -0.000000
      0.00000      5.44634      2.72317         0.000000      0.000000      0.000000
      1.36159      6.80793      4.08476        -0.000000      0.000000     -0.000000
      0.00000      8.16951      0.00000         0.000000      0.000000      0.000000
      1.36159      9.53110      1.36159        -0.000000     -0.000000     -0.000000
      2.72317      5.44634      0.00000         0.000000      0.000000      0.000000
      4.08476      6.80793      1.36159        -0.000000      0.000000     -0.000000
      2.72317      8.16951      8.16951         0.000000      0.000000      0.000000
      4.08476      9.53110      9.53110        -0.000000      0.000000     -0.000000
      0.00000      5.44634      8.16951         0.000000     -0.000000      0.000000
      1.36159      6.80793      9.53110        -0.000000     -0.000000     -0.000000
      0.00000      8.16951      5.44634         0.000000     -0.000000      0.000000
      1.36159      9.53110      6.80793        -0.000000      0.000000     -0.000000
      2.72317      5.44634      5.44634         0.000000      0.000000      0.000000
      4.08476      6.80793      6.80793        -0.000000      0.000000     -0.000000
      8.16951      2.72317      2.72317         0.000000     -0.000000      0.000000
      9.53110      4.08476      4.08476        -0.000000      0.000000     -0.000000
      5.44634      0.00000      2.72317         0.000000     -0.000000      0.000000
      6.80793      1.36159      4.08476        -0.000000      0.000000     -0.000000
      5.44634      2.72317      0.00000         0.000000     -0.000000      0.000000
      6.80793      4.08476      1.36159        -0.000000      0.000000     -0.000000
      8.16951      0.00000      0.00000         0.000000     -0.000000      0.000000
      9.53110      1.36159      1.36159        -0.000000      0.000000     -0.000000
      8.16951      2.72317      8.16951         0.000000     -0.000000      0.000000
      9.53110      4.08476      9.53110        -0.000000      0.000000     -0.000000
      5.44634      0.00000      8.16951         0.000000     -0.000000      0.000000
      6.80793      1.36159      9.53110        -0.000000      0.000000     -0.000000
      5.44634      2.72317      5.44634         0.000000      0.000000      0.000000
      6.80793      4.08476      6.80793        -0.000000     -0.000000     -0.000000
      8.16951      0.00000      5.44634         0.000000     -0.000000      0.000000
      9.53110      1.36159      6.80793        -0.000000      0.000000     -0.000000
      8.16951      8.16951      2.72317         0.000000     -0.000000      0.000000
      9.53110      9.53110      4.08476        -0.000000      0.000000     -0.000000
      5.44634      5.44634      2.72317         0.000000     -0.000000      0.000000
      6.80793      6.80793      4.08476        -0.000000      0.000000     -0.000000
      5.44634      8.16951      0.00000         0.000000     -0.000000      0.000000
      6.80793      9.53110      1.36159        -0.000000      0.000000     -0.000000
      8.16951      5.44634      0.00000         0.000000     -0.000000      0.000000
      9.53110      6.80793      1.36159        -0.000000      0.000000     -0.000000
      8.16951      8.16951      8.16951         0.000000      0.000000      0.000000
      9.53110      9.53110      9.53110        -0.000000      0.000000     -0.000000
      5.44634      5.44634      8.16951         0.000000      0.000000      0.000000
      6.80793      6.80793      9.53110        -0.000000      0.000000     -0.000000
      5.44634      8.16951      5.44634         0.000000      0.000000      0.000000
      6.80793      9.53110      6.80793        -0.000000     -0.000000     -0.000000
      8.16951      5.44634      5.44634         0.000000     -0.000000      0.000000
      9.53110      6.80793      6.80793        -0.000000     -0.000000     -0.000000
 -----------------------------------------------------------------------------------
    total drift:                               -0.000000     -0.000000      0.000000


--------------------------------------------------------------------------------------------------------



  FREE ENERGIE OF THE ION-ELECTRON SYSTEM (eV)
  ---------------------------------------------------
  free  energy   TOTEN  =      -367.49118803 eV

  energy  without entropy=     -367.49118803  energy(sigma->0) =     -367.49118803
 


--------------------------------------------------------------------------------------------------------


    POTLOK:  cpu time      0.5083: real time      0.5083


--------------------------------------------------------------------------------------------------------


     LOOP+:  cpu time    361.9391: real time    361.9565
    4ORBIT:  cpu time      0.0000: real time      0.0000

 total amount of memory used by VASP MPI-rank0   356973. kBytes
=======================================================================

   base      :      30000. kBytes
   nonl-proj :      21329. kBytes
   fftplans  :     155001. kBytes
   grid      :      61407. kBytes
   one-center:        196. kBytes
   wavefun   :      89040. kBytes
 
  
  
 General timing and accounting informations for this job:
 ========================================================
  
                  Total CPU time used (sec):      367.969
                            User time (sec):      364.524
                          System time (sec):        3.445
                         Elapsed time (sec):      368.366
  
                   Maximum memory used (kb):     1030528.
                   Average memory used (kb):          N/A
  
                          Minor page faults:       335317
                          Major page faults:            0
                 Voluntary context switches:         4474
