 vasp.6.3.0 20Jan22 (build Aug 13 2022 13:28:16) complex                        
  
 executed on             LinuxIFC date 2022.09.07  11:45:33
 running on    2 total cores
 distrk:  each k-point on    2 cores,    1 groups
 distr:  one band on NCORE=   1 cores,    2 groups


--------------------------------------------------------------------------------------------------------


 INCAR:
   ADDGRID = True
   EDIFF = 1e-08
   ENCUT = 318
   GGA = Ps
   IALGO = 38
   IBRION = -1
   ISMEAR = 0
   LCHARG = False
   LREAL = False
   LWAVE = False
   NELMIN = 5
   NPAR = 4
   PREC = Accurate
   SIGMA = 0.02

 POTCAR:    PAW_PBE Si 05Jan2001                  
 -----------------------------------------------------------------------------
|                                                                             |
|           W    W    AA    RRRRR   N    N  II  N    N   GGGG   !!!           |
|           W    W   A  A   R    R  NN   N  II  NN   N  G    G  !!!           |
|           W    W  A    A  R    R  N N  N  II  N N  N  G       !!!           |
|           W WW W  AAAAAA  RRRRR   N  N N  II  N  N N  G  GGG   !            |
|           WW  WW  A    A  R   R   N   NN  II  N   NN  G    G                |
|           W    W  A    A  R    R  N    N  II  N    N   GGGG   !!!           |
|                                                                             |
|     The value NPAR = 4 specified in the INCAR file was overwritten,         |
|     because it was not compatible with the 2 processes available:           |
|     NPAR = 2                                                                |
|     was used instead, please check that this makes sense for your           |
|     machine.                                                                |
|                                                                             |
 -----------------------------------------------------------------------------

 POTCAR:    PAW_PBE Si 05Jan2001                  
   VRHFIN =Si: s2p2                                                                                 
   LEXCH  = PE                                                                                      
   EATOM  =   103.0669 eV,    7.5752 Ry                                                             
                                                                                                    
   TITEL  = PAW_PBE Si 05Jan2001                                                                    
   LULTRA =        F    use ultrasoft PP ?                                                          
   IUNSCR =        1    unscreen: 0-lin 1-nonlin 2-no                                               
   RPACOR =    1.500    partial core radius                                                         
   POMASS =   28.085; ZVAL   =    4.000    mass and valenz                                          
   RCORE  =    1.900    outmost cutoff radius                                                       
   RWIGS  =    2.480; RWIGS  =    1.312    wigner-seitz radius (au A)                               
   ENMAX  =  245.345; ENMIN  =  184.009 eV                                                          
   ICORE  =        2    local potential                                                             
   LCOR   =        T    correct aug charges                                                         
   LPAW   =        T    paw PP                                                                      
   EAUG   =  322.069                                                                                
   DEXC   =    0.000                                                                                
   RMAX   =    1.950    core radius for proj-oper                                                   
   RAUG   =    1.300    factor for augmentation sphere                                              
   RDEP   =    1.993    radius for radial grids                                                     
   RDEPT  =    1.837    core radius for aug-charge                                                  
                                                                                                    
   Atomic configuration                                                                             
    6 entries                                                                                       
     n  l   j            E        occ.                                                              
     1  0  0.50     -1785.8828   2.0000                                                             
     2  0  0.50      -139.4969   2.0000                                                             
     2  1  1.50       -95.5546   6.0000                                                             
     3  0  0.50       -10.8127   2.0000                                                             
     3  1  0.50        -4.0811   2.0000                                                             
     3  2  1.50        -4.0817   0.0000                                                             
   Description                                                                                      
     l       E           TYP  RCUT    TYP  RCUT                                                     
     0    -10.8127223     23  1.900                                                                 
     0     -7.6451159     23  1.900                                                                 
     1     -4.0811372     23  1.900                                                                 
     1      2.4879257     23  1.900                                                                 
     2     -4.0817478      7  1.900                                                                 
  local pseudopotential read in
  partial core-charges read in
  partial kinetic energy density read in
  atomic valenz-charges read in
  non local Contribution for L=           0  read in
    real space projection operators read in
  non local Contribution for L=           0  read in
    real space projection operators read in
  non local Contribution for L=           1  read in
    real space projection operators read in
  non local Contribution for L=           1  read in
    real space projection operators read in
    PAW grid and wavefunctions read in
 
   number of l-projection  operators is LMAX  =           4
   number of lm-projection operators is LMMAX =           8
 
 -----------------------------------------------------------------------------
|                                                                             |
|               ----> ADVICE to this user running VASP <----                  |
|                                                                             |
|     You have a (more or less) 'large supercell' and for larger cells it     |
|     might be more efficient to use real-space projection operators.         |
|     Therefore, try LREAL= Auto in the INCAR file.                           |
|     Mind: For very accurate calculation, you might also keep the            |
|     reciprocal projection scheme (i.e. LREAL=.FALSE.).                      |
|                                                                             |
 -----------------------------------------------------------------------------

 -----------------------------------------------------------------------------
|                                                                             |
|               ----> ADVICE to this user running VASP <----                  |
|                                                                             |
|     You enforced a specific xc type in the INCAR file but a different       |
|     type was found in the POTCAR file.                                      |
|     I HOPE YOU KNOW WHAT YOU ARE DOING!                                     |
|                                                                             |
 -----------------------------------------------------------------------------

  PAW_PBE Si 05Jan2001                  :
 energy of atom  1       EATOM= -103.0669
 kinetic energy error for atom=    0.0016 (will be added to EATOM!!)
 
 
 POSCAR: Si
  positions in cartesian coordinates
  No initial velocities read in
 exchange correlation table for  LEXCH =       14
   RHO(1)=    0.500       N(1)  =     2000
   RHO(2)=  100.500       N(2)  =     4000
 


--------------------------------------------------------------------------------------------------------


 ion  position               nearest neighbor table
   1  0.250  0.250  0.250-   2 2.36   4 2.36   6 2.36   8 2.36
   2  0.375  0.375  0.375-   1 2.36  31 2.36  45 2.36  51 2.36
   3  0.000  0.000  0.250-   4 2.36  22 2.36  40 2.36  50 2.36
   4  0.125  0.125  0.375-   1 2.36   3 2.36  13 2.36  15 2.36
   5  0.000  0.250  0.000-   6 2.36  12 2.36  40 2.36  42 2.36
   6  0.125  0.375  0.125-   1 2.36   5 2.36  19 2.36  23 2.36
   7  0.250  0.000  0.000-   8 2.36  12 2.36  22 2.36  26 2.36
   8  0.375  0.125  0.125-   1 2.36   7 2.36  35 2.36  37 2.36
   9  0.250  0.250  0.750-  10 2.36  12 2.36  14 2.36  16 2.36
  10  0.375  0.375  0.875-   9 2.36  23 2.36  37 2.36  59 2.36
  11  0.000  0.000  0.750-  12 2.36  30 2.36  48 2.36  58 2.36
  12  0.125  0.125  0.875-   5 2.36   7 2.36   9 2.36  11 2.36
  13  0.000  0.250  0.500-   4 2.36  14 2.36  34 2.36  48 2.36
  14  0.125  0.375  0.625-   9 2.36  13 2.36  27 2.36  31 2.36
  15  0.250  0.000  0.500-   4 2.36  16 2.36  18 2.36  30 2.36
  16  0.375  0.125  0.625-   9 2.36  15 2.36  43 2.36  45 2.36
  17  0.250  0.750  0.250-  18 2.36  20 2.36  22 2.36  24 2.36
  18  0.375  0.875  0.375-  15 2.36  17 2.36  35 2.36  61 2.36
  19  0.000  0.500  0.250-   6 2.36  20 2.36  34 2.36  56 2.36
  20  0.125  0.625  0.375-  17 2.36  19 2.36  29 2.36  31 2.36
  21  0.000  0.750  0.000-  22 2.36  28 2.36  56 2.36  58 2.36
  22  0.125  0.875  0.125-   3 2.36   7 2.36  17 2.36  21 2.36
  23  0.250  0.500  0.000-   6 2.36  10 2.36  24 2.36  28 2.36
  24  0.375  0.625  0.125-  17 2.36  23 2.36  51 2.36  53 2.36
  25  0.250  0.750  0.750-  26 2.36  28 2.36  30 2.36  32 2.36
  26  0.375  0.875  0.875-   7 2.36  25 2.36  43 2.36  53 2.36
  27  0.000  0.500  0.750-  14 2.36  28 2.36  42 2.36  64 2.36
  28  0.125  0.625  0.875-  21 2.36  23 2.36  25 2.36  27 2.36
  29  0.000  0.750  0.500-  20 2.36  30 2.36  50 2.36  64 2.36
  30  0.125  0.875  0.625-  11 2.36  15 2.36  25 2.36  29 2.36
  31  0.250  0.500  0.500-   2 2.36  14 2.36  20 2.36  32 2.36
  32  0.375  0.625  0.625-  25 2.36  31 2.36  59 2.36  61 2.36
  33  0.750  0.250  0.250-  34 2.36  36 2.36  38 2.36  40 2.36
  34  0.875  0.375  0.375-  13 2.36  19 2.36  33 2.36  63 2.36
  35  0.500  0.000  0.250-   8 2.36  18 2.36  36 2.36  54 2.36
  36  0.625  0.125  0.375-  33 2.36  35 2.36  45 2.36  47 2.36
  37  0.500  0.250  0.000-   8 2.36  10 2.36  38 2.36  44 2.36
  38  0.625  0.375  0.125-  33 2.36  37 2.36  51 2.36  55 2.36
  39  0.750  0.000  0.000-  40 2.36  44 2.36  54 2.36  58 2.36
  40  0.875  0.125  0.125-   3 2.36   5 2.36  33 2.36  39 2.36
  41  0.750  0.250  0.750-  42 2.36  44 2.36  46 2.36  48 2.36
  42  0.875  0.375  0.875-   5 2.36  27 2.36  41 2.36  55 2.36
  43  0.500  0.000  0.750-  16 2.36  26 2.36  44 2.36  62 2.36
  44  0.625  0.125  0.875-  37 2.36  39 2.36  41 2.36  43 2.36
  45  0.500  0.250  0.500-   2 2.36  16 2.36  36 2.36  46 2.36
  46  0.625  0.375  0.625-  41 2.36  45 2.36  59 2.36  63 2.36
  47  0.750  0.000  0.500-  36 2.36  48 2.36  50 2.36  62 2.36
  48  0.875  0.125  0.625-  11 2.36  13 2.36  41 2.36  47 2.36
  49  0.750  0.750  0.250-  50 2.36  52 2.36  54 2.36  56 2.36
  50  0.875  0.875  0.375-   3 2.36  29 2.36  47 2.36  49 2.36
  51  0.500  0.500  0.250-   2 2.36  24 2.36  38 2.36  52 2.36
  52  0.625  0.625  0.375-  49 2.36  51 2.36  61 2.36  63 2.36
  53  0.500  0.750  0.000-  24 2.36  26 2.36  54 2.36  60 2.36
  54  0.625  0.875  0.125-  35 2.36  39 2.36  49 2.36  53 2.36
  55  0.750  0.500  0.000-  38 2.36  42 2.36  56 2.36  60 2.36
  56  0.875  0.625  0.125-  19 2.36  21 2.36  49 2.36  55 2.36
  57  0.750  0.750  0.750-  58 2.36  60 2.36  62 2.36  64 2.36
  58  0.875  0.875  0.875-  11 2.36  21 2.36  39 2.36  57 2.36
  59  0.500  0.500  0.750-  10 2.36  32 2.36  46 2.36  60 2.36
  60  0.625  0.625  0.875-  53 2.36  55 2.36  57 2.36  59 2.36
  61  0.500  0.750  0.500-  18 2.36  32 2.36  52 2.36  62 2.36
  62  0.625  0.875  0.625-  43 2.36  47 2.36  57 2.36  61 2.36
  63  0.750  0.500  0.500-  34 2.36  46 2.36  52 2.36  64 2.36
  64  0.875  0.625  0.625-  27 2.36  29 2.36  57 2.36  63 2.36
 
  LATTYP: Found a simple cubic cell.
 ALAT       =    10.8926831200
  
  Lattice vectors:
  
 A1 = (  10.8926831200,   0.0000000000,   0.0000000000)
 A2 = (   0.0000000000,  10.8926831200,   0.0000000000)
 A3 = (   0.0000000000,   0.0000000000,  10.8926831200)


Analysis of symmetry for initial positions (statically):
=====================================================================
 Subroutine PRICEL returns following result:
 
  LATTYP: Found a face centered cubic cell.
 ALAT       =     5.4463415600
  
  Lattice vectors:
  
 A1 = (   2.7231707800,  -2.7231707800,   0.0000000000)
 A2 = (   2.7231707800,   0.0000000000,   2.7231707800)
 A3 = (   0.0000000000,  -2.7231707800,   2.7231707800)
 
  32 primitive cells build up your supercell.
 

 Routine SETGRP: Setting up the symmetry group for a 
 simple cubic supercell.


 Subroutine GETGRP returns: Found 48 space group operations
 (whereof 24 operations were pure point group operations)
 out of a pool of 48 trial point group operations.


The static configuration has the point symmetry T_d .
 The point group associated with its full space group is O_h .


Analysis of symmetry for dynamics (positions and initial velocities):
=====================================================================
 Subroutine PRICEL returns following result:
 
  LATTYP: Found a face centered cubic cell.
 ALAT       =     5.4463415600
  
  Lattice vectors:
  
 A1 = (   2.7231707800,  -2.7231707800,   0.0000000000)
 A2 = (   2.7231707800,   0.0000000000,   2.7231707800)
 A3 = (   0.0000000000,  -2.7231707800,   2.7231707800)
 
  32 primitive cells build up your supercell.
 

 Routine SETGRP: Setting up the symmetry group for a 
 simple cubic supercell.


 Subroutine GETGRP returns: Found 48 space group operations
 (whereof 24 operations were pure point group operations)
 out of a pool of 48 trial point group operations.


The dynamic configuration has the point symmetry T_d .
 The point group associated with its full space group is O_h .


 Subroutine INISYM returns: Found 48 space group operations
 (whereof 24 operations are pure point group operations),
 and found    32 'primitive' translations


----------------------------------------------------------------------------------------

                                     Primitive cell                                     

  volume of cell :      40.3882

  direct lattice vectors                    reciprocal lattice vectors
     2.723170780 -2.723170780  0.000000000     0.183609491 -0.183609491 -0.183609491
     2.723170780  0.000000000  2.723170780     0.183609491  0.183609491  0.183609491
     0.000000000 -2.723170780  2.723170780    -0.183609491 -0.183609491  0.183609491

  length of vectors
     3.851145050  3.851145050  3.851145050     0.318020967  0.318020967  0.318020967

  position of ions in fractional coordinates (direct lattice)
     0.500000000  0.500000000  0.500000000
     0.250000000  0.250000000  0.250000000

  ion indices of the primitive-cell ions
   primitive index   ion index
                 1           1
                 2           2

----------------------------------------------------------------------------------------

 
 
 KPOINTS: KPOINTS created by Atomic Simulation Env

Automatic generation of k-mesh.
 Grid dimensions read from file:
 generate k-points for:    2    2    2

 Generating k-lattice:

  Cartesian coordinates                     Fractional coordinates (reciprocal lattice)
     0.045902373  0.000000000  0.000000000     0.500000000  0.000000000  0.000000000
     0.000000000  0.045902373  0.000000000     0.000000000  0.500000000  0.000000000
     0.000000000  0.000000000  0.045902373     0.000000000  0.000000000  0.500000000

  Length of vectors
     0.045902373  0.045902373  0.045902373

  Shift w.r.t. Gamma in fractional coordinates (k-lattice)
     0.000000000  0.000000000  0.000000000

 
 Subroutine IBZKPT returns following result:
 ===========================================
 
 Found      4 irreducible k-points:
 
 Following reciprocal coordinates:
            Coordinates               Weight
  0.000000  0.000000  0.000000      1.000000
  0.500000  0.000000  0.000000      3.000000
  0.500000  0.500000  0.000000      3.000000
  0.500000  0.500000  0.500000      1.000000
 
 Following cartesian coordinates:
            Coordinates               Weight
  0.000000  0.000000  0.000000      1.000000
  0.045902  0.000000  0.000000      3.000000
  0.045902  0.045902  0.000000      3.000000
  0.045902  0.045902  0.045902      1.000000
 


--------------------------------------------------------------------------------------------------------




 Dimension of arrays:
   k-points           NKPTS =      4   k-points in BZ     NKDIM =      4   number of bands    NBANDS=    162
   number of dos      NEDOS =    301   number of ions     NIONS =     64
   non local maximal  LDIM  =      4   non local SUM 2l+1 LMDIM =      8
   total plane-waves  NPLWV = 262144
   max r-space proj   IRMAX =      1   max aug-charges    IRDMAX=  54446
   dimension x,y,z NGX =    64 NGY =   64 NGZ =   64
   dimension x,y,z NGXF=   128 NGYF=  128 NGZF=  128
   support grid    NGXF=   256 NGYF=  256 NGZF=  256
   ions per type =              64
   NGX,Y,Z   is equivalent  to a cutoff of   9.77,  9.77,  9.77 a.u.
   NGXF,Y,Z  is equivalent  to a cutoff of  19.54, 19.54, 19.54 a.u.

 SYSTEM =  unknown system                          
 POSCAR =  Si                                      

 Startparameter for this run:
   NWRITE =      2    write-flag & timer
   PREC   = accura    normal or accurate (medium, high low for compatibility)
   ISTART =      0    job   : 0-new  1-cont  2-samecut
   ICHARG =      2    charge: 1-file 2-atom 10-const
   ISPIN  =      1    spin polarized calculation?
   LNONCOLLINEAR =      F non collinear calculations
   LSORBIT =      F    spin-orbit coupling
   INIWAV =      1    electr: 0-lowe 1-rand  2-diag
   LASPH  =      F    aspherical Exc in radial PAW
 Electronic Relaxation 1
   ENCUT  =  318.0 eV  23.37 Ry    4.83 a.u.  15.84 15.84 15.84*2*pi/ulx,y,z
   ENINI  =  318.0     initial cutoff
   ENAUG  =  322.1 eV  augmentation charge cutoff
   NELM   =     60;   NELMIN=  5; NELMDL= -5     # of ELM steps 
   EDIFF  = 0.1E-07   stopping-criterion for ELM
   LREAL  =      F    real-space projection
   NLSPLINE    = F    spline interpolate recip. space projectors
   LCOMPAT=      F    compatible to vasp.4.4
   GGA_COMPAT  = T    GGA compatible to vasp.4.4-vasp.4.6
   LMAXPAW     = -100 max onsite density
   LMAXMIX     =    2 max onsite mixed and CHGCAR
   VOSKOWN=      0    Vosko Wilk Nusair interpolation
   ROPT   =    0.00000
 Ionic relaxation
   EDIFFG = 0.1E-06   stopping-criterion for IOM
   NSW    =      0    number of steps for IOM
   NBLOCK =      1;   KBLOCK =      1    inner block; outer block 
   IBRION =     -1    ionic relax: 0-MD 1-quasi-New 2-CG
   NFREE  =      0    steps in history (QN), initial steepest desc. (CG)
   ISIF   =      2    stress and relaxation
   IWAVPR =     10    prediction:  0-non 1-charg 2-wave 3-comb
   ISYM   =      2    0-nonsym 1-usesym 2-fastsym
   LCORR  =      T    Harris-Foulkes like correction to forces

   POTIM  = 0.5000    time-step for ionic-motion
   TEIN   =    0.0    initial temperature
   TEBEG  =    0.0;   TEEND  =   0.0 temperature during run
   SMASS  =  -3.00    Nose mass-parameter (am)
   estimated Nose-frequenzy (Omega)   =  0.10E-29 period in steps = 0.13E+47 mass=  -0.271E-26a.u.
   SCALEE = 1.0000    scale energy and forces
   NPACO  =    256;   APACO  = 10.0  distance and # of slots for P.C.
   PSTRESS=    0.0 pullay stress

  Mass of Ions in am
   POMASS =  28.09
  Ionic Valenz
   ZVAL   =   4.00
  Atomic Wigner-Seitz radii
   RWIGS  =  -1.00
  virtual crystal weights 
   VCA    =   1.00
   NELECT =     256.0000    total number of electrons
   NUPDOWN=      -1.0000    fix difference up-down

 DOS related values:
   EMIN   =  10.00;   EMAX   =-10.00  energy-range for DOS
   EFERMI =   0.00
   ISMEAR =     0;   SIGMA  =   0.02  broadening in eV -4-tet -1-fermi 0-gaus

 Electronic relaxation 2 (details)
   IALGO  =     38    algorithm
   LDIAG  =      T    sub-space diagonalisation (order eigenvalues)
   LSUBROT=      F    optimize rotation matrix (better conditioning)
   TURBO    =      0    0=normal 1=particle mesh
   IRESTART =      0    0=no restart 2=restart with 2 vectors
   NREBOOT  =      0    no. of reboots
   NMIN     =      0    reboot dimension
   EREF     =   0.00    reference energy to select bands
   IMIX   =      4    mixing-type and parameters
     AMIX     =   0.40;   BMIX     =  1.00
     AMIX_MAG =   1.60;   BMIX_MAG =  1.00
     AMIN     =   0.10
     WC   =   100.;   INIMIX=   1;  MIXPRE=   1;  MAXMIX= -45

 Intra band minimization:
   WEIMIN = 0.0000     energy-eigenvalue tresh-hold
   EBREAK =  0.15E-10  absolut break condition
   DEPER  =   0.30     relativ break condition  

   TIME   =   0.40     timestep for ELM

  volume/ion in A,a.u.               =      20.19       136.28
  Fermi-wavevector in a.u.,A,eV,Ry     =   0.954304  1.803373 12.390766  0.910696
  Thomas-Fermi vector in A             =   2.083038
 
 Write flags
   LWAVE        =      F    write WAVECAR
   LDOWNSAMPLE  =      F    k-point downsampling of WAVECAR
   LCHARG       =      F    write CHGCAR
   LVTOT        =      F    write LOCPOT, total local potential
   LVHAR        =      F    write LOCPOT, Hartree potential only
   LELF         =      F    write electronic localiz. function (ELF)
   LORBIT       =      0    0 simple, 1 ext, 2 COOP (PROOUT), +10 PAW based schemes


 Dipole corrections
   LMONO  =      F    monopole corrections only (constant potential shift)
   LDIPOL =      F    correct potential (dipole corrections)
   IDIPOL =      0    1-x, 2-y, 3-z, 4-all directions 
   EPSILON=  1.0000000 bulk dielectric constant

 Exchange correlation treatment:
   GGA     =    PS    GGA type
   LEXCH   =    14    internal setting for exchange type
   LIBXC   =     F    Libxc                    
   VOSKOWN =     0    Vosko Wilk Nusair interpolation
   LHFCALC =     F    Hartree Fock is set to
   LHFONE  =     F    Hartree Fock one center treatment
   AEXX    =    0.0000 exact exchange contribution

 Linear response parameters
   LEPSILON=     F    determine dielectric tensor
   LRPA    =     F    only Hartree local field effects (RPA)
   LNABLA  =     F    use nabla operator in PAW spheres
   LVEL    =     F    velocity operator in full k-point grid
   CSHIFT  =0.1000    complex shift for real part using Kramers Kronig
   OMEGAMAX=  -1.0    maximum frequency
   DEG_THRESHOLD= 0.2000000E-02 threshold for treating states as degnerate
   RTIME   =   -0.100 relaxation time in fs
  (WPLASMAI=    0.000 imaginary part of plasma frequency in eV, 0.658/RTIME)
   DFIELD  = 0.0000000 0.0000000 0.0000000 field for delta impulse in time
 
  Optional k-point grid parameters
   LKPOINTS_OPT  =     F    use optional k-point grid
   KPOINTS_OPT_MODE=     1    mode for optional k-point grid
 
 Orbital magnetization related:
   ORBITALMAG=     F  switch on orbital magnetization
   LCHIMAG   =     F  perturbation theory with respect to B field
   DQ        =  0.001000  dq finite difference perturbation B field
   LLRAUG    =     F  two centre corrections for induced B field



--------------------------------------------------------------------------------------------------------


 Static calculation
 charge density and potential will be updated during run
 non-spin polarized calculation
 Variant of blocked Davidson
 Davidson routine will perform the subspace rotation
 perform sub-space diagonalisation
    after iterative eigenvector-optimisation
 modified Broyden-mixing scheme, WC =      100.0
 initial mixing is a Kerker type mixing with AMIX =  0.4000 and BMIX =      1.0000
 Hartree-type preconditioning will be used
 using additional bands           34
 reciprocal scheme for non local part
 use partial core corrections
 calculate Harris-corrections to forces 
   (improved forces if not selfconsistent)
 use gradient corrections 
 use of overlap-Matrix (Vanderbilt PP)
 Gauss-broadening in eV      SIGMA  =   0.02


--------------------------------------------------------------------------------------------------------


  energy-cutoff  :      318.00
  volume of cell :     1292.42
      direct lattice vectors                 reciprocal lattice vectors
    10.892683120  0.000000000  0.000000000     0.091804745  0.000000000  0.000000000
     0.000000000 10.892683120  0.000000000     0.000000000  0.091804745  0.000000000
     0.000000000  0.000000000 10.892683120     0.000000000  0.000000000  0.091804745

  length of vectors
    10.892683120 10.892683120 10.892683120     0.091804745  0.091804745  0.091804745


 
 k-points in units of 2pi/SCALE and weight: KPOINTS created by Atomic Simulation Env
   0.00000000  0.00000000  0.00000000       0.125
   0.04590237  0.00000000  0.00000000       0.375
   0.04590237  0.04590237  0.00000000       0.375
   0.04590237  0.04590237  0.04590237       0.125
 
 k-points in reciprocal lattice and weights: KPOINTS created by Atomic Simulation Env
   0.00000000  0.00000000  0.00000000       0.125
   0.50000000  0.00000000  0.00000000       0.375
   0.50000000  0.50000000  0.00000000       0.375
   0.50000000  0.50000000  0.50000000       0.125
 
 position of ions in fractional coordinates (direct lattice) 
   0.25000000  0.25000000  0.25000000
   0.37500000  0.37500000  0.37500000
   0.00000000  0.00000000  0.25000000
   0.12500000  0.12500000  0.37500000
   0.00000000  0.25000000  0.00000000
   0.12500000  0.37500000  0.12500000
   0.25000000  0.00000000  0.00000000
   0.37500000  0.12500000  0.12500000
   0.25000000  0.25000000  0.75000000
   0.37500000  0.37500000  0.87500000
   0.00000000  0.00000000  0.75000000
   0.12500000  0.12500000  0.87500000
   0.00000000  0.25000000  0.50000000
   0.12500000  0.37500000  0.62500000
   0.25000000  0.00000000  0.50000000
   0.37500000  0.12500000  0.62500000
   0.25000000  0.75000000  0.25000000
   0.37500000  0.87500000  0.37500000
   0.00000000  0.50000000  0.25000000
   0.12500000  0.62500000  0.37500000
   0.00000000  0.75000000  0.00000000
   0.12500000  0.87500000  0.12500000
   0.25000000  0.50000000  0.00000000
   0.37500000  0.62500000  0.12500000
   0.25000000  0.75000000  0.75000000
   0.37500000  0.87500000  0.87500000
   0.00000000  0.50000000  0.75000000
   0.12500000  0.62500000  0.87500000
   0.00000000  0.75000000  0.50000000
   0.12500000  0.87500000  0.62500000
   0.25000000  0.50000000  0.50000000
   0.37500000  0.62500000  0.62500000
   0.75000000  0.25000000  0.25000000
   0.87500000  0.37500000  0.37500000
   0.50000000  0.00000000  0.25000000
   0.62500000  0.12500000  0.37500000
   0.50000000  0.25000000  0.00000000
   0.62500000  0.37500000  0.12500000
   0.75000000  0.00000000  0.00000000
   0.87500000  0.12500000  0.12500000
   0.75000000  0.25000000  0.75000000
   0.87500000  0.37500000  0.87500000
   0.50000000  0.00000000  0.75000000
   0.62500000  0.12500000  0.87500000
   0.50000000  0.25000000  0.50000000
   0.62500000  0.37500000  0.62500000
   0.75000000  0.00000000  0.50000000
   0.87500000  0.12500000  0.62500000
   0.75000000  0.75000000  0.25000000
   0.87500000  0.87500000  0.37500000
   0.50000000  0.50000000  0.25000000
   0.62500000  0.62500000  0.37500000
   0.50000000  0.75000000  0.00000000
   0.62500000  0.87500000  0.12500000
   0.75000000  0.50000000  0.00000000
   0.87500000  0.62500000  0.12500000
   0.75000000  0.75000000  0.75000000
   0.87500000  0.87500000  0.87500000
   0.50000000  0.50000000  0.75000000
   0.62500000  0.62500000  0.87500000
   0.50000000  0.75000000  0.50000000
   0.62500000  0.87500000  0.62500000
   0.75000000  0.50000000  0.50000000
   0.87500000  0.62500000  0.62500000
 
 position of ions in cartesian coordinates  (Angst):
   2.72317078  2.72317078  2.72317078
   4.08475617  4.08475617  4.08475617
   0.00000000  0.00000000  2.72317078
   1.36158539  1.36158539  4.08475617
   0.00000000  2.72317078  0.00000000
   1.36158539  4.08475617  1.36158539
   2.72317078  0.00000000  0.00000000
   4.08475617  1.36158539  1.36158539
   2.72317078  2.72317078  8.16951234
   4.08475617  4.08475617  9.53109773
   0.00000000  0.00000000  8.16951234
   1.36158539  1.36158539  9.53109773
   0.00000000  2.72317078  5.44634156
   1.36158539  4.08475617  6.80792695
   2.72317078  0.00000000  5.44634156
   4.08475617  1.36158539  6.80792695
   2.72317078  8.16951234  2.72317078
   4.08475617  9.53109773  4.08475617
   0.00000000  5.44634156  2.72317078
   1.36158539  6.80792695  4.08475617
   0.00000000  8.16951234  0.00000000
   1.36158539  9.53109773  1.36158539
   2.72317078  5.44634156  0.00000000
   4.08475617  6.80792695  1.36158539
   2.72317078  8.16951234  8.16951234
   4.08475617  9.53109773  9.53109773
   0.00000000  5.44634156  8.16951234
   1.36158539  6.80792695  9.53109773
   0.00000000  8.16951234  5.44634156
   1.36158539  9.53109773  6.80792695
   2.72317078  5.44634156  5.44634156
   4.08475617  6.80792695  6.80792695
   8.16951234  2.72317078  2.72317078
   9.53109773  4.08475617  4.08475617
   5.44634156  0.00000000  2.72317078
   6.80792695  1.36158539  4.08475617
   5.44634156  2.72317078  0.00000000
   6.80792695  4.08475617  1.36158539
   8.16951234  0.00000000  0.00000000
   9.53109773  1.36158539  1.36158539
   8.16951234  2.72317078  8.16951234
   9.53109773  4.08475617  9.53109773
   5.44634156  0.00000000  8.16951234
   6.80792695  1.36158539  9.53109773
   5.44634156  2.72317078  5.44634156
   6.80792695  4.08475617  6.80792695
   8.16951234  0.00000000  5.44634156
   9.53109773  1.36158539  6.80792695
   8.16951234  8.16951234  2.72317078
   9.53109773  9.53109773  4.08475617
   5.44634156  5.44634156  2.72317078
   6.80792695  6.80792695  4.08475617
   5.44634156  8.16951234  0.00000000
   6.80792695  9.53109773  1.36158539
   8.16951234  5.44634156  0.00000000
   9.53109773  6.80792695  1.36158539
   8.16951234  8.16951234  8.16951234
   9.53109773  9.53109773  9.53109773
   5.44634156  5.44634156  8.16951234
   6.80792695  6.80792695  9.53109773
   5.44634156  8.16951234  5.44634156
   6.80792695  9.53109773  6.80792695
   8.16951234  5.44634156  5.44634156
   9.53109773  6.80792695  6.80792695
 


--------------------------------------------------------------------------------------------------------


 k-point   1 :   0.0000 0.0000 0.0000  plane waves:   16663
 k-point   2 :   0.5000 0.0000 0.0000  plane waves:   16648
 k-point   3 :   0.5000 0.5000 0.0000  plane waves:   16652
 k-point   4 :   0.5000 0.5000 0.5000  plane waves:   16656

 maximum and minimum number of plane-waves per node :     16663    16648

 maximum number of plane-waves:     16663
 maximum index in each direction: 
   IXMAX=   15   IYMAX=   15   IZMAX=   15
   IXMIN=  -16   IYMIN=  -16   IZMIN=  -16


 serial   3D FFT for wavefunctions
 parallel 3D FFT for charge:
    minimum data exchange during FFTs selected (reduces bandwidth)


 total amount of memory used by VASP MPI-rank0   356973. kBytes
=======================================================================

   base      :      30000. kBytes
   nonl-proj :      21329. kBytes
   fftplans  :     155001. kBytes
   grid      :      61407. kBytes
   one-center:        196. kBytes
   wavefun   :      89040. kBytes
 
     INWAV:  cpu time      0.0000: real time      0.0000
 Broyden mixing: mesh for mixing (old mesh)
   NGX = 31   NGY = 31   NGZ = 31
  (NGX  =128   NGY  =128   NGZ  =128)
  gives a total of  29791 points

 initial charge density was supplied:
 charge density of overlapping atoms calculated
 number of electron     256.0000000 magnetization 
 keeping initial charge density in first step


--------------------------------------------------------------------------------------------------------


 Maximum index for augmentation-charges        26211 (set IRDMAX)


--------------------------------------------------------------------------------------------------------


 First call to EWALD:  gamma=   0.163
 Maximum number of real-space cells 3x 3x 3
 Maximum number of reciprocal cells 3x 3x 3

    FEWALD:  cpu time      0.0050: real time      0.0050


--------------------------------------- Iteration      1(   1)  ---------------------------------------


    POTLOK:  cpu time      0.3044: real time      0.3045
    SETDIJ:  cpu time      0.2189: real time      0.2189
     EDDAV:  cpu time     18.6682: real time     18.6687
       DOS:  cpu time      0.0006: real time      0.0006
    --------------------------------------------
      LOOP:  cpu time     19.1922: real time     19.1927

 eigenvalue-minimisations  :  1296
 total energy-change (2. order) : 0.4624170E+03  (-0.7279075E+04)
 number of electron     256.0000000 magnetization 
 augmentation part      256.0000000 magnetization 

 Free energy of the ion-electron system (eV)
  ---------------------------------------------------
  alpha Z        PSCENC =       106.68659228
  Ewald energy   TEWEN  =     -7292.08850402
  -Hartree energ DENC   =      -356.37732993
  -exchange      EXHF   =         0.00000000
  -V(xc)+E(xc)   XCENC  =      -559.61007576
  PAW double counting   =      5598.62625415    -4492.17844134
  entropy T*S    EENTRO =        -0.00582347
  eigenvalues    EBANDS =       892.59735335
  atomic energy  EATOM  =      6564.76702419
  Solvation  Ediel_sol  =         0.00000000
  ---------------------------------------------------
  free energy    TOTEN  =       462.41704945 eV

  energy without entropy =      462.42287292  energy(sigma->0) =      462.41996118


--------------------------------------------------------------------------------------------------------




--------------------------------------- Iteration      1(   2)  ---------------------------------------


     EDDAV:  cpu time     21.8715: real time     21.8730
       DOS:  cpu time      0.0002: real time      0.0002
    --------------------------------------------
      LOOP:  cpu time     21.8717: real time     21.8732

 eigenvalue-minimisations  :  1576
 total energy-change (2. order) :-0.7840002E+03  (-0.7432000E+03)
 number of electron     256.0000000 magnetization 
 augmentation part      256.0000000 magnetization 

 Free energy of the ion-electron system (eV)
  ---------------------------------------------------
  alpha Z        PSCENC =       106.68659228
  Ewald energy   TEWEN  =     -7292.08850402
  -Hartree energ DENC   =      -356.37732993
  -exchange      EXHF   =         0.00000000
  -V(xc)+E(xc)   XCENC  =      -559.61007576
  PAW double counting   =      5598.62625415    -4492.17844134
  entropy T*S    EENTRO =        -0.00000000
  eigenvalues    EBANDS =       108.59130492
  atomic energy  EATOM  =      6564.76702419
  Solvation  Ediel_sol  =         0.00000000
  ---------------------------------------------------
  free energy    TOTEN  =      -321.58317551 eV

  energy without entropy =     -321.58317551  energy(sigma->0) =     -321.58317551


--------------------------------------------------------------------------------------------------------




--------------------------------------- Iteration      1(   3)  ---------------------------------------


     EDDAV:  cpu time     21.8810: real time     21.8829
       DOS:  cpu time      0.0003: real time      0.0002
    --------------------------------------------
      LOOP:  cpu time     21.8813: real time     21.8832

 eigenvalue-minimisations  :  1568
 total energy-change (2. order) :-0.5163836E+02  (-0.5082618E+02)
 number of electron     256.0000000 magnetization 
 augmentation part      256.0000000 magnetization 

 Free energy of the ion-electron system (eV)
  ---------------------------------------------------
  alpha Z        PSCENC =       106.68659228
  Ewald energy   TEWEN  =     -7292.08850402
  -Hartree energ DENC   =      -356.37732993
  -exchange      EXHF   =         0.00000000
  -V(xc)+E(xc)   XCENC  =      -559.61007576
  PAW double counting   =      5598.62625415    -4492.17844134
  entropy T*S    EENTRO =        -0.00000000
  eigenvalues    EBANDS =        56.95294377
  atomic energy  EATOM  =      6564.76702419
  Solvation  Ediel_sol  =         0.00000000
  ---------------------------------------------------
  free energy    TOTEN  =      -373.22153666 eV

  energy without entropy =     -373.22153666  energy(sigma->0) =     -373.22153666


--------------------------------------------------------------------------------------------------------




--------------------------------------- Iteration      1(   4)  ---------------------------------------


     EDDAV:  cpu time     21.6572: real time     21.6584
       DOS:  cpu time      0.0002: real time      0.0002
    --------------------------------------------
      LOOP:  cpu time     21.6574: real time     21.6586

 eigenvalue-minimisations  :  1552
 total energy-change (2. order) :-0.1240085E+01  (-0.1231263E+01)
 number of electron     256.0000000 magnetization 
 augmentation part      256.0000000 magnetization 

 Free energy of the ion-electron system (eV)
  ---------------------------------------------------
  alpha Z        PSCENC =       106.68659228
  Ewald energy   TEWEN  =     -7292.08850402
  -Hartree energ DENC   =      -356.37732993
  -exchange      EXHF   =         0.00000000
  -V(xc)+E(xc)   XCENC  =      -559.61007576
  PAW double counting   =      5598.62625415    -4492.17844134
  entropy T*S    EENTRO =        -0.00000000
  eigenvalues    EBANDS =        55.71285923
  atomic energy  EATOM  =      6564.76702419
  Solvation  Ediel_sol  =         0.00000000
  ---------------------------------------------------
  free energy    TOTEN  =      -374.46162119 eV

  energy without entropy =     -374.46162119  energy(sigma->0) =     -374.46162119


--------------------------------------------------------------------------------------------------------




--------------------------------------- Iteration      1(   5)  ---------------------------------------


     EDDAV:  cpu time     21.6735: real time     21.6746
       DOS:  cpu time      0.0003: real time      0.0003
    CHARGE:  cpu time      0.7105: real time      0.7104
    MIXING:  cpu time      0.0096: real time      0.0096
    --------------------------------------------
      LOOP:  cpu time     22.3938: real time     22.3949

 eigenvalue-minimisations  :  1542
 total energy-change (2. order) :-0.4489072E-01  (-0.4481770E-01)
 number of electron     255.9999995 magnetization 
 augmentation part      -14.9464233 magnetization 

 Broyden mixing:
  rms(total) = 0.28234E+01    rms(broyden)= 0.28233E+01
  rms(prec ) = 0.31069E+01
  weight for this iteration     100.00

 Free energy of the ion-electron system (eV)
  ---------------------------------------------------
  alpha Z        PSCENC =       106.68659228
  Ewald energy   TEWEN  =     -7292.08850402
  -Hartree energ DENC   =      -356.37732993
  -exchange      EXHF   =         0.00000000
  -V(xc)+E(xc)   XCENC  =      -559.61007576
  PAW double counting   =      5598.62625415    -4492.17844134
  entropy T*S    EENTRO =        -0.00000000
  eigenvalues    EBANDS =        55.66796851
  atomic energy  EATOM  =      6564.76702419
  Solvation  Ediel_sol  =         0.00000000
  ---------------------------------------------------
  free energy    TOTEN  =      -374.50651192 eV

  energy without entropy =     -374.50651192  energy(sigma->0) =     -374.50651192


--------------------------------------------------------------------------------------------------------




--------------------------------------- Iteration      1(   6)  ---------------------------------------


    POTLOK:  cpu time      0.2919: real time      0.2928
    SETDIJ:  cpu time      0.2181: real time      0.2181
     EDDAV:  cpu time     20.2939: real time     20.2945
       DOS:  cpu time      0.0003: real time      0.0003
    CHARGE:  cpu time      0.6963: real time      0.6962
    MIXING:  cpu time      0.0104: real time      0.0105
    --------------------------------------------
      LOOP:  cpu time     21.5109: real time     21.5124

 eigenvalue-minimisations  :  1424
 total energy-change (2. order) : 0.4825698E+01  (-0.2584992E+00)
 number of electron     255.9999995 magnetization 
 augmentation part      -14.7898471 magnetization 

 Broyden mixing:
  rms(total) = 0.17016E+01    rms(broyden)= 0.17016E+01
  rms(prec ) = 0.18601E+01
  weight for this iteration     100.00

 eigenvalues of (default mixing * dielectric matrix)
  average eigenvalue GAMMA=   2.5096
  2.5096

 Free energy of the ion-electron system (eV)
  ---------------------------------------------------
  alpha Z        PSCENC =       106.68659228
  Ewald energy   TEWEN  =     -7292.08850402
  -Hartree energ DENC   =      -402.00575474
  -exchange      EXHF   =         0.00000000
  -V(xc)+E(xc)   XCENC  =      -552.38963192
  PAW double counting   =     12395.12104405   -11291.84971660
  entropy T*S    EENTRO =        -0.00000000
  eigenvalues    EBANDS =       102.07813253
  atomic energy  EATOM  =      6564.76702419
  Solvation  Ediel_sol  =         0.00000000
  ---------------------------------------------------
  free energy    TOTEN  =      -369.68081423 eV

  energy without entropy =     -369.68081423  energy(sigma->0) =     -369.68081423


--------------------------------------------------------------------------------------------------------




--------------------------------------- Iteration      1(   7)  ---------------------------------------


    POTLOK:  cpu time      0.2906: real time      0.2911
    SETDIJ:  cpu time      0.2185: real time      0.2187
     EDDAV:  cpu time     20.2569: real time     20.2576
       DOS:  cpu time      0.0003: real time      0.0002
    CHARGE:  cpu time      0.6936: real time      0.6936
    MIXING:  cpu time      0.0098: real time      0.0097
    --------------------------------------------
      LOOP:  cpu time     21.4696: real time     21.4709

 eigenvalue-minimisations  :  1424
 total energy-change (2. order) : 0.2199884E+01  (-0.5232773E+00)
 number of electron     255.9999995 magnetization 
 augmentation part      -14.5929057 magnetization 

 Broyden mixing:
  rms(total) = 0.97989E-01    rms(broyden)= 0.97989E-01
  rms(prec ) = 0.12169E+00
  weight for this iteration     100.00

 eigenvalues of (default mixing * dielectric matrix)
  average eigenvalue GAMMA=   2.2527
  2.2527  2.2527

 Free energy of the ion-electron system (eV)
  ---------------------------------------------------
  alpha Z        PSCENC =       106.68659228
  Ewald energy   TEWEN  =     -7292.08850402
  -Hartree energ DENC   =      -475.91777296
  -exchange      EXHF   =         0.00000000
  -V(xc)+E(xc)   XCENC  =      -540.03711529
  PAW double counting   =     28760.31978188   -27661.31864773
  entropy T*S    EENTRO =        -0.00000000
  eigenvalues    EBANDS =       170.10771105
  atomic energy  EATOM  =      6564.76702419
  Solvation  Ediel_sol  =         0.00000000
  ---------------------------------------------------
  free energy    TOTEN  =      -367.48093060 eV

  energy without entropy =     -367.48093060  energy(sigma->0) =     -367.48093060


--------------------------------------------------------------------------------------------------------




--------------------------------------- Iteration      1(   8)  ---------------------------------------


    POTLOK:  cpu time      0.2900: real time      0.2904
    SETDIJ:  cpu time      0.2180: real time      0.2180
     EDDAV:  cpu time     20.2292: real time     20.2301
       DOS:  cpu time      0.0002: real time      0.0002
    CHARGE:  cpu time      0.6946: real time      0.6946
    MIXING:  cpu time      0.0104: real time      0.0104
    --------------------------------------------
      LOOP:  cpu time     21.4425: real time     21.4436

 eigenvalue-minimisations  :  1424
 total energy-change (2. order) :-0.7932045E-02  (-0.2738890E-01)
 number of electron     255.9999995 magnetization 
 augmentation part      -14.6346007 magnetization 

 Broyden mixing:
  rms(total) = 0.35386E-01    rms(broyden)= 0.35385E-01
  rms(prec ) = 0.40758E-01
  weight for this iteration     100.00

 eigenvalues of (default mixing * dielectric matrix)
  average eigenvalue GAMMA=   2.4643
  2.8657  2.2636  2.2636

 Free energy of the ion-electron system (eV)
  ---------------------------------------------------
  alpha Z        PSCENC =       106.68659228
  Ewald energy   TEWEN  =     -7292.08850402
  -Hartree energ DENC   =      -469.09530632
  -exchange      EXHF   =         0.00000000
  -V(xc)+E(xc)   XCENC  =      -540.63189894
  PAW double counting   =     28237.38025760   -27137.59341434
  entropy T*S    EENTRO =        -0.00000000
  eigenvalues    EBANDS =       163.08638690
  atomic energy  EATOM  =      6564.76702419
  Solvation  Ediel_sol  =         0.00000000
  ---------------------------------------------------
  free energy    TOTEN  =      -367.48886264 eV

  energy without entropy =     -367.48886264  energy(sigma->0) =     -367.48886264


--------------------------------------------------------------------------------------------------------




--------------------------------------- Iteration      1(   9)  ---------------------------------------


    POTLOK:  cpu time      0.2914: real time      0.2922
    SETDIJ:  cpu time      0.2193: real time      0.2193
     EDDAV:  cpu time     21.7703: real time     21.7710
       DOS:  cpu time      0.0003: real time      0.0003
    CHARGE:  cpu time      0.6938: real time      0.6938
    MIXING:  cpu time      0.0103: real time      0.0103
    --------------------------------------------
      LOOP:  cpu time     22.9854: real time     22.9868

 eigenvalue-minimisations  :  1564
 total energy-change (2. order) :-0.1414944E-02  (-0.7367225E-03)
 number of electron     255.9999995 magnetization 
 augmentation part      -14.6349436 magnetization 

 Broyden mixing:
  rms(total) = 0.30825E-01    rms(broyden)= 0.30825E-01
  rms(prec ) = 0.31914E-01
  weight for this iteration     100.00

 eigenvalues of (default mixing * dielectric matrix)
  average eigenvalue GAMMA=   2.4333
  4.1194  0.9220  2.3460  2.3460

 Free energy of the ion-electron system (eV)
  ---------------------------------------------------
  alpha Z        PSCENC =       106.68659228
  Ewald energy   TEWEN  =     -7292.08850402
  -Hartree energ DENC   =      -471.04073684
  -exchange      EXHF   =         0.00000000
  -V(xc)+E(xc)   XCENC  =      -540.30530534
  PAW double counting   =     28378.45743756   -27278.77247688
  entropy T*S    EENTRO =        -0.00000000
  eigenvalues    EBANDS =       164.80569147
  atomic energy  EATOM  =      6564.76702419
  Solvation  Ediel_sol  =         0.00000000
  ---------------------------------------------------
  free energy    TOTEN  =      -367.49027759 eV

  energy without entropy =     -367.49027759  energy(sigma->0) =     -367.49027759


--------------------------------------------------------------------------------------------------------




--------------------------------------- Iteration      1(  10)  ---------------------------------------


    POTLOK:  cpu time      0.2895: real time      0.2901
    SETDIJ:  cpu time      0.2189: real time      0.2189
     EDDAV:  cpu time     19.7914: real time     19.7922
       DOS:  cpu time      0.0002: real time      0.0002
    CHARGE:  cpu time      0.6944: real time      0.6943
    MIXING:  cpu time      0.0106: real time      0.0106
    --------------------------------------------
      LOOP:  cpu time     21.0051: real time     21.0064

 eigenvalue-minimisations  :  1384
 total energy-change (2. order) :-0.8566359E-03  (-0.2194065E-03)
 number of electron     255.9999995 magnetization 
 augmentation part      -14.6371291 magnetization 

 Broyden mixing:
  rms(total) = 0.23069E-01    rms(broyden)= 0.23069E-01
  rms(prec ) = 0.23191E-01
  weight for this iteration     100.00

 eigenvalues of (default mixing * dielectric matrix)
  average eigenvalue GAMMA=   1.8672
  2.8818  2.2490  2.2490  0.9780  0.9780

 Free energy of the ion-electron system (eV)
  ---------------------------------------------------
  alpha Z        PSCENC =       106.68659228
  Ewald energy   TEWEN  =     -7292.08850402
  -Hartree energ DENC   =      -471.26146413
  -exchange      EXHF   =         0.00000000
  -V(xc)+E(xc)   XCENC  =      -540.23159266
  PAW double counting   =     27863.13318173   -26763.41303993
  entropy T*S    EENTRO =        -0.00000000
  eigenvalues    EBANDS =       164.91666832
  atomic energy  EATOM  =      6564.76702419
  Solvation  Ediel_sol  =         0.00000000
  ---------------------------------------------------
  free energy    TOTEN  =      -367.49113422 eV

  energy without entropy =     -367.49113422  energy(sigma->0) =     -367.49113422


--------------------------------------------------------------------------------------------------------




--------------------------------------- Iteration      1(  11)  ---------------------------------------


    POTLOK:  cpu time      0.2910: real time      0.2913
    SETDIJ:  cpu time      0.2181: real time      0.2181
     EDDAV:  cpu time     20.7422: real time     20.7429
       DOS:  cpu time      0.0003: real time      0.0002
    CHARGE:  cpu time      0.6153: real time      0.6152
    MIXING:  cpu time      0.0107: real time      0.0107
    --------------------------------------------
      LOOP:  cpu time     21.8776: real time     21.8785

 eigenvalue-minimisations  :  1474
 total energy-change (2. order) :-0.5260932E-04  (-0.9580681E-05)
 number of electron     255.9999995 magnetization 
 augmentation part      -14.6377680 magnetization 

 Broyden mixing:
  rms(total) = 0.71587E-03    rms(broyden)= 0.71584E-03
  rms(prec ) = 0.82351E-03
  weight for this iteration     100.00

 eigenvalues of (default mixing * dielectric matrix)
  average eigenvalue GAMMA=   1.9092
  2.8844  2.3882  2.3882  1.9181  1.0304  0.8458

 Free energy of the ion-electron system (eV)
  ---------------------------------------------------
  alpha Z        PSCENC =       106.68659228
  Ewald energy   TEWEN  =     -7292.08850402
  -Hartree energ DENC   =      -471.17211235
  -exchange      EXHF   =         0.00000000
  -V(xc)+E(xc)   XCENC  =      -540.24065787
  PAW double counting   =     28088.78438423   -26989.05717819
  entropy T*S    EENTRO =        -0.00000000
  eigenvalues    EBANDS =       164.82926489
  atomic energy  EATOM  =      6564.76702419
  Solvation  Ediel_sol  =         0.00000000
  ---------------------------------------------------
  free energy    TOTEN  =      -367.49118683 eV

  energy without entropy =     -367.49118683  energy(sigma->0) =     -367.49118683


--------------------------------------------------------------------------------------------------------




--------------------------------------- Iteration      1(  12)  ---------------------------------------


    POTLOK:  cpu time      0.2905: real time      0.2915
    SETDIJ:  cpu time      0.2183: real time      0.2183
     EDDAV:  cpu time     20.8788: real time     20.8794
       DOS:  cpu time      0.0002: real time      0.0002
    CHARGE:  cpu time      0.6156: real time      0.6155
    MIXING:  cpu time      0.0114: real time      0.0114
    --------------------------------------------
      LOOP:  cpu time     22.0148: real time     22.0163

 eigenvalue-minimisations  :  1488
 total energy-change (2. order) :-0.2805486E-05  (-0.3922063E-06)
 number of electron     255.9999995 magnetization 
 augmentation part      -14.6375936 magnetization 

 Broyden mixing:
  rms(total) = 0.88162E-03    rms(broyden)= 0.88162E-03
  rms(prec ) = 0.91211E-03
  weight for this iteration     100.00

 eigenvalues of (default mixing * dielectric matrix)
  average eigenvalue GAMMA=   1.8725
  3.0999  2.6055  2.2822  2.2822  0.9508  0.9508  0.9358

 Free energy of the ion-electron system (eV)
  ---------------------------------------------------
  alpha Z        PSCENC =       106.68659228
  Ewald energy   TEWEN  =     -7292.08850402
  -Hartree energ DENC   =      -471.21455621
  -exchange      EXHF   =         0.00000000
  -V(xc)+E(xc)   XCENC  =      -540.23839846
  PAW double counting   =     28095.55433869   -26995.82628118
  entropy T*S    EENTRO =        -0.00000000
  eigenvalues    EBANDS =       164.86859508
  atomic energy  EATOM  =      6564.76702419
  Solvation  Ediel_sol  =         0.00000000
  ---------------------------------------------------
  free energy    TOTEN  =      -367.49118964 eV

  energy without entropy =     -367.49118964  energy(sigma->0) =     -367.49118964


--------------------------------------------------------------------------------------------------------




--------------------------------------- Iteration      1(  13)  ---------------------------------------


    POTLOK:  cpu time      0.2897: real time      0.2903
    SETDIJ:  cpu time      0.2184: real time      0.2184
     EDDAV:  cpu time     20.4164: real time     20.4172
       DOS:  cpu time      0.0003: real time      0.0002
    CHARGE:  cpu time      0.6160: real time      0.6159
    MIXING:  cpu time      0.0113: real time      0.0113
    --------------------------------------------
      LOOP:  cpu time     21.5522: real time     21.5534

 eigenvalue-minimisations  :  1446
 total energy-change (2. order) : 0.1668404E-05  (-0.8949442E-07)
 number of electron     255.9999995 magnetization 
 augmentation part      -14.6375947 magnetization 

 Broyden mixing:
  rms(total) = 0.59826E-04    rms(broyden)= 0.59824E-04
  rms(prec ) = 0.61124E-04
  weight for this iteration     100.00

 eigenvalues of (default mixing * dielectric matrix)
  average eigenvalue GAMMA=   1.8847
  3.0827  2.6776  2.3550  2.1691  1.8974  0.9979  0.9491  0.9491

 Free energy of the ion-electron system (eV)
  ---------------------------------------------------
  alpha Z        PSCENC =       106.68659228
  Ewald energy   TEWEN  =     -7292.08850402
  -Hartree energ DENC   =      -471.20854054
  -exchange      EXHF   =         0.00000000
  -V(xc)+E(xc)   XCENC  =      -540.24145861
  PAW double counting   =     28087.24327348   -26987.51274500
  entropy T*S    EENTRO =        -0.00000000
  eigenvalues    EBANDS =       164.86317024
  atomic energy  EATOM  =      6564.76702419
  Solvation  Ediel_sol  =         0.00000000
  ---------------------------------------------------
  free energy    TOTEN  =      -367.49118797 eV

  energy without entropy =     -367.49118797  energy(sigma->0) =     -367.49118797


--------------------------------------------------------------------------------------------------------




--------------------------------------- Iteration      1(  14)  ---------------------------------------


    POTLOK:  cpu time      0.2892: real time      0.2899
    SETDIJ:  cpu time      0.2181: real time      0.2181
