<?xml version="1.0" encoding="ISO-8859-1"?>
<modeling>
 <generator>
  <i name="program" type="string">vasp </i>
  <i name="version" type="string">6.3.0  </i>
  <i name="subversion" type="string">20Jan22 (build Aug 13 2022 13:28:16) complex                          parallel </i>
  <i name="platform" type="string">LinuxIFC </i>
  <i name="date" type="string">2022 09 07 </i>
  <i name="time" type="string">11:45:33 </i>
 </generator>
 <incar>
  <i type="string" name="PREC">Accurate</i>
  <i type="int" name="IALGO">    38</i>
  <i type="logical" name="ADDGRID"> T  </i>
  <i type="int" name="NELMIN">     5</i>
  <i type="int" name="IBRION">    -1</i>
  <i name="EDIFF">      0.00000001</i>
  <i name="ENCUT">    318.00000000</i>
  <i type="logical" name="LREAL"> F  </i>
  <i type="int" name="ISMEAR">     0</i>
  <i name="SIGMA">      0.02000000</i>
  <i type="logical" name="LWAVE"> F  </i>
  <i type="logical" name="LCHARG"> F  </i>
  <i type="string" name="GGA">Ps</i>
 </incar>
 <primitive_cell>
  <structure name="primitive_cell" >
   <crystal>
    <varray name="basis" >
     <v>       2.72317078      -2.72317078       0.00000000 </v>
     <v>       2.72317078       0.00000000       2.72317078 </v>
     <v>       0.00000000      -2.72317078       2.72317078 </v>
    </varray>
    <i name="volume">     40.38821234 </i>
    <varray name="rec_basis" >
     <v>       0.18360949      -0.18360949      -0.18360949 </v>
     <v>       0.18360949       0.18360949       0.18360949 </v>
     <v>      -0.18360949      -0.18360949       0.18360949 </v>
    </varray>
   </crystal>
   <varray name="positions" >
    <v>       0.50000000       0.50000000       0.50000000 </v>
    <v>       0.25000000       0.25000000       0.25000000 </v>
   </varray>
  </structure>
  <varray name="primitive_index" >
   <v type="int" >        1 </v>
   <v type="int" >        2 </v>
  </varray>
 </primitive_cell>
 <kpoints>
  <generation param="Gamma">
   <v type="int" name="divisions">       2        2        2 </v>
   <v name="usershift">      0.00000000       0.00000000       0.00000000 </v>
   <v name="genvec1">      0.50000000       0.00000000       0.00000000 </v>
   <v name="genvec2">      0.00000000       0.50000000       0.00000000 </v>
   <v name="genvec3">      0.00000000       0.00000000       0.50000000 </v>
   <v name="shift">      0.00000000       0.00000000       0.00000000 </v>
  </generation>
  <varray name="kpointlist" >
   <v>       0.00000000       0.00000000       0.00000000 </v>
   <v>       0.50000000       0.00000000       0.00000000 </v>
   <v>       0.50000000       0.50000000       0.00000000 </v>
   <v>       0.50000000       0.50000000       0.50000000 </v>
  </varray>
  <varray name="weights" >
   <v>       0.12500000 </v>
   <v>       0.37500000 </v>
   <v>       0.37500000 </v>
   <v>       0.12500000 </v>
  </varray>
 </kpoints>
 <parameters>
  <separator name="general" >
   <i type="string" name="SYSTEM">unknown system</i>
   <i type="logical" name="LCOMPAT"> F  </i>
  </separator>
  <separator name="electronic" >
   <i type="string" name="PREC">accura</i>
   <i name="ENMAX">    318.00000000</i>
   <i name="ENAUG">    322.06900000</i>
   <i name="EDIFF">      0.00000001</i>
   <i type="int" name="IALGO">    38</i>
   <i type="int" name="IWAVPR">    10</i>
   <i type="int" name="NBANDS">   162</i>
   <i type="int" name="NBANDSLOW">    -1</i>
   <i type="int" name="NBANDSHIGH">    -1</i>
   <i name="NELECT">    256.00000000</i>
   <i type="int" name="TURBO">     0</i>
   <i type="int" name="IRESTART">     0</i>
   <i type="int" name="NREBOOT">     0</i>
   <i type="int" name="NMIN">     0</i>
   <i name="EREF">      0.00000000</i>
   <separator name="electronic smearing" >
    <i type="int" name="ISMEAR">     0</i>
    <i name="SIGMA">      0.02000000</i>
    <i name="KSPACING">      0.50000000</i>
    <i type="logical" name="KGAMMA"> T  </i>
    <i type="logical" name="KBLOWUP"> T  </i>
   </separator>
   <separator name="electronic projectors" >
    <i type="logical" name="LREAL"> F  </i>
    <v name="ROPT">      0.00000000</v>
    <i type="int" name="LMAXPAW">  -100</i>
    <i type="int" name="LMAXMIX">     2</i>
    <i type="logical" name="NLSPLINE"> F  </i>
   </separator>
   <separator name="electronic startup" >
    <i type="int" name="ISTART">     0</i>
    <i type="int" name="ICHARG">     2</i>
    <i type="int" name="INIWAV">     1</i>
   </separator>
   <separator name="electronic spin" >
    <i type="int" name="ISPIN">     1</i>
    <i type="logical" name="LNONCOLLINEAR"> F  </i>
    <v name="MAGMOM">      1.00000000      1.00000000      1.00000000      1.00000000      1.00000000      1.00000000      1.00000000      1.00000000      1.00000000      1.00000000      1.00000000      1.00000000      1.00000000      1.00000000      1.00000000      1.00000000      1.00000000      1.00000000      1.00000000      1.00000000
      1.00000000      1.00000000      1.00000000      1.00000000      1.00000000      1.00000000      1.00000000      1.00000000      1.00000000      1.00000000      1.00000000      1.00000000      1.00000000      1.00000000      1.00000000      1.00000000      1.00000000      1.00000000      1.00000000      1.00000000
      1.00000000      1.00000000      1.00000000      1.00000000      1.00000000      1.00000000      1.00000000      1.00000000      1.00000000      1.00000000      1.00000000      1.00000000      1.00000000      1.00000000      1.00000000      1.00000000      1.00000000      1.00000000      1.00000000      1.00000000
      1.00000000      1.00000000      1.00000000      1.00000000</v>
    <i name="NUPDOWN">     -1.00000000</i>
    <i type="logical" name="LSORBIT"> F  </i>
    <v name="SAXIS">      0.00000000      0.00000000      1.00000000</v>
    <i type="logical" name="LSPIRAL"> F  </i>
    <v name="QSPIRAL">      0.00000000      0.00000000      0.00000000</v>
    <i type="logical" name="LZEROZ"> F  </i>
   </separator>
   <separator name="electronic exchange-correlation" >
    <i type="logical" name="LASPH"> F  </i>
    <i type="logical" name="LMETAGGA"> F  </i>
   </separator>
   <separator name="electronic convergence" >
    <i type="int" name="NELM">    60</i>
    <i type="int" name="NELMDL">    -5</i>
    <i type="int" name="NELMIN">     5</i>
    <i name="ENINI">    318.00000000</i>
    <separator name="electronic convergence detail" >
     <i type="logical" name="LDIAG"> T  </i>
     <i type="logical" name="LSUBROT"> F  </i>
     <i name="WEIMIN">      0.00000000</i>
     <i name="EBREAK">      0.00000000</i>
     <i name="DEPER">      0.30000000</i>
     <i type="int" name="NRMM">     4</i>
     <i name="TIME">      0.40000000</i>
    </separator>
   </separator>
   <separator name="electronic mixer" >
    <i name="AMIX">      0.40000000</i>
    <i name="BMIX">      1.00000000</i>
    <i name="AMIN">      0.10000000</i>
    <i name="AMIX_MAG">      1.60000000</i>
    <i name="BMIX_MAG">      1.00000000</i>
    <separator name="electronic mixer details" >
     <i type="int" name="IMIX">     4</i>
     <i type="logical" name="MIXFIRST"> F  </i>
     <i type="int" name="MAXMIX">   -45</i>
     <i name="WC">    100.00000000</i>
     <i type="int" name="INIMIX">     1</i>
     <i type="int" name="MIXPRE">     1</i>
     <i type="int" name="MREMOVE">     5</i>
    </separator>
   </separator>
   <separator name="electronic dipolcorrection" >
    <i type="logical" name="LDIPOL"> F  </i>
    <i type="logical" name="LMONO"> F  </i>
    <i type="int" name="IDIPOL">     0</i>
    <i name="EPSILON">      1.00000000</i>
    <v name="DIPOL">   -100.00000000   -100.00000000   -100.00000000</v>
    <i name="EFIELD">      0.00000000</i>
   </separator>
  </separator>
  <separator name="grids" >
   <i type="int" name="NGX">    64</i>
   <i type="int" name="NGY">    64</i>
   <i type="int" name="NGZ">    64</i>
   <i type="int" name="NGXF">   128</i>
   <i type="int" name="NGYF">   128</i>
   <i type="int" name="NGZF">   128</i>
   <i type="logical" name="ADDGRID"> T  </i>
  </separator>
  <separator name="ionic" >
   <i type="int" name="NSW">     0</i>
   <i type="int" name="IBRION">    -1</i>
   <i type="int" name="MDALGO">     0</i>
   <i type="int" name="ISIF">     2</i>
   <i name="PSTRESS">      0.00000000</i>
   <i name="EDIFFG">      0.00000010</i>
   <i type="int" name="NFREE">     0</i>
   <i name="POTIM">      0.50000000</i>
   <i name="SMASS">     -3.00000000</i>
   <i name="SCALEE">      1.00000000</i>
  </separator>
  <separator name="ionic md" >
   <i name="TEBEG">      0.00010000</i>
   <i name="TEEND">      0.00010000</i>
   <i type="int" name="NBLOCK">     1</i>
   <i type="int" name="KBLOCK">     1</i>
   <i type="int" name="NPACO">   256</i>
   <i name="APACO">     10.00000000</i>
  </separator>
  <separator name="symmetry" >
   <i type="int" name="ISYM">     2</i>
   <i name="SYMPREC">      0.00001000</i>
  </separator>
  <separator name="dos" >
   <i type="int" name="LORBIT">     0</i>
   <v name="RWIGS">     -1.00000000</v>
   <i type="int" name="NEDOS">   301</i>
   <i name="EMIN">     10.00000000</i>
   <i name="EMAX">    -10.00000000</i>
   <i name="EFERMI">      0.00000000</i>
  </separator>
  <separator name="writing" >
   <i type="int" name="NWRITE">     2</i>
   <i type="logical" name="LWAVE"> F  </i>
   <i type="logical" name="LDOWNSAMPLE"> F  </i>
   <i type="logical" name="LCHARG"> F  </i>
   <i type="logical" name="LPARD"> F  </i>
   <i type="logical" name="LVTOT"> F  </i>
   <i type="logical" name="LVHAR"> F  </i>
   <i type="logical" name="LELF"> F  </i>
   <i type="logical" name="LOPTICS"> F  </i>
   <v name="STM">      0.00000000      0.00000000      0.00000000      0.00000000      0.00000000      0.00000000      0.00000000</v>
  </separator>
  <separator name="performance" >
   <i type="int" name="NPAR">     2</i>
   <i type="int" name="NSIM">     4</i>
   <i type="int" name="NBLK">    -1</i>
   <i type="logical" name="LPLANE"> T  </i>
   <i type="logical" name="LSCALAPACK"> T  </i>
   <i type="logical" name="LSCAAWARE"> F  </i>
   <i type="logical" name="LSCALU"> F  </i>
   <i type="logical" name="LASYNC"> F  </i>
   <i type="logical" name="LORBITALREAL"> F  </i>
  </separator>
  <separator name="miscellaneous" >
   <i type="int" name="IDIOT">     3</i>
   <i type="int" name="PHON_NSTRUCT">    -1</i>
   <i type="logical" name="LMUSIC"> F  </i>
   <v name="POMASS">     28.08500000</v>
   <v name="DARWINR">      0.00000000</v>
   <v name="DARWINV">      1.00000000</v>
   <i type="logical" name="LCORR"> T  </i>
  </separator>
  <i type="logical" name="GGA_COMPAT"> T  </i>
  <i type="logical" name="LBERRY"> F  </i>
  <i type="int" name="ICORELEVEL">     0</i>
  <i type="logical" name="LDAU"> F  </i>
  <i type="int" name="I_CONSTRAINED_M">     0</i>
  <separator name="electronic exchange-correlation" >
   <i type="string" name="GGA">PS</i>
   <i type="int" name="VOSKOWN">     0</i>
   <i type="logical" name="LHFCALC"> F  </i>
   <i type="string" name="PRECFOCK"></i>
   <i type="logical" name="LSYMGRAD"> F  </i>
   <i type="logical" name="LHFONE"> F  </i>
   <i type="logical" name="LRHFCALC"> F  </i>
   <i type="logical" name="LTHOMAS"> F  </i>
   <i type="logical" name="LMODELHF"> F  </i>
   <i type="logical" name="LFOCKACE"> F  </i>
   <i name="ENCUT4O">     -1.00000000</i>
   <i type="int" name="EXXOEP">     0</i>
   <i type="int" name="FOURORBIT">     0</i>
   <i name="AEXX">      0.00000000</i>
   <i name="HFALPHA">      0.00000000</i>
   <i name="MCALPHA">      0.00000000</i>
   <i name="ALDAX">      1.00000000</i>
   <i name="AGGAX">      1.00000000</i>
   <i name="ALDAC">      1.00000000</i>
   <i name="AGGAC">      1.00000000</i>
   <i type="int" name="NKREDX">     1</i>
   <i type="int" name="NKREDY">     1</i>
   <i type="int" name="NKREDZ">     1</i>
   <i type="logical" name="SHIFTRED"> F  </i>
   <i type="logical" name="ODDONLY"> F  </i>
   <i type="logical" name="EVENONLY"> F  </i>
   <i type="int" name="LMAXFOCK">     0</i>
   <i type="int" name="NMAXFOCKAE">     0</i>
   <i type="logical" name="LFOCKAEDFT"> F  </i>
   <i name="HFSCREEN">      0.00000000</i>
   <i name="HFSCREENC">      0.00000000</i>
   <i type="int" name="NBANDSGWLOW">     0</i>
  </separator>
  <separator name="vdW DFT" >
   <i type="logical" name="LUSE_VDW"> F  </i>
   <i name="Zab_VDW">     -0.84910000</i>
   <i name="PARAM1">      0.12340000</i>
   <i name="PARAM2">      1.00000000</i>
   <i name="PARAM3">      0.00000000</i>
  </separator>
  <separator name="model GW" >
   <i type="int" name="MODEL_GW">     0</i>
   <i name="MODEL_EPS0">     12.11646370</i>
   <i name="MODEL_ALPHA">      1.00000000</i>
  </separator>
  <separator name="linear response parameters" >
   <i type="logical" name="LEPSILON"> F  </i>
   <i type="logical" name="LRPA"> F  </i>
   <i type="logical" name="LNABLA"> F  </i>
   <i type="logical" name="LVEL"> F  </i>
   <i name="CSHIFT">      0.10000000</i>
   <i name="OMEGAMAX">     -1.00000000</i>
   <i name="DEG_THRESHOLD">      0.00200000</i>
   <i name="RTIME">     -0.10000000</i>
   <i name="WPLASMAI">      0.00000000</i>
   <v name="DFIELD">      0.00000000      0.00000000      0.00000000</v>
   <v name="WPLASMA">      0.00000000      0.00000000      0.00000000      0.00000000      0.00000000      0.00000000      0.00000000      0.00000000      0.00000000</v>
  </separator>
  <separator name="orbital magnetization" >
   <i type="logical" name="NUCIND"> F  </i>
   <v name="MAGPOS">      0.00000000      0.00000000      0.00000000</v>
   <i type="logical" name="LNICSALL"> T  </i>
   <i type="logical" name="ORBITALMAG"> F  </i>
   <i type="logical" name="LMAGBLOCH"> F  </i>
   <i type="logical" name="LCHIMAG"> F  </i>
   <i type="logical" name="LGAUGE"> T  </i>
   <i type="int" name="MAGATOM">     0</i>
   <v name="MAGDIPOL">      0.00000000      0.00000000      0.00000000</v>
   <v name="AVECCONST">      0.00000000      0.00000000      0.00000000</v>
  </separator>
  <separator name="response functions" >
   <i type="logical" name="LFINITE_TEMPERATURE"> F  </i>
   <i type="logical" name="LADDER"> F  </i>
   <i type="logical" name="LRPAFORCE"> F  </i>
   <i type="logical" name="LFXC"> F  </i>
   <i type="logical" name="LHARTREE"> T  </i>
   <i type="int" name="IBSE">     0</i>
   <v type="int" name="KPOINT">    -1     0     0     0</v>
   <i type="logical" name="LTCTC"> F  </i>
   <i type="logical" name="LTCTE"> F  </i>
   <i type="logical" name="LTETE"> F  </i>
   <i type="logical" name="LTRIPLET"> F  </i>
   <i type="logical" name="LFXCEPS"> F  </i>
   <i type="logical" name="LFXHEG"> F  </i>
   <i type="int" name="NATURALO">     2</i>
   <i type="logical" name="LHOLEGF"> F  </i>
   <i type="logical" name="L2ORDER"> F  </i>
   <i type="logical" name="LDMP1"> F  </i>
   <i type="logical" name="LMP2LT"> F  </i>
   <i type="logical" name="LSMP2LT"> F  </i>
   <i type="logical" name="LGWLF"> F  </i>
   <i name="ENCUTGW">     -2.00000000</i>
   <i name="ENCUTGWSOFT">     -2.00000000</i>
   <i name="ENCUTLF">     -1.00000000</i>
   <i type="logical" name="LESF_SPLINES"> F  </i>
   <i type="int" name="LMAXMP2">    -1</i>
   <i name="SCISSOR">      0.00000000</i>
   <i type="int" name="NOMEGA">     0</i>
   <i type="int" name="NOMEGAR">     0</i>
   <i type="int" name="NBANDSGW">    -1</i>
   <i type="int" name="NBANDSO">    -1</i>
   <i type="int" name="NBANDSV">    -1</i>
   <i type="int" name="NELMGW">     1</i>
   <i type="int" name="NELMHF">     1</i>
   <i type="int" name="DIM">     3</i>
   <i type="int" name="IESPILON">     4</i>
   <i type="int" name="ANTIRES">     0</i>
   <i name="OMEGAMAX">    -30.00000000</i>
   <i name="OMEGAMIN">    -30.00000000</i>
   <i name="OMEGATL">   -200.00000000</i>
   <i type="int" name="OMEGAGRID">     0</i>
   <i name="CSHIFT">     -0.10000000</i>
   <i type="logical" name="LSELFENERGY"> F  </i>
   <i type="logical" name="LSPECTRAL"> F  </i>
   <i type="logical" name="LSPECTRALGW"> F  </i>
   <i type="logical" name="LSINGLES"> F  </i>
   <i type="logical" name="LFERMIGW"> F  </i>
   <i type="logical" name="ODDONLYGW"> F  </i>
   <i type="logical" name="EVENONLYGW"> F  </i>
   <i type="int" name="NKREDLFX">     1</i>
   <i type="int" name="NKREDLFY">     1</i>
   <i type="int" name="NKREDLFZ">     1</i>
   <i type="int" name="MAXMEM">  2800</i>
   <i type="int" name="TELESCOPE">     0</i>
   <i type="int" name="NTAUPAR">    -1</i>
   <i type="int" name="NOMEGAPAR">    -1</i>
   <i name="DAMP_NEWTON">      0.80000001</i>
   <i name="LAMBDA">      1.00000000</i>
  </separator>
  <separator name="External order field" >
   <i name="OFIELD_KAPPA">      0.00000000</i>
   <v name="OFIELD_K">      0.00000000      0.00000000      0.00000000</v>
   <i name="OFIELD_Q6_NEAR">      0.00000000</i>
   <i name="OFIELD_Q6_FAR">      0.00000000</i>
   <i name="OFIELD_A">      0.00000000</i>
  </separator>
  <separator name="optional k-points parameters" >
   <i type="int" name="KPOINTS_OPT_MODE">     1</i>
   <i type="logical" name="LKPOINTS_OPT"> F  </i>
  </separator>
 </parameters>
 <atominfo>
  <atoms>      64 </atoms>
  <types>       1 </types>
  <array name="atoms" >
   <dimension dim="1">ion</dimension>
   <field type="string">element</field>
   <field type="int">atomtype</field>
   <set>
    <rc><c>Si</c><c>   1</c></rc>
    <rc><c>Si</c><c>   1</c></rc>
    <rc><c>Si</c><c>   1</c></rc>
    <rc><c>Si</c><c>   1</c></rc>
    <rc><c>Si</c><c>   1</c></rc>
    <rc><c>Si</c><c>   1</c></rc>
    <rc><c>Si</c><c>   1</c></rc>
    <rc><c>Si</c><c>   1</c></rc>
    <rc><c>Si</c><c>   1</c></rc>
    <rc><c>Si</c><c>   1</c></rc>
    <rc><c>Si</c><c>   1</c></rc>
    <rc><c>Si</c><c>   1</c></rc>
    <rc><c>Si</c><c>   1</c></rc>
    <rc><c>Si</c><c>   1</c></rc>
    <rc><c>Si</c><c>   1</c></rc>
    <rc><c>Si</c><c>   1</c></rc>
    <rc><c>Si</c><c>   1</c></rc>
    <rc><c>Si</c><c>   1</c></rc>
    <rc><c>Si</c><c>   1</c></rc>
    <rc><c>Si</c><c>   1</c></rc>
    <rc><c>Si</c><c>   1</c></rc>
    <rc><c>Si</c><c>   1</c></rc>
    <rc><c>Si</c><c>   1</c></rc>
    <rc><c>Si</c><c>   1</c></rc>
    <rc><c>Si</c><c>   1</c></rc>
    <rc><c>Si</c><c>   1</c></rc>
    <rc><c>Si</c><c>   1</c></rc>
    <rc><c>Si</c><c>   1</c></rc>
    <rc><c>Si</c><c>   1</c></rc>
    <rc><c>Si</c><c>   1</c></rc>
    <rc><c>Si</c><c>   1</c></rc>
    <rc><c>Si</c><c>   1</c></rc>
    <rc><c>Si</c><c>   1</c></rc>
    <rc><c>Si</c><c>   1</c></rc>
    <rc><c>Si</c><c>   1</c></rc>
    <rc><c>Si</c><c>   1</c></rc>
    <rc><c>Si</c><c>   1</c></rc>
    <rc><c>Si</c><c>   1</c></rc>
    <rc><c>Si</c><c>   1</c></rc>
    <rc><c>Si</c><c>   1</c></rc>
    <rc><c>Si</c><c>   1</c></rc>
    <rc><c>Si</c><c>   1</c></rc>
    <rc><c>Si</c><c>   1</c></rc>
    <rc><c>Si</c><c>   1</c></rc>
    <rc><c>Si</c><c>   1</c></rc>
    <rc><c>Si</c><c>   1</c></rc>
    <rc><c>Si</c><c>   1</c></rc>
    <rc><c>Si</c><c>   1</c></rc>
    <rc><c>Si</c><c>   1</c></rc>
    <rc><c>Si</c><c>   1</c></rc>
    <rc><c>Si</c><c>   1</c></rc>
    <rc><c>Si</c><c>   1</c></rc>
    <rc><c>Si</c><c>   1</c></rc>
    <rc><c>Si</c><c>   1</c></rc>
    <rc><c>Si</c><c>   1</c></rc>
    <rc><c>Si</c><c>   1</c></rc>
    <rc><c>Si</c><c>   1</c></rc>
    <rc><c>Si</c><c>   1</c></rc>
    <rc><c>Si</c><c>   1</c></rc>
    <rc><c>Si</c><c>   1</c></rc>
    <rc><c>Si</c><c>   1</c></rc>
    <rc><c>Si</c><c>   1</c></rc>
    <rc><c>Si</c><c>   1</c></rc>
    <rc><c>Si</c><c>   1</c></rc>
   </set>
  </array>
  <array name="atomtypes" >
   <dimension dim="1">type</dimension>
   <field type="int">atomspertype</field>
   <field type="string">element</field>
   <field>mass</field>
   <field>valence</field>
   <field type="string">pseudopotential</field>
   <set>
    <rc><c>  64</c><c>Si</c><c>     28.08500000</c><c>      4.00000000</c><c>  PAW_PBE Si 05Jan2001                  </c></rc>
   </set>
  </array>
 </atominfo>
 <structure name="initialpos" >
  <crystal>
   <varray name="basis" >
    <v>      10.89268312       0.00000000       0.00000000 </v>
    <v>       0.00000000      10.89268312       0.00000000 </v>
    <v>       0.00000000       0.00000000      10.89268312 </v>
   </varray>
   <i name="volume">   1292.42279472 </i>
   <varray name="rec_basis" >
    <v>       0.09180475       0.00000000       0.00000000 </v>
    <v>       0.00000000       0.09180475       0.00000000 </v>
    <v>       0.00000000       0.00000000       0.09180475 </v>
   </varray>
  </crystal>
  <varray name="positions" >
   <v>       0.25000000       0.25000000       0.25000000 </v>
   <v>       0.37500000       0.37500000       0.37500000 </v>
   <v>       0.00000000       0.00000000       0.25000000 </v>
   <v>       0.12500000       0.12500000       0.37500000 </v>
   <v>       0.00000000       0.25000000       0.00000000 </v>
   <v>       0.12500000       0.37500000       0.12500000 </v>
   <v>       0.25000000       0.00000000       0.00000000 </v>
   <v>       0.37500000       0.12500000       0.12500000 </v>
   <v>       0.25000000       0.25000000       0.75000000 </v>
   <v>       0.37500000       0.37500000       0.87500000 </v>
   <v>       0.00000000       0.00000000       0.75000000 </v>
   <v>       0.12500000       0.12500000       0.87500000 </v>
   <v>       0.00000000       0.25000000       0.50000000 </v>
   <v>       0.12500000       0.37500000       0.62500000 </v>
   <v>       0.25000000       0.00000000       0.50000000 </v>
   <v>       0.37500000       0.12500000       0.62500000 </v>
   <v>       0.25000000       0.75000000       0.25000000 </v>
   <v>       0.37500000       0.87500000       0.37500000 </v>
   <v>       0.00000000       0.50000000       0.25000000 </v>
   <v>       0.12500000       0.62500000       0.37500000 </v>
   <v>       0.00000000       0.75000000       0.00000000 </v>
   <v>       0.12500000       0.87500000       0.12500000 </v>
   <v>       0.25000000       0.50000000       0.00000000 </v>
   <v>       0.37500000       0.62500000       0.12500000 </v>
   <v>       0.25000000       0.75000000       0.75000000 </v>
   <v>       0.37500000       0.87500000       0.87500000 </v>
   <v>       0.00000000       0.50000000       0.75000000 </v>
   <v>       0.12500000       0.62500000       0.87500000 </v>
   <v>       0.00000000       0.75000000       0.50000000 </v>
   <v>       0.12500000       0.87500000       0.62500000 </v>
   <v>       0.25000000       0.50000000       0.50000000 </v>
   <v>       0.37500000       0.62500000       0.62500000 </v>
   <v>       0.75000000       0.25000000       0.25000000 </v>
   <v>       0.87500000       0.37500000       0.37500000 </v>
   <v>       0.50000000       0.00000000       0.25000000 </v>
   <v>       0.62500000       0.12500000       0.37500000 </v>
   <v>       0.50000000       0.25000000       0.00000000 </v>
   <v>       0.62500000       0.37500000       0.12500000 </v>
   <v>       0.75000000       0.00000000       0.00000000 </v>
   <v>       0.87500000       0.12500000       0.12500000 </v>
   <v>       0.75000000       0.25000000       0.75000000 </v>
   <v>       0.87500000       0.37500000       0.87500000 </v>
   <v>       0.50000000       0.00000000       0.75000000 </v>
   <v>       0.62500000       0.12500000       0.87500000 </v>
   <v>       0.50000000       0.25000000       0.50000000 </v>
   <v>       0.62500000       0.37500000       0.62500000 </v>
   <v>       0.75000000       0.00000000       0.50000000 </v>
   <v>       0.87500000       0.12500000       0.62500000 </v>
   <v>       0.75000000       0.75000000       0.25000000 </v>
   <v>       0.87500000       0.87500000       0.37500000 </v>
   <v>       0.50000000       0.50000000       0.25000000 </v>
   <v>       0.62500000       0.62500000       0.37500000 </v>
   <v>       0.50000000       0.75000000       0.00000000 </v>
   <v>       0.62500000       0.87500000       0.12500000 </v>
   <v>       0.75000000       0.50000000       0.00000000 </v>
   <v>       0.87500000       0.62500000       0.12500000 </v>
   <v>       0.75000000       0.75000000       0.75000000 </v>
   <v>       0.87500000       0.87500000       0.87500000 </v>
   <v>       0.50000000       0.50000000       0.75000000 </v>
   <v>       0.62500000       0.62500000       0.87500000 </v>
   <v>       0.50000000       0.75000000       0.50000000 </v>
   <v>       0.62500000       0.87500000       0.62500000 </v>
   <v>       0.75000000       0.50000000       0.50000000 </v>
   <v>       0.87500000       0.62500000       0.62500000 </v>
  </varray>
 </structure>
 <calculation>
  <scstep>
   <time name="dav">   18.67   18.67</time>
   <time name="total">   19.19   19.19</time>
   <energy>
    <i name="alphaZ">    106.68659228 </i>
    <i name="ewald">  -7292.08850402 </i>
    <i name="hartreedc">   -356.37732993 </i>
    <i name="XCdc">   -559.61007576 </i>
    <i name="pawpsdc">   5598.62625415 </i>
    <i name="pawaedc">  -4492.17844134 </i>
    <i name="eentropy">     -0.00582347 </i>
    <i name="bandstr">    892.59735335 </i>
    <i name="atom">   6564.76702419 </i>
    <i name="e_fr_energy">    462.41704945 </i>
    <i name="e_wo_entrp">    462.42287292 </i>
    <i name="e_0_energy">    462.41996118 </i>
   </energy>
  </scstep>
  <scstep>
   <time name="dav">   21.87   21.87</time>
   <time name="total">   21.87   21.87</time>
   <energy>
    <i name="e_fr_energy">   -321.58317551 </i>
    <i name="e_wo_entrp">   -321.58317551 </i>
    <i name="e_0_energy">   -321.58317551 </i>
   </energy>
  </scstep>
  <scstep>
   <time name="dav">   21.88   21.88</time>
   <time name="total">   21.88   21.88</time>
   <energy>
    <i name="e_fr_energy">   -373.22153666 </i>
    <i name="e_wo_entrp">   -373.22153666 </i>
    <i name="e_0_energy">   -373.22153666 </i>
   </energy>
  </scstep>
  <scstep>
   <time name="dav">   21.66   21.66</time>
   <time name="total">   21.66   21.66</time>
   <energy>
    <i name="e_fr_energy">   -374.46162119 </i>
    <i name="e_wo_entrp">   -374.46162119 </i>
    <i name="e_0_energy">   -374.46162119 </i>
   </energy>
  </scstep>
  <scstep>
   <time name="dav">   21.67   21.67</time>
   <time name="total">   22.39   22.39</time>
   <energy>
    <i name="e_fr_energy">   -374.50651192 </i>
    <i name="e_wo_entrp">   -374.50651192 </i>
    <i name="e_0_energy">   -374.50651192 </i>
   </energy>
  </scstep>
  <scstep>
   <time name="dav">   20.29   20.29</time>
   <time name="total">   21.51   21.51</time>
   <energy>
    <i name="e_fr_energy">   -369.68081423 </i>
    <i name="e_wo_entrp">   -369.68081423 </i>
    <i name="e_0_energy">   -369.68081423 </i>
   </energy>
  </scstep>
  <scstep>
   <time name="dav">   20.26   20.26</time>
   <time name="total">   21.47   21.47</time>
   <energy>
    <i name="e_fr_energy">   -367.48093060 </i>
    <i name="e_wo_entrp">   -367.48093060 </i>
    <i name="e_0_energy">   -367.48093060 </i>
   </energy>
  </scstep>
  <scstep>
   <time name="dav">   20.23   20.23</time>
   <time name="total">   21.44   21.44</time>
   <energy>
    <i name="e_fr_energy">   -367.48886264 </i>
    <i name="e_wo_entrp">   -367.48886264 </i>
    <i name="e_0_energy">   -367.48886264 </i>
   </energy>
  </scstep>
  <scstep>
   <time name="dav">   21.77   21.77</time>
   <time name="total">   22.99   22.99</time>
   <energy>
    <i name="e_fr_energy">   -367.49027759 </i>
    <i name="e_wo_entrp">   -367.49027759 </i>
    <i name="e_0_energy">   -367.49027759 </i>
   </energy>
  </scstep>
  <scstep>
   <time name="dav">   19.79   19.79</time>
   <time name="total">   21.01   21.01</time>
   <energy>
    <i name="e_fr_energy">   -367.49113422 </i>
    <i name="e_wo_entrp">   -367.49113422 </i>
    <i name="e_0_energy">   -367.49113422 </i>
   </energy>
  </scstep>
  <scstep>
   <time name="dav">   20.74   20.74</time>
   <time name="total">   21.88   21.88</time>
   <energy>
    <i name="e_fr_energy">   -367.49118683 </i>
    <i name="e_wo_entrp">   -367.49118683 </i>
    <i name="e_0_energy">   -367.49118683 </i>
   </energy>
  </scstep>
  <scstep>
   <time name="dav">   20.88   20.88</time>
   <time name="total">   22.01   22.02</time>
   <energy>
    <i name="e_fr_energy">   -367.49118964 </i>
    <i name="e_wo_entrp">   -367.49118964 </i>
    <i name="e_0_energy">   -367.49118964 </i>
   </energy>
  </scstep>
  <scstep>
   <time name="dav">   20.42   20.42</time>
   <time name="total">   21.55   21.55</time>
   <energy>
    <i name="e_fr_energy">   -367.49118797 </i>
    <i name="e_wo_entrp">   -367.49118797 </i>
    <i name="e_0_energy">   -367.49118797 </i>
   </energy>
  </scstep>
  <scstep>
   <time name="dav">   15.54   15.54</time>
   <time name="total">   16.68   16.68</time>
   <energy>
    <i name="e_fr_energy">   -367.49118801 </i>
    <i name="e_wo_entrp">   -367.49118801 </i>
    <i name="e_0_energy">   -367.49118801 </i>
   </energy>
  </scstep>
  <scstep>
   <time name="dav">   13.87   13.87</time>
   <time name="total">   15.00   15.01</time>
   <energy>
    <i name="e_fr_energy">   -367.49118803 </i>
    <i name="e_wo_entrp">   -367.49118803 </i>
    <i name="e_0_energy">   -367.49118803 </i>
   </energy>
  </scstep>
  <scstep>
   <time name="dav">   13.12   13.12</time>
   <time name="total">   13.63   13.63</time>
   <energy>
    <i name="alphaZ">    106.68659228 </i>
    <i name="ewald">  -7292.08850402 </i>
    <i name="hartreedc">   -471.20772251 </i>
    <i name="XCdc">   -540.24163699 </i>
    <i name="pawpsdc">  28086.85344974 </i>
    <i name="pawaedc"> -26987.12307025 </i>
    <i name="eentropy">     -0.00000000 </i>
    <i name="bandstr">    164.86267953 </i>
    <i name="atom">   6564.76702419 </i>
    <i name="e_fr_energy">   -367.49118803 </i>
    <i name="e_wo_entrp">   -367.49118803 </i>
    <i name="e_0_energy">   -367.49118803 </i>
   </energy>
  </scstep>
  <structure>
   <crystal>
    <varray name="basis" >
     <v>      10.89268312       0.00000000       0.00000000 </v>
     <v>       0.00000000      10.89268312       0.00000000 </v>
     <v>       0.00000000       0.00000000      10.89268312 </v>
    </varray>
    <i name="volume">   1292.42279472 </i>
    <varray name="rec_basis" >
     <v>       0.09180475       0.00000000       0.00000000 </v>
     <v>       0.00000000       0.09180475       0.00000000 </v>
     <v>       0.00000000       0.00000000       0.09180475 </v>
    </varray>
   </crystal>
   <varray name="positions" >
    <v>       0.25000000       0.25000000       0.25000000 </v>
    <v>       0.37500000       0.37500000       0.37500000 </v>
    <v>       0.00000000       0.00000000       0.25000000 </v>
    <v>       0.12500000       0.12500000       0.37500000 </v>
    <v>       0.00000000       0.25000000       0.00000000 </v>
    <v>       0.12500000       0.37500000       0.12500000 </v>
    <v>       0.25000000       0.00000000       0.00000000 </v>
    <v>       0.37500000       0.12500000       0.12500000 </v>
    <v>       0.25000000       0.25000000       0.75000000 </v>
    <v>       0.37500000       0.37500000       0.87500000 </v>
    <v>       0.00000000       0.00000000       0.75000000 </v>
    <v>       0.12500000       0.12500000       0.87500000 </v>
    <v>       0.00000000       0.25000000       0.50000000 </v>
    <v>       0.12500000       0.37500000       0.62500000 </v>
    <v>       0.25000000       0.00000000       0.50000000 </v>
    <v>       0.37500000       0.12500000       0.62500000 </v>
    <v>       0.25000000       0.75000000       0.25000000 </v>
    <v>       0.37500000       0.87500000       0.37500000 </v>
    <v>       0.00000000       0.50000000       0.25000000 </v>
    <v>       0.12500000       0.62500000       0.37500000 </v>
    <v>       0.00000000       0.75000000       0.00000000 </v>
    <v>       0.12500000       0.87500000       0.12500000 </v>
    <v>       0.25000000       0.50000000       0.00000000 </v>
    <v>       0.37500000       0.62500000       0.12500000 </v>
    <v>       0.25000000       0.75000000       0.75000000 </v>
    <v>       0.37500000       0.87500000       0.87500000 </v>
    <v>       0.00000000       0.50000000       0.75000000 </v>
    <v>       0.12500000       0.62500000       0.87500000 </v>
    <v>       0.00000000       0.75000000       0.50000000 </v>
    <v>       0.12500000       0.87500000       0.62500000 </v>
    <v>       0.25000000       0.50000000       0.50000000 </v>
    <v>       0.37500000       0.62500000       0.62500000 </v>
    <v>       0.75000000       0.25000000       0.25000000 </v>
    <v>       0.87500000       0.37500000       0.37500000 </v>
    <v>       0.50000000       0.00000000       0.25000000 </v>
    <v>       0.62500000       0.12500000       0.37500000 </v>
    <v>       0.50000000       0.25000000       0.00000000 </v>
    <v>       0.62500000       0.37500000       0.12500000 </v>
    <v>       0.75000000       0.00000000       0.00000000 </v>
    <v>       0.87500000       0.12500000       0.12500000 </v>
    <v>       0.75000000       0.25000000       0.75000000 </v>
    <v>       0.87500000       0.37500000       0.87500000 </v>
    <v>       0.50000000       0.00000000       0.75000000 </v>
    <v>       0.62500000       0.12500000       0.87500000 </v>
    <v>       0.50000000       0.25000000       0.50000000 </v>
    <v>       0.62500000       0.37500000       0.62500000 </v>
    <v>       0.75000000       0.00000000       0.50000000 </v>
    <v>       0.87500000       0.12500000       0.62500000 </v>
    <v>       0.75000000       0.75000000       0.25000000 </v>
    <v>       0.87500000       0.87500000       0.37500000 </v>
    <v>       0.50000000       0.50000000       0.25000000 </v>
    <v>       0.62500000       0.62500000       0.37500000 </v>
    <v>       0.50000000       0.75000000       0.00000000 </v>
    <v>       0.62500000       0.87500000       0.12500000 </v>
    <v>       0.75000000       0.50000000       0.00000000 </v>
    <v>       0.87500000       0.62500000       0.12500000 </v>
    <v>       0.75000000       0.75000000       0.75000000 </v>
    <v>       0.87500000       0.87500000       0.87500000 </v>
    <v>       0.50000000       0.50000000       0.75000000 </v>
    <v>       0.62500000       0.62500000       0.87500000 </v>
    <v>       0.50000000       0.75000000       0.50000000 </v>
    <v>       0.62500000       0.87500000       0.62500000 </v>
    <v>       0.75000000       0.50000000       0.50000000 </v>
    <v>       0.87500000       0.62500000       0.62500000 </v>
   </varray>
  </structure>
  <varray name="forces" >
   <v>       0.00000000      -0.00000000       0.00000000 </v>
   <v>      -0.00000000      -0.00000000      -0.00000000 </v>
   <v>       0.00000000      -0.00000000       0.00000000 </v>
   <v>      -0.00000000       0.00000000      -0.00000000 </v>
   <v>       0.00000000      -0.00000000       0.00000000 </v>
   <v>      -0.00000000       0.00000000      -0.00000000 </v>
   <v>       0.00000000      -0.00000000       0.00000000 </v>
   <v>      -0.00000000      -0.00000000      -0.00000000 </v>
   <v>       0.00000000      -0.00000000       0.00000000 </v>
   <v>      -0.00000000       0.00000000      -0.00000000 </v>
   <v>       0.00000000      -0.00000000       0.00000000 </v>
   <v>      -0.00000000       0.00000000      -0.00000000 </v>
   <v>       0.00000000      -0.00000000       0.00000000 </v>
   <v>      -0.00000000      -0.00000000      -0.00000000 </v>
   <v>       0.00000000      -0.00000000       0.00000000 </v>
   <v>      -0.00000000       0.00000000      -0.00000000 </v>
   <v>       0.00000000       0.00000000       0.00000000 </v>
   <v>      -0.00000000       0.00000000      -0.00000000 </v>
   <v>       0.00000000       0.00000000       0.00000000 </v>
   <v>      -0.00000000       0.00000000      -0.00000000 </v>
   <v>       0.00000000       0.00000000       0.00000000 </v>
   <v>      -0.00000000      -0.00000000      -0.00000000 </v>
   <v>       0.00000000       0.00000000       0.00000000 </v>
   <v>      -0.00000000       0.00000000      -0.00000000 </v>
   <v>       0.00000000       0.00000000       0.00000000 </v>
   <v>      -0.00000000       0.00000000      -0.00000000 </v>
   <v>       0.00000000      -0.00000000       0.00000000 </v>
   <v>      -0.00000000      -0.00000000      -0.00000000 </v>
   <v>       0.00000000      -0.00000000       0.00000000 </v>
   <v>      -0.00000000       0.00000000      -0.00000000 </v>
   <v>       0.00000000       0.00000000       0.00000000 </v>
   <v>      -0.00000000       0.00000000      -0.00000000 </v>
   <v>       0.00000000      -0.00000000       0.00000000 </v>
   <v>      -0.00000000       0.00000000      -0.00000000 </v>
   <v>       0.00000000      -0.00000000       0.00000000 </v>
   <v>      -0.00000000       0.00000000      -0.00000000 </v>
   <v>       0.00000000      -0.00000000       0.00000000 </v>
   <v>      -0.00000000       0.00000000      -0.00000000 </v>
   <v>       0.00000000      -0.00000000       0.00000000 </v>
   <v>      -0.00000000       0.00000000      -0.00000000 </v>
   <v>       0.00000000      -0.00000000       0.00000000 </v>
   <v>      -0.00000000       0.00000000      -0.00000000 </v>
   <v>       0.00000000      -0.00000000       0.00000000 </v>
   <v>      -0.00000000       0.00000000      -0.00000000 </v>
   <v>       0.00000000       0.00000000       0.00000000 </v>
   <v>      -0.00000000      -0.00000000      -0.00000000 </v>
   <v>       0.00000000      -0.00000000       0.00000000 </v>
   <v>      -0.00000000       0.00000000      -0.00000000 </v>
   <v>       0.00000000      -0.00000000       0.00000000 </v>
   <v>      -0.00000000       0.00000000      -0.00000000 </v>
   <v>       0.00000000      -0.00000000       0.00000000 </v>
   <v>      -0.00000000       0.00000000      -0.00000000 </v>
   <v>       0.00000000      -0.00000000       0.00000000 </v>
   <v>      -0.00000000       0.00000000      -0.00000000 </v>
   <v>       0.00000000      -0.00000000       0.00000000 </v>
   <v>      -0.00000000       0.00000000      -0.00000000 </v>
   <v>       0.00000000       0.00000000       0.00000000 </v>
   <v>      -0.00000000       0.00000000      -0.00000000 </v>
   <v>       0.00000000       0.00000000       0.00000000 </v>
   <v>      -0.00000000       0.00000000      -0.00000000 </v>
   <v>       0.00000000       0.00000000       0.00000000 </v>
   <v>      -0.00000000      -0.00000000      -0.00000000 </v>
   <v>       0.00000000      -0.00000000       0.00000000 </v>
   <v>      -0.00000000      -0.00000000      -0.00000000 </v>
  </varray>
  <varray name="stress" >
   <v>      -6.05258796       0.00000000       0.00000000 </v>
   <v>      -0.00000000      -6.05258796       0.00000000 </v>
   <v>       0.00000000       0.00000000      -6.05258796 </v>
  </varray>
  <energy>
   <i name="e_fr_energy">   -367.49118803 </i>
   <i name="e_wo_entrp">   -367.49118803 </i>
   <i name="e_0_energy">   -367.49118803 </i>
  </energy>
  <time name="totalsc">  361.94  361.96</time>
  <eigenvalues>
   <array>
    <dimension dim="1">band</dimension>
    <dimension dim="2">kpoint</dimension>
    <dimension dim="3">spin</dimension>
    <field>eigene</field>
    <field>occ</field>
    <set>
     <set comment="spin 1">
      <set comment="kpoint 1">
       <r>   -6.2263    1.0000 </r>
       <r>   -5.1481    1.0000 </r>
       <r>   -5.1481    1.0000 </r>
       <r>   -5.1481    1.0000 </r>
       <r>   -5.1481    1.0000 </r>
       <r>   -5.1481    1.0000 </r>
       <r>   -5.1481    1.0000 </r>
       <r>   -4.1882    1.0000 </r>
       <r>   -4.1882    1.0000 </r>
       <r>   -4.1882    1.0000 </r>
       <r>   -4.1882    1.0000 </r>
       <r>   -4.1882    1.0000 </r>
       <r>   -4.1882    1.0000 </r>
       <r>   -4.1882    1.0000 </r>
       <r>   -4.1882    1.0000 </r>
       <r>   -4.1882    1.0000 </r>
       <r>   -4.1882    1.0000 </r>
       <r>   -4.1882    1.0000 </r>
       <r>   -4.1882    1.0000 </r>
       <r>   -3.8979    1.0000 </r>
       <r>   -3.8979    1.0000 </r>
       <r>   -3.8979    1.0000 </r>
       <r>   -3.8979    1.0000 </r>
       <r>   -2.0963    1.0000 </r>
       <r>   -2.0963    1.0000 </r>
       <r>   -2.0963    1.0000 </r>
       <r>   -2.0963    1.0000 </r>
       <r>   -2.0963    1.0000 </r>
       <r>   -2.0963    1.0000 </r>
       <r>   -1.9301    1.0000 </r>
       <r>   -1.9301    1.0000 </r>
       <r>   -1.9301    1.0000 </r>
       <r>   -1.9301    1.0000 </r>
       <r>   -1.9301    1.0000 </r>
       <r>   -1.9301    1.0000 </r>
       <r>   -1.9301    1.0000 </r>
       <r>   -1.9301    1.0000 </r>
       <r>   -1.9301    1.0000 </r>
       <r>   -1.9301    1.0000 </r>
       <r>   -1.9301    1.0000 </r>
       <r>   -1.9301    1.0000 </r>
       <r>   -1.2695    1.0000 </r>
       <r>   -1.2695    1.0000 </r>
       <r>   -1.2695    1.0000 </r>
       <r>   -1.2695    1.0000 </r>
       <r>    0.2283    1.0000 </r>
       <r>    0.2283    1.0000 </r>
       <r>    0.2283    1.0000 </r>
       <r>    0.2283    1.0000 </r>
       <r>    0.2283    1.0000 </r>
       <r>    0.2283    1.0000 </r>
       <r>    0.2283    1.0000 </r>
       <r>    0.2283    1.0000 </r>
       <r>    0.2283    1.0000 </r>
       <r>    0.2283    1.0000 </r>
       <r>    0.2283    1.0000 </r>
       <r>    0.2283    1.0000 </r>
       <r>    1.8334    1.0000 </r>
       <r>    1.8334    1.0000 </r>
       <r>    1.8334    1.0000 </r>
       <r>    1.8334    1.0000 </r>
       <r>    1.8334    1.0000 </r>
       <r>    1.8334    1.0000 </r>
       <r>    1.8334    1.0000 </r>
       <r>    1.8334    1.0000 </r>
       <r>    1.8334    1.0000 </r>
       <r>    1.8334    1.0000 </r>
       <r>    1.8334    1.0000 </r>
       <r>    1.8334    1.0000 </r>
       <r>    1.9328    1.0000 </r>
       <r>    1.9328    1.0000 </r>
       <r>    1.9328    1.0000 </r>
       <r>    1.9328    1.0000 </r>
       <r>    1.9328    1.0000 </r>
       <r>    1.9328    1.0000 </r>
       <r>    1.9328    1.0000 </r>
       <r>    1.9328    1.0000 </r>
       <r>    1.9328    1.0000 </r>
       <r>    1.9328    1.0000 </r>
       <r>    1.9328    1.0000 </r>
       <r>    1.9328    1.0000 </r>
       <r>    2.1848    1.0000 </r>
       <r>    2.1848    1.0000 </r>
       <r>    2.1848    1.0000 </r>
       <r>    2.1848    1.0000 </r>
       <r>    2.1848    1.0000 </r>
       <r>    2.1848    1.0000 </r>
       <r>    2.8534    1.0000 </r>
       <r>    2.8534    1.0000 </r>
       <r>    2.8534    1.0000 </r>
       <r>    2.8534    1.0000 </r>
       <r>    2.8534    1.0000 </r>
       <r>    2.8534    1.0000 </r>
       <r>    3.8134    1.0000 </r>
       <r>    3.8134    1.0000 </r>
       <r>    3.8134    1.0000 </r>
       <r>    3.8134    1.0000 </r>
       <r>    3.8134    1.0000 </r>
       <r>    3.8134    1.0000 </r>
       <r>    3.8134    1.0000 </r>
       <r>    3.8134    1.0000 </r>
       <r>    3.8134    1.0000 </r>
       <r>    3.8134    1.0000 </r>
       <r>    3.8134    1.0000 </r>
       <r>    3.8134    1.0000 </r>
       <r>    4.3787    1.0000 </r>
       <r>    4.3787    1.0000 </r>
       <r>    4.3787    1.0000 </r>
       <r>    4.3787    1.0000 </r>
       <r>    4.3787    1.0000 </r>
       <r>    4.3787    1.0000 </r>
       <r>    4.3787    1.0000 </r>
       <r>    4.3787    1.0000 </r>
       <r>    4.3787    1.0000 </r>
       <r>    4.3787    1.0000 </r>
       <r>    4.3787    1.0000 </r>
       <r>    4.3787    1.0000 </r>
       <r>    4.5101    1.0000 </r>
       <r>    4.5101    1.0000 </r>
       <r>    4.5101    1.0000 </r>
       <r>    4.5101    1.0000 </r>
       <r>    4.5101    1.0000 </r>
       <r>    4.5101    1.0000 </r>
       <r>    4.5101    1.0000 </r>
       <r>    4.5101    1.0000 </r>
       <r>    5.7066    1.0000 </r>
       <r>    5.7066    1.0000 </r>
       <r>    5.7066    1.0000 </r>
       <r>    6.3131    0.0000 </r>
       <r>    6.3131    0.0000 </r>
       <r>    6.3131    0.0000 </r>
       <r>    6.3131    0.0000 </r>
       <r>    6.3131    0.0000 </r>
       <r>    6.3131    0.0000 </r>
       <r>    6.7488    0.0000 </r>
       <r>    6.7488    0.0000 </r>
       <r>    6.7488    0.0000 </r>
       <r>    6.7488    0.0000 </r>
       <r>    6.7488    0.0000 </r>
       <r>    6.7488    0.0000 </r>
       <r>    7.1437    0.0000 </r>
       <r>    7.1437    0.0000 </r>
       <r>    7.1437    0.0000 </r>
       <r>    7.1437    0.0000 </r>
       <r>    8.0681    0.0000 </r>
       <r>    8.0681    0.0000 </r>
       <r>    8.0681    0.0000 </r>
       <r>    8.0681    0.0000 </r>
       <r>    8.0681    0.0000 </r>
       <r>    8.0681    0.0000 </r>
       <r>    8.0681    0.0000 </r>
       <r>    8.0681    0.0000 </r>
       <r>    8.0681    0.0000 </r>
       <r>    8.0681    0.0000 </r>
       <r>    8.0681    0.0000 </r>
       <r>    8.0681    0.0000 </r>
       <r>    8.2209    0.0000 </r>
       <r>    8.2209    0.0000 </r>
       <r>    8.2209    0.0000 </r>
       <r>    8.7339    0.0000 </r>
       <r>    8.7339    0.0000 </r>
       <r>    8.7340    0.0000 </r>
      </set>
      <set comment="kpoint 2">
       <r>   -5.9544    1.0000 </r>
       <r>   -5.9544    1.0000 </r>
       <r>   -4.9012    1.0000 </r>
       <r>   -4.9012    1.0000 </r>
       <r>   -4.9012    1.0000 </r>
       <r>   -4.9012    1.0000 </r>
       <r>   -4.9012    1.0000 </r>
       <r>   -4.9012    1.0000 </r>
       <r>   -4.9012    1.0000 </r>
       <r>   -4.9012    1.0000 </r>
       <r>   -4.0575    1.0000 </r>
       <r>   -4.0575    1.0000 </r>
       <r>   -4.0575    1.0000 </r>
       <r>   -4.0575    1.0000 </r>
       <r>   -4.0575    1.0000 </r>
       <r>   -4.0575    1.0000 </r>
       <r>   -4.0575    1.0000 </r>
       <r>   -4.0575    1.0000 </r>
       <r>   -3.8401    1.0000 </r>
       <r>   -3.8401    1.0000 </r>
       <r>   -3.1168    1.0000 </r>
       <r>   -3.1168    1.0000 </r>
       <r>   -3.1168    1.0000 </r>
       <r>   -3.1168    1.0000 </r>
       <r>   -3.1168    1.0000 </r>
       <r>   -3.1168    1.0000 </r>
       <r>   -3.1168    1.0000 </r>
       <r>   -3.1168    1.0000 </r>
       <r>   -2.0172    1.0000 </r>
       <r>   -2.0172    1.0000 </r>
       <r>   -2.0172    1.0000 </r>
       <r>   -2.0172    1.0000 </r>
       <r>   -2.0172    1.0000 </r>
       <r>   -2.0172    1.0000 </r>
       <r>   -2.0172    1.0000 </r>
       <r>   -2.0172    1.0000 </r>
       <r>   -0.8535    1.0000 </r>
       <r>   -0.8535    1.0000 </r>
       <r>   -0.8535    1.0000 </r>
       <r>   -0.8535    1.0000 </r>
       <r>   -0.8535    1.0000 </r>
       <r>   -0.8535    1.0000 </r>
       <r>   -0.8535    1.0000 </r>
       <r>   -0.8535    1.0000 </r>
       <r>   -0.6751    1.0000 </r>
       <r>   -0.6751    1.0000 </r>
       <r>   -0.6751    1.0000 </r>
       <r>   -0.6751    1.0000 </r>
       <r>   -0.6751    1.0000 </r>
       <r>   -0.6751    1.0000 </r>
       <r>   -0.6751    1.0000 </r>
       <r>   -0.6751    1.0000 </r>
       <r>   -0.0329    1.0000 </r>
       <r>   -0.0329    1.0000 </r>
       <r>    1.4148    1.0000 </r>
       <r>    1.4148    1.0000 </r>
       <r>    1.4148    1.0000 </r>
       <r>    1.4148    1.0000 </r>
       <r>    1.4148    1.0000 </r>
       <r>    1.4148    1.0000 </r>
       <r>    1.4148    1.0000 </r>
       <r>    1.4148    1.0000 </r>
       <r>    1.4569    1.0000 </r>
       <r>    1.4569    1.0000 </r>
       <r>    1.4569    1.0000 </r>
       <r>    1.4569    1.0000 </r>
       <r>    1.4569    1.0000 </r>
       <r>    1.4569    1.0000 </r>
       <r>    1.4569    1.0000 </r>
       <r>    1.4569    1.0000 </r>
       <r>    2.2758    1.0000 </r>
       <r>    2.2758    1.0000 </r>
       <r>    2.2758    1.0000 </r>
       <r>    2.2758    1.0000 </r>
       <r>    2.2758    1.0000 </r>
       <r>    2.2758    1.0000 </r>
       <r>    2.2758    1.0000 </r>
       <r>    2.2758    1.0000 </r>
       <r>    2.9775    1.0000 </r>
       <r>    2.9775    1.0000 </r>
       <r>    2.9775    1.0000 </r>
       <r>    2.9775    1.0000 </r>
       <r>    2.9775    1.0000 </r>
       <r>    2.9775    1.0000 </r>
       <r>    2.9775    1.0000 </r>
       <r>    2.9775    1.0000 </r>
       <r>    3.0985    1.0000 </r>
       <r>    3.0985    1.0000 </r>
       <r>    3.0985    1.0000 </r>
       <r>    3.0985    1.0000 </r>
       <r>    3.1112    1.0000 </r>
       <r>    3.1112    1.0000 </r>
       <r>    3.1112    1.0000 </r>
       <r>    3.1112    1.0000 </r>
       <r>    3.1112    1.0000 </r>
       <r>    3.1112    1.0000 </r>
       <r>    3.1112    1.0000 </r>
       <r>    3.1112    1.0000 </r>
       <r>    3.2320    1.0000 </r>
       <r>    3.2320    1.0000 </r>
       <r>    3.2320    1.0000 </r>
       <r>    3.2320    1.0000 </r>
       <r>    3.2320    1.0000 </r>
       <r>    3.2320    1.0000 </r>
       <r>    3.2320    1.0000 </r>
       <r>    3.2320    1.0000 </r>
       <r>    4.2744    1.0000 </r>
       <r>    4.2744    1.0000 </r>
       <r>    4.2744    1.0000 </r>
       <r>    4.2744    1.0000 </r>
       <r>    4.2744    1.0000 </r>
       <r>    4.2744    1.0000 </r>
       <r>    4.2744    1.0000 </r>
       <r>    4.2744    1.0000 </r>
       <r>    4.3613    1.0000 </r>
       <r>    4.3613    1.0000 </r>
       <r>    4.4418    1.0000 </r>
       <r>    4.4418    1.0000 </r>
       <r>    4.4418    1.0000 </r>
       <r>    4.4418    1.0000 </r>
       <r>    4.4418    1.0000 </r>
       <r>    4.4418    1.0000 </r>
       <r>    4.4418    1.0000 </r>
       <r>    4.4418    1.0000 </r>
       <r>    4.8957    1.0000 </r>
       <r>    4.8957    1.0000 </r>
       <r>    4.8957    1.0000 </r>
       <r>    4.8957    1.0000 </r>
       <r>    6.2241    0.0000 </r>
       <r>    6.2241    0.0000 </r>
       <r>    7.1395    0.0000 </r>
       <r>    7.1395    0.0000 </r>
       <r>    7.5850    0.0000 </r>
       <r>    7.5850    0.0000 </r>
       <r>    7.5850    0.0000 </r>
       <r>    7.5850    0.0000 </r>
       <r>    7.5850    0.0000 </r>
       <r>    7.5850    0.0000 </r>
       <r>    7.5850    0.0000 </r>
       <r>    7.5850    0.0000 </r>
       <r>    7.6492    0.0000 </r>
       <r>    7.6492    0.0000 </r>
       <r>    7.9789    0.0000 </r>
       <r>    7.9789    0.0000 </r>
       <r>    7.9789    0.0000 </r>
       <r>    7.9789    0.0000 </r>
       <r>    7.9789    0.0000 </r>
       <r>    7.9789    0.0000 </r>
       <r>    7.9789    0.0000 </r>
       <r>    7.9789    0.0000 </r>
       <r>    8.0785    0.0000 </r>
       <r>    8.0785    0.0000 </r>
       <r>    8.0785    0.0000 </r>
       <r>    8.0785    0.0000 </r>
       <r>    8.0785    0.0000 </r>
       <r>    8.0785    0.0000 </r>
       <r>    8.0785    0.0000 </r>
       <r>    8.0785    0.0000 </r>
       <r>    8.4863    0.0000 </r>
       <r>    8.4863    0.0000 </r>
       <r>    8.4863    0.0000 </r>
       <r>    8.4863    0.0000 </r>
      </set>
      <set comment="kpoint 3">
       <r>   -5.6878    1.0000 </r>
       <r>   -5.6878    1.0000 </r>
       <r>   -5.6878    1.0000 </r>
       <r>   -5.6878    1.0000 </r>
       <r>   -4.6742    1.0000 </r>
       <r>   -4.6742    1.0000 </r>
       <r>   -4.6742    1.0000 </r>
       <r>   -4.6742    1.0000 </r>
       <r>   -4.6742    1.0000 </r>
       <r>   -4.6742    1.0000 </r>
       <r>   -4.6742    1.0000 </r>
       <r>   -4.6742    1.0000 </r>
       <r>   -3.6414    1.0000 </r>
       <r>   -3.6414    1.0000 </r>
       <r>   -3.6414    1.0000 </r>
       <r>   -3.6414    1.0000 </r>
       <r>   -3.6414    1.0000 </r>
       <r>   -3.6414    1.0000 </r>
       <r>   -3.6414    1.0000 </r>
       <r>   -3.6414    1.0000 </r>
       <r>   -3.3616    1.0000 </r>
       <r>   -3.3616    1.0000 </r>
       <r>   -3.3616    1.0000 </r>
       <r>   -3.3616    1.0000 </r>
       <r>   -3.3616    1.0000 </r>
       <r>   -3.3616    1.0000 </r>
       <r>   -3.3616    1.0000 </r>
       <r>   -3.3616    1.0000 </r>
       <r>   -2.5046    1.0000 </r>
       <r>   -2.5046    1.0000 </r>
       <r>   -2.5046    1.0000 </r>
       <r>   -2.5046    1.0000 </r>
       <r>   -1.5094    1.0000 </r>
       <r>   -1.5094    1.0000 </r>
       <r>   -1.5094    1.0000 </r>
       <r>   -1.5094    1.0000 </r>
       <r>   -1.0798    1.0000 </r>
       <r>   -1.0798    1.0000 </r>
       <r>   -1.0798    1.0000 </r>
       <r>   -1.0798    1.0000 </r>
       <r>   -1.0798    1.0000 </r>
       <r>   -1.0798    1.0000 </r>
       <r>   -1.0798    1.0000 </r>
       <r>   -1.0798    1.0000 </r>
       <r>   -0.2502    1.0000 </r>
       <r>   -0.2502    1.0000 </r>
       <r>   -0.2502    1.0000 </r>
       <r>   -0.2502    1.0000 </r>
       <r>   -0.2502    1.0000 </r>
       <r>   -0.2502    1.0000 </r>
       <r>   -0.2502    1.0000 </r>
       <r>   -0.2502    1.0000 </r>
       <r>    0.4166    1.0000 </r>
       <r>    0.4166    1.0000 </r>
       <r>    0.4166    1.0000 </r>
       <r>    0.4166    1.0000 </r>
       <r>    0.4166    1.0000 </r>
       <r>    0.4166    1.0000 </r>
       <r>    0.4166    1.0000 </r>
       <r>    0.4166    1.0000 </r>
       <r>    1.3821    1.0000 </r>
       <r>    1.3821    1.0000 </r>
       <r>    1.3821    1.0000 </r>
       <r>    1.3821    1.0000 </r>
       <r>    2.2401    1.0000 </r>
       <r>    2.2401    1.0000 </r>
       <r>    2.2401    1.0000 </r>
       <r>    2.2401    1.0000 </r>
       <r>    2.2401    1.0000 </r>
       <r>    2.2401    1.0000 </r>
       <r>    2.2401    1.0000 </r>
       <r>    2.2401    1.0000 </r>
       <r>    2.3289    1.0000 </r>
       <r>    2.3289    1.0000 </r>
       <r>    2.3289    1.0000 </r>
       <r>    2.3289    1.0000 </r>
       <r>    2.3289    1.0000 </r>
       <r>    2.3289    1.0000 </r>
       <r>    2.3289    1.0000 </r>
       <r>    2.3289    1.0000 </r>
       <r>    2.9367    1.0000 </r>
       <r>    2.9367    1.0000 </r>
       <r>    2.9367    1.0000 </r>
       <r>    2.9367    1.0000 </r>
       <r>    2.9367    1.0000 </r>
       <r>    2.9367    1.0000 </r>
       <r>    2.9367    1.0000 </r>
       <r>    2.9367    1.0000 </r>
       <r>    3.0137    1.0000 </r>
       <r>    3.0137    1.0000 </r>
       <r>    3.0137    1.0000 </r>
       <r>    3.0137    1.0000 </r>
       <r>    3.2805    1.0000 </r>
       <r>    3.2805    1.0000 </r>
       <r>    3.2805    1.0000 </r>
       <r>    3.2805    1.0000 </r>
       <r>    3.5401    1.0000 </r>
       <r>    3.5401    1.0000 </r>
       <r>    3.5401    1.0000 </r>
       <r>    3.5401    1.0000 </r>
       <r>    3.5401    1.0000 </r>
       <r>    3.5401    1.0000 </r>
       <r>    3.5401    1.0000 </r>
       <r>    3.5401    1.0000 </r>
       <r>    3.8599    1.0000 </r>
       <r>    3.8599    1.0000 </r>
       <r>    3.8599    1.0000 </r>
       <r>    3.8599    1.0000 </r>
       <r>    3.8599    1.0000 </r>
       <r>    3.8599    1.0000 </r>
       <r>    3.8599    1.0000 </r>
       <r>    3.8599    1.0000 </r>
       <r>    4.0648    1.0000 </r>
       <r>    4.0648    1.0000 </r>
       <r>    4.0648    1.0000 </r>
       <r>    4.0648    1.0000 </r>
       <r>    4.1183    1.0000 </r>
       <r>    4.1183    1.0000 </r>
       <r>    4.1183    1.0000 </r>
       <r>    4.1183    1.0000 </r>
       <r>    4.1183    1.0000 </r>
       <r>    4.1183    1.0000 </r>
       <r>    4.1183    1.0000 </r>
       <r>    4.1183    1.0000 </r>
       <r>    5.4155    1.0000 </r>
       <r>    5.4155    1.0000 </r>
       <r>    5.4155    1.0000 </r>
       <r>    5.4155    1.0000 </r>
       <r>    6.8096    0.0000 </r>
       <r>    6.8096    0.0000 </r>
       <r>    6.8096    0.0000 </r>
       <r>    6.8096    0.0000 </r>
       <r>    7.5684    0.0000 </r>
       <r>    7.5684    0.0000 </r>
       <r>    7.5684    0.0000 </r>
       <r>    7.5684    0.0000 </r>
       <r>    7.5684    0.0000 </r>
       <r>    7.5684    0.0000 </r>
       <r>    7.5684    0.0000 </r>
       <r>    7.5684    0.0000 </r>
       <r>    7.8688    0.0000 </r>
       <r>    7.8688    0.0000 </r>
       <r>    7.8688    0.0000 </r>
       <r>    7.8688    0.0000 </r>
       <r>    7.8688    0.0000 </r>
       <r>    7.8688    0.0000 </r>
       <r>    7.8688    0.0000 </r>
       <r>    7.8688    0.0000 </r>
       <r>    8.2534    0.0000 </r>
       <r>    8.2534    0.0000 </r>
       <r>    8.2534    0.0000 </r>
       <r>    8.2534    0.0000 </r>
       <r>    8.2534    0.0000 </r>
       <r>    8.2534    0.0000 </r>
       <r>    8.2534    0.0000 </r>
       <r>    8.2534    0.0000 </r>
       <r>    8.6771    0.0000 </r>
       <r>    8.6789    0.0000 </r>
       <r>    8.6876    0.0000 </r>
       <r>    8.6918    0.0000 </r>
       <r>    8.6958    0.0000 </r>
       <r>    8.7037    0.0000 </r>
      </set>
      <set comment="kpoint 4">
       <r>   -5.4292    1.0000 </r>
       <r>   -5.4292    1.0000 </r>
       <r>   -5.4292    1.0000 </r>
       <r>   -5.4292    1.0000 </r>
       <r>   -5.4292    1.0000 </r>
       <r>   -5.4292    1.0000 </r>
       <r>   -5.4292    1.0000 </r>
       <r>   -5.4292    1.0000 </r>
       <r>   -3.5154    1.0000 </r>
       <r>   -3.5154    1.0000 </r>
       <r>   -3.5154    1.0000 </r>
       <r>   -3.5154    1.0000 </r>
       <r>   -3.5154    1.0000 </r>
       <r>   -3.5154    1.0000 </r>
       <r>   -3.5154    1.0000 </r>
       <r>   -3.5154    1.0000 </r>
       <r>   -3.5154    1.0000 </r>
       <r>   -3.5154    1.0000 </r>
       <r>   -3.5154    1.0000 </r>
       <r>   -3.5154    1.0000 </r>
       <r>   -3.5154    1.0000 </r>
       <r>   -3.5154    1.0000 </r>
       <r>   -3.5154    1.0000 </r>
       <r>   -3.5154    1.0000 </r>
       <r>   -3.5154    1.0000 </r>
       <r>   -3.5154    1.0000 </r>
       <r>   -3.5154    1.0000 </r>
       <r>   -3.5154    1.0000 </r>
       <r>   -3.5154    1.0000 </r>
       <r>   -3.5154    1.0000 </r>
       <r>   -3.5154    1.0000 </r>
       <r>   -3.5154    1.0000 </r>
       <r>   -0.6724    1.0000 </r>
       <r>   -0.6724    1.0000 </r>
       <r>   -0.6724    1.0000 </r>
       <r>   -0.6724    1.0000 </r>
       <r>   -0.6724    1.0000 </r>
       <r>   -0.6724    1.0000 </r>
       <r>   -0.6724    1.0000 </r>
       <r>   -0.6724    1.0000 </r>
       <r>   -0.6724    1.0000 </r>
       <r>   -0.6724    1.0000 </r>
       <r>   -0.6724    1.0000 </r>
       <r>   -0.6724    1.0000 </r>
       <r>   -0.6724    1.0000 </r>
       <r>   -0.6724    1.0000 </r>
       <r>   -0.6724    1.0000 </r>
       <r>   -0.6724    1.0000 </r>
       <r>   -0.6724    1.0000 </r>
       <r>   -0.6724    1.0000 </r>
       <r>   -0.6724    1.0000 </r>
       <r>   -0.6724    1.0000 </r>
       <r>   -0.6724    1.0000 </r>
       <r>   -0.6724    1.0000 </r>
       <r>   -0.6724    1.0000 </r>
       <r>   -0.6724    1.0000 </r>
       <r>    1.7693    1.0000 </r>
       <r>    1.7693    1.0000 </r>
       <r>    1.7693    1.0000 </r>
       <r>    1.7693    1.0000 </r>
       <r>    1.7693    1.0000 </r>
       <r>    1.7693    1.0000 </r>
       <r>    1.7693    1.0000 </r>
       <r>    1.7693    1.0000 </r>
       <r>    2.1541    1.0000 </r>
       <r>    2.1541    1.0000 </r>
       <r>    2.1541    1.0000 </r>
       <r>    2.1541    1.0000 </r>
       <r>    2.1541    1.0000 </r>
       <r>    2.1541    1.0000 </r>
       <r>    2.1541    1.0000 </r>
       <r>    2.1541    1.0000 </r>
       <r>    2.1541    1.0000 </r>
       <r>    2.1541    1.0000 </r>
       <r>    2.1541    1.0000 </r>
       <r>    2.1541    1.0000 </r>
       <r>    2.1541    1.0000 </r>
       <r>    2.1541    1.0000 </r>
       <r>    2.1541    1.0000 </r>
       <r>    2.1541    1.0000 </r>
       <r>    2.1541    1.0000 </r>
       <r>    2.1541    1.0000 </r>
       <r>    2.1541    1.0000 </r>
       <r>    2.1541    1.0000 </r>
       <r>    2.1541    1.0000 </r>
       <r>    2.1541    1.0000 </r>
       <r>    2.1541    1.0000 </r>
       <r>    2.1541    1.0000 </r>
       <r>    3.5003    1.0000 </r>
       <r>    3.5003    1.0000 </r>
       <r>    3.5003    1.0000 </r>
       <r>    3.5003    1.0000 </r>
       <r>    3.5003    1.0000 </r>
       <r>    3.5003    1.0000 </r>
       <r>    3.5003    1.0000 </r>
       <r>    3.5003    1.0000 </r>
       <r>    3.5003    1.0000 </r>
       <r>    3.5003    1.0000 </r>
       <r>    3.5003    1.0000 </r>
       <r>    3.5003    1.0000 </r>
       <r>    3.5003    1.0000 </r>
       <r>    3.5003    1.0000 </r>
       <r>    3.5003    1.0000 </r>
       <r>    3.5003    1.0000 </r>
       <r>    3.5003    1.0000 </r>
       <r>    3.5003    1.0000 </r>
       <r>    3.5003    1.0000 </r>
       <r>    3.5003    1.0000 </r>
       <r>    3.5003    1.0000 </r>
       <r>    3.5003    1.0000 </r>
       <r>    3.5003    1.0000 </r>
       <r>    3.5003    1.0000 </r>
       <r>    4.9464    1.0000 </r>
       <r>    4.9464    1.0000 </r>
       <r>    4.9464    1.0000 </r>
       <r>    4.9464    1.0000 </r>
       <r>    4.9464    1.0000 </r>
       <r>    4.9464    1.0000 </r>
       <r>    4.9464    1.0000 </r>
       <r>    4.9464    1.0000 </r>
       <r>    4.9464    1.0000 </r>
       <r>    4.9464    1.0000 </r>
       <r>    4.9464    1.0000 </r>
       <r>    4.9464    1.0000 </r>
       <r>    4.9464    1.0000 </r>
       <r>    4.9464    1.0000 </r>
       <r>    4.9464    1.0000 </r>
       <r>    4.9464    1.0000 </r>
       <r>    7.1299    0.0000 </r>
       <r>    7.1299    0.0000 </r>
       <r>    7.1299    0.0000 </r>
       <r>    7.1299    0.0000 </r>
       <r>    7.1299    0.0000 </r>
       <r>    7.1299    0.0000 </r>
       <r>    7.1299    0.0000 </r>
       <r>    7.1299    0.0000 </r>
       <r>    7.1299    0.0000 </r>
       <r>    7.1299    0.0000 </r>
       <r>    7.1299    0.0000 </r>
       <r>    7.1299    0.0000 </r>
       <r>    7.1299    0.0000 </r>
       <r>    7.1299    0.0000 </r>
       <r>    7.1299    0.0000 </r>
       <r>    7.1299    0.0000 </r>
       <r>    7.1299    0.0000 </r>
       <r>    7.1299    0.0000 </r>
       <r>    7.1299    0.0000 </r>
       <r>    7.1299    0.0000 </r>
       <r>    7.1299    0.0000 </r>
       <r>    7.1299    0.0000 </r>
       <r>    7.1299    0.0000 </r>
       <r>    7.1299    0.0000 </r>
       <r>    7.6385    0.0000 </r>
       <r>    7.6385    0.0000 </r>
       <r>    7.6385    0.0000 </r>
       <r>    7.6385    0.0000 </r>
       <r>    7.6385    0.0000 </r>
       <r>    7.6385    0.0000 </r>
       <r>    7.6385    0.0000 </r>
       <r>    7.6385    0.0000 </r>
       <r>    9.1601    0.0000 </r>
       <r>    9.1601    0.0000 </r>
      </set>
     </set>
    </set>
   </array>
  </eigenvalues>
  <separator name="orbital magnetization" >
   <v name="MAGDIPOLOUT">      0.00000000      0.00000000      0.00000000</v>
  </separator>
  <dos>
   <i name="efermi">      5.81807690 </i>
   <total>
    <array>
     <dimension dim="1">gridpoints</dimension>
     <dimension dim="2">spin</dimension>
     <field>energy</field>
     <field>total</field>
     <field>integrated</field>
     <set>
      <set comment="spin 1">
       <r>    -6.9956     0.0000     0.0000 </r>
       <r>    -6.9392     0.0000     0.0000 </r>
       <r>    -6.8828     0.0000     0.0000 </r>
       <r>    -6.8264     0.0000     0.0000 </r>
       <r>    -6.7700     0.0000     0.0000 </r>
       <r>    -6.7136     0.0000     0.0000 </r>
       <r>    -6.6571     0.0000     0.0000 </r>
       <r>    -6.6007     0.0000     0.0000 </r>
       <r>    -6.5443     0.0000     0.0000 </r>
       <r>    -6.4879     0.0000     0.0000 </r>
       <r>    -6.4315     0.0000     0.0000 </r>
       <r>    -6.3751     0.0000     0.0000 </r>
       <r>    -6.3186     0.0000     0.0000 </r>
       <r>    -6.2622     0.0247     0.0014 </r>
       <r>    -6.2058     4.0812     0.2316 </r>
       <r>    -6.1494     0.3254     0.2500 </r>
       <r>    -6.0930     0.0000     0.2500 </r>
       <r>    -6.0366     0.0000     0.2500 </r>
       <r>    -5.9801     0.9096     0.3013 </r>
       <r>    -5.9237    25.2762     1.7273 </r>
       <r>    -5.8673     0.4019     1.7500 </r>
       <r>    -5.8109     0.0000     1.7500 </r>
       <r>    -5.7545     0.0001     1.7500 </r>
       <r>    -5.6981    12.4197     2.4507 </r>
       <r>    -5.6416    40.7263     4.7483 </r>
       <r>    -5.5852     0.0294     4.7500 </r>
       <r>    -5.5288     0.0000     4.7500 </r>
       <r>    -5.4724     0.0396     4.7522 </r>
       <r>    -5.4160    29.1873     6.3989 </r>
       <r>    -5.3596     6.2233     6.7500 </r>
       <r>    -5.3031     0.0000     6.7500 </r>
       <r>    -5.2467     0.0000     6.7500 </r>
       <r>    -5.1903     0.0380     6.7521 </r>
       <r>    -5.1339    22.3729     8.0144 </r>
       <r>    -5.0775     4.1769     8.2500 </r>
       <r>    -5.0211     0.0000     8.2500 </r>
       <r>    -4.9646     0.0004     8.2500 </r>
       <r>    -4.9082    32.8770    10.1048 </r>
       <r>    -4.8518    73.4478    14.2486 </r>
       <r>    -4.7954     0.0256    14.2500 </r>
       <r>    -4.7390     0.0002    14.2500 </r>
       <r>    -4.6825    29.5497    15.9171 </r>
       <r>    -4.6261    76.7650    20.2480 </r>
       <r>    -4.5697     0.0358    20.2500 </r>
       <r>    -4.5133     0.0000    20.2500 </r>
       <r>    -4.4569     0.0000    20.2500 </r>
       <r>    -4.4005     0.0000    20.2500 </r>
       <r>    -4.3440     0.0000    20.2500 </r>
       <r>    -4.2876     0.0000    20.2500 </r>
       <r>    -4.2312     0.0628    20.2535 </r>
       <r>    -4.1748    44.0033    22.7361 </r>
       <r>    -4.1184     9.1102    23.2500 </r>
       <r>    -4.0620    40.1448    25.5149 </r>
       <r>    -4.0055    66.1925    29.2493 </r>
       <r>    -3.9491     0.0151    29.2501 </r>
       <r>    -3.8927    11.3935    29.8929 </r>
       <r>    -3.8363    22.4354    31.1587 </r>
       <r>    -3.7799    10.4811    31.7500 </r>
       <r>    -3.7235     0.0003    31.7500 </r>
       <r>    -3.6670     3.6879    31.9581 </r>
       <r>    -3.6106   101.0800    37.6607 </r>
       <r>    -3.5542     1.9053    37.7682 </r>
       <r>    -3.4978    94.6939    43.1105 </r>
       <r>    -3.4414    11.3345    43.7500 </r>
       <r>    -3.3850     5.2700    44.0473 </r>
       <r>    -3.3285   100.0556    49.6922 </r>
       <r>    -3.2721     1.0252    49.7500 </r>
       <r>    -3.2157     0.0000    49.7500 </r>
       <r>    -3.1593     0.1416    49.7580 </r>
       <r>    -3.1029    88.9488    54.7762 </r>
       <r>    -3.0465    17.2604    55.7500 </r>
       <r>    -2.9900     0.0000    55.7500 </r>
       <r>    -2.9336     0.0000    55.7500 </r>
       <r>    -2.8772     0.0000    55.7500 </r>
       <r>    -2.8208     0.0000    55.7500 </r>
       <r>    -2.7644     0.0000    55.7500 </r>
       <r>    -2.7080     0.0000    55.7500 </r>
       <r>    -2.6515     0.0000    55.7500 </r>
       <r>    -2.5951     0.0000    55.7500 </r>
       <r>    -2.5387     0.4200    55.7737 </r>
       <r>    -2.4823    49.6955    58.5774 </r>
       <r>    -2.4259     3.0599    58.7500 </r>
       <r>    -2.3694     0.0000    58.7500 </r>
       <r>    -2.3130     0.0000    58.7500 </r>
       <r>    -2.2566     0.0000    58.7500 </r>
       <r>    -2.2002     0.0000    58.7500 </r>
       <r>    -2.1438     0.0105    58.7506 </r>
       <r>    -2.0874    19.5775    59.8551 </r>
       <r>    -2.0309    24.6403    61.2452 </r>
       <r>    -1.9745    88.6196    66.2449 </r>
       <r>    -1.9181    42.6947    68.6536 </r>
       <r>    -1.8617    10.5713    69.2500 </r>
       <r>    -1.8053     0.0000    69.2500 </r>
       <r>    -1.7489     0.0000    69.2500 </r>
       <r>    -1.6924     0.0000    69.2500 </r>
       <r>    -1.6360     0.0000    69.2500 </r>
       <r>    -1.5796     0.0000    69.2500 </r>
       <r>    -1.5232     8.7855    69.7457 </r>
       <r>    -1.4668    44.3218    72.2462 </r>
       <r>    -1.4104     0.0681    72.2500 </r>
       <r>    -1.3539     0.0000    72.2500 </r>
       <r>    -1.2975     0.4244    72.2739 </r>
       <r>    -1.2411    16.9078    73.2278 </r>
       <r>    -1.1847     0.3929    73.2500 </r>
       <r>    -1.1283     0.0326    73.2518 </r>
       <r>    -1.0719    75.8470    77.5309 </r>
       <r>    -1.0154    30.4709    79.2500 </r>
       <r>    -0.9590     0.0003    79.2500 </r>
       <r>    -0.9026     0.0276    79.2516 </r>
       <r>    -0.8462    74.2185    83.4388 </r>
       <r>    -0.7898    32.1043    85.2500 </r>
       <r>    -0.7334     0.0033    85.2502 </r>
       <r>    -0.6769    87.5293    90.1883 </r>
       <r>    -0.6205   125.1504    97.2489 </r>
       <r>    -0.5641     0.0190    97.2500 </r>
       <r>    -0.5077     0.0000    97.2500 </r>
       <r>    -0.4513     0.0000    97.2500 </r>
       <r>    -0.3949     0.0000    97.2500 </r>
       <r>    -0.3384     0.0000    97.2500 </r>
       <r>    -0.2820     1.3082    97.3238 </r>
       <r>    -0.2256   100.7055   103.0053 </r>
       <r>    -0.1692     4.3372   103.2500 </r>
       <r>    -0.1128     0.0000   103.2500 </r>
       <r>    -0.0563     1.2870   103.3226 </r>
       <r>     0.0001    25.0366   104.7351 </r>
       <r>     0.0565     0.2642   104.7500 </r>
       <r>     0.1129     0.0000   104.7500 </r>
       <r>     0.1693     0.0008   104.7500 </r>
       <r>     0.2257    22.7787   106.0352 </r>
       <r>     0.2822    30.3922   107.7498 </r>
       <r>     0.3386     0.0037   107.7500 </r>
       <r>     0.3950     6.7319   108.1298 </r>
       <r>     0.4514    98.8835   113.7085 </r>
       <r>     0.5078     0.7355   113.7500 </r>
       <r>     0.5642     0.0000   113.7500 </r>
       <r>     0.6207     0.0000   113.7500 </r>
       <r>     0.6771     0.0000   113.7500 </r>
       <r>     0.7335     0.0000   113.7500 </r>
       <r>     0.7899     0.0000   113.7500 </r>
       <r>     0.8463     0.0000   113.7500 </r>
       <r>     0.9027     0.0000   113.7500 </r>
       <r>     0.9592     0.0000   113.7500 </r>
       <r>     1.0156     0.0000   113.7500 </r>
       <r>     1.0720     0.0000   113.7500 </r>
       <r>     1.1284     0.0000   113.7500 </r>
       <r>     1.1848     0.0000   113.7500 </r>
       <r>     1.2412     0.0000   113.7500 </r>
       <r>     1.2977     0.0000   113.7500 </r>
       <r>     1.3541     1.2589   113.8210 </r>
       <r>     1.4105    91.3719   118.9760 </r>
       <r>     1.4669   147.6888   127.3081 </r>
       <r>     1.5233    25.5573   128.7500 </r>
       <r>     1.5797     0.0001   128.7500 </r>
       <r>     1.6362     0.0000   128.7500 </r>
       <r>     1.6926     0.0000   128.7500 </r>
       <r>     1.7490     2.6741   128.9009 </r>
       <r>     1.8054    33.8675   130.8116 </r>
       <r>     1.8618    50.9124   133.6839 </r>
       <r>     1.9182     9.2325   134.2048 </r>
       <r>     1.9747    45.0327   136.7454 </r>
       <r>     2.0311     0.0819   136.7500 </r>
       <r>     2.0875     0.0001   136.7500 </r>
       <r>     2.1439    25.0831   138.1651 </r>
       <r>     2.2003   104.4574   144.0583 </r>
       <r>     2.2568   106.5198   150.0678 </r>
       <r>     2.3132   123.3211   157.0252 </r>
       <r>     2.3696    92.3969   162.2380 </r>
       <r>     2.4260     0.2126   162.2500 </r>
       <r>     2.4824     0.0000   162.2500 </r>
       <r>     2.5388     0.0000   162.2500 </r>
       <r>     2.5953     0.0000   162.2500 </r>
       <r>     2.6517     0.0000   162.2500 </r>
       <r>     2.7081     0.0000   162.2500 </r>
       <r>     2.7645     0.0000   162.2500 </r>
       <r>     2.8209     0.2896   162.2663 </r>
       <r>     2.8773    25.1025   163.6825 </r>
       <r>     2.9338    45.8042   166.2667 </r>
       <r>     2.9902   150.9009   174.7801 </r>
       <r>     3.0466    69.8447   178.7205 </r>
       <r>     3.1030    63.6127   182.3093 </r>
       <r>     3.1594    96.4011   187.7480 </r>
       <r>     3.2158    13.5288   188.5113 </r>
       <r>     3.2723   107.5269   194.5776 </r>
       <r>     3.3287    38.4883   196.7490 </r>
       <r>     3.3851     0.0174   196.7500 </r>
       <r>     3.4415     0.0017   196.7501 </r>
       <r>     3.4979    46.2296   199.3582 </r>
       <r>     3.5543   149.8384   207.8117 </r>
       <r>     3.6108    16.6319   208.7500 </r>
       <r>     3.6672     0.0000   208.7500 </r>
       <r>     3.7236     0.0000   208.7500 </r>
       <r>     3.7800     0.4826   208.7772 </r>
       <r>     3.8364    55.0900   211.8852 </r>
       <r>     3.8928   102.8992   217.6905 </r>
       <r>     3.9493     1.0544   217.7500 </r>
       <r>     4.0057     0.0008   217.7500 </r>
       <r>     4.0621    22.6014   219.0251 </r>
       <r>     4.1185    84.4029   223.7869 </r>
       <r>     4.1749    52.5179   226.7498 </r>
       <r>     4.2313     0.1285   226.7571 </r>
       <r>     4.2878    87.9772   231.7205 </r>
       <r>     4.3442    21.6238   232.9404 </r>
       <r>     4.4006    73.2511   237.0730 </r>
       <r>     4.4570    94.4411   242.4011 </r>
       <r>     4.5134    36.0648   244.4358 </r>
       <r>     4.5698    14.4315   245.2500 </r>
       <r>     4.6263     0.0004   245.2500 </r>
       <r>     4.6827     0.0000   245.2500 </r>
       <r>     4.7391     0.0000   245.2500 </r>
       <r>     4.7955     0.0000   245.2500 </r>
       <r>     4.8519     0.0524   245.2530 </r>
       <r>     4.9084    43.5181   247.7081 </r>
       <r>     4.9648    73.6567   251.8636 </r>
       <r>     5.0212     6.8488   252.2500 </r>
       <r>     5.0776     0.0000   252.2500 </r>
       <r>     5.1340     0.0000   252.2500 </r>
       <r>     5.1904     0.0000   252.2500 </r>
       <r>     5.2469     0.0000   252.2500 </r>
       <r>     5.3033     0.0000   252.2500 </r>
       <r>     5.3597     0.0021   252.2501 </r>
       <r>     5.4161    27.4294   253.7976 </r>
       <r>     5.4725    25.7424   255.2499 </r>
       <r>     5.5289     0.0015   255.2500 </r>
       <r>     5.5854     0.0000   255.2500 </r>
       <r>     5.6418     0.0000   255.2500 </r>
       <r>     5.6982     3.6833   255.4578 </r>
       <r>     5.7546     9.6061   255.9997 </r>
       <r>     5.8110     0.0045   256.0000 </r>
       <r>     5.8674     0.0000   256.0000 </r>
       <r>     5.9239     0.0000   256.0000 </r>
       <r>     5.9803     0.0000   256.0000 </r>
       <r>     6.0367     0.0000   256.0000 </r>
       <r>     6.0931     0.0000   256.0000 </r>
       <r>     6.1495     0.0000   256.0000 </r>
       <r>     6.2059     2.6632   256.1502 </r>
       <r>     6.2624    23.8392   257.4952 </r>
       <r>     6.3188    17.5392   258.4847 </r>
       <r>     6.3752     9.1337   259.0000 </r>
       <r>     6.4316     0.0001   259.0000 </r>
       <r>     6.4880     0.0000   259.0000 </r>
       <r>     6.5444     0.0000   259.0000 </r>
       <r>     6.6009     0.0000   259.0000 </r>
       <r>     6.6573     0.0000   259.0000 </r>
       <r>     6.7137     0.1748   259.0099 </r>
       <r>     6.7701    24.8084   260.4095 </r>
       <r>     6.8265    48.6273   263.1529 </r>
       <r>     6.8829     6.1527   263.5000 </r>
       <r>     6.9394     0.0000   263.5000 </r>
       <r>     6.9958     0.0000   263.5000 </r>
       <r>     7.0522     0.0000   263.5000 </r>
       <r>     7.1086     7.4898   263.9226 </r>
       <r>     7.1650   140.3636   271.8415 </r>
       <r>     7.2215     2.8102   272.0000 </r>
       <r>     7.2779     0.0000   272.0000 </r>
       <r>     7.3343     0.0000   272.0000 </r>
       <r>     7.3907     0.0000   272.0000 </r>
       <r>     7.4471     0.0000   272.0000 </r>
       <r>     7.5035     0.0002   272.0000 </r>
       <r>     7.5600    33.3935   273.8840 </r>
       <r>     7.6164   180.2197   284.0514 </r>
       <r>     7.6728    59.5832   287.4129 </r>
       <r>     7.7292     1.5430   287.5000 </r>
       <r>     7.7856     0.0000   287.5000 </r>
       <r>     7.8420     3.1206   287.6761 </r>
       <r>     7.8985   101.3244   293.3925 </r>
       <r>     7.9549     6.6718   293.7689 </r>
       <r>     8.0113   100.4214   299.4344 </r>
       <r>     8.0677    50.8097   302.3009 </r>
       <r>     8.1241   109.8113   308.4961 </r>
       <r>     8.1805     0.0971   308.5016 </r>
       <r>     8.2370    24.6394   309.8917 </r>
       <r>     8.2934    94.7288   315.2360 </r>
       <r>     8.3498     0.2480   315.2500 </r>
       <r>     8.4062     0.0000   315.2500 </r>
       <r>     8.4626     2.4852   315.3902 </r>
       <r>     8.5190    50.1377   318.2188 </r>
       <r>     8.5755     0.5525   318.2500 </r>
       <r>     8.6319     0.0160   318.2509 </r>
       <r>     8.6883    38.4442   320.4198 </r>
       <r>     8.7447    51.6015   323.3310 </r>
       <r>     8.8011     2.9953   323.5000 </r>
       <r>     8.8575     0.0000   323.5000 </r>
       <r>     8.9140     0.0000   323.5000 </r>
       <r>     8.9704     0.0000   323.5000 </r>
       <r>     9.0268     0.0000   323.5000 </r>
       <r>     9.0832     0.0000   323.5000 </r>
       <r>     9.1396     0.6509   323.5367 </r>
       <r>     9.1960     8.1624   323.9972 </r>
       <r>     9.2525     0.0493   324.0000 </r>
       <r>     9.3089     0.0000   324.0000 </r>
       <r>     9.3653     0.0000   324.0000 </r>
       <r>     9.4217     0.0000   324.0000 </r>
       <r>     9.4781     0.0000   324.0000 </r>
       <r>     9.5346     0.0000   324.0000 </r>
       <r>     9.5910     0.0000   324.0000 </r>
       <r>     9.6474     0.0000   324.0000 </r>
       <r>     9.7038     0.0000   324.0000 </r>
       <r>     9.7602     0.0000   324.0000 </r>
       <r>     9.8166     0.0000   324.0000 </r>
       <r>     9.8731     0.0000   324.0000 </r>
       <r>     9.9295     0.0000   324.0000 </r>
      </set>
     </set>
    </array>
   </total>
  </dos>
 </calculation>
 <structure name="finalpos" >
  <crystal>
   <varray name="basis" >
    <v>      10.89268312       0.00000000       0.00000000 </v>
    <v>       0.00000000      10.89268312       0.00000000 </v>
    <v>       0.00000000       0.00000000      10.89268312 </v>
   </varray>
   <i name="volume">   1292.42279472 </i>
   <varray name="rec_basis" >
    <v>       0.09180475       0.00000000       0.00000000 </v>
    <v>       0.00000000       0.09180475       0.00000000 </v>
    <v>       0.00000000       0.00000000       0.09180475 </v>
   </varray>
  </crystal>
  <varray name="positions" >
   <v>       0.25000000       0.25000000       0.25000000 </v>
   <v>       0.37500000       0.37500000       0.37500000 </v>
   <v>       0.00000000       0.00000000       0.25000000 </v>
   <v>       0.12500000       0.12500000       0.37500000 </v>
   <v>       0.00000000       0.25000000       0.00000000 </v>
   <v>       0.12500000       0.37500000       0.12500000 </v>
   <v>       0.25000000       0.00000000       0.00000000 </v>
   <v>       0.37500000       0.12500000       0.12500000 </v>
   <v>       0.25000000       0.25000000       0.75000000 </v>
   <v>       0.37500000       0.37500000       0.87500000 </v>
   <v>       0.00000000       0.00000000       0.75000000 </v>
   <v>       0.12500000       0.12500000       0.87500000 </v>
   <v>       0.00000000       0.25000000       0.50000000 </v>
   <v>       0.12500000       0.37500000       0.62500000 </v>
   <v>       0.25000000       0.00000000       0.50000000 </v>
   <v>       0.37500000       0.12500000       0.62500000 </v>
   <v>       0.25000000       0.75000000       0.25000000 </v>
   <v>       0.37500000       0.87500000       0.37500000 </v>
   <v>       0.00000000       0.50000000       0.25000000 </v>
   <v>       0.12500000       0.62500000       0.37500000 </v>
   <v>       0.00000000       0.75000000       0.00000000 </v>
   <v>       0.12500000       0.87500000       0.12500000 </v>
   <v>       0.25000000       0.50000000       0.00000000 </v>
   <v>       0.37500000       0.62500000       0.12500000 </v>
   <v>       0.25000000       0.75000000       0.75000000 </v>
   <v>       0.37500000       0.87500000       0.87500000 </v>
   <v>       0.00000000       0.50000000       0.75000000 </v>
   <v>       0.12500000       0.62500000       0.87500000 </v>
   <v>       0.00000000       0.75000000       0.50000000 </v>
   <v>       0.12500000       0.87500000       0.62500000 </v>
   <v>       0.25000000       0.50000000       0.50000000 </v>
   <v>       0.37500000       0.62500000       0.62500000 </v>
   <v>       0.75000000       0.25000000       0.25000000 </v>
   <v>       0.87500000       0.37500000       0.37500000 </v>
   <v>       0.50000000       0.00000000       0.25000000 </v>
   <v>       0.62500000       0.12500000       0.37500000 </v>
   <v>       0.50000000       0.25000000       0.00000000 </v>
   <v>       0.62500000       0.37500000       0.12500000 </v>
   <v>       0.75000000       0.00000000       0.00000000 </v>
   <v>       0.87500000       0.12500000       0.12500000 </v>
   <v>       0.75000000       0.25000000       0.75000000 </v>
   <v>       0.87500000       0.37500000       0.87500000 </v>
   <v>       0.50000000       0.00000000       0.75000000 </v>
   <v>       0.62500000       0.12500000       0.87500000 </v>
   <v>       0.50000000       0.25000000       0.50000000 </v>
   <v>       0.62500000       0.37500000       0.62500000 </v>
   <v>       0.75000000       0.00000000       0.50000000 </v>
   <v>       0.87500000       0.12500000       0.62500000 </v>
   <v>       0.75000000       0.75000000       0.25000000 </v>
   <v>       0.87500000       0.87500000       0.37500000 </v>
   <v>       0.50000000       0.50000000       0.25000000 </v>
   <v>       0.62500000       0.62500000       0.37500000 </v>
   <v>       0.50000000       0.75000000       0.00000000 </v>
   <v>       0.62500000       0.87500000       0.12500000 </v>
   <v>       0.75000000       0.50000000       0.00000000 </v>
   <v>       0.87500000       0.62500000       0.12500000 </v>
   <v>       0.75000000       0.75000000       0.75000000 </v>
   <v>       0.87500000       0.87500000       0.87500000 </v>
   <v>       0.50000000       0.50000000       0.75000000 </v>
   <v>       0.62500000       0.62500000       0.87500000 </v>
   <v>       0.50000000       0.75000000       0.50000000 </v>
   <v>       0.62500000       0.87500000       0.62500000 </v>
   <v>       0.75000000       0.50000000       0.50000000 </v>
   <v>       0.87500000       0.62500000       0.62500000 </v>
  </varray>
 </structure>
</modeling>
