 running on    2 total cores
 distrk:  each k-point on    2 cores,    1 groups
 distr:  one band on    1 cores,    2 groups
 vasp.6.3.0 20Jan22 (build Aug 13 2022 13:28:16) complex                        
  
 POSCAR found type information on POSCAR Si
 POSCAR found :  1 types and      64 ions
 scaLAPACK will be used
 -----------------------------------------------------------------------------
|                                                                             |
|           W    W    AA    RRRRR   N    N  II  N    N   GGGG   !!!           |
|           W    W   A  A   R    R  NN   N  II  NN   N  G    G  !!!           |
|           W    W  A    A  R    R  N N  N  II  N N  N  G       !!!           |
|           W WW W  AAAAAA  RRRRR   N  N N  II  N  N N  G  GGG   !            |
|           WW  WW  A    A  R   R   N   NN  II  N   NN  G    G                |
|           W    W  A    A  R    R  N    N  II  N    N   GGGG   !!!           |
|                                                                             |
|     The value NPAR = 4 specified in the INCAR file was overwritten,         |
|     because it was not compatible with the 2 processes available:           |
|     NPAR = 2                                                                |
|     was used instead, please check that this makes sense for your           |
|     machine.                                                                |
|                                                                             |
 -----------------------------------------------------------------------------

 -----------------------------------------------------------------------------
|                                                                             |
|               ----> ADVICE to this user running VASP <----                  |
|                                                                             |
|     You have a (more or less) 'large supercell' and for larger cells it     |
|     might be more efficient to use real-space projection operators.         |
|     Therefore, try LREAL= Auto in the INCAR file.                           |
|     Mind: For very accurate calculation, you might also keep the            |
|     reciprocal projection scheme (i.e. LREAL=.FALSE.).                      |
|                                                                             |
 -----------------------------------------------------------------------------

 -----------------------------------------------------------------------------
|                                                                             |
|               ----> ADVICE to this user running VASP <----                  |
|                                                                             |
|     You enforced a specific xc type in the INCAR file but a different       |
|     type was found in the POTCAR file.                                      |
|     I HOPE YOU KNOW WHAT YOU ARE DOING!                                     |
|                                                                             |
 -----------------------------------------------------------------------------

 LDA part: xc-table for Pade appr. of Perdew
 POSCAR, INCAR and KPOINTS ok, starting setup
 FFT: planning ... GRIDC
 FFT: planning ... GRID_SOFT
 FFT: planning ... GRID
 WAVECAR not read
 entering main loop
       N       E                     dE             d eps       ncg     rms          rms(c)
DAV:   1     0.462417049449E+03    0.46242E+03   -0.72791E+04  1296   0.883E+02
DAV:   2    -0.321583175507E+03   -0.78400E+03   -0.74320E+03  1576   0.158E+02
DAV:   3    -0.373221536662E+03   -0.51638E+02   -0.50826E+02  1568   0.378E+01
DAV:   4    -0.374461621194E+03   -0.12401E+01   -0.12313E+01  1552   0.701E+00
DAV:   5    -0.374506511915E+03   -0.44891E-01   -0.44818E-01  1542   0.118E+00    0.282E+01
DAV:   6    -0.369680814231E+03    0.48257E+01   -0.25850E+00  1424   0.248E+00    0.170E+01
DAV:   7    -0.367480930599E+03    0.21999E+01   -0.52328E+00  1424   0.357E+00    0.980E-01
DAV:   8    -0.367488862644E+03   -0.79320E-02   -0.27389E-01  1424   0.985E-01    0.354E-01
DAV:   9    -0.367490277588E+03   -0.14149E-02   -0.73672E-03  1564   0.167E-01    0.308E-01
DAV:  10    -0.367491134224E+03   -0.85664E-03   -0.21941E-03  1384   0.878E-02    0.231E-01
DAV:  11    -0.367491186833E+03   -0.52609E-04   -0.95807E-05  1474   0.200E-02    0.716E-03
DAV:  12    -0.367491189639E+03   -0.28055E-05   -0.39221E-06  1488   0.400E-03    0.882E-03
DAV:  13    -0.367491187970E+03    0.16684E-05   -0.89494E-07  1446   0.190E-03    0.598E-04
