  64  64   0   0
  0.2197554E+02  0.1120400E-08  0.1120400E-08  0.1120400E-08  0.5000000E-15
  1.000000000000000E-004
  CAR 
 unknown system                          
     11.06072848    -22.84655072  301     -0.55251465      1.00000000
    -22.847  0.0000E+00  0.0000E+00
    -22.734  0.0000E+00  0.0000E+00
    -22.621  0.0000E+00  0.0000E+00
    -22.507  0.0000E+00  0.0000E+00
    -22.394  0.0000E+00  0.0000E+00
    -22.281  0.0000E+00  0.0000E+00
    -22.168  0.0000E+00  0.0000E+00
    -22.055  0.0000E+00  0.0000E+00
    -21.942  0.0000E+00  0.0000E+00
    -21.829  0.0000E+00  0.0000E+00
    -21.716  0.0000E+00  0.0000E+00
    -21.603  0.0000E+00  0.0000E+00
    -21.490  0.0000E+00  0.0000E+00
    -21.377  0.4885E-05  0.5522E-06
    -21.264  0.1425E+04  0.1611E+03
    -21.151  0.2735E+03  0.1920E+03
    -21.038  0.0000E+00  0.1920E+03
    -20.925  0.0000E+00  0.1920E+03
    -20.812  0.0000E+00  0.1920E+03
    -20.699  0.0000E+00  0.1920E+03
    -20.586  0.0000E+00  0.1920E+03
    -20.473  0.0000E+00  0.1920E+03
    -20.360  0.0000E+00  0.1920E+03
    -20.247  0.0000E+00  0.1920E+03
    -20.134  0.0000E+00  0.1920E+03
    -20.021  0.0000E+00  0.1920E+03
    -19.908  0.0000E+00  0.1920E+03
    -19.795  0.0000E+00  0.1920E+03
    -19.682  0.0000E+00  0.1920E+03
    -19.569  0.0000E+00  0.1920E+03
    -19.456  0.0000E+00  0.1920E+03
    -19.343  0.0000E+00  0.1920E+03
    -19.230  0.0000E+00  0.1920E+03
    -19.117  0.0000E+00  0.1920E+03
    -19.004  0.0000E+00  0.1920E+03
    -18.891  0.0000E+00  0.1920E+03
    -18.778  0.0000E+00  0.1920E+03
    -18.665  0.0000E+00  0.1920E+03
    -18.552  0.0000E+00  0.1920E+03
    -18.439  0.0000E+00  0.1920E+03
    -18.326  0.0000E+00  0.1920E+03
    -18.213  0.0000E+00  0.1920E+03
    -18.100  0.0000E+00  0.1920E+03
    -17.987  0.0000E+00  0.1920E+03
    -17.873  0.0000E+00  0.1920E+03
    -17.760  0.0000E+00  0.1920E+03
    -17.647  0.0000E+00  0.1920E+03
    -17.534  0.0000E+00  0.1920E+03
    -17.421  0.0000E+00  0.1920E+03
    -17.308  0.0000E+00  0.1920E+03
    -17.195  0.0000E+00  0.1920E+03
    -17.082  0.0000E+00  0.1920E+03
    -16.969  0.0000E+00  0.1920E+03
    -16.856  0.0000E+00  0.1920E+03
    -16.743  0.0000E+00  0.1920E+03
    -16.630  0.0000E+00  0.1920E+03
    -16.517  0.0000E+00  0.1920E+03
    -16.404  0.0000E+00  0.1920E+03
    -16.291  0.0000E+00  0.1920E+03
    -16.178  0.0000E+00  0.1920E+03
    -16.065  0.0000E+00  0.1920E+03
    -15.952  0.0000E+00  0.1920E+03
    -15.839  0.0000E+00  0.1920E+03
    -15.726  0.0000E+00  0.1920E+03
    -15.613  0.0000E+00  0.1920E+03
    -15.500  0.0000E+00  0.1920E+03
    -15.387  0.0000E+00  0.1920E+03
    -15.274  0.0000E+00  0.1920E+03
    -15.161  0.0000E+00  0.1920E+03
    -15.048  0.0000E+00  0.1920E+03
    -14.935  0.0000E+00  0.1920E+03
    -14.822  0.0000E+00  0.1920E+03
    -14.709  0.0000E+00  0.1920E+03
    -14.596  0.0000E+00  0.1920E+03
    -14.483  0.0000E+00  0.1920E+03
    -14.370  0.0000E+00  0.1920E+03
    -14.257  0.0000E+00  0.1920E+03
    -14.144  0.0000E+00  0.1920E+03
    -14.031  0.0000E+00  0.1920E+03
    -13.918  0.0000E+00  0.1920E+03
    -13.805  0.0000E+00  0.1920E+03
    -13.692  0.0000E+00  0.1920E+03
    -13.579  0.0000E+00  0.1920E+03
    -13.466  0.3536E-13  0.1920E+03
    -13.353  0.1451E+01  0.1922E+03
    -13.239  0.2206E+02  0.1947E+03
    -13.126  0.4791E+02  0.2001E+03
    -13.013  0.1330E+03  0.2151E+03
    -12.900  0.3592E+03  0.2557E+03
    -12.787  0.2647E+01  0.2560E+03
    -12.674  0.0000E+00  0.2560E+03
    -12.561  0.0000E+00  0.2560E+03
    -12.448  0.0000E+00  0.2560E+03
    -12.335  0.0000E+00  0.2560E+03
    -12.222  0.0000E+00  0.2560E+03
    -12.109  0.0000E+00  0.2560E+03
    -11.996  0.0000E+00  0.2560E+03
    -11.883  0.0000E+00  0.2560E+03
    -11.770  0.0000E+00  0.2560E+03
    -11.657  0.0000E+00  0.2560E+03
    -11.544  0.0000E+00  0.2560E+03
    -11.431  0.0000E+00  0.2560E+03
    -11.318  0.0000E+00  0.2560E+03
    -11.205  0.0000E+00  0.2560E+03
    -11.092  0.0000E+00  0.2560E+03
    -10.979  0.0000E+00  0.2560E+03
    -10.866  0.0000E+00  0.2560E+03
    -10.753  0.0000E+00  0.2560E+03
    -10.640  0.0000E+00  0.2560E+03
    -10.527  0.0000E+00  0.2560E+03
    -10.414  0.0000E+00  0.2560E+03
    -10.301  0.0000E+00  0.2560E+03
    -10.188  0.0000E+00  0.2560E+03
    -10.075  0.0000E+00  0.2560E+03
     -9.962  0.0000E+00  0.2560E+03
     -9.849  0.0000E+00  0.2560E+03
     -9.736  0.0000E+00  0.2560E+03
     -9.623  0.0000E+00  0.2560E+03
     -9.510  0.0000E+00  0.2560E+03
     -9.397  0.0000E+00  0.2560E+03
     -9.284  0.0000E+00  0.2560E+03
     -9.171  0.0000E+00  0.2560E+03
     -9.058  0.0000E+00  0.2560E+03
     -8.945  0.0000E+00  0.2560E+03
     -8.832  0.0000E+00  0.2560E+03
     -8.719  0.0000E+00  0.2560E+03
     -8.605  0.0000E+00  0.2560E+03
     -8.492  0.0000E+00  0.2560E+03
     -8.379  0.0000E+00  0.2560E+03
     -8.266  0.0000E+00  0.2560E+03
     -8.153  0.0000E+00  0.2560E+03
     -8.040  0.0000E+00  0.2560E+03
     -7.927  0.0000E+00  0.2560E+03
     -7.814  0.0000E+00  0.2560E+03
     -7.701  0.0000E+00  0.2560E+03
     -7.588  0.0000E+00  0.2560E+03
     -7.475  0.0000E+00  0.2560E+03
     -7.362  0.0000E+00  0.2560E+03
     -7.249  0.0000E+00  0.2560E+03
     -7.136  0.0000E+00  0.2560E+03
     -7.023  0.0000E+00  0.2560E+03
     -6.910  0.0000E+00  0.2560E+03
     -6.797  0.0000E+00  0.2560E+03
     -6.684  0.0000E+00  0.2560E+03
     -6.571  0.0000E+00  0.2560E+03
     -6.458  0.0000E+00  0.2560E+03
     -6.345  0.0000E+00  0.2560E+03
     -6.232  0.0000E+00  0.2560E+03
     -6.119  0.0000E+00  0.2560E+03
     -6.006  0.0000E+00  0.2560E+03
     -5.893  0.0000E+00  0.2560E+03
     -5.780  0.0000E+00  0.2560E+03
     -5.667  0.0000E+00  0.2560E+03
     -5.554  0.0000E+00  0.2560E+03
     -5.441  0.0000E+00  0.2560E+03
     -5.328  0.0000E+00  0.2560E+03
     -5.215  0.0000E+00  0.2560E+03
     -5.102  0.0000E+00  0.2560E+03
     -4.989  0.0000E+00  0.2560E+03
     -4.876  0.0000E+00  0.2560E+03
     -4.763  0.0000E+00  0.2560E+03
     -4.650  0.0000E+00  0.2560E+03
     -4.537  0.0000E+00  0.2560E+03
     -4.424  0.0000E+00  0.2560E+03
     -4.311  0.0000E+00  0.2560E+03
     -4.198  0.0000E+00  0.2560E+03
     -4.085  0.0000E+00  0.2560E+03
     -3.971  0.0000E+00  0.2560E+03
     -3.858  0.0000E+00  0.2560E+03
     -3.745  0.0000E+00  0.2560E+03
     -3.632  0.0000E+00  0.2560E+03
     -3.519  0.0000E+00  0.2560E+03
     -3.406  0.0000E+00  0.2560E+03
     -3.293  0.0000E+00  0.2560E+03
     -3.180  0.0000E+00  0.2560E+03
     -3.067  0.0000E+00  0.2560E+03
     -2.954  0.0000E+00  0.2560E+03
     -2.841  0.0000E+00  0.2560E+03
     -2.728  0.2053E+00  0.2560E+03
     -2.615  0.8642E+01  0.2570E+03
     -2.502  0.2988E+02  0.2604E+03
     -2.389  0.8036E+02  0.2695E+03
     -2.276  0.8540E+02  0.2791E+03
     -2.163  0.1529E+03  0.2964E+03
     -2.050  0.6951E+02  0.3043E+03
     -1.937  0.5823E+02  0.3108E+03
     -1.824  0.6558E+02  0.3182E+03
     -1.711  0.6640E+02  0.3257E+03
     -1.598  0.9066E-09  0.3258E+03
     -1.485  0.8424E+02  0.3353E+03
     -1.372  0.1863E+03  0.3563E+03
     -1.259  0.2210E+02  0.3588E+03
     -1.146  0.2597E+03  0.3882E+03
     -1.033  0.1329E+03  0.4032E+03
     -0.920  0.2615E+03  0.4328E+03
     -0.807  0.6041E+02  0.4396E+03
     -0.694  0.6794E+02  0.4473E+03
     -0.581  0.6521E+01  0.4480E+03
     -0.468  0.0000E+00  0.4480E+03
     -0.355  0.0000E+00  0.4480E+03
     -0.242  0.0000E+00  0.4480E+03
     -0.129  0.0000E+00  0.4480E+03
     -0.016  0.0000E+00  0.4480E+03
      0.097  0.0000E+00  0.4480E+03
      0.210  0.0000E+00  0.4480E+03
      0.323  0.0000E+00  0.4480E+03
      0.436  0.0000E+00  0.4480E+03
      0.549  0.0000E+00  0.4480E+03
      0.662  0.0000E+00  0.4480E+03
      0.776  0.0000E+00  0.4480E+03
      0.889  0.0000E+00  0.4480E+03
      1.002  0.0000E+00  0.4480E+03
      1.115  0.0000E+00  0.4480E+03
      1.228  0.0000E+00  0.4480E+03
      1.341  0.0000E+00  0.4480E+03
      1.454  0.0000E+00  0.4480E+03
      1.567  0.0000E+00  0.4480E+03
      1.680  0.0000E+00  0.4480E+03
      1.793  0.0000E+00  0.4480E+03
      1.906  0.0000E+00  0.4480E+03
      2.019  0.0000E+00  0.4480E+03
      2.132  0.0000E+00  0.4480E+03
      2.245  0.0000E+00  0.4480E+03
      2.358  0.0000E+00  0.4480E+03
      2.471  0.0000E+00  0.4480E+03
      2.584  0.0000E+00  0.4480E+03
      2.697  0.0000E+00  0.4480E+03
      2.810  0.0000E+00  0.4480E+03
      2.923  0.0000E+00  0.4480E+03
      3.036  0.0000E+00  0.4480E+03
      3.149  0.0000E+00  0.4480E+03
      3.262  0.0000E+00  0.4480E+03
      3.375  0.0000E+00  0.4480E+03
      3.488  0.0000E+00  0.4480E+03
      3.601  0.0000E+00  0.4480E+03
      3.714  0.0000E+00  0.4480E+03
      3.827  0.0000E+00  0.4480E+03
      3.940  0.0000E+00  0.4480E+03
      4.053  0.0000E+00  0.4480E+03
      4.166  0.0000E+00  0.4480E+03
      4.279  0.1756E-04  0.4480E+03
      4.392  0.2212E+01  0.4482E+03
      4.505  0.0000E+00  0.4482E+03
      4.618  0.0000E+00  0.4482E+03
      4.731  0.0000E+00  0.4482E+03
      4.844  0.0000E+00  0.4482E+03
      4.957  0.3276E-04  0.4483E+03
      5.070  0.1327E+02  0.4497E+03
      5.183  0.2387E-02  0.4498E+03
      5.296  0.0000E+00  0.4498E+03
      5.410  0.0000E+00  0.4498E+03
      5.523  0.3153E+01  0.4501E+03
      5.636  0.2339E+02  0.4527E+03
      5.749  0.1033E-06  0.4528E+03
      5.862  0.1736E+02  0.4547E+03
      5.975  0.3348E+00  0.4548E+03
      6.088  0.0000E+00  0.4548E+03
      6.201  0.0000E+00  0.4548E+03
      6.314  0.9186E-03  0.4548E+03
      6.427  0.1418E+02  0.4564E+03
      6.540  0.7937E+01  0.4573E+03
      6.653  0.4410E+02  0.4622E+03
      6.766  0.6205E+02  0.4692E+03
      6.879  0.5940E+02  0.4760E+03
      6.992  0.1266E+02  0.4774E+03
      7.105  0.9492E+00  0.4775E+03
      7.218  0.5197E+01  0.4781E+03
      7.331  0.1795E+01  0.4783E+03
      7.444  0.8179E+02  0.4875E+03
      7.557  0.1680E+03  0.5065E+03
      7.670  0.1993E+01  0.5068E+03
      7.783  0.2652E+02  0.5097E+03
      7.896  0.2538E+00  0.5098E+03
      8.009  0.5283E+02  0.5157E+03
      8.122  0.7492E-02  0.5158E+03
      8.235  0.1413E+02  0.5173E+03
      8.348  0.9202E+02  0.5277E+03
      8.461  0.4084E-05  0.5278E+03
      8.574  0.1519E+03  0.5449E+03
      8.687  0.7331E+01  0.5458E+03
      8.800  0.1245E-05  0.5458E+03
      8.913  0.8381E+02  0.5552E+03
      9.026  0.1234E+03  0.5692E+03
      9.139  0.2953E+01  0.5695E+03
      9.252  0.2575E+02  0.5724E+03
      9.365  0.1849E+02  0.5745E+03
      9.478  0.1174E+01  0.5746E+03
      9.591  0.1210E+02  0.5760E+03
      9.704  0.0000E+00  0.5760E+03
      9.817  0.0000E+00  0.5760E+03
      9.930  0.0000E+00  0.5760E+03
     10.044  0.0000E+00  0.5760E+03
     10.157  0.0000E+00  0.5760E+03
     10.270  0.0000E+00  0.5760E+03
     10.383  0.0000E+00  0.5760E+03
     10.496  0.0000E+00  0.5760E+03
     10.609  0.0000E+00  0.5760E+03
     10.722  0.0000E+00  0.5760E+03
     10.835  0.0000E+00  0.5760E+03
     10.948  0.0000E+00  0.5760E+03
     11.061  0.0000E+00  0.5760E+03
