       N       E                     dE             d eps       ncg     rms          rms(c)
DAV:   1     0.431105585455E+04    0.43111E+04   -0.17191E+05  3456   0.125E+03
DAV:   2     0.360460022270E+03   -0.39506E+04   -0.37569E+04  3840   0.367E+02
DAV:   3    -0.206490461772E+03   -0.56695E+03   -0.56269E+03  4224   0.155E+02
DAV:   4    -0.228203074828E+03   -0.21713E+02   -0.21615E+02  4160   0.329E+01
DAV:   5    -0.229007580766E+03   -0.80451E+00   -0.80323E+00  4416   0.613E+00    0.106E+01
DAV:   6    -0.224137166204E+03    0.48704E+01   -0.95184E+00  4288   0.532E+00    0.777E+00
DAV:   7    -0.223777387485E+03    0.35978E+00   -0.20544E+00  4672   0.233E+00    0.534E+00
DAV:   8    -0.223902580642E+03   -0.12519E+00   -0.26717E-01  4032   0.123E+00    0.140E+00
DAV:   9    -0.223897227493E+03    0.53531E-02   -0.11059E-02  4320   0.251E-01    0.597E-01
DAV:  10    -0.223901567968E+03   -0.43405E-02   -0.17931E-02  4000   0.223E-01    0.289E-01
DAV:  11    -0.223900850479E+03    0.71749E-03   -0.16222E-03  4192   0.803E-02    0.776E-02
DAV:  12    -0.223900819428E+03    0.31051E-04   -0.14371E-04  4544   0.230E-02    0.929E-03
DAV:  13    -0.223900826020E+03   -0.65927E-05   -0.12554E-05  4064   0.674E-03    0.226E-03
DAV:  14    -0.223900825548E+03    0.47206E-06   -0.12744E-06  4608   0.254E-03    0.819E-03
DAV:  15    -0.223900826529E+03   -0.98053E-06   -0.41102E-07  3872   0.132E-03    0.314E-03
DAV:  16    -0.223900827148E+03   -0.61961E-06   -0.12938E-07  3872   0.792E-04    0.305E-04
DAV:  17    -0.223900827116E+03    0.32509E-07   -0.55220E-09  2624   0.400E-04    0.196E-04
DAV:  18    -0.223900827102E+03    0.14043E-07   -0.32739E-09  2528   0.280E-04    0.176E-04
DAV:  19    -0.223900827092E+03    0.97498E-08   -0.23572E-09  2304   0.157E-04
   1 F= -.22390083E+03 E0= -.22390083E+03  d E =-.869009E-16
