 vasp.6.3.2 27Jun22 (build Oct 14 2022 12:13:54) complex                        
  
 executed on             LinuxIFC date 2025.08.28  21:57:05
 running on   32 total cores
 distrk:  each k-point on   32 cores,    1 groups
 distr:  one band on NCORE=   1 cores,   32 groups


--------------------------------------------------------------------------------------------------------


 INCAR:
   ENCUT = 341.213600
   SIGMA = 0.020000
   EDIFF = 1.00e-08
   GGA = PS
   PREC = Accurate
   IALGO = 38
   IBRION = -1
   ISMEAR = 0
   NELMIN = 5
   ADDGRID = .TRUE.
   LCHARG = .FALSE.
   LWAVE = .FALSE.
   LREAL = .FALSE.

 POTCAR:    PAW_PBE Na_pv 19Sep2006               
 POTCAR:    PAW_PBE Cl 06Sep2000                  
 -----------------------------------------------------------------------------
|                                                                             |
|           W    W    AA    RRRRR   N    N  II  N    N   GGGG   !!!           |
|           W    W   A  A   R    R  NN   N  II  NN   N  G    G  !!!           |
|           W    W  A    A  R    R  N N  N  II  N N  N  G       !!!           |
|           W WW W  AAAAAA  RRRRR   N  N N  II  N  N N  G  GGG   !            |
|           WW  WW  A    A  R   R   N   NN  II  N   NN  G    G                |
|           W    W  A    A  R    R  N    N  II  N    N   GGGG   !!!           |
|                                                                             |
|     For optimal performance we recommend to set                             |
|       NCORE = 2 up to number-of-cores-per-socket                            |
|     NCORE specifies how many cores store one orbital (NPAR=cpu/NCORE).      |
|     This setting can greatly improve the performance of VASP for DFT.       |
|     The default, NCORE=1 might be grossly inefficient on modern             |
|     multi-core architectures or massively parallel machines. Do your        |
|     own testing! More info at https://www.vasp.at/wiki/index.php/NCORE      |
|     Unfortunately you need to use the default for GW and RPA                |
|     calculations (for HF NCORE is supported but not extensively tested      |
|     yet).                                                                   |
|                                                                             |
 -----------------------------------------------------------------------------

 POTCAR:    PAW_PBE Na_pv 19Sep2006               
   SHA256 =  6a2f546d9e11350984debacf3dc457d8cffc0868e817d445faca461816a32b94 Na_pv/POTCAR          
   COPYR  = (c) Copyright 19Sep2006 Georg Kresse                                                    
   COPYR  = This file is part of the software VASP. Any use, copying, and all other rights are regul
   COPYR  = If you do not have a valid VASP license, you may not use, copy or distribute this file. 
   VRHFIN =Na: p6s1                                                                                 
   LEXCH  = PE                                                                                      
   EATOM  =   766.0439 eV,   56.3026 Ry                                                             
                                                                                                    
   TITEL  = PAW_PBE Na_pv 19Sep2006                                                                 
   LULTRA =        F    use ultrasoft PP ?                                                          
   IUNSCR =        1    unscreen: 0-lin 1-nonlin 2-no                                               
   RPACOR =    1.800    partial core radius                                                         
   POMASS =   22.990; ZVAL   =    7.000    mass and valenz                                          
   RCORE  =    2.200    outmost cutoff radius                                                       
   RWIGS  =    2.200; RWIGS  =    1.164    wigner-seitz radius (au A)                               
   ENMAX  =  259.561; ENMIN  =  194.671 eV                                                          
   ICORE  =        2    local potential                                                             
   LCOR   =        T    correct aug charges                                                         
   LPAW   =        T    paw PP                                                                      
   EAUG   =  368.056                                                                                
   DEXC   =    0.000                                                                                
   RMAX   =    2.245    core radius for proj-oper                                                   
   RAUG   =    1.300    factor for augmentation sphere                                              
   RDEP   =    2.259    radius for radial grids                                                     
   RDEPT  =    1.738    core radius for aug-charge                                                  
                                                                                                    
   Atomic configuration                                                                             
    5 entries                                                                                       
     n  l   j            E        occ.                                                              
     1  0  0.50     -1033.6933   2.0000                                                             
     2  0  0.50       -56.7526   2.0000                                                             
     2  1  1.50       -28.6721   6.0000                                                             
     3  0  0.50        -2.7440   1.0000                                                             
     3  2  1.50        -1.3606   0.0000                                                             
   Description                                                                                      
     l       E           TYP  RCUT    TYP  RCUT                                                     
     1    -28.6720912     23  2.000                                                                 
     1      6.8029130     23  2.000                                                                 
     0     -2.7439560     23  2.200                                                                 
     0     34.0145650     23  2.200                                                                 
     2     -1.3605826     23  2.200                                                                 
  local pseudopotential read in
  partial core-charges read in
  partial kinetic energy density read in
  atomic valenz-charges read in
  non local Contribution for L=           1  read in
    real space projection operators read in
  non local Contribution for L=           1  read in
    real space projection operators read in
  non local Contribution for L=           0  read in
    real space projection operators read in
  non local Contribution for L=           0  read in
    real space projection operators read in
    PAW grid and wavefunctions read in
 
   number of l-projection  operators is LMAX  =           4
   number of lm-projection operators is LMMAX =           8
 
 POTCAR:    PAW_PBE Cl 06Sep2000                  
   SHA256 =  9f1b6e6ed4247ac726a768b330d26d7667cc3c95a39ff49c1d064c2d9dcce931 Cl/POTCAR             
   COPYR  = (c) Copyright 06Sep2000 Georg Kresse                                                    
   COPYR  = This file is part of the software VASP. Any use, copying, and all other rights are regul
   COPYR  = If you do not have a valid VASP license, you may not use, copy or distribute this file. 
   VRHFIN =Cl: s2p5                                                                                 
   LEXCH  = PE                                                                                      
   EATOM  =   409.7259 eV,   30.1140 Ry                                                             
                                                                                                    
   TITEL  = PAW_PBE Cl 06Sep2000                                                                    
   LULTRA =        F    use ultrasoft PP ?                                                          
   IUNSCR =        1    unscreen: 0-lin 1-nonlin 2-no                                               
   RPACOR =    1.500    partial core radius                                                         
   POMASS =   35.453; ZVAL   =    7.000    mass and valenz                                          
   RCORE  =    1.900    outmost cutoff radius                                                       
   RWIGS  =    2.100; RWIGS  =    1.111    wigner-seitz radius (au A)                               
   ENMAX  =  262.472; ENMIN  =  196.854 eV                                                          
   ICORE  =        2    local potential                                                             
   LCOR   =        T    correct aug charges                                                         
   LPAW   =        T    paw PP                                                                      
   EAUG   =  356.192                                                                                
   DEXC   =    0.000                                                                                
   RMAX   =    1.945    core radius for proj-oper                                                   
   RAUG   =    1.300    factor for augmentation sphere                                              
   RDEP   =    2.020    radius for radial grids                                                     
   RDEPT  =    1.678    core radius for aug-charge                                                  
                                                                                                    
   Atomic configuration                                                                             
    6 entries                                                                                       
     n  l   j            E        occ.                                                              
     1  0  0.50     -2751.1850   2.0000                                                             
     2  0  0.50      -252.6861   2.0000                                                             
     2  1  1.50      -191.6157   6.0000                                                             
     3  0  0.50       -20.6916   2.0000                                                             
     3  1  0.50        -8.5949   5.0000                                                             
     3  2  1.50        -8.1635   0.0000                                                             
   Description                                                                                      
     l       E           TYP  RCUT    TYP  RCUT                                                     
     0    -20.6915656     23  1.900                                                                 
     0    -22.0521482     23  1.900                                                                 
     1     -8.5948577     23  1.900                                                                 
     1     -5.3847331     23  1.900                                                                 
     2     -8.1634956     23  1.900                                                                 
  local pseudopotential read in
  partial core-charges read in
  partial kinetic energy density read in
  atomic valenz-charges read in
  non local Contribution for L=           0  read in
    real space projection operators read in
  non local Contribution for L=           0  read in
    real space projection operators read in
  non local Contribution for L=           1  read in
    real space projection operators read in
  non local Contribution for L=           1  read in
    real space projection operators read in
    PAW grid and wavefunctions read in
 
   number of l-projection  operators is LMAX  =           4
   number of lm-projection operators is LMMAX =           8
 
 -----------------------------------------------------------------------------
|                                                                             |
|               ----> ADVICE to this user running VASP <----                  |
|                                                                             |
|     You have a (more or less) 'large supercell' and for larger cells it     |
|     might be more efficient to use real-space projection operators.         |
|     Therefore, try LREAL= Auto in the INCAR file.                           |
|     Mind: For very accurate calculation, you might also keep the            |
|     reciprocal projection scheme (i.e. LREAL=.FALSE.).                      |
|                                                                             |
 -----------------------------------------------------------------------------

 -----------------------------------------------------------------------------
|                                                                             |
|               ----> ADVICE to this user running VASP <----                  |
|                                                                             |
|     You enforced a specific xc type in the INCAR file but a different       |
|     type was found in the POTCAR file.                                      |
|     I HOPE YOU KNOW WHAT YOU ARE DOING!                                     |
|                                                                             |
 -----------------------------------------------------------------------------

  PAW_PBE Na_pv 19Sep2006               :
 energy of atom  1       EATOM= -766.0439
 kinetic energy error for atom=    0.0189 (will be added to EATOM!!)
  PAW_PBE Cl 06Sep2000                  :
 energy of atom  2       EATOM= -409.7259
 kinetic energy error for atom=    0.0106 (will be added to EATOM!!)
 
 
 POSCAR: Na Cl
  positions in cartesian coordinates
  No initial velocities read in
 exchange correlation table for  LEXCH =       14
   RHO(1)=    0.500       N(1)  =     2000
   RHO(2)=  100.500       N(2)  =     4000
 


--------------------------------------------------------------------------------------------------------


 ion  position               nearest neighbor table
   1  0.003  0.003  0.000-
   2  0.250  0.250  0.000-
   3  0.250  0.000  0.250-
   4  0.000  0.250  0.250-
   5  0.000  0.000  0.500-
   6  0.250  0.250  0.500-
   7  0.250  0.000  0.750-
   8  0.000  0.250  0.750-
   9  0.000  0.500  0.000-
  10  0.250  0.750  0.000-
  11  0.250  0.500  0.250-
  12  0.000  0.750  0.250-
  13  0.000  0.500  0.500-
  14  0.250  0.750  0.500-
  15  0.250  0.500  0.750-
  16  0.000  0.750  0.750-
  17  0.500  0.000  0.000-
  18  0.750  0.250  0.000-
  19  0.750  0.000  0.250-
  20  0.500  0.250  0.250-
  21  0.500  0.000  0.500-
  22  0.750  0.250  0.500-
  23  0.750  0.000  0.750-
  24  0.500  0.250  0.750-
  25  0.500  0.500  0.000-
  26  0.750  0.750  0.000-
  27  0.750  0.500  0.250-
  28  0.500  0.750  0.250-
  29  0.500  0.500  0.500-
  30  0.750  0.750  0.500-
  31  0.750  0.500  0.750-
  32  0.500  0.750  0.750-
  33  0.250  0.250  0.250-
  34  0.000  0.000  0.250-
  35  0.000  0.250  0.000-
  36  0.250  0.000  0.000-
  37  0.250  0.250  0.750-
  38  0.000  0.000  0.750-
  39  0.000  0.250  0.500-
  40  0.250  0.000  0.500-
  41  0.250  0.750  0.250-
  42  0.000  0.500  0.250-
  43  0.000  0.750  0.000-
  44  0.250  0.500  0.000-
  45  0.250  0.750  0.750-
  46  0.000  0.500  0.750-
  47  0.000  0.750  0.500-
  48  0.250  0.500  0.500-
  49  0.750  0.250  0.250-
  50  0.500  0.000  0.250-
  51  0.500  0.250  0.000-
  52  0.750  0.000  0.000-
  53  0.750  0.250  0.750-
  54  0.500  0.000  0.750-
  55  0.500  0.250  0.500-
  56  0.750  0.000  0.500-
  57  0.750  0.750  0.250-
  58  0.500  0.500  0.250-
  59  0.500  0.750  0.000-
  60  0.750  0.500  0.000-
  61  0.750  0.750  0.750-
  62  0.500  0.500  0.750-
  63  0.500  0.750  0.500-
  64  0.750  0.500  0.500-
 
  LATTYP: Found a simple cubic cell.
 ALAT       =    11.2040023600
  
  Lattice vectors:
  
 A1 = (  11.2040023600,   0.0000000000,   0.0000000000)
 A2 = (   0.0000000000,  11.2040023600,   0.0000000000)
 A3 = (   0.0000000000,   0.0000000000,  11.2040023600)


Analysis of symmetry for initial positions (statically):
=====================================================================
 Subroutine PRICEL returns:
 Original cell was already a primitive cell.
 

 Routine SETGRP: Setting up the symmetry group for a 
 simple cubic supercell.


 Subroutine GETGRP returns: Found  4 space group operations
 (whereof  4 operations were pure point group operations)
 out of a pool of 48 trial point group operations.


The static configuration has the point symmetry C_2v.


Analysis of symmetry for dynamics (positions and initial velocities):
=====================================================================
 Subroutine PRICEL returns:
 Original cell was already a primitive cell.
 

 Routine SETGRP: Setting up the symmetry group for a 
 simple cubic supercell.


 Subroutine GETGRP returns: Found  4 space group operations
 (whereof  4 operations were pure point group operations)
 out of a pool of 48 trial point group operations.


The dynamic configuration has the point symmetry C_2v.


 Subroutine INISYM returns: Found  4 space group operations
 (whereof  4 operations are pure point group operations),
 and found     1 'primitive' translations


----------------------------------------------------------------------------------------

                                     Primitive cell                                     

  volume of cell :    1406.4347

  direct lattice vectors                    reciprocal lattice vectors
    11.204002360  0.000000000  0.000000000     0.089253819  0.000000000  0.000000000
     0.000000000 11.204002360  0.000000000     0.000000000  0.089253819  0.000000000
     0.000000000  0.000000000 11.204002360     0.000000000  0.000000000  0.089253819

  length of vectors
    11.204002360 11.204002360 11.204002360     0.089253819  0.089253819  0.089253819

  position of ions in fractional coordinates (direct lattice)
     0.002677615  0.002677615  0.000000000
     0.250000000  0.250000000  0.000000000
     0.250000000  0.000000000  0.250000000
     0.000000000  0.250000000  0.250000000
     0.000000000  0.000000000  0.500000000
     0.250000000  0.250000000  0.500000000
     0.250000000  0.000000000  0.750000000
     0.000000000  0.250000000  0.750000000
     0.000000000  0.500000000  0.000000000
     0.250000000  0.750000000  0.000000000
     0.250000000  0.500000000  0.250000000
     0.000000000  0.750000000  0.250000000
     0.000000000  0.500000000  0.500000000
     0.250000000  0.750000000  0.500000000
     0.250000000  0.500000000  0.750000000
     0.000000000  0.750000000  0.750000000
     0.500000000  0.000000000  0.000000000
     0.750000000  0.250000000  0.000000000
     0.750000000  0.000000000  0.250000000
     0.500000000  0.250000000  0.250000000
     0.500000000  0.000000000  0.500000000
     0.750000000  0.250000000  0.500000000
     0.750000000  0.000000000  0.750000000
     0.500000000  0.250000000  0.750000000
     0.500000000  0.500000000  0.000000000
     0.750000000  0.750000000  0.000000000
     0.750000000  0.500000000  0.250000000
     0.500000000  0.750000000  0.250000000
     0.500000000  0.500000000  0.500000000
     0.750000000  0.750000000  0.500000000
     0.750000000  0.500000000  0.750000000
     0.500000000  0.750000000  0.750000000
     0.250000000  0.250000000  0.250000000
     0.000000000  0.000000000  0.250000000
     0.000000000  0.250000000  0.000000000
     0.250000000  0.000000000  0.000000000
     0.250000000  0.250000000  0.750000000
     0.000000000  0.000000000  0.750000000
     0.000000000  0.250000000  0.500000000
     0.250000000  0.000000000  0.500000000
     0.250000000  0.750000000  0.250000000
     0.000000000  0.500000000  0.250000000
     0.000000000  0.750000000  0.000000000
     0.250000000  0.500000000  0.000000000
     0.250000000  0.750000000  0.750000000
     0.000000000  0.500000000  0.750000000
     0.000000000  0.750000000  0.500000000
     0.250000000  0.500000000  0.500000000
     0.750000000  0.250000000  0.250000000
     0.500000000  0.000000000  0.250000000
     0.500000000  0.250000000  0.000000000
     0.750000000  0.000000000  0.000000000
     0.750000000  0.250000000  0.750000000
     0.500000000  0.000000000  0.750000000
     0.500000000  0.250000000  0.500000000
     0.750000000  0.000000000  0.500000000
     0.750000000  0.750000000  0.250000000
     0.500000000  0.500000000  0.250000000
     0.500000000  0.750000000  0.000000000
     0.750000000  0.500000000  0.000000000
     0.750000000  0.750000000  0.750000000
     0.500000000  0.500000000  0.750000000
     0.500000000  0.750000000  0.500000000
     0.750000000  0.500000000  0.500000000

  ion indices of the primitive-cell ions
   primitive index   ion index
                 1           1
                 2           2
                 3           3
                 4           4
                 5           5
                 6           6
                 7           7
                 8           8
                 9           9
                10          10
                11          11
                12          12
                13          13
                14          14
                15          15
                16          16
                17          17
                18          18
                19          19
                20          20
                21          21
                22          22
                23          23
                24          24
                25          25
                26          26
                27          27
                28          28
                29          29
                30          30
                31          31
                32          32
                33          33
                34          34
                35          35
                36          36
                37          37
                38          38
                39          39
                40          40
                41          41
                42          42
                43          43
                44          44
                45          45
                46          46
                47          47
                48          48
                49          49
                50          50
                51          51
                52          52
                53          53
                54          54
                55          55
                56          56
                57          57
                58          58
                59          59
                60          60
                61          61
                62          62
                63          63
                64          64

----------------------------------------------------------------------------------------

 
 
 KPOINTS: KPOINTS created by Atomic Simulation Env

Automatic generation of k-mesh.
 Grid dimensions read from file:
 generate k-points for:    2    2    2

 Generating k-lattice:

  Cartesian coordinates                     Fractional coordinates (reciprocal lattice)
     0.044626910  0.000000000  0.000000000     0.500000000  0.000000000  0.000000000
     0.000000000  0.044626910  0.000000000     0.000000000  0.500000000  0.000000000
     0.000000000  0.000000000  0.044626910     0.000000000  0.000000000  0.500000000

  Length of vectors
     0.044626910  0.044626910  0.044626910

  Shift w.r.t. Gamma in fractional coordinates (k-lattice)
     0.000000000  0.000000000  0.000000000

 
 Subroutine IBZKPT returns following result:
 ===========================================
 
 Found      6 irreducible k-points:
 
 Following reciprocal coordinates:
            Coordinates               Weight
  0.000000  0.000000  0.000000      1.000000
  0.500000  0.000000  0.000000      2.000000
  0.000000  0.000000  0.500000      1.000000
  0.500000  0.500000  0.000000      1.000000
  0.000000  0.500000  0.500000      2.000000
  0.500000  0.500000  0.500000      1.000000
 
 Following cartesian coordinates:
            Coordinates               Weight
  0.000000  0.000000  0.000000      1.000000
  0.044627  0.000000  0.000000      2.000000
  0.000000  0.000000  0.044627      1.000000
  0.044627  0.044627  0.000000      1.000000
  0.000000  0.044627  0.044627      2.000000
  0.044627  0.044627  0.044627      1.000000
 


--------------------------------------------------------------------------------------------------------




 Dimension of arrays:
   k-points           NKPTS =      6   k-points in BZ     NKDIM =      6   number of bands    NBANDS=    288
   number of dos      NEDOS =    301   number of ions     NIONS =     64
   non local maximal  LDIM  =      4   non local SUM 2l+1 LMDIM =      8
   total plane-waves  NPLWV = 343000
   max r-space proj   IRMAX =      1   max aug-charges    IRDMAX=  56280
   dimension x,y,z NGX =    70 NGY =   70 NGZ =   70
   dimension x,y,z NGXF=   140 NGYF=  140 NGZF=  140
   support grid    NGXF=   280 NGYF=  280 NGZF=  280
   ions per type =              32  32
   NGX,Y,Z   is equivalent  to a cutoff of  10.39, 10.39, 10.39 a.u.
   NGXF,Y,Z  is equivalent  to a cutoff of  20.77, 20.77, 20.77 a.u.

 SYSTEM =  unknown system                          
 POSCAR =  Na Cl                                   

 Startparameter for this run:
   NWRITE =      2    write-flag & timer
   PREC   = accura    normal or accurate (medium, high low for compatibility)
   ISTART =      0    job   : 0-new  1-cont  2-samecut
   ICHARG =      2    charge: 1-file 2-atom 10-const
   ISPIN  =      1    spin polarized calculation?
   LNONCOLLINEAR =      F non collinear calculations
   LSORBIT =      F    spin-orbit coupling
   INIWAV =      1    electr: 0-lowe 1-rand  2-diag
   LASPH  =      F    aspherical Exc in radial PAW
 Electronic Relaxation 1
   ENCUT  =  341.2 eV  25.08 Ry    5.01 a.u.  16.87 16.87 16.87*2*pi/ulx,y,z
   ENINI  =  341.2     initial cutoff
   ENAUG  =  368.1 eV  augmentation charge cutoff
   NELM   =     60;   NELMIN=  5; NELMDL= -5     # of ELM steps 
   EDIFF  = 0.1E-07   stopping-criterion for ELM
   LREAL  =      F    real-space projection
   NLSPLINE    = F    spline interpolate recip. space projectors
   LCOMPAT=      F    compatible to vasp.4.4
   GGA_COMPAT  = T    GGA compatible to vasp.4.4-vasp.4.6
   LMAXPAW     = -100 max onsite density
   LMAXMIX     =    2 max onsite mixed and CHGCAR
   VOSKOWN=      0    Vosko Wilk Nusair interpolation
   ROPT   =    0.00000   0.00000
 Ionic relaxation
   EDIFFG = 0.1E-06   stopping-criterion for IOM
   NSW    =      0    number of steps for IOM
   NBLOCK =      1;   KBLOCK =      1    inner block; outer block 
   IBRION =     -1    ionic relax: 0-MD 1-quasi-New 2-CG
   NFREE  =      0    steps in history (QN), initial steepest desc. (CG)
   ISIF   =      2    stress and relaxation
   IWAVPR =     10    prediction:  0-non 1-charg 2-wave 3-comb
   ISYM   =      2    0-nonsym 1-usesym 2-fastsym
   LCORR  =      T    Harris-Foulkes like correction to forces

   POTIM  = 0.5000    time-step for ionic-motion
   TEIN   =    0.0    initial temperature
   TEBEG  =    0.0;   TEEND  =   0.0 temperature during run
   SMASS  =  -3.00    Nose mass-parameter (am)
   estimated Nose-frequenzy (Omega)   =  0.10E-29 period in steps = 0.13E+47 mass=  -0.287E-26a.u.
   SCALEE = 1.0000    scale energy and forces
   NPACO  =    256;   APACO  = 10.0  distance and # of slots for P.C.
   PSTRESS=    0.0 pullay stress

  Mass of Ions in am
   POMASS =  22.99 35.45
  Ionic Valenz
   ZVAL   =   7.00  7.00
  Atomic Wigner-Seitz radii
   RWIGS  =  -1.00 -1.00
  virtual crystal weights 
   VCA    =   1.00  1.00
   NELECT =     448.0000    total number of electrons
   NUPDOWN=      -1.0000    fix difference up-down

 DOS related values:
   EMIN   =  10.00;   EMAX   =-10.00  energy-range for DOS
   EFERMI =   0.00
   ISMEAR =     0;   SIGMA  =   0.02  broadening in eV -4-tet -1-fermi 0-gaus

 Electronic relaxation 2 (details)
   IALGO  =     38    algorithm
   LDIAG  =      T    sub-space diagonalisation (order eigenvalues)
   LSUBROT=      F    optimize rotation matrix (better conditioning)
   TURBO    =      0    0=normal 1=particle mesh
   IRESTART =      0    0=no restart 2=restart with 2 vectors
   NREBOOT  =      0    no. of reboots
   NMIN     =      0    reboot dimension
   EREF     =   0.00    reference energy to select bands
   IMIX   =      4    mixing-type and parameters
     AMIX     =   0.40;   BMIX     =  1.00
     AMIX_MAG =   1.60;   BMIX_MAG =  1.00
     AMIN     =   0.10
     WC   =   100.;   INIMIX=   1;  MIXPRE=   1;  MAXMIX= -45

 Intra band minimization:
   WEIMIN = 0.0000     energy-eigenvalue tresh-hold
   EBREAK =  0.87E-11  absolut break condition
   DEPER  =   0.30     relativ break condition  

   TIME   =   0.40     timestep for ELM

  volume/ion in A,a.u.               =      21.98       148.30
  Fermi-wavevector in a.u.,A,eV,Ry     =   1.118049  2.112807 17.007750  1.250034
  Thomas-Fermi vector in A             =   2.254677
 
 Write flags
   LWAVE        =      F    write WAVECAR
   LDOWNSAMPLE  =      F    k-point downsampling of WAVECAR
   LCHARG       =      F    write CHGCAR
   LVTOT        =      F    write LOCPOT, total local potential
   LVHAR        =      F    write LOCPOT, Hartree potential only
   LELF         =      F    write electronic localiz. function (ELF)
   LORBIT       =      0    0 simple, 1 ext, 2 COOP (PROOUT), +10 PAW based schemes


 Dipole corrections
   LMONO  =      F    monopole corrections only (constant potential shift)
   LDIPOL =      F    correct potential (dipole corrections)
   IDIPOL =      0    1-x, 2-y, 3-z, 4-all directions 
   EPSILON=  1.0000000 bulk dielectric constant

 Exchange correlation treatment:
   GGA     =    PS    GGA type
   LEXCH   =    14    internal setting for exchange type
   LIBXC   =     F    Libxc                    
   VOSKOWN =     0    Vosko Wilk Nusair interpolation
   LHFCALC =     F    Hartree Fock is set to
   LHFONE  =     F    Hartree Fock one center treatment
   AEXX    =    0.0000 exact exchange contribution

 Linear response parameters
   LEPSILON=     F    determine dielectric tensor
   LRPA    =     F    only Hartree local field effects (RPA)
   LNABLA  =     F    use nabla operator in PAW spheres
   LVEL    =     F    velocity operator in full k-point grid
   CSHIFT  =0.1000    complex shift for real part using Kramers Kronig
   OMEGAMAX=  -1.0    maximum frequency
   DEG_THRESHOLD= 0.2000000E-02 threshold for treating states as degnerate
   RTIME   =   -0.100 relaxation time in fs
  (WPLASMAI=    0.000 imaginary part of plasma frequency in eV, 0.658/RTIME)
   DFIELD  = 0.0000000 0.0000000 0.0000000 field for delta impulse in time
 
  Optional k-point grid parameters
   LKPOINTS_OPT  =     F    use optional k-point grid
   KPOINTS_OPT_MODE=     1    mode for optional k-point grid
 
 Orbital magnetization related:
   ORBITALMAG=     F  switch on orbital magnetization
   LCHIMAG   =     F  perturbation theory with respect to B field
   DQ        =  0.001000  dq finite difference perturbation B field
   LLRAUG    =     F  two centre corrections for induced B field



--------------------------------------------------------------------------------------------------------


 Static calculation
 charge density and potential will be updated during run
 non-spin polarized calculation
 Variant of blocked Davidson
 Davidson routine will perform the subspace rotation
 perform sub-space diagonalisation
    after iterative eigenvector-optimisation
 modified Broyden-mixing scheme, WC =      100.0
 initial mixing is a Kerker type mixing with AMIX =  0.4000 and BMIX =      1.0000
 Hartree-type preconditioning will be used
 using additional bands           64
 reciprocal scheme for non local part
 use partial core corrections
 calculate Harris-corrections to forces 
   (improved forces if not selfconsistent)
 use gradient corrections 
 use of overlap-Matrix (Vanderbilt PP)
 Gauss-broadening in eV      SIGMA  =   0.02


--------------------------------------------------------------------------------------------------------


  energy-cutoff  :      341.21
  volume of cell :     1406.43
      direct lattice vectors                 reciprocal lattice vectors
    11.204002360  0.000000000  0.000000000     0.089253819  0.000000000  0.000000000
     0.000000000 11.204002360  0.000000000     0.000000000  0.089253819  0.000000000
     0.000000000  0.000000000 11.204002360     0.000000000  0.000000000  0.089253819

  length of vectors
    11.204002360 11.204002360 11.204002360     0.089253819  0.089253819  0.089253819


 
 k-points in units of 2pi/SCALE and weight: KPOINTS created by Atomic Simulation Env
   0.00000000  0.00000000  0.00000000       0.125
   0.04462691  0.00000000  0.00000000       0.250
   0.00000000  0.00000000  0.04462691       0.125
   0.04462691  0.04462691  0.00000000       0.125
   0.00000000  0.04462691  0.04462691       0.250
   0.04462691  0.04462691  0.04462691       0.125
 
 k-points in reciprocal lattice and weights: KPOINTS created by Atomic Simulation Env
   0.00000000  0.00000000  0.00000000       0.125
   0.50000000  0.00000000  0.00000000       0.250
   0.00000000  0.00000000  0.50000000       0.125
   0.50000000  0.50000000  0.00000000       0.125
   0.00000000  0.50000000  0.50000000       0.250
   0.50000000  0.50000000  0.50000000       0.125
 
 position of ions in fractional coordinates (direct lattice) 
   0.00267761  0.00267761  0.00000000
   0.25000000  0.25000000  0.00000000
   0.25000000  0.00000000  0.25000000
   0.00000000  0.25000000  0.25000000
   0.00000000  0.00000000  0.50000000
   0.25000000  0.25000000  0.50000000
   0.25000000  0.00000000  0.75000000
   0.00000000  0.25000000  0.75000000
   0.00000000  0.50000000  0.00000000
   0.25000000  0.75000000  0.00000000
   0.25000000  0.50000000  0.25000000
   0.00000000  0.75000000  0.25000000
   0.00000000  0.50000000  0.50000000
   0.25000000  0.75000000  0.50000000
   0.25000000  0.50000000  0.75000000
   0.00000000  0.75000000  0.75000000
   0.50000000  0.00000000  0.00000000
   0.75000000  0.25000000  0.00000000
   0.75000000  0.00000000  0.25000000
   0.50000000  0.25000000  0.25000000
   0.50000000  0.00000000  0.50000000
   0.75000000  0.25000000  0.50000000
   0.75000000  0.00000000  0.75000000
   0.50000000  0.25000000  0.75000000
   0.50000000  0.50000000  0.00000000
   0.75000000  0.75000000  0.00000000
   0.75000000  0.50000000  0.25000000
   0.50000000  0.75000000  0.25000000
   0.50000000  0.50000000  0.50000000
   0.75000000  0.75000000  0.50000000
   0.75000000  0.50000000  0.75000000
   0.50000000  0.75000000  0.75000000
   0.25000000  0.25000000  0.25000000
   0.00000000  0.00000000  0.25000000
   0.00000000  0.25000000  0.00000000
   0.25000000  0.00000000  0.00000000
   0.25000000  0.25000000  0.75000000
   0.00000000  0.00000000  0.75000000
   0.00000000  0.25000000  0.50000000
   0.25000000  0.00000000  0.50000000
   0.25000000  0.75000000  0.25000000
   0.00000000  0.50000000  0.25000000
   0.00000000  0.75000000  0.00000000
   0.25000000  0.50000000  0.00000000
   0.25000000  0.75000000  0.75000000
   0.00000000  0.50000000  0.75000000
   0.00000000  0.75000000  0.50000000
   0.25000000  0.50000000  0.50000000
   0.75000000  0.25000000  0.25000000
   0.50000000  0.00000000  0.25000000
   0.50000000  0.25000000  0.00000000
   0.75000000  0.00000000  0.00000000
   0.75000000  0.25000000  0.75000000
   0.50000000  0.00000000  0.75000000
   0.50000000  0.25000000  0.50000000
   0.75000000  0.00000000  0.50000000
   0.75000000  0.75000000  0.25000000
   0.50000000  0.50000000  0.25000000
   0.50000000  0.75000000  0.00000000
   0.75000000  0.50000000  0.00000000
   0.75000000  0.75000000  0.75000000
   0.50000000  0.50000000  0.75000000
   0.50000000  0.75000000  0.50000000
   0.75000000  0.50000000  0.50000000
 
 position of ions in cartesian coordinates  (Angst):
   0.03000000  0.03000000  0.00000000
   2.80100059  2.80100059  0.00000000
   2.80100059  0.00000000  2.80100059
   0.00000000  2.80100059  2.80100059
   0.00000000  0.00000000  5.60200118
   2.80100059  2.80100059  5.60200118
   2.80100059  0.00000000  8.40300177
   0.00000000  2.80100059  8.40300177
   0.00000000  5.60200118  0.00000000
   2.80100059  8.40300177  0.00000000
   2.80100059  5.60200118  2.80100059
   0.00000000  8.40300177  2.80100059
   0.00000000  5.60200118  5.60200118
   2.80100059  8.40300177  5.60200118
   2.80100059  5.60200118  8.40300177
   0.00000000  8.40300177  8.40300177
   5.60200118  0.00000000  0.00000000
   8.40300177  2.80100059  0.00000000
   8.40300177  0.00000000  2.80100059
   5.60200118  2.80100059  2.80100059
   5.60200118  0.00000000  5.60200118
   8.40300177  2.80100059  5.60200118
   8.40300177  0.00000000  8.40300177
   5.60200118  2.80100059  8.40300177
   5.60200118  5.60200118  0.00000000
   8.40300177  8.40300177  0.00000000
   8.40300177  5.60200118  2.80100059
   5.60200118  8.40300177  2.80100059
   5.60200118  5.60200118  5.60200118
   8.40300177  8.40300177  5.60200118
   8.40300177  5.60200118  8.40300177
   5.60200118  8.40300177  8.40300177
   2.80100059  2.80100059  2.80100059
   0.00000000  0.00000000  2.80100059
   0.00000000  2.80100059  0.00000000
   2.80100059  0.00000000  0.00000000
   2.80100059  2.80100059  8.40300177
   0.00000000  0.00000000  8.40300177
   0.00000000  2.80100059  5.60200118
   2.80100059  0.00000000  5.60200118
   2.80100059  8.40300177  2.80100059
   0.00000000  5.60200118  2.80100059
   0.00000000  8.40300177  0.00000000
   2.80100059  5.60200118  0.00000000
   2.80100059  8.40300177  8.40300177
   0.00000000  5.60200118  8.40300177
   0.00000000  8.40300177  5.60200118
   2.80100059  5.60200118  5.60200118
   8.40300177  2.80100059  2.80100059
   5.60200118  0.00000000  2.80100059
   5.60200118  2.80100059  0.00000000
   8.40300177  0.00000000  0.00000000
   8.40300177  2.80100059  8.40300177
   5.60200118  0.00000000  8.40300177
   5.60200118  2.80100059  5.60200118
   8.40300177  0.00000000  5.60200118
   8.40300177  8.40300177  2.80100059
   5.60200118  5.60200118  2.80100059
   5.60200118  8.40300177  0.00000000
   8.40300177  5.60200118  0.00000000
   8.40300177  8.40300177  8.40300177
   5.60200118  5.60200118  8.40300177
   5.60200118  8.40300177  5.60200118
   8.40300177  5.60200118  5.60200118
 


--------------------------------------------------------------------------------------------------------


 k-point   1 :   0.0000 0.0000 0.0000  plane waves:   20005
 k-point   2 :   0.5000 0.0000 0.0000  plane waves:   20138
 k-point   3 :   0.0000 0.0000 0.5000  plane waves:   20138
 k-point   4 :   0.5000 0.5000 0.0000  plane waves:   20160
 k-point   5 :   0.0000 0.5000 0.5000  plane waves:   20160
 k-point   6 :   0.5000 0.5000 0.5000  plane waves:   20336

 maximum and minimum number of plane-waves per node :     20336    20005

 maximum number of plane-waves:     20336
 maximum index in each direction: 
   IXMAX=   16   IYMAX=   16   IZMAX=   16
   IXMIN=  -17   IYMIN=  -17   IZMIN=  -17


 serial   3D FFT for wavefunctions
 parallel 3D FFT for charge:
    minimum data exchange during FFTs selected (reduces bandwidth)


 total amount of memory used by VASP MPI-rank0   118439. kBytes
=======================================================================

   base      :      30000. kBytes
   nonl-proj :      36470. kBytes
   fftplans  :      14405. kBytes
   grid      :      19342. kBytes
   one-center:        196. kBytes
   wavefun   :      18026. kBytes
 
     INWAV:  cpu time      0.0000: real time      0.0000
 Broyden mixing: mesh for mixing (old mesh)
   NGX = 33   NGY = 33   NGZ = 33
  (NGX  =140   NGY  =140   NGZ  =140)
  gives a total of  35937 points

 initial charge density was supplied:
 charge density of overlapping atoms calculated
 number of electron     448.0000000 magnetization 
 keeping initial charge density in first step


--------------------------------------------------------------------------------------------------------


 Maximum index for augmentation-charges         1834 (set IRDMAX)


--------------------------------------------------------------------------------------------------------


 First call to EWALD:  gamma=   0.158
 Maximum number of real-space cells 3x 3x 3
 Maximum number of reciprocal cells 3x 3x 3

    FEWALD:  cpu time      0.0016: real time      0.0016


--------------------------------------- Iteration      1(   1)  ---------------------------------------


    POTLOK:  cpu time      0.0429: real time      0.0525
    SETDIJ:  cpu time      0.0325: real time      0.0358
     EDDAV:  cpu time      7.5995: real time      7.6892
       DOS:  cpu time      0.0018: real time      0.0036
    --------------------------------------------
      LOOP:  cpu time      7.6767: real time      7.7812

 eigenvalue-minimisations  :  3456
 total energy-change (2. order) : 0.4311056E+04  (-0.1719118E+05)
 number of electron     448.0000000 magnetization 
 augmentation part      448.0000000 magnetization 

 Free energy of the ion-electron system (eV)
  ---------------------------------------------------
  alpha Z        PSCENC =       751.52672365
  Ewald energy   TEWEN  =    -22871.34026991
  -Hartree energ DENC   =     -8992.24461325
  -exchange      EXHF   =         0.00000000
  -V(xc)+E(xc)   XCENC  =      1456.53423549
  PAW double counting   =     26466.43774078   -29286.08056155
  entropy T*S    EENTRO =        -0.00427495
  eigenvalues    EBANDS =      -745.95259564
  atomic energy  EATOM  =     37532.17946992
  Solvation  Ediel_sol  =         0.00000000
  ---------------------------------------------------
  free energy    TOTEN  =      4311.05585455 eV

  energy without entropy =     4311.06012950  energy(sigma->0) =     4311.05799202


--------------------------------------------------------------------------------------------------------




--------------------------------------- Iteration      1(   2)  ---------------------------------------


     EDDAV:  cpu time      8.2622: real time      8.3081
       DOS:  cpu time      0.0006: real time      0.0006
    --------------------------------------------
      LOOP:  cpu time      8.2628: real time      8.3087

 eigenvalue-minimisations  :  3840
 total energy-change (2. order) :-0.3950596E+04  (-0.3756911E+04)
 number of electron     448.0000000 magnetization 
 augmentation part      448.0000000 magnetization 

 Free energy of the ion-electron system (eV)
  ---------------------------------------------------
  alpha Z        PSCENC =       751.52672365
  Ewald energy   TEWEN  =    -22871.34026991
  -Hartree energ DENC   =     -8992.24461325
  -exchange      EXHF   =         0.00000000
  -V(xc)+E(xc)   XCENC  =      1456.53423549
  PAW double counting   =     26466.43774078   -29286.08056155
  entropy T*S    EENTRO =        -0.00000000
  eigenvalues    EBANDS =     -4696.55270287
  atomic energy  EATOM  =     37532.17946992
  Solvation  Ediel_sol  =         0.00000000
  ---------------------------------------------------
  free energy    TOTEN  =       360.46002227 eV

  energy without entropy =      360.46002227  energy(sigma->0) =      360.46002227


--------------------------------------------------------------------------------------------------------




--------------------------------------- Iteration      1(   3)  ---------------------------------------


     EDDAV:  cpu time      8.8840: real time      8.9332
       DOS:  cpu time      0.0007: real time      0.0007
    --------------------------------------------
      LOOP:  cpu time      8.8846: real time      8.9339

 eigenvalue-minimisations  :  4224
 total energy-change (2. order) :-0.5669505E+03  (-0.5626888E+03)
 number of electron     448.0000000 magnetization 
 augmentation part      448.0000000 magnetization 

 Free energy of the ion-electron system (eV)
  ---------------------------------------------------
  alpha Z        PSCENC =       751.52672365
  Ewald energy   TEWEN  =    -22871.34026991
  -Hartree energ DENC   =     -8992.24461325
  -exchange      EXHF   =         0.00000000
  -V(xc)+E(xc)   XCENC  =      1456.53423549
  PAW double counting   =     26466.43774078   -29286.08056155
  entropy T*S    EENTRO =        -0.00000000
  eigenvalues    EBANDS =     -5263.50318691
  atomic energy  EATOM  =     37532.17946992
  Solvation  Ediel_sol  =         0.00000000
  ---------------------------------------------------
  free energy    TOTEN  =      -206.49046177 eV

  energy without entropy =     -206.49046177  energy(sigma->0) =     -206.49046177


--------------------------------------------------------------------------------------------------------




--------------------------------------- Iteration      1(   4)  ---------------------------------------


     EDDAV:  cpu time      8.7637: real time      8.8162
       DOS:  cpu time      0.0005: real time      0.0005
    --------------------------------------------
      LOOP:  cpu time      8.7643: real time      8.8168

 eigenvalue-minimisations  :  4160
 total energy-change (2. order) :-0.2171261E+02  (-0.2161522E+02)
 number of electron     448.0000000 magnetization 
 augmentation part      448.0000000 magnetization 

 Free energy of the ion-electron system (eV)
  ---------------------------------------------------
  alpha Z        PSCENC =       751.52672365
  Ewald energy   TEWEN  =    -22871.34026991
  -Hartree energ DENC   =     -8992.24461325
  -exchange      EXHF   =         0.00000000
  -V(xc)+E(xc)   XCENC  =      1456.53423549
  PAW double counting   =     26466.43774078   -29286.08056155
  entropy T*S    EENTRO =        -0.00000000
  eigenvalues    EBANDS =     -5285.21579997
  atomic energy  EATOM  =     37532.17946992
  Solvation  Ediel_sol  =         0.00000000
  ---------------------------------------------------
  free energy    TOTEN  =      -228.20307483 eV

  energy without entropy =     -228.20307483  energy(sigma->0) =     -228.20307483


--------------------------------------------------------------------------------------------------------




--------------------------------------- Iteration      1(   5)  ---------------------------------------


     EDDAV:  cpu time      9.2041: real time      9.2546
       DOS:  cpu time      0.0007: real time      0.0007
    CHARGE:  cpu time      0.2732: real time      0.2746
    MIXING:  cpu time      0.0012: real time      0.0024
    --------------------------------------------
      LOOP:  cpu time      9.4792: real time      9.5324

 eigenvalue-minimisations  :  4416
 total energy-change (2. order) :-0.8045059E+00  (-0.8032331E+00)
 number of electron     448.0000022 magnetization 
 augmentation part      111.6393123 magnetization 

 Broyden mixing:
  rms(total) = 0.10606E+01    rms(broyden)= 0.10602E+01
  rms(prec ) = 0.14940E+01
  weight for this iteration     100.00

 Free energy of the ion-electron system (eV)
  ---------------------------------------------------
  alpha Z        PSCENC =       751.52672365
  Ewald energy   TEWEN  =    -22871.34026991
  -Hartree energ DENC   =     -8992.24461325
  -exchange      EXHF   =         0.00000000
  -V(xc)+E(xc)   XCENC  =      1456.53423549
  PAW double counting   =     26466.43774078   -29286.08056155
  entropy T*S    EENTRO =        -0.00000000
  eigenvalues    EBANDS =     -5286.02030591
  atomic energy  EATOM  =     37532.17946992
  Solvation  Ediel_sol  =         0.00000000
  ---------------------------------------------------
  free energy    TOTEN  =      -229.00758077 eV

  energy without entropy =     -229.00758077  energy(sigma->0) =     -229.00758077


--------------------------------------------------------------------------------------------------------




--------------------------------------- Iteration      1(   6)  ---------------------------------------


    POTLOK:  cpu time      0.0365: real time      0.0371
    SETDIJ:  cpu time      0.0300: real time      0.0301
     EDDAV:  cpu time      8.9730: real time      9.0213
       DOS:  cpu time      0.0005: real time      0.0006
    CHARGE:  cpu time      0.2694: real time      0.2709
    MIXING:  cpu time      0.0019: real time      0.0019
    --------------------------------------------
      LOOP:  cpu time      9.3114: real time      9.3620

 eigenvalue-minimisations  :  4288
 total energy-change (2. order) : 0.4870415E+01  (-0.9518379E+00)
 number of electron     448.0000022 magnetization 
 augmentation part      112.4592137 magnetization 

 Broyden mixing:
  rms(total) = 0.77659E+00    rms(broyden)= 0.77654E+00
  rms(prec ) = 0.89243E+00
  weight for this iteration     100.00

 eigenvalues of (default mixing * dielectric matrix)
  average eigenvalue GAMMA=   1.0700
  1.0700

 Free energy of the ion-electron system (eV)
  ---------------------------------------------------
  alpha Z        PSCENC =       751.52672365
  Ewald energy   TEWEN  =    -22871.34026991
  -Hartree energ DENC   =     -9061.76496625
  -exchange      EXHF   =         0.00000000
  -V(xc)+E(xc)   XCENC  =      1465.43008591
  PAW double counting   =     27290.12825133   -30102.04410565
  entropy T*S    EENTRO =        -0.00000000
  eigenvalues    EBANDS =     -5228.25235521
  atomic energy  EATOM  =     37532.17946992
  Solvation  Ediel_sol  =         0.00000000
  ---------------------------------------------------
  free energy    TOTEN  =      -224.13716620 eV

  energy without entropy =     -224.13716620  energy(sigma->0) =     -224.13716620


--------------------------------------------------------------------------------------------------------




--------------------------------------- Iteration      1(   7)  ---------------------------------------


    POTLOK:  cpu time      0.0357: real time      0.0360
    SETDIJ:  cpu time      0.0298: real time      0.0299
     EDDAV:  cpu time      9.6284: real time      9.6801
       DOS:  cpu time      0.0006: real time      0.0006
    CHARGE:  cpu time      0.2655: real time      0.2670
    MIXING:  cpu time      0.0015: real time      0.0015
    --------------------------------------------
      LOOP:  cpu time      9.9615: real time     10.0151

 eigenvalue-minimisations  :  4672
 total energy-change (2. order) : 0.3597787E+00  (-0.2054409E+00)
 number of electron     448.0000022 magnetization 
 augmentation part      112.8268125 magnetization 

 Broyden mixing:
  rms(total) = 0.53383E+00    rms(broyden)= 0.53380E+00
  rms(prec ) = 0.56392E+00
  weight for this iteration     100.00

 eigenvalues of (default mixing * dielectric matrix)
  average eigenvalue GAMMA=   2.1510
  1.4370  2.8649

 Free energy of the ion-electron system (eV)
  ---------------------------------------------------
  alpha Z        PSCENC =       751.52672365
  Ewald energy   TEWEN  =    -22871.34026991
  -Hartree energ DENC   =     -9085.76454065
  -exchange      EXHF   =         0.00000000
  -V(xc)+E(xc)   XCENC  =      1470.11413309
  PAW double counting   =     28327.23436612   -31139.95839997
  entropy T*S    EENTRO =        -0.00000000
  eigenvalues    EBANDS =     -5207.76886975
  atomic energy  EATOM  =     37532.17946992
  Solvation  Ediel_sol  =         0.00000000
  ---------------------------------------------------
  free energy    TOTEN  =      -223.77738749 eV

  energy without entropy =     -223.77738749  energy(sigma->0) =     -223.77738749


--------------------------------------------------------------------------------------------------------




--------------------------------------- Iteration      1(   8)  ---------------------------------------


    POTLOK:  cpu time      0.0359: real time      0.0362
    SETDIJ:  cpu time      0.0299: real time      0.0300
     EDDAV:  cpu time      8.5567: real time      8.6052
       DOS:  cpu time      0.0005: real time      0.0005
    CHARGE:  cpu time      0.2654: real time      0.2670
    MIXING:  cpu time      0.0012: real time      0.0042
    --------------------------------------------
      LOOP:  cpu time      8.8897: real time      8.9431

 eigenvalue-minimisations  :  4032
 total energy-change (2. order) :-0.1251932E+00  (-0.2671664E-01)
 number of electron     448.0000022 magnetization 
 augmentation part      112.8098698 magnetization 

 Broyden mixing:
  rms(total) = 0.14036E+00    rms(broyden)= 0.14036E+00
  rms(prec ) = 0.14319E+00
  weight for this iteration     100.00

 eigenvalues of (default mixing * dielectric matrix)
  average eigenvalue GAMMA=   1.5547
  2.5224  1.3847  0.7571

 Free energy of the ion-electron system (eV)
  ---------------------------------------------------
  alpha Z        PSCENC =       751.52672365
  Ewald energy   TEWEN  =    -22871.34026991
  -Hartree energ DENC   =     -9075.27783843
  -exchange      EXHF   =         0.00000000
  -V(xc)+E(xc)   XCENC  =      1472.34045565
  PAW double counting   =     29806.79419711   -32626.62851817
  entropy T*S    EENTRO =        -0.00000000
  eigenvalues    EBANDS =     -5213.49680045
  atomic energy  EATOM  =     37532.17946992
  Solvation  Ediel_sol  =         0.00000000
  ---------------------------------------------------
  free energy    TOTEN  =      -223.90258064 eV

  energy without entropy =     -223.90258064  energy(sigma->0) =     -223.90258064


--------------------------------------------------------------------------------------------------------




--------------------------------------- Iteration      1(   9)  ---------------------------------------


    POTLOK:  cpu time      0.0355: real time      0.0358
    SETDIJ:  cpu time      0.0302: real time      0.0304
     EDDAV:  cpu time      9.0306: real time      9.0815
       DOS:  cpu time      0.0006: real time      0.0006
    CHARGE:  cpu time      0.2687: real time      0.2701
    MIXING:  cpu time      0.0011: real time      0.0011
    --------------------------------------------
      LOOP:  cpu time      9.3667: real time      9.4194

 eigenvalue-minimisations  :  4320
 total energy-change (2. order) : 0.5353149E-02  (-0.1105893E-02)
 number of electron     448.0000022 magnetization 
 augmentation part      112.8317141 magnetization 

 Broyden mixing:
  rms(total) = 0.59692E-01    rms(broyden)= 0.59691E-01
  rms(prec ) = 0.61739E-01
  weight for this iteration     100.00

 eigenvalues of (default mixing * dielectric matrix)
  average eigenvalue GAMMA=   2.0178
  2.9610  2.7248  0.9959  1.3896

 Free energy of the ion-electron system (eV)
  ---------------------------------------------------
  alpha Z        PSCENC =       751.52672365
  Ewald energy   TEWEN  =    -22871.34026991
  -Hartree energ DENC   =     -9077.95996229
  -exchange      EXHF   =         0.00000000
  -V(xc)+E(xc)   XCENC  =      1472.35766263
  PAW double counting   =     29629.62506089   -32448.63218540
  entropy T*S    EENTRO =        -0.00000000
  eigenvalues    EBANDS =     -5211.65372698
  atomic energy  EATOM  =     37532.17946992
  Solvation  Ediel_sol  =         0.00000000
  ---------------------------------------------------
  free energy    TOTEN  =      -223.89722749 eV

  energy without entropy =     -223.89722749  energy(sigma->0) =     -223.89722749


--------------------------------------------------------------------------------------------------------




--------------------------------------- Iteration      1(  10)  ---------------------------------------


    POTLOK:  cpu time      0.0359: real time      0.0362
    SETDIJ:  cpu time      0.0304: real time      0.0306
     EDDAV:  cpu time      8.4978: real time      8.5466
       DOS:  cpu time      0.0005: real time      0.0005
    CHARGE:  cpu time      0.2673: real time      0.2686
    MIXING:  cpu time      0.0024: real time      0.0024
    --------------------------------------------
      LOOP:  cpu time      8.8343: real time      8.8848

 eigenvalue-minimisations  :  4000
 total energy-change (2. order) :-0.4340475E-02  (-0.1793056E-02)
 number of electron     448.0000022 magnetization 
 augmentation part      112.8608767 magnetization 

 Broyden mixing:
  rms(total) = 0.28851E-01    rms(broyden)= 0.28849E-01
  rms(prec ) = 0.30802E-01
  weight for this iteration     100.00

 eigenvalues of (default mixing * dielectric matrix)
  average eigenvalue GAMMA=   1.7100
  2.9371  2.5117  1.2972  1.0194  0.7846

 Free energy of the ion-electron system (eV)
  ---------------------------------------------------
  alpha Z        PSCENC =       751.52672365
  Ewald energy   TEWEN  =    -22871.34026991
  -Hartree energ DENC   =     -9079.37720734
  -exchange      EXHF   =         0.00000000
  -V(xc)+E(xc)   XCENC  =      1472.60387857
  PAW double counting   =     29453.72859595   -32272.95835801
  entropy T*S    EENTRO =        -0.00000000
  eigenvalues    EBANDS =     -5210.26440081
  atomic energy  EATOM  =     37532.17946992
  Solvation  Ediel_sol  =         0.00000000
  ---------------------------------------------------
  free energy    TOTEN  =      -223.90156797 eV

  energy without entropy =     -223.90156797  energy(sigma->0) =     -223.90156797


--------------------------------------------------------------------------------------------------------




--------------------------------------- Iteration      1(  11)  ---------------------------------------


    POTLOK:  cpu time      0.0362: real time      0.0411
    SETDIJ:  cpu time      0.0309: real time      0.0310
     EDDAV:  cpu time      8.8075: real time      8.8578
       DOS:  cpu time      0.0005: real time      0.0005
    CHARGE:  cpu time      0.2650: real time      0.2662
    MIXING:  cpu time      0.0014: real time      0.0015
    --------------------------------------------
      LOOP:  cpu time      9.1415: real time      9.1981

 eigenvalue-minimisations  :  4192
 total energy-change (2. order) : 0.7174891E-03  (-0.1622171E-03)
 number of electron     448.0000022 magnetization 
 augmentation part      112.8513405 magnetization 

 Broyden mixing:
  rms(total) = 0.77570E-02    rms(broyden)= 0.77569E-02
  rms(prec ) = 0.81241E-02
  weight for this iteration     100.00

 eigenvalues of (default mixing * dielectric matrix)
  average eigenvalue GAMMA=   1.5825
  2.9063  2.4311  1.3214  1.0110  0.9127  0.9127

 Free energy of the ion-electron system (eV)
  ---------------------------------------------------
  alpha Z        PSCENC =       751.52672365
  Ewald energy   TEWEN  =    -22871.34026991
  -Hartree energ DENC   =     -9078.29252815
  -exchange      EXHF   =         0.00000000
  -V(xc)+E(xc)   XCENC  =      1472.52643094
  PAW double counting   =     29488.25105570   -32307.62642902
  entropy T*S    EENTRO =        -0.00000000
  eigenvalues    EBANDS =     -5211.12530361
  atomic energy  EATOM  =     37532.17946992
  Solvation  Ediel_sol  =         0.00000000
  ---------------------------------------------------
  free energy    TOTEN  =      -223.90085048 eV

  energy without entropy =     -223.90085048  energy(sigma->0) =     -223.90085048


--------------------------------------------------------------------------------------------------------




--------------------------------------- Iteration      1(  12)  ---------------------------------------


    POTLOK:  cpu time      0.0357: real time      0.0366
    SETDIJ:  cpu time      0.0302: real time      0.0304
     EDDAV:  cpu time      9.4036: real time      9.4573
       DOS:  cpu time      0.0004: real time      0.0005
    CHARGE:  cpu time      0.2662: real time      0.2674
    MIXING:  cpu time      0.0012: real time      0.0012
    --------------------------------------------
      LOOP:  cpu time      9.7373: real time      9.7934

 eigenvalue-minimisations  :  4544
 total energy-change (2. order) : 0.3105139E-04  (-0.1437059E-04)
 number of electron     448.0000022 magnetization 
 augmentation part      112.8484474 magnetization 

 Broyden mixing:
  rms(total) = 0.92891E-03    rms(broyden)= 0.92765E-03
  rms(prec ) = 0.11370E-02
  weight for this iteration     100.00

 eigenvalues of (default mixing * dielectric matrix)
  average eigenvalue GAMMA=   1.6736
  2.8819  2.5157  2.0956  1.1498  1.1498  0.8598  1.0625

 Free energy of the ion-electron system (eV)
  ---------------------------------------------------
  alpha Z        PSCENC =       751.52672365
  Ewald energy   TEWEN  =    -22871.34026991
  -Hartree energ DENC   =     -9078.14634640
  -exchange      EXHF   =         0.00000000
  -V(xc)+E(xc)   XCENC  =      1472.51595597
  PAW double counting   =     29499.63500957   -32319.01273887
  entropy T*S    EENTRO =        -0.00000000
  eigenvalues    EBANDS =     -5211.25862337
  atomic energy  EATOM  =     37532.17946992
  Solvation  Ediel_sol  =         0.00000000
  ---------------------------------------------------
  free energy    TOTEN  =      -223.90081943 eV

  energy without entropy =     -223.90081943  energy(sigma->0) =     -223.90081943


--------------------------------------------------------------------------------------------------------




--------------------------------------- Iteration      1(  13)  ---------------------------------------


    POTLOK:  cpu time      0.0359: real time      0.0366
    SETDIJ:  cpu time      0.0302: real time      0.0304
     EDDAV:  cpu time      8.5753: real time      8.6237
       DOS:  cpu time      0.0006: real time      0.0006
    CHARGE:  cpu time      0.2652: real time      0.2665
    MIXING:  cpu time      0.0017: real time      0.0017
    --------------------------------------------
      LOOP:  cpu time      8.9089: real time      8.9594

 eigenvalue-minimisations  :  4064
 total energy-change (2. order) :-0.6592658E-05  (-0.1255390E-05)
 number of electron     448.0000022 magnetization 
 augmentation part      112.8478314 magnetization 

 Broyden mixing:
  rms(total) = 0.22607E-03    rms(broyden)= 0.22553E-03
  rms(prec ) = 0.27071E-03
  weight for this iteration     100.00

 eigenvalues of (default mixing * dielectric matrix)
  average eigenvalue GAMMA=   1.6412
  2.9850  2.4238  2.4238  1.2422  0.9959  0.9959  1.0316  1.0316

 Free energy of the ion-electron system (eV)
  ---------------------------------------------------
  alpha Z        PSCENC =       751.52672365
  Ewald energy   TEWEN  =    -22871.34026991
  -Hartree energ DENC   =     -9078.11435603
  -exchange      EXHF   =         0.00000000
  -V(xc)+E(xc)   XCENC  =      1472.51103415
  PAW double counting   =     29498.05001856   -32317.41903544
  entropy T*S    EENTRO =        -0.00000000
  eigenvalues    EBANDS =     -5211.29441093
  atomic energy  EATOM  =     37532.17946992
  Solvation  Ediel_sol  =         0.00000000
  ---------------------------------------------------
  free energy    TOTEN  =      -223.90082602 eV

  energy without entropy =     -223.90082602  energy(sigma->0) =     -223.90082602


--------------------------------------------------------------------------------------------------------




--------------------------------------- Iteration      1(  14)  ---------------------------------------


    POTLOK:  cpu time      0.0359: real time      0.0361
    SETDIJ:  cpu time      0.0302: real time      0.0303
     EDDAV:  cpu time      9.4790: real time      9.5330
       DOS:  cpu time      0.0005: real time      0.0005
    CHARGE:  cpu time      0.2719: real time      0.2734
    MIXING:  cpu time      0.0013: real time      0.0013
    --------------------------------------------
      LOOP:  cpu time      9.8187: real time      9.8746

 eigenvalue-minimisations  :  4608
 total energy-change (2. order) : 0.4720641E-06  (-0.1274449E-06)
 number of electron     448.0000022 magnetization 
 augmentation part      112.8476762 magnetization 

 Broyden mixing:
  rms(total) = 0.81889E-03    rms(broyden)= 0.81884E-03
  rms(prec ) = 0.84059E-03
  weight for this iteration     100.00

 eigenvalues of (default mixing * dielectric matrix)
  average eigenvalue GAMMA=   1.6504
  3.0502  2.6100  2.6100  1.4225  1.2510  1.2510  0.9617  0.8892  0.8076

 Free energy of the ion-electron system (eV)
  ---------------------------------------------------
  alpha Z        PSCENC =       751.52672365
  Ewald energy   TEWEN  =    -22871.34026991
  -Hartree energ DENC   =     -9078.11947064
  -exchange      EXHF   =         0.00000000
  -V(xc)+E(xc)   XCENC  =      1472.51214582
  PAW double counting   =     29499.81411942   -32319.18320978
  entropy T*S    EENTRO =        -0.00000000
  eigenvalues    EBANDS =     -5211.29033403
  atomic energy  EATOM  =     37532.17946992
  Solvation  Ediel_sol  =         0.00000000
  ---------------------------------------------------
  free energy    TOTEN  =      -223.90082555 eV

  energy without entropy =     -223.90082555  energy(sigma->0) =     -223.90082555


--------------------------------------------------------------------------------------------------------




--------------------------------------- Iteration      1(  15)  ---------------------------------------


    POTLOK:  cpu time      0.0359: real time      0.0361
    SETDIJ:  cpu time      0.0304: real time      0.0305
     EDDAV:  cpu time      8.2673: real time      8.3137
       DOS:  cpu time      0.0005: real time      0.0005
    CHARGE:  cpu time      0.2722: real time      0.2736
    MIXING:  cpu time      0.0012: real time      0.0012
    --------------------------------------------
      LOOP:  cpu time      8.6074: real time      8.6557

 eigenvalue-minimisations  :  3872
 total energy-change (2. order) :-0.9805299E-06  (-0.4110245E-07)
 number of electron     448.0000022 magnetization 
 augmentation part      112.8477677 magnetization 

 Broyden mixing:
  rms(total) = 0.31438E-03    rms(broyden)= 0.31432E-03
  rms(prec ) = 0.32309E-03
  weight for this iteration     100.00

 eigenvalues of (default mixing * dielectric matrix)
  average eigenvalue GAMMA=   1.6264
  3.0883  2.7795  2.3276  1.5171  1.3414  1.3414  1.0407  1.0407  0.8936  0.8936

 Free energy of the ion-electron system (eV)
  ---------------------------------------------------
  alpha Z        PSCENC =       751.52672365
  Ewald energy   TEWEN  =    -22871.34026991
  -Hartree energ DENC   =     -9078.14396681
  -exchange      EXHF   =         0.00000000
  -V(xc)+E(xc)   XCENC  =      1472.51304136
  PAW double counting   =     29498.89175424   -32318.25878283
  entropy T*S    EENTRO =        -0.00000000
  eigenvalues    EBANDS =     -5211.26879615
  atomic energy  EATOM  =     37532.17946992
  Solvation  Ediel_sol  =         0.00000000
  ---------------------------------------------------
  free energy    TOTEN  =      -223.90082653 eV

  energy without entropy =     -223.90082653  energy(sigma->0) =     -223.90082653


--------------------------------------------------------------------------------------------------------




--------------------------------------- Iteration      1(  16)  ---------------------------------------


    POTLOK:  cpu time      0.0360: real time      0.0362
    SETDIJ:  cpu time      0.0305: real time      0.0306
     EDDAV:  cpu time      8.2969: real time      8.3437
       DOS:  cpu time      0.0006: real time      0.0006
    CHARGE:  cpu time      0.2666: real time      0.2679
    MIXING:  cpu time      0.0016: real time      0.0016
    --------------------------------------------
      LOOP:  cpu time      8.6321: real time      8.6806

 eigenvalue-minimisations  :  3872
 total energy-change (2. order) :-0.6196060E-06  (-0.1293803E-07)
 number of electron     448.0000022 magnetization 
 augmentation part      112.8478612 magnetization 

 Broyden mixing:
  rms(total) = 0.30462E-04    rms(broyden)= 0.29820E-04
  rms(prec ) = 0.34712E-04
  weight for this iteration     100.00

 eigenvalues of (default mixing * dielectric matrix)
  average eigenvalue GAMMA=   1.6291
  3.1371  2.7537  2.3254  1.7585  1.7585  1.2438  1.1441  1.1441  0.9482  0.8536
  0.8536

 Free energy of the ion-electron system (eV)
  ---------------------------------------------------
  alpha Z        PSCENC =       751.52672365
  Ewald energy   TEWEN  =    -22871.34026991
  -Hartree energ DENC   =     -9078.15350156
  -exchange      EXHF   =         0.00000000
  -V(xc)+E(xc)   XCENC  =      1472.51329511
  PAW double counting   =     29498.25720071   -32317.62238783
  entropy T*S    EENTRO =        -0.00000000
  eigenvalues    EBANDS =     -5211.26135725
  atomic energy  EATOM  =     37532.17946992
  Solvation  Ediel_sol  =         0.00000000
  ---------------------------------------------------
  free energy    TOTEN  =      -223.90082715 eV

  energy without entropy =     -223.90082715  energy(sigma->0) =     -223.90082715


--------------------------------------------------------------------------------------------------------




--------------------------------------- Iteration      1(  17)  ---------------------------------------


    POTLOK:  cpu time      0.0355: real time      0.0358
    SETDIJ:  cpu time      0.0302: real time      0.0303
     EDDAV:  cpu time      6.2200: real time      6.2549
       DOS:  cpu time      0.0005: real time      0.0005
    CHARGE:  cpu time      0.2669: real time      0.2684
    MIXING:  cpu time      0.0015: real time      0.0015
    --------------------------------------------
      LOOP:  cpu time      6.5547: real time      6.5915

 eigenvalue-minimisations  :  2624
 total energy-change (2. order) : 0.3250898E-07  (-0.5521966E-09)
 number of electron     448.0000022 magnetization 
 augmentation part      112.8478647 magnetization 

 Broyden mixing:
  rms(total) = 0.19596E-04    rms(broyden)= 0.18631E-04
  rms(prec ) = 0.21796E-04
  weight for this iteration     100.00

 eigenvalues of (default mixing * dielectric matrix)
  average eigenvalue GAMMA=   1.6101
  3.1662  2.8412  2.3244  1.8406  1.8406  1.2774  1.1968  1.1968  0.9115  0.9115
  0.8910  0.9227

 Free energy of the ion-electron system (eV)
  ---------------------------------------------------
  alpha Z        PSCENC =       751.52672365
  Ewald energy   TEWEN  =    -22871.34026991
  -Hartree energ DENC   =     -9078.15380915
  -exchange      EXHF   =         0.00000000
  -V(xc)+E(xc)   XCENC  =      1472.51328253
  PAW double counting   =     29498.23849647   -32317.60325555
  entropy T*S    EENTRO =        -0.00000000
  eigenvalues    EBANDS =     -5211.26146507
  atomic energy  EATOM  =     37532.17946992
  Solvation  Ediel_sol  =         0.00000000
  ---------------------------------------------------
  free energy    TOTEN  =      -223.90082712 eV

  energy without entropy =     -223.90082712  energy(sigma->0) =     -223.90082712


--------------------------------------------------------------------------------------------------------




--------------------------------------- Iteration      1(  18)  ---------------------------------------


    POTLOK:  cpu time      0.0362: real time      0.0411
    SETDIJ:  cpu time      0.0304: real time      0.0305
     EDDAV:  cpu time      6.0593: real time      6.0915
       DOS:  cpu time      0.0004: real time      0.0004
    CHARGE:  cpu time      0.2652: real time      0.2664
    MIXING:  cpu time      0.0021: real time      0.0021
    --------------------------------------------
      LOOP:  cpu time      6.3936: real time      6.4321

 eigenvalue-minimisations  :  2528
 total energy-change (2. order) : 0.1404260E-07  (-0.3273863E-09)
 number of electron     448.0000022 magnetization 
 augmentation part      112.8478635 magnetization 

 Broyden mixing:
  rms(total) = 0.17627E-04    rms(broyden)= 0.16550E-04
  rms(prec ) = 0.18141E-04
  weight for this iteration     100.00

 eigenvalues of (default mixing * dielectric matrix)
  average eigenvalue GAMMA=   1.5693
  3.1724  2.8784  2.2650  2.2650  1.3584  1.3584  1.2279  1.1089  1.1089  1.0587
  0.9100  0.8444  0.8444

 Free energy of the ion-electron system (eV)
  ---------------------------------------------------
  alpha Z        PSCENC =       751.52672365
  Ewald energy   TEWEN  =    -22871.34026991
  -Hartree energ DENC   =     -9078.15520019
  -exchange      EXHF   =         0.00000000
  -V(xc)+E(xc)   XCENC  =      1472.51333629
  PAW double counting   =     29498.25051214   -32317.61524661
  entropy T*S    EENTRO =        -0.00000000
  eigenvalues    EBANDS =     -5211.26015240
  atomic energy  EATOM  =     37532.17946992
  Solvation  Ediel_sol  =         0.00000000
  ---------------------------------------------------
  free energy    TOTEN  =      -223.90082710 eV

  energy without entropy =     -223.90082710  energy(sigma->0) =     -223.90082710


--------------------------------------------------------------------------------------------------------




--------------------------------------- Iteration      1(  19)  ---------------------------------------


    POTLOK:  cpu time      0.0359: real time      0.0361
    SETDIJ:  cpu time      0.0305: real time      0.0306
     EDDAV:  cpu time      5.6882: real time      5.7185
       DOS:  cpu time      0.0005: real time      0.0005
    --------------------------------------------
      LOOP:  cpu time      5.7551: real time      5.7858

 eigenvalue-minimisations  :  2304
 total energy-change (2. order) : 0.9749783E-08  (-0.2357162E-09)
 number of electron     448.0000022 magnetization 
 augmentation part      112.8478635 magnetization 

 Free energy of the ion-electron system (eV)
  ---------------------------------------------------
  alpha Z        PSCENC =       751.52672365
  Ewald energy   TEWEN  =    -22871.34026991
  -Hartree energ DENC   =     -9078.15541131
  -exchange      EXHF   =         0.00000000
  -V(xc)+E(xc)   XCENC  =      1472.51335315
  PAW double counting   =     29498.26324490   -32317.62802017
  entropy T*S    EENTRO =        -0.00000000
  eigenvalues    EBANDS =     -5211.25991733
  atomic energy  EATOM  =     37532.17946992
  Solvation  Ediel_sol  =         0.00000000
  ---------------------------------------------------
  free energy    TOTEN  =      -223.90082709 eV

  energy without entropy =     -223.90082709  energy(sigma->0) =     -223.90082709


--------------------------------------------------------------------------------------------------------




 average (electrostatic) potential at core
  the test charge radii are     0.9254  0.9406
  (the norm of the test charge is              1.0000)
       1 -46.9496       2 -46.9611       3 -46.9553       4 -46.9553       5 -46.9495
       6 -46.9521       7 -46.9553       8 -46.9553       9 -46.9496      10 -46.9496
      11 -46.9509      12 -46.9440      13 -46.9496      14 -46.9496      15 -46.9509
      16 -46.9440      17 -46.9496      18 -46.9496      19 -46.9440      20 -46.9509
      21 -46.9496      22 -46.9496      23 -46.9440      24 -46.9509      25 -46.9496
      26 -46.9384      27 -46.9484      28 -46.9484      29 -46.9496      30 -46.9472
      31 -46.9484      32 -46.9484      33 -93.5937      34 -93.5880      35 -93.6115
      36 -93.6115      37 -93.5937      38 -93.5880      39 -93.5891      40 -93.5891
      41 -93.5882      42 -93.5882      43 -93.5649      44 -93.5891      45 -93.5882
      46 -93.5882      47 -93.5873      48 -93.5892      49 -93.5882      50 -93.5882
      51 -93.5891      52 -93.5649      53 -93.5882      54 -93.5882      55 -93.5892
      56 -93.5873      57 -93.5828      58 -93.5882      59 -93.5874      60 -93.5874
      61 -93.5828      62 -93.5882      63 -93.5872      64 -93.5872
 
 
 
 E-fermi :  -0.5525     XC(G=0):  -8.4227     alpha+bet : -8.2520

 Fermi energy:        -0.5525146452

 k-point     1 :       0.0000    0.0000    0.0000
  band No.  band energies     occupation 
      1     -21.3053      2.00000
      2     -21.3051      2.00000
      3     -21.3049      2.00000
      4     -21.3040      2.00000
      5     -21.2966      2.00000
      6     -21.2961      2.00000
      7     -21.2956      2.00000
      8     -21.2949      2.00000
      9     -21.2942      2.00000
     10     -21.2942      2.00000
     11     -21.2941      2.00000
     12     -21.2937      2.00000
     13     -21.2936      2.00000
     14     -21.2934      2.00000
     15     -21.2932      2.00000
     16     -21.2927      2.00000
     17     -21.2923      2.00000
     18     -21.2916      2.00000
     19     -21.2916      2.00000
     20     -21.2882      2.00000
     21     -21.2876      2.00000
     22     -21.2876      2.00000
     23     -21.2875      2.00000
     24     -21.2868      2.00000
     25     -21.2868      2.00000
     26     -21.2865      2.00000
     27     -21.2862      2.00000
     28     -21.2860      2.00000
     29     -21.2859      2.00000
     30     -21.2854      2.00000
     31     -21.2852      2.00000
     32     -21.2839      2.00000
     33     -21.2838      2.00000
     34     -21.2833      2.00000
     35     -21.2833      2.00000
     36     -21.2832      2.00000
     37     -21.2830      2.00000
     38     -21.2828      2.00000
     39     -21.2826      2.00000
     40     -21.2816      2.00000
     41     -21.2815      2.00000
     42     -21.2813      2.00000
     43     -21.2813      2.00000
     44     -21.2812      2.00000
     45     -21.2806      2.00000
     46     -21.2804      2.00000
     47     -21.2804      2.00000
     48     -21.2803      2.00000
     49     -21.2800      2.00000
     50     -21.2800      2.00000
     51     -21.2799      2.00000
     52     -21.2799      2.00000
     53     -21.2799      2.00000
     54     -21.2798      2.00000
     55     -21.2795      2.00000
     56     -21.2792      2.00000
     57     -21.2790      2.00000
     58     -21.2789      2.00000
     59     -21.2777      2.00000
     60     -21.2769      2.00000
     61     -21.2766      2.00000
     62     -21.2753      2.00000
     63     -21.2751      2.00000
     64     -21.2751      2.00000
     65     -21.2748      2.00000
     66     -21.2747      2.00000
     67     -21.2744      2.00000
     68     -21.2741      2.00000
     69     -21.2740      2.00000
     70     -21.2740      2.00000
     71     -21.2735      2.00000
     72     -21.2735      2.00000
     73     -21.2734      2.00000
     74     -21.2733      2.00000
     75     -21.2733      2.00000
     76     -21.2729      2.00000
     77     -21.2717      2.00000
     78     -21.2717      2.00000
     79     -21.2717      2.00000
     80     -21.2716      2.00000
     81     -21.2715      2.00000
     82     -21.2715      2.00000
     83     -21.2713      2.00000
     84     -21.2713      2.00000
     85     -21.2703      2.00000
     86     -21.2702      2.00000
     87     -21.2700      2.00000
     88     -21.2696      2.00000
     89     -21.2694      2.00000
     90     -21.2685      2.00000
     91     -21.2684      2.00000
     92     -21.2682      2.00000
     93     -21.2679      2.00000
     94     -21.2649      2.00000
     95     -21.2648      2.00000
     96     -21.2647      2.00000
     97     -13.3582      2.00000
     98     -13.1438      2.00000
     99     -13.1409      2.00000
    100     -13.1373      2.00000
    101     -13.1373      2.00000
    102     -13.1346      2.00000
    103     -13.1327      2.00000
    104     -13.0221      2.00000
    105     -13.0208      2.00000
    106     -13.0119      2.00000
    107     -13.0112      2.00000
    108     -13.0112      2.00000
    109     -13.0112      2.00000
    110     -13.0111      2.00000
    111     -13.0111      2.00000
    112     -13.0111      2.00000
    113     -13.0111      2.00000
[...]
         0         1         2         3         4         5         6         7         8         9
 total charge-density along one line
 
 pseudopotential strength for first ion, spin component:           1
-25.387  -0.000  -0.000   2.510   0.000   0.000  -0.000  -0.001
 -0.000 -25.387  -0.000   0.000   2.510   0.000   0.000   0.000
 -0.000  -0.000 -25.387   0.000   0.000   2.510  -0.000  -0.001
  2.510   0.000   0.000   6.528   0.000  -0.000   0.000   0.000
  0.000   2.510   0.000   0.000   6.528   0.000  -0.000   0.000
  0.000   0.000   2.510  -0.000   0.000   6.528   0.000   0.000
 -0.000   0.000  -0.000   0.000  -0.000   0.000   1.428   6.993
 -0.001   0.000  -0.001   0.000   0.000   0.000   6.993  33.989
 total augmentation occupancy for first ion, spin component:           1
  2.002   0.000   0.000   0.002   0.000   0.000   0.001  -0.000
  0.000   2.002   0.000   0.000   0.002   0.000   0.000   0.000
  0.000   0.000   2.002   0.000   0.000   0.002   0.001  -0.000
  0.002   0.000   0.000   0.017   0.000  -0.000   0.003  -0.000
  0.000   0.002   0.000   0.000   0.017   0.000   0.000   0.000
  0.000   0.000   0.002  -0.000   0.000   0.017   0.003  -0.000
  0.001   0.000   0.001   0.003   0.000   0.003   0.403  -0.001
 -0.000   0.000  -0.000  -0.000   0.000  -0.000  -0.001   0.000


------------------------ aborting loop because EDIFF is reached ----------------------------------------


    CHARGE:  cpu time      0.2638: real time      0.2650
    FORLOC:  cpu time      0.0117: real time      0.0117
    FORNL :  cpu time      1.7229: real time      1.7330
    STRESS:  cpu time      9.8306: real time      9.8790
    FORCOR:  cpu time      0.0434: real time      0.0436
    FORHAR:  cpu time      0.0171: real time      0.0171
    MIXING:  cpu time      0.0012: real time      0.0013
    OFIELD:  cpu time      0.0000: real time      0.0000

  FORCE on cell =-STRESS in cart. coord.  units (eV):
  Direction    XX          YY          ZZ          XY          YZ          ZX
  --------------------------------------------------------------------------------------
  Alpha Z   751.52672   751.52672   751.52672
  Ewald   -7623.77536 -7623.77536 -7623.92689    -0.18048     0.00000     0.00000
  Hartree  3026.07092  3026.07092  3026.01250    -0.11146    -0.00000    -0.00000
  E(xc)   -2014.34811 -2014.34811 -2014.34818    -0.00009     0.00000     0.00000
  Local   -2024.95729 -2024.95729 -2024.74990     0.29080     0.00000    -0.00000
  n-local  1887.57133  1887.68056  1887.62031    -0.00253     0.00000     0.00000
  augment   687.00925   687.00925   687.00924    -0.00058    -0.00010    -0.00010
  Kinetic  5310.35115  5310.69812  5310.52274     0.00221     0.00000     0.00000
  Fock        0.00000     0.00000     0.00000     0.00000     0.00000     0.00000
  -------------------------------------------------------------------------------------
  Total      -0.32329    -0.32329    -0.33345    -0.00213     0.00000     0.00000
  in kB      -0.36829    -0.36829    -0.37986    -0.00243     0.00000     0.00000
  external pressure =       -0.37 kB  Pullay stress =        0.00 kB


 VOLUME and BASIS-vectors are now :
 -----------------------------------------------------------------------------
  energy-cutoff  :      341.21
  volume of cell :     1406.43
      direct lattice vectors                 reciprocal lattice vectors
    11.204002360  0.000000000  0.000000000     0.089253819  0.000000000  0.000000000
     0.000000000 11.204002360  0.000000000     0.000000000  0.089253819  0.000000000
     0.000000000  0.000000000 11.204002360     0.000000000  0.000000000  0.089253819

  length of vectors
    11.204002360 11.204002360 11.204002360     0.089253819  0.089253819  0.089253819


 FORCES acting on ions
    electron-ion (+dipol)            ewald-force                    non-local-force                 convergence-correction
 -----------------------------------------------------------------------------------------------
   0.402E+01 0.402E+01 -.118E-04   -.397E+01 -.397E+01 0.204E-13   -.115E+00 -.115E+00 -.834E-23   0.473E-04 0.473E-04 -.265E-12
   -.696E+00 -.696E+00 -.113E-07   0.734E+00 0.734E+00 0.682E-14   -.305E-01 -.305E-01 -.539E-26   0.151E-05 0.151E-05 -.882E-13
   -.240E+00 0.305E+00 -.443E+00   0.244E+00 -.313E+00 0.476E+00   -.284E-02 0.659E-02 -.272E-01   0.130E-05 0.474E-04 -.245E-05
   0.305E+00 -.240E+00 -.443E+00   -.313E+00 0.244E+00 0.476E+00   0.659E-02 -.284E-02 -.272E-01   0.474E-04 0.130E-05 -.245E-05
   0.164E+00 0.164E+00 -.521E-07   -.163E+00 -.163E+00 0.180E-14   -.306E-03 -.306E-03 -.730E-26   0.462E-04 0.462E-04 -.235E-12
   -.470E-01 -.470E-01 0.118E-10   0.464E-01 0.464E-01 0.125E-13   0.521E-03 0.521E-03 -.483E-25   0.158E-05 0.158E-05 -.124E-12
   -.240E+00 0.305E+00 0.443E+00   0.244E+00 -.313E+00 -.476E+00   -.284E-02 0.659E-02 0.272E-01   0.130E-05 0.474E-04 0.245E-05
   0.305E+00 -.240E+00 0.443E+00   -.313E+00 0.244E+00 -.476E+00   0.659E-02 -.284E-02 0.272E-01   0.474E-04 0.130E-05 0.245E-05
   0.164E+00 -.451E+00 0.438E-05   -.163E+00 0.516E+00 0.131E-13   -.305E-03 -.559E-01 -.267E-22   0.458E-04 -.505E-04 -.167E-12
   0.203E+00 0.191E+00 -.119E-08   -.232E+00 -.220E+00 0.954E-14   0.241E-01 0.241E-01 0.285E-25   0.317E-05 0.128E-05 -.778E-13
   -.796E-02 -.168E+00 -.404E-01   0.787E-02 0.175E+00 0.400E-01   0.718E-04 -.557E-02 0.406E-03   0.109E-05 -.482E-04 0.250E-06
   0.295E+00 -.248E+00 0.440E+00   -.303E+00 0.253E+00 -.473E+00   0.636E-02 -.312E-02 0.269E-01   0.478E-04 -.159E-05 0.181E-05
   0.649E-01 -.127E+00 -.261E-07   -.674E-01 0.128E+00 0.160E-13   0.203E-02 -.121E-02 0.131E-24   0.475E-04 -.466E-04 -.178E-12
   0.324E-01 0.307E-01 0.159E-10   -.321E-01 -.303E-01 0.125E-13   -.317E-03 -.390E-03 -.463E-25   0.795E-06 -.173E-05 -.149E-12
   -.796E-02 -.168E+00 0.404E-01   0.787E-02 0.175E+00 -.400E-01   0.718E-04 -.557E-02 -.406E-03   0.109E-05 -.482E-04 -.250E-06
   0.295E+00 -.248E+00 -.440E+00   -.303E+00 0.253E+00 0.473E+00   0.636E-02 -.312E-02 -.269E-01   0.478E-04 -.159E-05 -.181E-05
   -.451E+00 0.164E+00 0.438E-05   0.516E+00 -.163E+00 -.153E-13   -.559E-01 -.305E-03 -.286E-22   -.505E-04 0.458E-04 -.820E-13
   0.191E+00 0.203E+00 -.119E-08   -.220E+00 -.232E+00 0.599E-14   0.241E-01 0.241E-01 0.655E-25   0.128E-05 0.317E-05 -.863E-13
   -.248E+00 0.295E+00 0.440E+00   0.253E+00 -.303E+00 -.473E+00   -.312E-02 0.636E-02 0.269E-01   -.159E-05 0.478E-04 0.181E-05
   -.168E+00 -.796E-02 -.404E-01   0.175E+00 0.787E-02 0.400E-01   -.557E-02 0.718E-04 0.406E-03   -.482E-04 0.109E-05 0.250E-06
   -.127E+00 0.649E-01 -.261E-07   0.128E+00 -.674E-01 0.160E-13   -.121E-02 0.203E-02 -.196E-24   -.466E-04 0.475E-04 -.257E-12
   0.307E-01 0.324E-01 0.181E-10   -.303E-01 -.321E-01 0.891E-14   -.390E-03 -.317E-03 0.447E-25   -.173E-05 0.795E-06 -.153E-12
   -.248E+00 0.295E+00 -.440E+00   0.253E+00 -.303E+00 0.473E+00   -.312E-02 0.636E-02 -.269E-01   -.159E-05 0.478E-04 -.181E-05
   -.168E+00 -.796E-02 0.404E-01   0.175E+00 0.787E-02 -.400E-01   -.557E-02 0.718E-04 -.406E-03   -.482E-04 0.109E-05 -.250E-06
   -.127E+00 -.127E+00 -.444E-09   0.128E+00 0.128E+00 -.162E-13   -.121E-02 -.121E-02 0.234E-24   -.464E-04 -.464E-04 -.145E-12
   -.675E+00 -.675E+00 0.890E-08   0.712E+00 0.712E+00 0.194E-13   -.296E-01 -.296E-01 -.196E-24   -.127E-05 -.127E-05 -.373E-13
   -.806E-02 -.165E+00 0.388E-01   0.799E-02 0.172E+00 -.383E-01   0.554E-04 -.546E-02 -.427E-03   -.134E-05 -.477E-04 -.464E-06
   -.165E+00 -.806E-02 0.388E-01   0.172E+00 0.799E-02 -.383E-01   -.546E-02 0.554E-04 -.427E-03   -.477E-04 -.134E-05 -.464E-06
   -.605E-01 -.605E-01 -.247E-10   0.630E-01 0.630E-01 0.142E-13   -.202E-02 -.202E-02 -.324E-25   -.472E-04 -.472E-04 -.199E-12
   -.482E-01 -.482E-01 0.288E-10   0.477E-01 0.477E-01 0.892E-14   0.440E-03 0.440E-03 -.135E-24   -.116E-05 -.116E-05 -.197E-12
   -.806E-02 -.165E+00 -.388E-01   0.799E-02 0.172E+00 0.383E-01   0.554E-04 -.546E-02 0.427E-03   -.134E-05 -.477E-04 0.464E-06
   -.165E+00 -.806E-02 -.388E-01   0.172E+00 0.799E-02 0.383E-01   -.546E-02 0.554E-04 0.427E-03   -.477E-04 -.134E-05 0.464E-06
   -.221E+00 -.221E+00 -.320E+00   0.224E+00 0.224E+00 0.324E+00   -.387E-02 -.387E-02 -.664E-02   0.400E-06 0.400E-06 -.105E-05
   0.907E+00 0.907E+00 0.304E-01   -.918E+00 -.918E+00 -.305E-01   0.165E-01 0.165E-01 -.893E-04   0.439E-04 0.439E-04 0.137E-06
   0.938E+00 -.203E+01 0.152E-05   -.950E+00 0.204E+01 0.869E-14   0.166E-01 0.761E-02 0.135E-23   0.437E-04 0.203E-05 -.103E-12
   -.203E+01 0.938E+00 0.152E-05   0.204E+01 -.950E+00 -.135E-13   0.761E-02 0.166E-01 -.234E-23   0.203E-05 0.437E-04 -.603E-13
   -.221E+00 -.221E+00 0.320E+00   0.224E+00 0.224E+00 -.324E+00   -.387E-02 -.387E-02 0.664E-02   0.400E-06 0.400E-06 0.105E-05
   0.907E+00 0.907E+00 -.304E-01   -.918E+00 -.918E+00 0.305E-01   0.165E-01 0.165E-01 0.893E-04   0.439E-04 0.439E-04 -.137E-06
   0.109E+00 -.160E-01 0.609E-08   -.110E+00 0.158E-01 -.354E-14   0.153E-02 0.474E-03 0.752E-26   0.414E-04 0.131E-05 -.115E-12
   -.160E-01 0.109E+00 0.609E-08   0.158E-01 -.110E+00 0.623E-14   0.474E-03 0.153E-02 -.392E-25   0.131E-05 0.414E-04 -.142E-12
   0.975E-01 0.928E-01 0.151E-02   -.992E-01 -.944E-01 -.150E-02   0.273E-02 0.267E-02 -.179E-04   0.221E-05 -.482E-06 -.169E-06
   0.108E+00 -.277E+00 -.118E-02   -.109E+00 0.281E+00 0.118E-02   0.152E-02 -.710E-02 -.323E-05   0.413E-04 -.429E-04 0.175E-06
   0.877E+00 -.200E+01 0.151E-05   -.889E+00 0.201E+01 0.237E-14   0.164E-01 0.260E-02 0.110E-23   0.441E-04 0.956E-06 -.531E-13
   -.180E-01 -.280E+00 0.576E-08   0.178E-01 0.284E+00 -.145E-13   0.420E-03 -.711E-02 -.293E-24   0.338E-06 -.438E-04 -.994E-13
   0.975E-01 0.928E-01 -.151E-02   -.992E-01 -.944E-01 0.150E-02   0.273E-02 0.267E-02 0.179E-04   0.221E-05 -.482E-06 0.169E-06
   0.108E+00 -.277E+00 0.118E-02   -.109E+00 0.281E+00 -.118E-02   0.152E-02 -.710E-02 0.323E-05   0.413E-04 -.429E-04 -.175E-06
   0.108E+00 -.191E-01 0.607E-08   -.109E+00 0.189E-01 -.266E-14   0.151E-02 0.350E-03 0.477E-24   0.404E-04 -.291E-05 -.143E-12
   -.192E-02 -.930E-01 -.161E-12   0.191E-02 0.940E-01 0.771E-17   0.201E-04 -.168E-02 -.214E-24   0.126E-05 -.412E-04 -.920E-13
   0.928E-01 0.975E-01 0.151E-02   -.944E-01 -.992E-01 -.150E-02   0.267E-02 0.273E-02 -.179E-04   -.482E-06 0.221E-05 -.169E-06
   -.277E+00 0.108E+00 -.118E-02   0.281E+00 -.109E+00 0.118E-02   -.710E-02 0.152E-02 -.323E-05   -.429E-04 0.413E-04 0.175E-06
   -.280E+00 -.180E-01 0.576E-08   0.284E+00 0.178E-01 0.104E-13   -.711E-02 0.420E-03 0.130E-24   -.438E-04 0.338E-06 -.707E-13
   -.200E+01 0.877E+00 0.151E-05   0.201E+01 -.889E+00 -.829E-14   0.260E-02 0.164E-01 -.154E-23   0.956E-06 0.441E-04 -.148E-13
   0.928E-01 0.975E-01 -.151E-02   -.944E-01 -.992E-01 0.150E-02   0.267E-02 0.273E-02 0.179E-04   -.482E-06 0.221E-05 0.169E-06
   -.277E+00 0.108E+00 0.118E-02   0.281E+00 -.109E+00 -.118E-02   -.710E-02 0.152E-02 0.323E-05   -.429E-04 0.413E-04 -.175E-06
   -.930E-01 -.192E-02 -.309E-11   0.940E-01 0.191E-02 -.355E-14   -.168E-02 0.201E-04 0.317E-24   -.412E-04 0.126E-05 -.128E-12
   -.191E-01 0.108E+00 0.608E-08   0.189E-01 -.109E+00 0.837E-17   0.350E-03 0.151E-02 -.302E-24   -.291E-05 0.404E-04 -.185E-12
   -.220E+00 -.220E+00 0.311E+00   0.222E+00 0.222E+00 -.315E+00   -.381E-02 -.381E-02 0.646E-02   -.247E-05 -.247E-05 0.214E-05
   -.924E-01 -.924E-01 -.544E-03   0.935E-01 0.935E-01 0.547E-03   -.166E-02 -.166E-02 -.475E-05   -.411E-04 -.411E-04 -.109E-05
   -.274E+00 -.172E-01 -.541E-08   0.278E+00 0.170E-01 0.734E-14   -.709E-02 0.403E-03 0.152E-25   -.425E-04 -.318E-06 -.363E-13
   -.172E-01 -.274E+00 -.542E-08   0.170E-01 0.278E+00 -.140E-13   0.403E-03 -.709E-02 -.319E-25   -.318E-06 -.425E-04 -.840E-13
   -.220E+00 -.220E+00 -.311E+00   0.222E+00 0.222E+00 0.315E+00   -.381E-02 -.381E-02 -.646E-02   -.247E-05 -.247E-05 -.214E-05
   -.924E-01 -.924E-01 0.544E-03   0.935E-01 0.935E-01 -.547E-03   -.166E-02 -.166E-02 0.475E-05   -.411E-04 -.411E-04 0.109E-05
   -.919E-01 -.245E-02 -.313E-10   0.929E-01 0.246E-02 -.416E-16   -.165E-02 -.887E-06 -.138E-24   -.413E-04 -.147E-05 -.162E-12
   -.245E-02 -.919E-01 -.269E-10   0.246E-02 0.929E-01 -.583E-16   -.887E-06 -.165E-02 0.205E-24   -.147E-05 -.413E-04 -.123E-12
 -----------------------------------------------------------------------------------------------
   0.150E+00 0.150E+00 0.281E-05   0.457E-13 -.121E-12 0.978E-13   -.149E+00 -.149E+00 -.637E-17   0.153E-05 0.153E-05 -.160E-11
 
 
 POSITION                                       TOTAL-FORCE (eV/Angst)
 -----------------------------------------------------------------------------------
      0.03000      0.03000      0.00000        -0.062692     -0.062692     -0.000000
      2.80100      2.80100      0.00000         0.007531      0.007531     -0.000000
      2.80100      0.00000      2.80100         0.001493     -0.001699      0.005906
      0.00000      2.80100      2.80100        -0.001699      0.001493      0.005906
      0.00000      0.00000      5.60200        -0.000050     -0.000050     -0.000000
      2.80100      2.80100      5.60200        -0.000112     -0.000112     -0.000000
      2.80100      0.00000      8.40300         0.001493     -0.001699     -0.005906
      0.00000      2.80100      8.40300        -0.001699      0.001493     -0.005906
      0.00000      5.60200      0.00000        -0.000052      0.008913     -0.000000
      2.80100      8.40300      0.00000        -0.004376     -0.004330     -0.000000
      2.80100      5.60200      2.80100        -0.000030      0.001172     -0.000073
      0.00000      8.40300      2.80100        -0.001628      0.001527     -0.005820
      0.00000      5.60200      5.60200        -0.000453      0.000307     -0.000000
      2.80100      8.40300      5.60200         0.000039      0.000056     -0.000000
      2.80100      5.60200      8.40300        -0.000030      0.001172      0.000073
      0.00000      8.40300      8.40300        -0.001628      0.001527      0.005820
      5.60200      0.00000      0.00000         0.008913     -0.000052     -0.000000
      8.40300      2.80100      0.00000        -0.004330     -0.004376     -0.000000
      8.40300      0.00000      2.80100         0.001527     -0.001628     -0.005820
      5.60200      2.80100      2.80100         0.001172     -0.000030     -0.000073
      5.60200      0.00000      5.60200         0.000307     -0.000453     -0.000000
      8.40300      2.80100      5.60200         0.000056      0.000039     -0.000000
      8.40300      0.00000      8.40300         0.001527     -0.001628      0.005820
      5.60200      2.80100      8.40300         0.001172     -0.000030      0.000073
      5.60200      5.60200      0.00000         0.000308      0.000308     -0.000000
      8.40300      8.40300      0.00000         0.007224      0.007224     -0.000000
      8.40300      5.60200      2.80100        -0.000026      0.001152      0.000078
      5.60200      8.40300      2.80100         0.001152     -0.000026      0.000078
      5.60200      5.60200      5.60200         0.000440      0.000440     -0.000000
      8.40300      8.40300      5.60200        -0.000095     -0.000095     -0.000000
      8.40300      5.60200      8.40300        -0.000026      0.001152     -0.000078
      5.60200      8.40300      8.40300         0.001152     -0.000026     -0.000078
      2.80100      2.80100      2.80100        -0.001538     -0.001538     -0.002625
      0.00000      0.00000      2.80100         0.004994      0.004994     -0.000246
      0.00000      2.80100      0.00000         0.004843      0.020080     -0.000000
      2.80100      0.00000      0.00000         0.020080      0.004843     -0.000000
      2.80100      2.80100      8.40300        -0.001538     -0.001538      0.002625
      0.00000      0.00000      8.40300         0.004994      0.004994      0.000246
      0.00000      2.80100      5.60200         0.000596      0.000179     -0.000000
      2.80100      0.00000      5.60200         0.000179      0.000596     -0.000000
      2.80100      8.40300      2.80100         0.001075      0.001052     -0.000008
      0.00000      5.60200      2.80100         0.000591     -0.002830     -0.000002
      0.00000      8.40300      0.00000         0.005099      0.016281     -0.000000
      2.80100      5.60200      0.00000         0.000155     -0.002833     -0.000000
      2.80100      8.40300      8.40300         0.001075      0.001052      0.000008
      0.00000      5.60200      8.40300         0.000591     -0.002830      0.000002
      0.00000      8.40300      5.60200         0.000586      0.000130     -0.000000
      2.80100      5.60200      5.60200        -0.000003     -0.000673     -0.000000
      8.40300      2.80100      2.80100         0.001052      0.001075     -0.000008
      5.60200      0.00000      2.80100        -0.002830      0.000591     -0.000002
      5.60200      2.80100      0.00000        -0.002833      0.000155     -0.000000
      8.40300      0.00000      0.00000         0.016281      0.005099     -0.000000
      8.40300      2.80100      8.40300         0.001052      0.001075      0.000008
      5.60200      0.00000      8.40300        -0.002830      0.000591      0.000002
      5.60200      2.80100      5.60200        -0.000673     -0.000003     -0.000000
      8.40300      0.00000      5.60200         0.000130      0.000586     -0.000000
      8.40300      8.40300      2.80100        -0.001512     -0.001512      0.002551
      5.60200      5.60200      2.80100        -0.000667     -0.000667     -0.000002
      5.60200      8.40300      0.00000        -0.002826      0.000152     -0.000000
      8.40300      5.60200      0.00000         0.000152     -0.002826     -0.000000
      8.40300      8.40300      8.40300        -0.001512     -0.001512     -0.002551
      5.60200      5.60200      8.40300        -0.000667     -0.000667      0.000002
      5.60200      8.40300      5.60200        -0.000661     -0.000011     -0.000000
      8.40300      5.60200      5.60200        -0.000011     -0.000661     -0.000000
 -----------------------------------------------------------------------------------
    total drift:                                0.000627      0.000627      0.000003


--------------------------------------------------------------------------------------------------------



  FREE ENERGIE OF THE ION-ELECTRON SYSTEM (eV)
  ---------------------------------------------------
  free  energy   TOTEN  =      -223.90082709 eV

  energy  without entropy=     -223.90082709  energy(sigma->0) =     -223.90082709
 


--------------------------------------------------------------------------------------------------------


    POTLOK:  cpu time      0.0688: real time      0.0691


--------------------------------------------------------------------------------------------------------


     LOOP+:  cpu time    174.9809: real time    176.0420
    4ORBIT:  cpu time      0.0000: real time      0.0000

 total amount of memory used by VASP MPI-rank0   118439. kBytes
=======================================================================

   base      :      30000. kBytes
   nonl-proj :      36470. kBytes
   fftplans  :      14405. kBytes
   grid      :      19342. kBytes
   one-center:        196. kBytes
   wavefun   :      18026. kBytes
 
  
  
 General timing and accounting informations for this job:
 ========================================================
  
                  Total CPU time used (sec):      178.567
                            User time (sec):      178.002
                          System time (sec):        0.565
                         Elapsed time (sec):      180.817
  
                   Maximum memory used (kb):      300824.
                   Average memory used (kb):          N/A
  
                          Minor page faults:       109906
                          Major page faults:          180
                 Voluntary context switches:         1547
