<?xml version="1.0" encoding="ISO-8859-1"?>
<modeling>
 <generator>
  <i name="program" type="string">vasp </i>
  <i name="version" type="string">6.3.2  </i>
  <i name="subversion" type="string">27Jun22 (build Oct 14 2022 12:13:54) complex                          parallel </i>
  <i name="platform" type="string">LinuxIFC </i>
  <i name="date" type="string">2025 08 28 </i>
  <i name="time" type="string">21:57:05 </i>
 </generator>
 <incar>
  <i type="string" name="PREC">Accurate</i>
  <i type="int" name="IALGO">    38</i>
  <i type="logical" name="ADDGRID"> T  </i>
  <i type="int" name="NELMIN">     5</i>
  <i type="int" name="IBRION">    -1</i>
  <i name="EDIFF">      0.00000001</i>
  <i name="ENCUT">    341.21360000</i>
  <i type="logical" name="LREAL"> F  </i>
  <i type="int" name="ISMEAR">     0</i>
  <i name="SIGMA">      0.02000000</i>
  <i type="logical" name="LWAVE"> F  </i>
  <i type="logical" name="LCHARG"> F  </i>
  <i type="string" name="GGA">PS</i>
 </incar>
 <primitive_cell>
  <structure name="primitive_cell" >
   <crystal>
    <varray name="basis" >
     <v>      11.20400236       0.00000000       0.00000000 </v>
     <v>       0.00000000      11.20400236       0.00000000 </v>
     <v>       0.00000000       0.00000000      11.20400236 </v>
    </varray>
    <i name="volume">   1406.43470641 </i>
    <varray name="rec_basis" >
     <v>       0.08925382       0.00000000       0.00000000 </v>
     <v>       0.00000000       0.08925382       0.00000000 </v>
     <v>       0.00000000       0.00000000       0.08925382 </v>
    </varray>
   </crystal>
   <varray name="positions" >
    <v>       0.00267761       0.00267761       0.00000000 </v>
    <v>       0.25000000       0.25000000       0.00000000 </v>
    <v>       0.25000000       0.00000000       0.25000000 </v>
    <v>       0.00000000       0.25000000       0.25000000 </v>
    <v>       0.00000000       0.00000000       0.50000000 </v>
    <v>       0.25000000       0.25000000       0.50000000 </v>
    <v>       0.25000000       0.00000000       0.75000000 </v>
    <v>       0.00000000       0.25000000       0.75000000 </v>
    <v>       0.00000000       0.50000000       0.00000000 </v>
    <v>       0.25000000       0.75000000       0.00000000 </v>
    <v>       0.25000000       0.50000000       0.25000000 </v>
    <v>       0.00000000       0.75000000       0.25000000 </v>
    <v>       0.00000000       0.50000000       0.50000000 </v>
    <v>       0.25000000       0.75000000       0.50000000 </v>
    <v>       0.25000000       0.50000000       0.75000000 </v>
    <v>       0.00000000       0.75000000       0.75000000 </v>
    <v>       0.50000000       0.00000000       0.00000000 </v>
    <v>       0.75000000       0.25000000       0.00000000 </v>
    <v>       0.75000000       0.00000000       0.25000000 </v>
    <v>       0.50000000       0.25000000       0.25000000 </v>
    <v>       0.50000000       0.00000000       0.50000000 </v>
    <v>       0.75000000       0.25000000       0.50000000 </v>
    <v>       0.75000000       0.00000000       0.75000000 </v>
    <v>       0.50000000       0.25000000       0.75000000 </v>
    <v>       0.50000000       0.50000000       0.00000000 </v>
    <v>       0.75000000       0.75000000       0.00000000 </v>
    <v>       0.75000000       0.50000000       0.25000000 </v>
    <v>       0.50000000       0.75000000       0.25000000 </v>
    <v>       0.50000000       0.50000000       0.50000000 </v>
    <v>       0.75000000       0.75000000       0.50000000 </v>
    <v>       0.75000000       0.50000000       0.75000000 </v>
    <v>       0.50000000       0.75000000       0.75000000 </v>
    <v>       0.25000000       0.25000000       0.25000000 </v>
    <v>       0.00000000       0.00000000       0.25000000 </v>
    <v>       0.00000000       0.25000000       0.00000000 </v>
    <v>       0.25000000       0.00000000       0.00000000 </v>
    <v>       0.25000000       0.25000000       0.75000000 </v>
    <v>       0.00000000       0.00000000       0.75000000 </v>
    <v>       0.00000000       0.25000000       0.50000000 </v>
    <v>       0.25000000       0.00000000       0.50000000 </v>
    <v>       0.25000000       0.75000000       0.25000000 </v>
    <v>       0.00000000       0.50000000       0.25000000 </v>
    <v>       0.00000000       0.75000000       0.00000000 </v>
    <v>       0.25000000       0.50000000       0.00000000 </v>
    <v>       0.25000000       0.75000000       0.75000000 </v>
    <v>       0.00000000       0.50000000       0.75000000 </v>
    <v>       0.00000000       0.75000000       0.50000000 </v>
    <v>       0.25000000       0.50000000       0.50000000 </v>
    <v>       0.75000000       0.25000000       0.25000000 </v>
    <v>       0.50000000       0.00000000       0.25000000 </v>
    <v>       0.50000000       0.25000000       0.00000000 </v>
    <v>       0.75000000       0.00000000       0.00000000 </v>
    <v>       0.75000000       0.25000000       0.75000000 </v>
    <v>       0.50000000       0.00000000       0.75000000 </v>
    <v>       0.50000000       0.25000000       0.50000000 </v>
    <v>       0.75000000       0.00000000       0.50000000 </v>
    <v>       0.75000000       0.75000000       0.25000000 </v>
    <v>       0.50000000       0.50000000       0.25000000 </v>
    <v>       0.50000000       0.75000000       0.00000000 </v>
    <v>       0.75000000       0.50000000       0.00000000 </v>
    <v>       0.75000000       0.75000000       0.75000000 </v>
    <v>       0.50000000       0.50000000       0.75000000 </v>
    <v>       0.50000000       0.75000000       0.50000000 </v>
    <v>       0.75000000       0.50000000       0.50000000 </v>
   </varray>
  </structure>
  <varray name="primitive_index" >
   <v type="int" >        1 </v>
   <v type="int" >        2 </v>
   <v type="int" >        3 </v>
   <v type="int" >        4 </v>
   <v type="int" >        5 </v>
   <v type="int" >        6 </v>
   <v type="int" >        7 </v>
   <v type="int" >        8 </v>
   <v type="int" >        9 </v>
   <v type="int" >       10 </v>
   <v type="int" >       11 </v>
   <v type="int" >       12 </v>
   <v type="int" >       13 </v>
   <v type="int" >       14 </v>
   <v type="int" >       15 </v>
   <v type="int" >       16 </v>
   <v type="int" >       17 </v>
   <v type="int" >       18 </v>
   <v type="int" >       19 </v>
   <v type="int" >       20 </v>
   <v type="int" >       21 </v>
   <v type="int" >       22 </v>
   <v type="int" >       23 </v>
   <v type="int" >       24 </v>
   <v type="int" >       25 </v>
   <v type="int" >       26 </v>
   <v type="int" >       27 </v>
   <v type="int" >       28 </v>
   <v type="int" >       29 </v>
   <v type="int" >       30 </v>
   <v type="int" >       31 </v>
   <v type="int" >       32 </v>
   <v type="int" >       33 </v>
   <v type="int" >       34 </v>
   <v type="int" >       35 </v>
   <v type="int" >       36 </v>
   <v type="int" >       37 </v>
   <v type="int" >       38 </v>
   <v type="int" >       39 </v>
   <v type="int" >       40 </v>
   <v type="int" >       41 </v>
   <v type="int" >       42 </v>
   <v type="int" >       43 </v>
   <v type="int" >       44 </v>
   <v type="int" >       45 </v>
   <v type="int" >       46 </v>
   <v type="int" >       47 </v>
   <v type="int" >       48 </v>
   <v type="int" >       49 </v>
   <v type="int" >       50 </v>
   <v type="int" >       51 </v>
   <v type="int" >       52 </v>
   <v type="int" >       53 </v>
   <v type="int" >       54 </v>
   <v type="int" >       55 </v>
   <v type="int" >       56 </v>
   <v type="int" >       57 </v>
   <v type="int" >       58 </v>
   <v type="int" >       59 </v>
   <v type="int" >       60 </v>
   <v type="int" >       61 </v>
   <v type="int" >       62 </v>
   <v type="int" >       63 </v>
   <v type="int" >       64 </v>
  </varray>
 </primitive_cell>
 <kpoints>
  <generation param="Gamma">
   <v type="int" name="divisions">       2        2        2 </v>
   <v name="usershift">      0.00000000       0.00000000       0.00000000 </v>
   <v name="genvec1">      0.50000000       0.00000000       0.00000000 </v>
   <v name="genvec2">      0.00000000       0.50000000       0.00000000 </v>
   <v name="genvec3">      0.00000000       0.00000000       0.50000000 </v>
   <v name="shift">      0.00000000       0.00000000       0.00000000 </v>
  </generation>
  <varray name="kpointlist" >
   <v>       0.00000000       0.00000000       0.00000000 </v>
   <v>       0.50000000       0.00000000       0.00000000 </v>
   <v>       0.00000000       0.00000000       0.50000000 </v>
   <v>       0.50000000       0.50000000       0.00000000 </v>
   <v>       0.00000000       0.50000000       0.50000000 </v>
   <v>       0.50000000       0.50000000       0.50000000 </v>
  </varray>
  <varray name="weights" >
   <v>       0.12500000 </v>
   <v>       0.25000000 </v>
   <v>       0.12500000 </v>
   <v>       0.12500000 </v>
   <v>       0.25000000 </v>
   <v>       0.12500000 </v>
  </varray>
 </kpoints>
 <parameters>
  <separator name="general" >
   <i type="string" name="SYSTEM">unknown system</i>
   <i type="logical" name="LCOMPAT"> F  </i>
  </separator>
  <separator name="electronic" >
   <i type="string" name="PREC">accura</i>
   <i name="ENMAX">    341.21360000</i>
   <i name="ENAUG">    368.05600000</i>
   <i name="EDIFF">      0.00000001</i>
   <i type="int" name="IALGO">    38</i>
   <i type="int" name="IWAVPR">    10</i>
   <i type="int" name="NBANDS">   288</i>
   <i type="int" name="NBANDSLOW">    -1</i>
   <i type="int" name="NBANDSHIGH">    -1</i>
   <i name="NELECT">    448.00000000</i>
   <i type="int" name="TURBO">     0</i>
   <i type="int" name="IRESTART">     0</i>
   <i type="int" name="NREBOOT">     0</i>
   <i type="int" name="NMIN">     0</i>
   <i name="EREF">      0.00000000</i>
   <separator name="electronic smearing" >
    <i type="int" name="ISMEAR">     0</i>
    <i name="SIGMA">      0.02000000</i>
    <i name="KSPACING">      0.50000000</i>
    <i type="logical" name="KGAMMA"> T  </i>
    <i type="logical" name="KBLOWUP"> T  </i>
   </separator>
   <separator name="electronic projectors" >
    <i type="logical" name="LREAL"> F  </i>
    <v name="ROPT">      0.00000000      0.00000000</v>
    <i type="int" name="LMAXPAW">  -100</i>
    <i type="int" name="LMAXMIX">     2</i>
    <i type="logical" name="NLSPLINE"> F  </i>
   </separator>
   <separator name="electronic startup" >
    <i type="int" name="ISTART">     0</i>
    <i type="int" name="ICHARG">     2</i>
    <i type="int" name="INIWAV">     1</i>
   </separator>
   <separator name="electronic spin" >
    <i type="int" name="ISPIN">     1</i>
    <i type="logical" name="LNONCOLLINEAR"> F  </i>
    <v name="MAGMOM">      1.00000000      1.00000000      1.00000000      1.00000000      1.00000000      1.00000000      1.00000000      1.00000000      1.00000000      1.00000000      1.00000000      1.00000000      1.00000000      1.00000000      1.00000000      1.00000000      1.00000000      1.00000000      1.00000000      1.00000000
      1.00000000      1.00000000      1.00000000      1.00000000      1.00000000      1.00000000      1.00000000      1.00000000      1.00000000      1.00000000      1.00000000      1.00000000      1.00000000      1.00000000      1.00000000      1.00000000      1.00000000      1.00000000      1.00000000      1.00000000
      1.00000000      1.00000000      1.00000000      1.00000000      1.00000000      1.00000000      1.00000000      1.00000000      1.00000000      1.00000000      1.00000000      1.00000000      1.00000000      1.00000000      1.00000000      1.00000000      1.00000000      1.00000000      1.00000000      1.00000000
      1.00000000      1.00000000      1.00000000      1.00000000</v>
    <i name="NUPDOWN">     -1.00000000</i>
    <i type="logical" name="LSORBIT"> F  </i>
    <v name="SAXIS">      0.00000000      0.00000000      1.00000000</v>
    <i type="logical" name="LSPIRAL"> F  </i>
    <v name="QSPIRAL">      0.00000000      0.00000000      0.00000000</v>
    <i type="logical" name="LZEROZ"> F  </i>
   </separator>
   <separator name="electronic exchange-correlation" >
    <i type="logical" name="LASPH"> F  </i>
    <i type="logical" name="LMETAGGA"> F  </i>
   </separator>
   <separator name="electronic convergence" >
    <i type="int" name="NELM">    60</i>
    <i type="int" name="NELMDL">    -5</i>
    <i type="int" name="NELMIN">     5</i>
    <i name="ENINI">    341.21360000</i>
    <separator name="electronic convergence detail" >
     <i type="logical" name="LDIAG"> T  </i>
     <i type="logical" name="LSUBROT"> F  </i>
     <i name="WEIMIN">      0.00000000</i>
     <i name="EBREAK">      0.00000000</i>
     <i name="DEPER">      0.30000000</i>
     <i type="int" name="NRMM">     4</i>
     <i name="TIME">      0.40000000</i>
    </separator>
   </separator>
   <separator name="electronic mixer" >
    <i name="AMIX">      0.40000000</i>
    <i name="BMIX">      1.00000000</i>
    <i name="AMIN">      0.10000000</i>
    <i name="AMIX_MAG">      1.60000000</i>
    <i name="BMIX_MAG">      1.00000000</i>
    <separator name="electronic mixer details" >
     <i type="int" name="IMIX">     4</i>
     <i type="logical" name="MIXFIRST"> F  </i>
     <i type="int" name="MAXMIX">   -45</i>
     <i name="WC">    100.00000000</i>
     <i type="int" name="INIMIX">     1</i>
     <i type="int" name="MIXPRE">     1</i>
     <i type="int" name="MREMOVE">     5</i>
    </separator>
   </separator>
   <separator name="electronic dipolcorrection" >
    <i type="logical" name="LDIPOL"> F  </i>
    <i type="logical" name="LMONO"> F  </i>
    <i type="int" name="IDIPOL">     0</i>
    <i name="EPSILON">      1.00000000</i>
    <v name="DIPOL">   -100.00000000   -100.00000000   -100.00000000</v>
    <i name="EFIELD">      0.00000000</i>
   </separator>
  </separator>
  <separator name="grids" >
   <i type="int" name="NGX">    70</i>
   <i type="int" name="NGY">    70</i>
   <i type="int" name="NGZ">    70</i>
   <i type="int" name="NGXF">   140</i>
   <i type="int" name="NGYF">   140</i>
   <i type="int" name="NGZF">   140</i>
   <i type="logical" name="ADDGRID"> T  </i>
  </separator>
  <separator name="ionic" >
   <i type="int" name="NSW">     0</i>
   <i type="int" name="IBRION">    -1</i>
   <i type="int" name="MDALGO">     0</i>
   <i type="int" name="ISIF">     2</i>
   <i name="PSTRESS">      0.00000000</i>
   <i name="EDIFFG">      0.00000010</i>
   <i type="int" name="NFREE">     0</i>
   <i name="POTIM">      0.50000000</i>
   <i name="SMASS">     -3.00000000</i>
   <i name="SCALEE">      1.00000000</i>
  </separator>
  <separator name="ionic md" >
   <i name="TEBEG">      0.00010000</i>
   <i name="TEEND">      0.00010000</i>
   <i type="int" name="NBLOCK">     1</i>
   <i type="int" name="KBLOCK">     1</i>
   <i type="int" name="NPACO">   256</i>
   <i name="APACO">     10.00000000</i>
  </separator>
  <separator name="symmetry" >
   <i type="int" name="ISYM">     2</i>
   <i name="SYMPREC">      0.00001000</i>
  </separator>
  <separator name="dos" >
   <i type="int" name="LORBIT">     0</i>
   <v name="RWIGS">     -1.00000000     -1.00000000</v>
   <i type="int" name="NEDOS">   301</i>
   <i name="EMIN">     10.00000000</i>
   <i name="EMAX">    -10.00000000</i>
   <i name="EFERMI">      0.00000000</i>
  </separator>
  <separator name="writing" >
   <i type="int" name="NWRITE">     2</i>
   <i type="logical" name="LWAVE"> F  </i>
   <i type="logical" name="LDOWNSAMPLE"> F  </i>
   <i type="logical" name="LCHARG"> F  </i>
   <i type="logical" name="LPARD"> F  </i>
   <i type="logical" name="LVTOT"> F  </i>
   <i type="logical" name="LVHAR"> F  </i>
   <i type="logical" name="LELF"> F  </i>
   <i type="logical" name="LOPTICS"> F  </i>
   <v name="STM">      0.00000000      0.00000000      0.00000000      0.00000000      0.00000000      0.00000000      0.00000000</v>
  </separator>
  <separator name="performance" >
   <i type="int" name="NPAR">    32</i>
   <i type="int" name="NSIM">     4</i>
   <i type="int" name="NBLK">    -1</i>
   <i type="logical" name="LPLANE"> T  </i>
   <i type="logical" name="LSCALAPACK"> T  </i>
   <i type="logical" name="LSCAAWARE"> F  </i>
   <i type="logical" name="LSCALU"> F  </i>
   <i type="logical" name="LASYNC"> F  </i>
   <i type="logical" name="LORBITALREAL"> F  </i>
  </separator>
  <separator name="miscellaneous" >
   <i type="int" name="IDIOT">     3</i>
   <i type="int" name="PHON_NSTRUCT">    -1</i>
   <i type="logical" name="LMUSIC"> F  </i>
   <v name="POMASS">     22.99000000     35.45300000</v>
   <v name="DARWINR">      0.00000000      0.00000000</v>
   <v name="DARWINV">      1.00000000      1.00000000</v>
   <i type="logical" name="LCORR"> T  </i>
  </separator>
  <i type="logical" name="GGA_COMPAT"> T  </i>
  <i type="logical" name="LBERRY"> F  </i>
  <i type="int" name="ICORELEVEL">     0</i>
  <i type="logical" name="LDAU"> F  </i>
  <i type="int" name="I_CONSTRAINED_M">     0</i>
  <separator name="electronic exchange-correlation" >
   <i type="string" name="GGA">PS</i>
   <i type="int" name="VOSKOWN">     0</i>
   <i type="logical" name="LHFCALC"> F  </i>
   <i type="string" name="PRECFOCK"></i>
   <i type="logical" name="LSYMGRAD"> F  </i>
   <i type="logical" name="LHFONE"> F  </i>
   <i type="logical" name="LRHFCALC"> F  </i>
   <i type="logical" name="LTHOMAS"> F  </i>
   <i type="logical" name="LMODELHF"> F  </i>
   <i type="logical" name="LFOCKACE"> F  </i>
   <i name="ENCUT4O">     -1.00000000</i>
   <i type="int" name="EXXOEP">     0</i>
   <i type="int" name="FOURORBIT">     0</i>
   <i name="AEXX">      0.00000000</i>
   <i name="HFALPHA">      0.00000000</i>
   <i name="MCALPHA">      0.00000000</i>
   <i name="ALDAX">      1.00000000</i>
   <i name="AGGAX">      1.00000000</i>
   <i name="ALDAC">      1.00000000</i>
   <i name="AGGAC">      1.00000000</i>
   <i type="int" name="NKREDX">     1</i>
   <i type="int" name="NKREDY">     1</i>
   <i type="int" name="NKREDZ">     1</i>
   <i type="logical" name="SHIFTRED"> F  </i>
   <i type="logical" name="ODDONLY"> F  </i>
   <i type="logical" name="EVENONLY"> F  </i>
   <i type="int" name="LMAXFOCK">     0</i>
   <i type="int" name="NMAXFOCKAE">     0</i>
   <i type="logical" name="LFOCKAEDFT"> F  </i>
   <i name="HFSCREEN">      0.00000000</i>
   <i name="HFSCREENC">      0.00000000</i>
   <i type="int" name="NBANDSGWLOW">     0</i>
  </separator>
  <separator name="vdW DFT" >
   <i type="logical" name="LUSE_VDW"> F  </i>
   <i name="Zab_VDW">     -0.84910000</i>
   <i name="PARAM1">      0.12340000</i>
   <i name="PARAM2">      1.00000000</i>
   <i name="PARAM3">      0.00000000</i>
  </separator>
  <separator name="model GW" >
   <i type="int" name="MODEL_GW">     0</i>
   <i name="MODEL_EPS0">     13.18532537</i>
   <i name="MODEL_ALPHA">      1.00000000</i>
  </separator>
  <separator name="linear response parameters" >
   <i type="logical" name="LEPSILON"> F  </i>
   <i type="logical" name="LRPA"> F  </i>
   <i type="logical" name="LNABLA"> F  </i>
   <i type="logical" name="LVEL"> F  </i>
   <i name="CSHIFT">      0.10000000</i>
   <i name="OMEGAMAX">     -1.00000000</i>
   <i name="DEG_THRESHOLD">      0.00200000</i>
   <i name="RTIME">     -0.10000000</i>
   <i name="WPLASMAI">      0.00000000</i>
   <v name="DFIELD">      0.00000000      0.00000000      0.00000000</v>
   <v name="WPLASMA">      0.00000000      0.00000000      0.00000000      0.00000000      0.00000000      0.00000000      0.00000000      0.00000000      0.00000000</v>
  </separator>
  <separator name="orbital magnetization" >
   <i type="logical" name="NUCIND"> F  </i>
   <v name="MAGPOS">      0.00000000      0.00000000      0.00000000</v>
   <i type="logical" name="LNICSALL"> T  </i>
   <i type="logical" name="ORBITALMAG"> F  </i>
   <i type="logical" name="LMAGBLOCH"> F  </i>
   <i type="logical" name="LCHIMAG"> F  </i>
   <i type="logical" name="LGAUGE"> T  </i>
   <i type="int" name="MAGATOM">     0</i>
   <v name="MAGDIPOL">      0.00000000      0.00000000      0.00000000</v>
   <v name="AVECCONST">      0.00000000      0.00000000      0.00000000</v>
  </separator>
  <separator name="response functions" >
   <i type="logical" name="LFINITE_TEMPERATURE"> F  </i>
   <i type="logical" name="LADDER"> F  </i>
   <i type="logical" name="LRPAFORCE"> F  </i>
   <i type="logical" name="LFXC"> F  </i>
   <i type="logical" name="LHARTREE"> T  </i>
   <i type="int" name="IBSE">     0</i>
   <v type="int" name="KPOINT">    -1     0     0     0</v>
   <i type="logical" name="LTCTC"> F  </i>
   <i type="logical" name="LTCTE"> F  </i>
   <i type="logical" name="LTETE"> F  </i>
   <i type="logical" name="LTRIPLET"> F  </i>
   <i type="logical" name="LFXCEPS"> F  </i>
   <i type="logical" name="LFXHEG"> F  </i>
   <i type="int" name="NATURALO">     2</i>
   <i type="logical" name="LHOLEGF"> F  </i>
   <i type="logical" name="L2ORDER"> F  </i>
   <i type="logical" name="LDMP1"> F  </i>
   <i type="logical" name="LMP2LT"> F  </i>
   <i type="logical" name="LSMP2LT"> F  </i>
   <i type="logical" name="LGWLF"> F  </i>
   <i name="ENCUTGW">     -2.00000000</i>
   <i name="ENCUTGWSOFT">     -2.00000000</i>
   <i name="ENCUTLF">     -1.00000000</i>
   <i type="logical" name="LESF_SPLINES"> F  </i>
   <i type="int" name="LMAXMP2">    -1</i>
   <i name="SCISSOR">      0.00000000</i>
   <i type="int" name="NOMEGA">     0</i>
   <i type="int" name="NOMEGAR">     0</i>
   <i type="int" name="NBANDSGW">    -1</i>
   <i type="int" name="NBANDSO">    -1</i>
   <i type="int" name="NBANDSV">    -1</i>
   <i type="int" name="NELMGW">     1</i>
   <i type="int" name="NELMHF">     1</i>
   <i type="int" name="DIM">     3</i>
   <i type="int" name="IESPILON">     4</i>
   <i type="int" name="ANTIRES">     0</i>
   <i name="OMEGAMAX">    -30.00000000</i>
   <i name="OMEGAMIN">    -30.00000000</i>
   <i name="OMEGATL">   -200.00000000</i>
   <i type="int" name="OMEGAGRID">     0</i>
   <i name="CSHIFT">     -0.10000000</i>
   <i type="logical" name="LSELFENERGY"> F  </i>
   <i type="logical" name="LSPECTRAL"> F  </i>
   <i type="logical" name="LSPECTRALGW"> F  </i>
   <i type="logical" name="LSINGLES"> F  </i>
   <i type="logical" name="LFERMIGW"> F  </i>
   <i type="logical" name="ODDONLYGW"> F  </i>
   <i type="logical" name="EVENONLYGW"> F  </i>
   <i type="int" name="NKREDLFX">     1</i>
   <i type="int" name="NKREDLFY">     1</i>
   <i type="int" name="NKREDLFZ">     1</i>
   <i type="int" name="MAXMEM">  2800</i>
   <i type="int" name="TELESCOPE">     0</i>
   <i type="int" name="NTAUPAR">    -1</i>
   <i type="int" name="NOMEGAPAR">    -1</i>
   <i name="DAMP_NEWTON">      0.80000001</i>
   <i name="LAMBDA">      1.00000000</i>
  </separator>
  <separator name="External order field" >
   <i name="OFIELD_KAPPA">      0.00000000</i>
   <v name="OFIELD_K">      0.00000000      0.00000000      0.00000000</v>
   <i name="OFIELD_Q6_NEAR">      0.00000000</i>
   <i name="OFIELD_Q6_FAR">      0.00000000</i>
   <i name="OFIELD_A">      0.00000000</i>
  </separator>
  <separator name="optional k-points parameters" >
   <i type="int" name="KPOINTS_OPT_MODE">     1</i>
   <i type="logical" name="LKPOINTS_OPT"> F  </i>
  </separator>
 </parameters>
 <atominfo>
  <atoms>      64 </atoms>
  <types>       2 </types>
  <array name="atoms" >
   <dimension dim="1">ion</dimension>
   <field type="string">element</field>
   <field type="int">atomtype</field>
   <set>
    <rc><c>Na</c><c>   1</c></rc>
    <rc><c>Na</c><c>   1</c></rc>
    <rc><c>Na</c><c>   1</c></rc>
    <rc><c>Na</c><c>   1</c></rc>
    <rc><c>Na</c><c>   1</c></rc>
    <rc><c>Na</c><c>   1</c></rc>
    <rc><c>Na</c><c>   1</c></rc>
    <rc><c>Na</c><c>   1</c></rc>
    <rc><c>Na</c><c>   1</c></rc>
    <rc><c>Na</c><c>   1</c></rc>
    <rc><c>Na</c><c>   1</c></rc>
    <rc><c>Na</c><c>   1</c></rc>
    <rc><c>Na</c><c>   1</c></rc>
    <rc><c>Na</c><c>   1</c></rc>
    <rc><c>Na</c><c>   1</c></rc>
    <rc><c>Na</c><c>   1</c></rc>
    <rc><c>Na</c><c>   1</c></rc>
    <rc><c>Na</c><c>   1</c></rc>
    <rc><c>Na</c><c>   1</c></rc>
    <rc><c>Na</c><c>   1</c></rc>
    <rc><c>Na</c><c>   1</c></rc>
    <rc><c>Na</c><c>   1</c></rc>
    <rc><c>Na</c><c>   1</c></rc>
    <rc><c>Na</c><c>   1</c></rc>
    <rc><c>Na</c><c>   1</c></rc>
    <rc><c>Na</c><c>   1</c></rc>
    <rc><c>Na</c><c>   1</c></rc>
    <rc><c>Na</c><c>   1</c></rc>
    <rc><c>Na</c><c>   1</c></rc>
    <rc><c>Na</c><c>   1</c></rc>
    <rc><c>Na</c><c>   1</c></rc>
    <rc><c>Na</c><c>   1</c></rc>
    <rc><c>Cl</c><c>   2</c></rc>
    <rc><c>Cl</c><c>   2</c></rc>
    <rc><c>Cl</c><c>   2</c></rc>
    <rc><c>Cl</c><c>   2</c></rc>
    <rc><c>Cl</c><c>   2</c></rc>
    <rc><c>Cl</c><c>   2</c></rc>
    <rc><c>Cl</c><c>   2</c></rc>
    <rc><c>Cl</c><c>   2</c></rc>
    <rc><c>Cl</c><c>   2</c></rc>
    <rc><c>Cl</c><c>   2</c></rc>
    <rc><c>Cl</c><c>   2</c></rc>
    <rc><c>Cl</c><c>   2</c></rc>
    <rc><c>Cl</c><c>   2</c></rc>
    <rc><c>Cl</c><c>   2</c></rc>
    <rc><c>Cl</c><c>   2</c></rc>
    <rc><c>Cl</c><c>   2</c></rc>
    <rc><c>Cl</c><c>   2</c></rc>
    <rc><c>Cl</c><c>   2</c></rc>
    <rc><c>Cl</c><c>   2</c></rc>
    <rc><c>Cl</c><c>   2</c></rc>
    <rc><c>Cl</c><c>   2</c></rc>
    <rc><c>Cl</c><c>   2</c></rc>
    <rc><c>Cl</c><c>   2</c></rc>
    <rc><c>Cl</c><c>   2</c></rc>
    <rc><c>Cl</c><c>   2</c></rc>
    <rc><c>Cl</c><c>   2</c></rc>
    <rc><c>Cl</c><c>   2</c></rc>
    <rc><c>Cl</c><c>   2</c></rc>
    <rc><c>Cl</c><c>   2</c></rc>
    <rc><c>Cl</c><c>   2</c></rc>
    <rc><c>Cl</c><c>   2</c></rc>
    <rc><c>Cl</c><c>   2</c></rc>
   </set>
  </array>
  <array name="atomtypes" >
   <dimension dim="1">type</dimension>
   <field type="int">atomspertype</field>
   <field type="string">element</field>
   <field>mass</field>
   <field>valence</field>
   <field type="string">pseudopotential</field>
   <set>
    <rc><c>  32</c><c>Na</c><c>     22.99000000</c><c>      7.00000000</c><c>  PAW_PBE Na_pv 19Sep2006               </c></rc>
    <rc><c>  32</c><c>Cl</c><c>     35.45300000</c><c>      7.00000000</c><c>  PAW_PBE Cl 06Sep2000                  </c></rc>
   </set>
  </array>
 </atominfo>
 <structure name="initialpos" >
  <crystal>
   <varray name="basis" >
    <v>      11.20400236       0.00000000       0.00000000 </v>
    <v>       0.00000000      11.20400236       0.00000000 </v>
    <v>       0.00000000       0.00000000      11.20400236 </v>
   </varray>
   <i name="volume">   1406.43470641 </i>
   <varray name="rec_basis" >
    <v>       0.08925382       0.00000000       0.00000000 </v>
    <v>       0.00000000       0.08925382       0.00000000 </v>
    <v>       0.00000000       0.00000000       0.08925382 </v>
   </varray>
  </crystal>
  <varray name="positions" >
   <v>       0.00267761       0.00267761       0.00000000 </v>
   <v>       0.25000000       0.25000000       0.00000000 </v>
   <v>       0.25000000       0.00000000       0.25000000 </v>
   <v>       0.00000000       0.25000000       0.25000000 </v>
   <v>       0.00000000       0.00000000       0.50000000 </v>
   <v>       0.25000000       0.25000000       0.50000000 </v>
   <v>       0.25000000       0.00000000       0.75000000 </v>
   <v>       0.00000000       0.25000000       0.75000000 </v>
   <v>       0.00000000       0.50000000       0.00000000 </v>
   <v>       0.25000000       0.75000000       0.00000000 </v>
   <v>       0.25000000       0.50000000       0.25000000 </v>
   <v>       0.00000000       0.75000000       0.25000000 </v>
   <v>       0.00000000       0.50000000       0.50000000 </v>
   <v>       0.25000000       0.75000000       0.50000000 </v>
   <v>       0.25000000       0.50000000       0.75000000 </v>
   <v>       0.00000000       0.75000000       0.75000000 </v>
   <v>       0.50000000       0.00000000       0.00000000 </v>
   <v>       0.75000000       0.25000000       0.00000000 </v>
   <v>       0.75000000       0.00000000       0.25000000 </v>
   <v>       0.50000000       0.25000000       0.25000000 </v>
   <v>       0.50000000       0.00000000       0.50000000 </v>
   <v>       0.75000000       0.25000000       0.50000000 </v>
   <v>       0.75000000       0.00000000       0.75000000 </v>
   <v>       0.50000000       0.25000000       0.75000000 </v>
   <v>       0.50000000       0.50000000       0.00000000 </v>
   <v>       0.75000000       0.75000000       0.00000000 </v>
   <v>       0.75000000       0.50000000       0.25000000 </v>
   <v>       0.50000000       0.75000000       0.25000000 </v>
   <v>       0.50000000       0.50000000       0.50000000 </v>
   <v>       0.75000000       0.75000000       0.50000000 </v>
   <v>       0.75000000       0.50000000       0.75000000 </v>
   <v>       0.50000000       0.75000000       0.75000000 </v>
   <v>       0.25000000       0.25000000       0.25000000 </v>
   <v>       0.00000000       0.00000000       0.25000000 </v>
   <v>       0.00000000       0.25000000       0.00000000 </v>
   <v>       0.25000000       0.00000000       0.00000000 </v>
   <v>       0.25000000       0.25000000       0.75000000 </v>
   <v>       0.00000000       0.00000000       0.75000000 </v>
   <v>       0.00000000       0.25000000       0.50000000 </v>
   <v>       0.25000000       0.00000000       0.50000000 </v>
   <v>       0.25000000       0.75000000       0.25000000 </v>
   <v>       0.00000000       0.50000000       0.25000000 </v>
   <v>       0.00000000       0.75000000       0.00000000 </v>
   <v>       0.25000000       0.50000000       0.00000000 </v>
   <v>       0.25000000       0.75000000       0.75000000 </v>
   <v>       0.00000000       0.50000000       0.75000000 </v>
   <v>       0.00000000       0.75000000       0.50000000 </v>
   <v>       0.25000000       0.50000000       0.50000000 </v>
   <v>       0.75000000       0.25000000       0.25000000 </v>
   <v>       0.50000000       0.00000000       0.25000000 </v>
   <v>       0.50000000       0.25000000       0.00000000 </v>
   <v>       0.75000000       0.00000000       0.00000000 </v>
   <v>       0.75000000       0.25000000       0.75000000 </v>
   <v>       0.50000000       0.00000000       0.75000000 </v>
   <v>       0.50000000       0.25000000       0.50000000 </v>
   <v>       0.75000000       0.00000000       0.50000000 </v>
   <v>       0.75000000       0.75000000       0.25000000 </v>
   <v>       0.50000000       0.50000000       0.25000000 </v>
   <v>       0.50000000       0.75000000       0.00000000 </v>
   <v>       0.75000000       0.50000000       0.00000000 </v>
   <v>       0.75000000       0.75000000       0.75000000 </v>
   <v>       0.50000000       0.50000000       0.75000000 </v>
   <v>       0.50000000       0.75000000       0.50000000 </v>
   <v>       0.75000000       0.50000000       0.50000000 </v>
  </varray>
 </structure>
 <calculation>
  <scstep>
   <time name="dav">    7.60    7.69</time>
   <time name="total">    7.68    7.78</time>
   <energy>
    <i name="alphaZ">    751.52672365 </i>
    <i name="ewald"> -22871.34026991 </i>
    <i name="hartreedc">  -8992.24461325 </i>
    <i name="XCdc">   1456.53423549 </i>
    <i name="pawpsdc">  26466.43774078 </i>
    <i name="pawaedc"> -29286.08056155 </i>
    <i name="eentropy">     -0.00427495 </i>
    <i name="bandstr">   -745.95259564 </i>
    <i name="atom">  37532.17946992 </i>
    <i name="e_fr_energy">   4311.05585455 </i>
    <i name="e_wo_entrp">   4311.06012950 </i>
    <i name="e_0_energy">   4311.05799202 </i>
   </energy>
  </scstep>
  <scstep>
   <time name="dav">    8.26    8.31</time>
   <time name="total">    8.26    8.31</time>
   <energy>
    <i name="e_fr_energy">    360.46002227 </i>
    <i name="e_wo_entrp">    360.46002227 </i>
    <i name="e_0_energy">    360.46002227 </i>
   </energy>
  </scstep>
  <scstep>
   <time name="dav">    8.88    8.93</time>
   <time name="total">    8.88    8.93</time>
   <energy>
    <i name="e_fr_energy">   -206.49046177 </i>
    <i name="e_wo_entrp">   -206.49046177 </i>
    <i name="e_0_energy">   -206.49046177 </i>
   </energy>
  </scstep>
  <scstep>
   <time name="dav">    8.76    8.82</time>
   <time name="total">    8.76    8.82</time>
   <energy>
    <i name="e_fr_energy">   -228.20307483 </i>
    <i name="e_wo_entrp">   -228.20307483 </i>
    <i name="e_0_energy">   -228.20307483 </i>
   </energy>
  </scstep>
  <scstep>
   <time name="dav">    9.20    9.25</time>
   <time name="total">    9.48    9.53</time>
   <energy>
    <i name="e_fr_energy">   -229.00758077 </i>
    <i name="e_wo_entrp">   -229.00758077 </i>
    <i name="e_0_energy">   -229.00758077 </i>
   </energy>
  </scstep>
  <scstep>
   <time name="dav">    8.97    9.02</time>
   <time name="total">    9.31    9.36</time>
   <energy>
    <i name="e_fr_energy">   -224.13716620 </i>
    <i name="e_wo_entrp">   -224.13716620 </i>
    <i name="e_0_energy">   -224.13716620 </i>
   </energy>
  </scstep>
  <scstep>
   <time name="dav">    9.63    9.68</time>
   <time name="total">    9.96   10.02</time>
   <energy>
    <i name="e_fr_energy">   -223.77738749 </i>
    <i name="e_wo_entrp">   -223.77738749 </i>
    <i name="e_0_energy">   -223.77738749 </i>
   </energy>
  </scstep>
  <scstep>
   <time name="dav">    8.56    8.61</time>
   <time name="total">    8.89    8.94</time>
   <energy>
    <i name="e_fr_energy">   -223.90258064 </i>
    <i name="e_wo_entrp">   -223.90258064 </i>
    <i name="e_0_energy">   -223.90258064 </i>
   </energy>
  </scstep>
  <scstep>
   <time name="dav">    9.03    9.08</time>
   <time name="total">    9.37    9.42</time>
   <energy>
    <i name="e_fr_energy">   -223.89722749 </i>
    <i name="e_wo_entrp">   -223.89722749 </i>
    <i name="e_0_energy">   -223.89722749 </i>
   </energy>
  </scstep>
  <scstep>
   <time name="dav">    8.50    8.55</time>
   <time name="total">    8.83    8.88</time>
   <energy>
    <i name="e_fr_energy">   -223.90156797 </i>
    <i name="e_wo_entrp">   -223.90156797 </i>
    <i name="e_0_energy">   -223.90156797 </i>
   </energy>
  </scstep>
  <scstep>
   <time name="dav">    8.81    8.86</time>
   <time name="total">    9.14    9.20</time>
   <energy>
    <i name="e_fr_energy">   -223.90085048 </i>
    <i name="e_wo_entrp">   -223.90085048 </i>
    <i name="e_0_energy">   -223.90085048 </i>
   </energy>
  </scstep>
  <scstep>
   <time name="dav">    9.40    9.46</time>
   <time name="total">    9.74    9.79</time>
   <energy>
    <i name="e_fr_energy">   -223.90081943 </i>
    <i name="e_wo_entrp">   -223.90081943 </i>
    <i name="e_0_energy">   -223.90081943 </i>
   </energy>
  </scstep>
  <scstep>
   <time name="dav">    8.58    8.62</time>
   <time name="total">    8.91    8.96</time>
   <energy>
    <i name="e_fr_energy">   -223.90082602 </i>
    <i name="e_wo_entrp">   -223.90082602 </i>
    <i name="e_0_energy">   -223.90082602 </i>
   </energy>
  </scstep>
  <scstep>
   <time name="dav">    9.48    9.53</time>
   <time name="total">    9.82    9.87</time>
   <energy>
    <i name="e_fr_energy">   -223.90082555 </i>
    <i name="e_wo_entrp">   -223.90082555 </i>
    <i name="e_0_energy">   -223.90082555 </i>
   </energy>
  </scstep>
  <scstep>
   <time name="dav">    8.27    8.31</time>
   <time name="total">    8.61    8.66</time>
   <energy>
    <i name="e_fr_energy">   -223.90082653 </i>
    <i name="e_wo_entrp">   -223.90082653 </i>
    <i name="e_0_energy">   -223.90082653 </i>
   </energy>
  </scstep>
  <scstep>
   <time name="dav">    8.30    8.34</time>
   <time name="total">    8.63    8.68</time>
   <energy>
    <i name="e_fr_energy">   -223.90082715 </i>
    <i name="e_wo_entrp">   -223.90082715 </i>
    <i name="e_0_energy">   -223.90082715 </i>
   </energy>
  </scstep>
  <scstep>
   <time name="dav">    6.22    6.25</time>
   <time name="total">    6.55    6.59</time>
   <energy>
    <i name="e_fr_energy">   -223.90082712 </i>
    <i name="e_wo_entrp">   -223.90082712 </i>
    <i name="e_0_energy">   -223.90082712 </i>
   </energy>
  </scstep>
  <scstep>
   <time name="dav">    6.06    6.09</time>
   <time name="total">    6.39    6.43</time>
   <energy>
    <i name="e_fr_energy">   -223.90082710 </i>
    <i name="e_wo_entrp">   -223.90082710 </i>
    <i name="e_0_energy">   -223.90082710 </i>
   </energy>
  </scstep>
  <scstep>
   <time name="dav">    5.69    5.72</time>
   <time name="total">    5.76    5.79</time>
   <energy>
    <i name="alphaZ">    751.52672365 </i>
    <i name="ewald"> -22871.34026991 </i>
    <i name="hartreedc">  -9078.15541131 </i>
    <i name="XCdc">   1472.51335315 </i>
    <i name="pawpsdc">  29498.26324490 </i>
    <i name="pawaedc"> -32317.62802017 </i>
    <i name="eentropy">     -0.00000000 </i>
    <i name="bandstr">  -5211.25991733 </i>
    <i name="atom">  37532.17946992 </i>
    <i name="e_fr_energy">   -223.90082709 </i>
    <i name="e_wo_entrp">   -223.90082709 </i>
    <i name="e_0_energy">   -223.90082709 </i>
   </energy>
  </scstep>
  <structure>
   <crystal>
    <varray name="basis" >
     <v>      11.20400236       0.00000000       0.00000000 </v>
     <v>       0.00000000      11.20400236       0.00000000 </v>
     <v>       0.00000000       0.00000000      11.20400236 </v>
    </varray>
    <i name="volume">   1406.43470641 </i>
    <varray name="rec_basis" >
     <v>       0.08925382       0.00000000       0.00000000 </v>
     <v>       0.00000000       0.08925382       0.00000000 </v>
     <v>       0.00000000       0.00000000       0.08925382 </v>
    </varray>
   </crystal>
   <varray name="positions" >
    <v>       0.00267761       0.00267761       0.00000000 </v>
    <v>       0.25000000       0.25000000       0.00000000 </v>
    <v>       0.25000000       0.00000000       0.25000000 </v>
    <v>       0.00000000       0.25000000       0.25000000 </v>
    <v>       0.00000000       0.00000000       0.50000000 </v>
    <v>       0.25000000       0.25000000       0.50000000 </v>
    <v>       0.25000000       0.00000000       0.75000000 </v>
    <v>       0.00000000       0.25000000       0.75000000 </v>
    <v>       0.00000000       0.50000000       0.00000000 </v>
    <v>       0.25000000       0.75000000       0.00000000 </v>
    <v>       0.25000000       0.50000000       0.25000000 </v>
    <v>       0.00000000       0.75000000       0.25000000 </v>
    <v>       0.00000000       0.50000000       0.50000000 </v>
    <v>       0.25000000       0.75000000       0.50000000 </v>
    <v>       0.25000000       0.50000000       0.75000000 </v>
    <v>       0.00000000       0.75000000       0.75000000 </v>
    <v>       0.50000000       0.00000000       0.00000000 </v>
    <v>       0.75000000       0.25000000       0.00000000 </v>
    <v>       0.75000000       0.00000000       0.25000000 </v>
    <v>       0.50000000       0.25000000       0.25000000 </v>
    <v>       0.50000000       0.00000000       0.50000000 </v>
    <v>       0.75000000       0.25000000       0.50000000 </v>
    <v>       0.75000000       0.00000000       0.75000000 </v>
    <v>       0.50000000       0.25000000       0.75000000 </v>
    <v>       0.50000000       0.50000000       0.00000000 </v>
    <v>       0.75000000       0.75000000       0.00000000 </v>
    <v>       0.75000000       0.50000000       0.25000000 </v>
    <v>       0.50000000       0.75000000       0.25000000 </v>
    <v>       0.50000000       0.50000000       0.50000000 </v>
    <v>       0.75000000       0.75000000       0.50000000 </v>
    <v>       0.75000000       0.50000000       0.75000000 </v>
    <v>       0.50000000       0.75000000       0.75000000 </v>
    <v>       0.25000000       0.25000000       0.25000000 </v>
    <v>       0.00000000       0.00000000       0.25000000 </v>
    <v>       0.00000000       0.25000000       0.00000000 </v>
    <v>       0.25000000       0.00000000       0.00000000 </v>
    <v>       0.25000000       0.25000000       0.75000000 </v>
    <v>       0.00000000       0.00000000       0.75000000 </v>
    <v>       0.00000000       0.25000000       0.50000000 </v>
    <v>       0.25000000       0.00000000       0.50000000 </v>
    <v>       0.25000000       0.75000000       0.25000000 </v>
    <v>       0.00000000       0.50000000       0.25000000 </v>
    <v>       0.00000000       0.75000000       0.00000000 </v>
    <v>       0.25000000       0.50000000       0.00000000 </v>
    <v>       0.25000000       0.75000000       0.75000000 </v>
    <v>       0.00000000       0.50000000       0.75000000 </v>
    <v>       0.00000000       0.75000000       0.50000000 </v>
    <v>       0.25000000       0.50000000       0.50000000 </v>
    <v>       0.75000000       0.25000000       0.25000000 </v>
    <v>       0.50000000       0.00000000       0.25000000 </v>
    <v>       0.50000000       0.25000000       0.00000000 </v>
    <v>       0.75000000       0.00000000       0.00000000 </v>
    <v>       0.75000000       0.25000000       0.75000000 </v>
    <v>       0.50000000       0.00000000       0.75000000 </v>
    <v>       0.50000000       0.25000000       0.50000000 </v>
    <v>       0.75000000       0.00000000       0.50000000 </v>
    <v>       0.75000000       0.75000000       0.25000000 </v>
    <v>       0.50000000       0.50000000       0.25000000 </v>
    <v>       0.50000000       0.75000000       0.00000000 </v>
    <v>       0.75000000       0.50000000       0.00000000 </v>
    <v>       0.75000000       0.75000000       0.75000000 </v>
    <v>       0.50000000       0.50000000       0.75000000 </v>
    <v>       0.50000000       0.75000000       0.50000000 </v>
    <v>       0.75000000       0.50000000       0.50000000 </v>
   </varray>
  </structure>
  <varray name="forces" >
   <v>      -0.06269226      -0.06269226      -0.00000000 </v>
   <v>       0.00753081       0.00753081      -0.00000000 </v>
   <v>       0.00149282      -0.00169938       0.00590580 </v>
   <v>      -0.00169938       0.00149282       0.00590580 </v>
   <v>      -0.00004969      -0.00004969      -0.00000000 </v>
   <v>      -0.00011205      -0.00011205      -0.00000000 </v>
   <v>       0.00149282      -0.00169938      -0.00590580 </v>
   <v>      -0.00169938       0.00149282      -0.00590580 </v>
   <v>      -0.00005169       0.00891255      -0.00000000 </v>
   <v>      -0.00437622      -0.00432988      -0.00000000 </v>
   <v>      -0.00002960       0.00117187      -0.00007307 </v>
   <v>      -0.00162839       0.00152672      -0.00581995 </v>
   <v>      -0.00045310       0.00030732      -0.00000000 </v>
   <v>       0.00003947       0.00005556      -0.00000000 </v>
   <v>      -0.00002960       0.00117187       0.00007307 </v>
   <v>      -0.00162839       0.00152672       0.00581995 </v>
   <v>       0.00891255      -0.00005169      -0.00000000 </v>
   <v>      -0.00432988      -0.00437622      -0.00000000 </v>
   <v>       0.00152672      -0.00162839      -0.00581995 </v>
   <v>       0.00117187      -0.00002960      -0.00007307 </v>
   <v>       0.00030732      -0.00045310      -0.00000000 </v>
   <v>       0.00005556       0.00003947      -0.00000000 </v>
   <v>       0.00152672      -0.00162839       0.00581995 </v>
   <v>       0.00117187      -0.00002960       0.00007307 </v>
   <v>       0.00030766       0.00030766      -0.00000000 </v>
   <v>       0.00722407       0.00722407      -0.00000000 </v>
   <v>      -0.00002610       0.00115167       0.00007774 </v>
   <v>       0.00115167      -0.00002610       0.00007774 </v>
   <v>       0.00043972       0.00043972      -0.00000000 </v>
   <v>      -0.00009452      -0.00009452      -0.00000000 </v>
   <v>      -0.00002610       0.00115167      -0.00007774 </v>
   <v>       0.00115167      -0.00002610      -0.00007774 </v>
   <v>      -0.00153801      -0.00153801      -0.00262513 </v>
   <v>       0.00499390       0.00499390      -0.00024567 </v>
   <v>       0.00484277       0.02007987      -0.00000000 </v>
   <v>       0.02007987       0.00484277      -0.00000000 </v>
   <v>      -0.00153801      -0.00153801       0.00262513 </v>
   <v>       0.00499390       0.00499390       0.00024567 </v>
   <v>       0.00059631       0.00017867      -0.00000000 </v>
   <v>       0.00017867       0.00059631      -0.00000000 </v>
   <v>       0.00107476       0.00105186      -0.00000799 </v>
   <v>       0.00059104      -0.00282980      -0.00000224 </v>
   <v>       0.00509928       0.01628057      -0.00000000 </v>
   <v>       0.00015530      -0.00283304      -0.00000000 </v>
   <v>       0.00107476       0.00105186       0.00000799 </v>
   <v>       0.00059104      -0.00282980       0.00000224 </v>
   <v>       0.00058627       0.00012968      -0.00000000 </v>
   <v>      -0.00000294      -0.00067287      -0.00000000 </v>
   <v>       0.00105186       0.00107476      -0.00000799 </v>
   <v>      -0.00282980       0.00059104      -0.00000224 </v>
   <v>      -0.00283304       0.00015530      -0.00000000 </v>
   <v>       0.01628057       0.00509928      -0.00000000 </v>
   <v>       0.00105186       0.00107476       0.00000799 </v>
   <v>      -0.00282980       0.00059104       0.00000224 </v>
   <v>      -0.00067287      -0.00000294      -0.00000000 </v>
   <v>       0.00012968       0.00058627      -0.00000000 </v>
   <v>      -0.00151204      -0.00151204       0.00255123 </v>
   <v>      -0.00066680      -0.00066680      -0.00000234 </v>
   <v>      -0.00282616       0.00015176      -0.00000000 </v>
   <v>       0.00015176      -0.00282616      -0.00000000 </v>
   <v>      -0.00151204      -0.00151204      -0.00255123 </v>
   <v>      -0.00066680      -0.00066680       0.00000234 </v>
   <v>      -0.00066136      -0.00001092      -0.00000000 </v>
   <v>      -0.00001092      -0.00066136      -0.00000000 </v>
  </varray>
  <varray name="stress" >
   <v>      -0.36828778      -0.00243015       0.00000000 </v>
   <v>      -0.00243015      -0.36828778       0.00000000 </v>
   <v>       0.00000000       0.00000000      -0.37986237 </v>
  </varray>
  <energy>
   <i name="e_fr_energy">   -223.90082709 </i>
   <i name="e_wo_entrp">   -223.90082709 </i>
   <i name="e_0_energy">   -223.90082709 </i>
  </energy>
  <time name="totalsc">  174.98  176.04</time>
  <eigenvalues>
   <array>
    <dimension dim="1">band</dimension>
    <dimension dim="2">kpoint</dimension>
    <dimension dim="3">spin</dimension>
    <field>eigene</field>
    <field>occ</field>
    <set>
     <set comment="spin 1">
      <set comment="kpoint 1">
       <r>  -21.3053    1.0000 </r>
       <r>  -21.3051    1.0000 </r>
       <r>  -21.3049    1.0000 </r>
       <r>  -21.3040    1.0000 </r>
       <r>  -21.2966    1.0000 </r>
       <r>  -21.2961    1.0000 </r>
       <r>  -21.2956    1.0000 </r>
       <r>  -21.2949    1.0000 </r>
       <r>  -21.2942    1.0000 </r>
       <r>  -21.2942    1.0000 </r>
       <r>  -21.2941    1.0000 </r>
       <r>  -21.2937    1.0000 </r>
       <r>  -21.2936    1.0000 </r>
       <r>  -21.2934    1.0000 </r>
       <r>  -21.2932    1.0000 </r>
       <r>  -21.2927    1.0000 </r>
       <r>  -21.2923    1.0000 </r>
       <r>  -21.2916    1.0000 </r>
       <r>  -21.2916    1.0000 </r>
       <r>  -21.2882    1.0000 </r>
       <r>  -21.2876    1.0000 </r>
       <r>  -21.2876    1.0000 </r>
       <r>  -21.2875    1.0000 </r>
       <r>  -21.2868    1.0000 </r>
       <r>  -21.2868    1.0000 </r>
       <r>  -21.2865    1.0000 </r>
       <r>  -21.2862    1.0000 </r>
       <r>  -21.2860    1.0000 </r>
       <r>  -21.2859    1.0000 </r>
       <r>  -21.2854    1.0000 </r>
       <r>  -21.2852    1.0000 </r>
       <r>  -21.2839    1.0000 </r>
       <r>  -21.2838    1.0000 </r>
       <r>  -21.2833    1.0000 </r>
       <r>  -21.2833    1.0000 </r>
       <r>  -21.2832    1.0000 </r>
       <r>  -21.2830    1.0000 </r>
       <r>  -21.2828    1.0000 </r>
       <r>  -21.2826    1.0000 </r>
       <r>  -21.2816    1.0000 </r>
       <r>  -21.2815    1.0000 </r>
       <r>  -21.2813    1.0000 </r>
       <r>  -21.2813    1.0000 </r>
       <r>  -21.2812    1.0000 </r>
       <r>  -21.2806    1.0000 </r>
       <r>  -21.2804    1.0000 </r>
       <r>  -21.2804    1.0000 </r>
       <r>  -21.2803    1.0000 </r>
       <r>  -21.2800    1.0000 </r>
       <r>  -21.2800    1.0000 </r>
       <r>  -21.2799    1.0000 </r>
       <r>  -21.2799    1.0000 </r>
       <r>  -21.2799    1.0000 </r>
       <r>  -21.2798    1.0000 </r>
       <r>  -21.2795    1.0000 </r>
       <r>  -21.2792    1.0000 </r>
       <r>  -21.2790    1.0000 </r>
       <r>  -21.2789    1.0000 </r>
       <r>  -21.2777    1.0000 </r>
       <r>  -21.2769    1.0000 </r>
       <r>  -21.2766    1.0000 </r>
       <r>  -21.2753    1.0000 </r>
       <r>  -21.2751    1.0000 </r>
       <r>  -21.2751    1.0000 </r>
       <r>  -21.2748    1.0000 </r>
       <r>  -21.2747    1.0000 </r>
       <r>  -21.2744    1.0000 </r>
       <r>  -21.2741    1.0000 </r>
       <r>  -21.2740    1.0000 </r>
       <r>  -21.2740    1.0000 </r>
       <r>  -21.2735    1.0000 </r>
       <r>  -21.2735    1.0000 </r>
       <r>  -21.2734    1.0000 </r>
       <r>  -21.2733    1.0000 </r>
       <r>  -21.2733    1.0000 </r>
       <r>  -21.2729    1.0000 </r>
       <r>  -21.2717    1.0000 </r>
       <r>  -21.2717    1.0000 </r>
       <r>  -21.2717    1.0000 </r>
       <r>  -21.2716    1.0000 </r>
       <r>  -21.2715    1.0000 </r>
       <r>  -21.2715    1.0000 </r>
       <r>  -21.2713    1.0000 </r>
       <r>  -21.2713    1.0000 </r>
       <r>  -21.2703    1.0000 </r>
       <r>  -21.2702    1.0000 </r>
       <r>  -21.2700    1.0000 </r>
       <r>  -21.2696    1.0000 </r>
       <r>  -21.2694    1.0000 </r>
       <r>  -21.2685    1.0000 </r>
       <r>  -21.2684    1.0000 </r>
       <r>  -21.2682    1.0000 </r>
       <r>  -21.2679    1.0000 </r>
       <r>  -21.2649    1.0000 </r>
       <r>  -21.2648    1.0000 </r>
       <r>  -21.2647    1.0000 </r>
       <r>  -13.3582    1.0000 </r>
       <r>  -13.1438    1.0000 </r>
       <r>  -13.1409    1.0000 </r>
       <r>  -13.1373    1.0000 </r>
       <r>  -13.1373    1.0000 </r>
       <r>  -13.1346    1.0000 </r>
       <r>  -13.1327    1.0000 </r>
       <r>  -13.0221    1.0000 </r>
       <r>  -13.0208    1.0000 </r>
       <r>  -13.0119    1.0000 </r>
       <r>  -13.0112    1.0000 </r>
       <r>  -13.0112    1.0000 </r>
       <r>  -13.0112    1.0000 </r>
       <r>  -13.0111    1.0000 </r>
       <r>  -13.0111    1.0000 </r>
       <r>  -13.0111    1.0000 </r>
       <r>  -13.0111    1.0000 </r>
       <r>  -13.0048    1.0000 </r>
       <r>  -13.0040    1.0000 </r>
       <r>  -12.9900    1.0000 </r>
       <r>  -12.9894    1.0000 </r>
       <r>  -12.9893    1.0000 </r>
       <r>  -12.9878    1.0000 </r>
       <r>  -12.9415    1.0000 </r>
       <r>  -12.9405    1.0000 </r>
       <r>  -12.9402    1.0000 </r>
       <r>  -12.9253    1.0000 </r>
       <r>  -12.9235    1.0000 </r>
       <r>  -12.9215    1.0000 </r>
       <r>  -12.9214    1.0000 </r>
       <r>  -12.9168    1.0000 </r>
       <r>  -12.9138    1.0000 </r>
       <r>   -2.7002    1.0000 </r>
       <r>   -2.7001    1.0000 </r>
       <r>   -2.7000    1.0000 </r>
       <r>   -2.7000    1.0000 </r>
       <r>   -2.4241    1.0000 </r>
       <r>   -2.4240    1.0000 </r>
       <r>   -2.4240    1.0000 </r>
       <r>   -2.2088    1.0000 </r>
       <r>   -2.2074    1.0000 </r>
       <r>   -2.2072    1.0000 </r>
       <r>   -2.2053    1.0000 </r>
       <r>   -2.2050    1.0000 </r>
       <r>   -2.2045    1.0000 </r>
       <r>   -2.2043    1.0000 </r>
       <r>   -2.2037    1.0000 </r>
       <r>   -2.2033    1.0000 </r>
       <r>   -2.2014    1.0000 </r>
       <r>   -2.2012    1.0000 </r>
       <r>   -2.2000    1.0000 </r>
       <r>   -1.9282    1.0000 </r>
       <r>   -1.9280    1.0000 </r>
       <r>   -1.9275    1.0000 </r>
       <r>   -1.9273    1.0000 </r>
       <r>   -1.9248    1.0000 </r>
       <r>   -1.9247    1.0000 </r>
       <r>   -1.9246    1.0000 </r>
       <r>   -1.9246    1.0000 </r>
       <r>   -1.9222    1.0000 </r>
       <r>   -1.9219    1.0000 </r>
       <r>   -1.9214    1.0000 </r>
       <r>   -1.9212    1.0000 </r>
       <r>   -1.7979    1.0000 </r>
       <r>   -1.7973    1.0000 </r>
       <r>   -1.7966    1.0000 </r>
       <r>   -1.7966    1.0000 </r>
       <r>   -1.7960    1.0000 </r>
       <r>   -1.7952    1.0000 </r>
       <r>   -1.5068    1.0000 </r>
       <r>   -1.5066    1.0000 </r>
       <r>   -1.5065    1.0000 </r>
       <r>   -1.5062    1.0000 </r>
       <r>   -1.5054    1.0000 </r>
       <r>   -1.5053    1.0000 </r>
       <r>   -1.5053    1.0000 </r>
       <r>   -1.5052    1.0000 </r>
       <r>   -1.5051    1.0000 </r>
       <r>   -1.5051    1.0000 </r>
       <r>   -1.5047    1.0000 </r>
       <r>   -1.5039    1.0000 </r>
       <r>   -1.4636    1.0000 </r>
       <r>   -1.4631    1.0000 </r>
       <r>   -1.4625    1.0000 </r>
       <r>   -1.4622    1.0000 </r>
       <r>   -1.4620    1.0000 </r>
       <r>   -1.4616    1.0000 </r>
       <r>   -1.2948    1.0000 </r>
       <r>   -1.2948    1.0000 </r>
       <r>   -1.2947    1.0000 </r>
       <r>   -1.2947    1.0000 </r>
       <r>   -1.2947    1.0000 </r>
       <r>   -1.2946    1.0000 </r>
       <r>   -1.0058    1.0000 </r>
       <r>   -1.0039    1.0000 </r>
       <r>   -1.0039    1.0000 </r>
       <r>   -1.0037    1.0000 </r>
       <r>   -1.0016    1.0000 </r>
       <r>   -1.0015    1.0000 </r>
       <r>   -1.0008    1.0000 </r>
       <r>   -1.0007    1.0000 </r>
       <r>   -0.9986    1.0000 </r>
       <r>   -0.9981    1.0000 </r>
       <r>   -0.9981    1.0000 </r>
       <r>   -0.9979    1.0000 </r>
       <r>   -0.9531    1.0000 </r>
       <r>   -0.9527    1.0000 </r>
       <r>   -0.9526    1.0000 </r>
       <r>   -0.9520    1.0000 </r>
       <r>   -0.9483    1.0000 </r>
       <r>   -0.9479    1.0000 </r>
       <r>   -0.9478    1.0000 </r>
       <r>   -0.9473    1.0000 </r>
       <r>   -0.9473    1.0000 </r>
       <r>   -0.9471    1.0000 </r>
       <r>   -0.9470    1.0000 </r>
       <r>   -0.9469    1.0000 </r>
       <r>   -0.9458    1.0000 </r>
       <r>   -0.9458    1.0000 </r>
       <r>   -0.9448    1.0000 </r>
       <r>   -0.9436    1.0000 </r>
       <r>   -0.9414    1.0000 </r>
       <r>   -0.9410    1.0000 </r>
       <r>   -0.9409    1.0000 </r>
       <r>   -0.9400    1.0000 </r>
       <r>   -0.6649    1.0000 </r>
       <r>   -0.6648    1.0000 </r>
       <r>   -0.6647    1.0000 </r>
       <r>    4.3403    0.0000 </r>
       <r>    6.3648    0.0000 </r>
       <r>    6.3668    0.0000 </r>
       <r>    6.3682    0.0000 </r>
       <r>    6.3682    0.0000 </r>
       <r>    6.3696    0.0000 </r>
       <r>    6.3714    0.0000 </r>
       <r>    6.4445    0.0000 </r>
       <r>    6.4446    0.0000 </r>
       <r>    6.4446    0.0000 </r>
       <r>    6.4447    0.0000 </r>
       <r>    6.8279    0.0000 </r>
       <r>    6.8280    0.0000 </r>
       <r>    6.8280    0.0000 </r>
       <r>    7.2068    0.0000 </r>
       <r>    7.2068    0.0000 </r>
       <r>    7.2069    0.0000 </r>
       <r>    7.4601    0.0000 </r>
       <r>    7.4616    0.0000 </r>
       <r>    7.4619    0.0000 </r>
       <r>    7.4632    0.0000 </r>
       <r>    7.4633    0.0000 </r>
       <r>    7.4641    0.0000 </r>
       <r>    7.4642    0.0000 </r>
       <r>    7.4651    0.0000 </r>
       <r>    7.4652    0.0000 </r>
       <r>    7.4665    0.0000 </r>
       <r>    7.4668    0.0000 </r>
       <r>    7.4683    0.0000 </r>
       <r>    8.1662    0.0000 </r>
       <r>    8.1671    0.0000 </r>
       <r>    8.1684    0.0000 </r>
       <r>    8.1684    0.0000 </r>
       <r>    8.1697    0.0000 </r>
       <r>    8.1706    0.0000 </r>
       <r>    8.2760    0.0000 </r>
       <r>    8.2791    0.0000 </r>
       <r>    8.2795    0.0000 </r>
       <r>    8.2796    0.0000 </r>
       <r>    8.2801    0.0000 </r>
       <r>    8.2830    0.0000 </r>
       <r>    8.8911    0.0000 </r>
       <r>    8.8946    0.0000 </r>
       <r>    8.8988    0.0000 </r>
       <r>    8.8995    0.0000 </r>
       <r>    8.9002    0.0000 </r>
       <r>    8.9006    0.0000 </r>
       <r>    8.9011    0.0000 </r>
       <r>    8.9020    0.0000 </r>
       <r>    8.9024    0.0000 </r>
       <r>    8.9035    0.0000 </r>
       <r>    8.9046    0.0000 </r>
       <r>    8.9054    0.0000 </r>
       <r>    8.9129    0.0000 </r>
       <r>    8.9147    0.0000 </r>
       <r>    8.9149    0.0000 </r>
       <r>    8.9160    0.0000 </r>
       <r>    8.9167    0.0000 </r>
       <r>    8.9168    0.0000 </r>
       <r>    8.9170    0.0000 </r>
       <r>    8.9189    0.0000 </r>
       <r>    8.9192    0.0000 </r>
       <r>    8.9229    0.0000 </r>
       <r>    8.9252    0.0000 </r>
      </set>
      <set comment="kpoint 2">
       <r>  -21.3031    1.0000 </r>
       <r>  -21.3030    1.0000 </r>
       <r>  -21.3020    1.0000 </r>
       <r>  -21.3006    1.0000 </r>
       <r>  -21.2992    1.0000 </r>
       <r>  -21.2987    1.0000 </r>
       <r>  -21.2978    1.0000 </r>
       <r>  -21.2970    1.0000 </r>
       <r>  -21.2955    1.0000 </r>
       <r>  -21.2948    1.0000 </r>
       <r>  -21.2943    1.0000 </r>
       <r>  -21.2933    1.0000 </r>
       <r>  -21.2931    1.0000 </r>
       <r>  -21.2922    1.0000 </r>
       <r>  -21.2920    1.0000 </r>
       <r>  -21.2918    1.0000 </r>
       <r>  -21.2914    1.0000 </r>
       <r>  -21.2911    1.0000 </r>
       <r>  -21.2906    1.0000 </r>
       <r>  -21.2904    1.0000 </r>
       <r>  -21.2902    1.0000 </r>
       <r>  -21.2895    1.0000 </r>
       <r>  -21.2889    1.0000 </r>
       <r>  -21.2883    1.0000 </r>
       <r>  -21.2880    1.0000 </r>
       <r>  -21.2878    1.0000 </r>
       <r>  -21.2873    1.0000 </r>
       <r>  -21.2871    1.0000 </r>
       <r>  -21.2869    1.0000 </r>
       <r>  -21.2868    1.0000 </r>
       <r>  -21.2864    1.0000 </r>
       <r>  -21.2862    1.0000 </r>
       <r>  -21.2862    1.0000 </r>
       <r>  -21.2855    1.0000 </r>
       <r>  -21.2841    1.0000 </r>
       <r>  -21.2836    1.0000 </r>
       <r>  -21.2831    1.0000 </r>
       <r>  -21.2827    1.0000 </r>
       <r>  -21.2827    1.0000 </r>
       <r>  -21.2823    1.0000 </r>
       <r>  -21.2820    1.0000 </r>
       <r>  -21.2809    1.0000 </r>
       <r>  -21.2802    1.0000 </r>
       <r>  -21.2800    1.0000 </r>
       <r>  -21.2799    1.0000 </r>
       <r>  -21.2796    1.0000 </r>
       <r>  -21.2795    1.0000 </r>
       <r>  -21.2793    1.0000 </r>
       <r>  -21.2786    1.0000 </r>
       <r>  -21.2783    1.0000 </r>
       <r>  -21.2777    1.0000 </r>
       <r>  -21.2775    1.0000 </r>
       <r>  -21.2775    1.0000 </r>
       <r>  -21.2773    1.0000 </r>
       <r>  -21.2771    1.0000 </r>
       <r>  -21.2770    1.0000 </r>
       <r>  -21.2768    1.0000 </r>
       <r>  -21.2762    1.0000 </r>
       <r>  -21.2761    1.0000 </r>
       <r>  -21.2757    1.0000 </r>
       <r>  -21.2755    1.0000 </r>
       <r>  -21.2753    1.0000 </r>
       <r>  -21.2753    1.0000 </r>
       <r>  -21.2752    1.0000 </r>
       <r>  -21.2750    1.0000 </r>
       <r>  -21.2749    1.0000 </r>
       <r>  -21.2747    1.0000 </r>
       <r>  -21.2747    1.0000 </r>
       <r>  -21.2746    1.0000 </r>
       <r>  -21.2744    1.0000 </r>
       <r>  -21.2741    1.0000 </r>
       <r>  -21.2741    1.0000 </r>
       <r>  -21.2739    1.0000 </r>
       <r>  -21.2737    1.0000 </r>
       <r>  -21.2735    1.0000 </r>
       <r>  -21.2731    1.0000 </r>
       <r>  -21.2729    1.0000 </r>
       <r>  -21.2724    1.0000 </r>
       <r>  -21.2723    1.0000 </r>
       <r>  -21.2720    1.0000 </r>
       <r>  -21.2718    1.0000 </r>
       <r>  -21.2717    1.0000 </r>
       <r>  -21.2716    1.0000 </r>
       <r>  -21.2710    1.0000 </r>
       <r>  -21.2706    1.0000 </r>
       <r>  -21.2704    1.0000 </r>
       <r>  -21.2703    1.0000 </r>
       <r>  -21.2699    1.0000 </r>
       <r>  -21.2696    1.0000 </r>
       <r>  -21.2693    1.0000 </r>
       <r>  -21.2689    1.0000 </r>
       <r>  -21.2686    1.0000 </r>
       <r>  -21.2684    1.0000 </r>
       <r>  -21.2654    1.0000 </r>
       <r>  -21.2649    1.0000 </r>
       <r>  -21.2649    1.0000 </r>
       <r>  -13.2940    1.0000 </r>
       <r>  -13.2889    1.0000 </r>
       <r>  -13.1065    1.0000 </r>
       <r>  -13.1013    1.0000 </r>
       <r>  -13.0983    1.0000 </r>
       <r>  -13.0971    1.0000 </r>
       <r>  -13.0968    1.0000 </r>
       <r>  -13.0955    1.0000 </r>
       <r>  -13.0938    1.0000 </r>
       <r>  -13.0892    1.0000 </r>
       <r>  -13.0101    1.0000 </r>
       <r>  -13.0052    1.0000 </r>
       <r>  -13.0034    1.0000 </r>
       <r>  -13.0006    1.0000 </r>
       <r>  -13.0006    1.0000 </r>
       <r>  -13.0005    1.0000 </r>
       <r>  -12.9979    1.0000 </r>
       <r>  -12.9967    1.0000 </r>
       <r>  -12.9939    1.0000 </r>
       <r>  -12.9902    1.0000 </r>
       <r>  -12.9513    1.0000 </r>
       <r>  -12.9481    1.0000 </r>
       <r>  -12.9450    1.0000 </r>
       <r>  -12.9439    1.0000 </r>
       <r>  -12.9437    1.0000 </r>
       <r>  -12.9423    1.0000 </r>
       <r>  -12.9413    1.0000 </r>
       <r>  -12.9368    1.0000 </r>
       <r>  -12.9345    1.0000 </r>
       <r>  -12.9312    1.0000 </r>
       <r>  -12.9259    1.0000 </r>
       <r>  -12.9234    1.0000 </r>
       <r>   -2.5082    1.0000 </r>
       <r>   -2.5081    1.0000 </r>
       <r>   -2.5065    1.0000 </r>
       <r>   -2.5051    1.0000 </r>
       <r>   -2.5037    1.0000 </r>
       <r>   -2.5024    1.0000 </r>
       <r>   -2.5008    1.0000 </r>
       <r>   -2.5007    1.0000 </r>
       <r>   -2.2902    1.0000 </r>
       <r>   -2.2901    1.0000 </r>
       <r>   -2.2852    1.0000 </r>
       <r>   -2.2852    1.0000 </r>
       <r>   -2.2769    1.0000 </r>
       <r>   -2.2716    1.0000 </r>
       <r>   -2.1427    1.0000 </r>
       <r>   -2.1388    1.0000 </r>
       <r>   -2.1366    1.0000 </r>
       <r>   -2.1366    1.0000 </r>
       <r>   -2.1363    1.0000 </r>
       <r>   -2.1363    1.0000 </r>
       <r>   -2.1341    1.0000 </r>
       <r>   -2.1301    1.0000 </r>
       <r>   -1.9883    1.0000 </r>
       <r>   -1.9878    1.0000 </r>
       <r>   -1.9860    1.0000 </r>
       <r>   -1.9858    1.0000 </r>
       <r>   -1.9852    1.0000 </r>
       <r>   -1.9849    1.0000 </r>
       <r>   -1.9833    1.0000 </r>
       <r>   -1.9824    1.0000 </r>
       <r>   -1.8123    1.0000 </r>
       <r>   -1.8121    1.0000 </r>
       <r>   -1.8104    1.0000 </r>
       <r>   -1.8100    1.0000 </r>
       <r>   -1.8075    1.0000 </r>
       <r>   -1.8071    1.0000 </r>
       <r>   -1.8052    1.0000 </r>
       <r>   -1.8051    1.0000 </r>
       <r>   -1.5001    1.0000 </r>
       <r>   -1.5000    1.0000 </r>
       <r>   -1.4955    1.0000 </r>
       <r>   -1.4955    1.0000 </r>
       <r>   -1.3859    1.0000 </r>
       <r>   -1.3807    1.0000 </r>
       <r>   -1.3804    1.0000 </r>
       <r>   -1.3752    1.0000 </r>
       <r>   -1.2156    1.0000 </r>
       <r>   -1.2151    1.0000 </r>
       <r>   -1.2109    1.0000 </r>
       <r>   -1.2101    1.0000 </r>
       <r>   -1.1942    1.0000 </r>
       <r>   -1.1937    1.0000 </r>
       <r>   -1.1934    1.0000 </r>
       <r>   -1.1911    1.0000 </r>
       <r>   -1.1910    1.0000 </r>
       <r>   -1.1902    1.0000 </r>
       <r>   -1.1900    1.0000 </r>
       <r>   -1.1886    1.0000 </r>
       <r>   -1.1798    1.0000 </r>
       <r>   -1.1756    1.0000 </r>
       <r>   -1.1754    1.0000 </r>
       <r>   -1.1749    1.0000 </r>
       <r>   -1.1734    1.0000 </r>
       <r>   -1.1728    1.0000 </r>
       <r>   -1.1721    1.0000 </r>
       <r>   -1.1686    1.0000 </r>
       <r>   -1.1626    1.0000 </r>
       <r>   -1.1613    1.0000 </r>
       <r>   -1.1611    1.0000 </r>
       <r>   -1.1606    1.0000 </r>
       <r>   -1.1584    1.0000 </r>
       <r>   -1.1579    1.0000 </r>
       <r>   -1.1557    1.0000 </r>
       <r>   -1.1548    1.0000 </r>
       <r>   -1.0855    1.0000 </r>
       <r>   -1.0807    1.0000 </r>
       <r>   -0.9518    1.0000 </r>
       <r>   -0.9517    1.0000 </r>
       <r>   -0.9474    1.0000 </r>
       <r>   -0.9469    1.0000 </r>
       <r>   -0.9469    1.0000 </r>
       <r>   -0.9465    1.0000 </r>
       <r>   -0.9424    1.0000 </r>
       <r>   -0.9421    1.0000 </r>
       <r>   -0.9389    1.0000 </r>
       <r>   -0.9350    1.0000 </r>
       <r>   -0.9325    1.0000 </r>
       <r>   -0.9323    1.0000 </r>
       <r>   -0.9323    1.0000 </r>
       <r>   -0.9316    1.0000 </r>
       <r>   -0.9295    1.0000 </r>
       <r>   -0.9248    1.0000 </r>
       <r>   -0.7706    1.0000 </r>
       <r>   -0.7705    1.0000 </r>
       <r>   -0.7658    1.0000 </r>
       <r>   -0.7658    1.0000 </r>
       <r>    5.0205    0.0000 </r>
       <r>    5.0242    0.0000 </r>
       <r>    6.7138    0.0000 </r>
       <r>    6.7165    0.0000 </r>
       <r>    6.7168    0.0000 </r>
       <r>    6.7182    0.0000 </r>
       <r>    6.7185    0.0000 </r>
       <r>    6.7199    0.0000 </r>
       <r>    6.7201    0.0000 </r>
       <r>    6.7227    0.0000 </r>
       <r>    6.8401    0.0000 </r>
       <r>    6.8402    0.0000 </r>
       <r>    6.8419    0.0000 </r>
       <r>    6.8420    0.0000 </r>
       <r>    6.8444    0.0000 </r>
       <r>    6.8445    0.0000 </r>
       <r>    6.8462    0.0000 </r>
       <r>    6.8462    0.0000 </r>
       <r>    6.9696    0.0000 </r>
       <r>    6.9726    0.0000 </r>
       <r>    7.3591    0.0000 </r>
       <r>    7.3623    0.0000 </r>
       <r>    7.3628    0.0000 </r>
       <r>    7.3659    0.0000 </r>
       <r>    7.4774    0.0000 </r>
       <r>    7.4830    0.0000 </r>
       <r>    7.7116    0.0000 </r>
       <r>    7.7116    0.0000 </r>
       <r>    7.7176    0.0000 </r>
       <r>    7.7176    0.0000 </r>
       <r>    8.2611    0.0000 </r>
       <r>    8.2636    0.0000 </r>
       <r>    8.2650    0.0000 </r>
       <r>    8.2656    0.0000 </r>
       <r>    8.2662    0.0000 </r>
       <r>    8.2669    0.0000 </r>
       <r>    8.2682    0.0000 </r>
       <r>    8.2707    0.0000 </r>
       <r>    8.5331    0.0000 </r>
       <r>    8.5339    0.0000 </r>
       <r>    8.5359    0.0000 </r>
       <r>    8.5362    0.0000 </r>
       <r>    8.5369    0.0000 </r>
       <r>    8.5374    0.0000 </r>
       <r>    8.5381    0.0000 </r>
       <r>    8.5383    0.0000 </r>
       <r>    8.5384    0.0000 </r>
       <r>    8.5394    0.0000 </r>
       <r>    8.5396    0.0000 </r>
       <r>    8.5397    0.0000 </r>
       <r>    8.5406    0.0000 </r>
       <r>    8.5409    0.0000 </r>
       <r>    8.5432    0.0000 </r>
       <r>    8.5443    0.0000 </r>
       <r>    8.9428    0.0000 </r>
       <r>    8.9485    0.0000 </r>
       <r>    8.9491    0.0000 </r>
       <r>    8.9506    0.0000 </r>
       <r>    8.9512    0.0000 </r>
       <r>    8.9528    0.0000 </r>
       <r>    8.9533    0.0000 </r>
       <r>    8.9590    0.0000 </r>
       <r>    9.4939    0.0000 </r>
       <r>    9.5195    0.0000 </r>
      </set>
      <set comment="kpoint 3">
       <r>  -21.3020    1.0000 </r>
       <r>  -21.3020    1.0000 </r>
       <r>  -21.3017    1.0000 </r>
       <r>  -21.3002    1.0000 </r>
       <r>  -21.2999    1.0000 </r>
       <r>  -21.2998    1.0000 </r>
       <r>  -21.2997    1.0000 </r>
       <r>  -21.2996    1.0000 </r>
       <r>  -21.2946    1.0000 </r>
       <r>  -21.2933    1.0000 </r>
       <r>  -21.2932    1.0000 </r>
       <r>  -21.2931    1.0000 </r>
       <r>  -21.2923    1.0000 </r>
       <r>  -21.2923    1.0000 </r>
       <r>  -21.2922    1.0000 </r>
       <r>  -21.2921    1.0000 </r>
       <r>  -21.2913    1.0000 </r>
       <r>  -21.2910    1.0000 </r>
       <r>  -21.2909    1.0000 </r>
       <r>  -21.2905    1.0000 </r>
       <r>  -21.2893    1.0000 </r>
       <r>  -21.2892    1.0000 </r>
       <r>  -21.2891    1.0000 </r>
       <r>  -21.2889    1.0000 </r>
       <r>  -21.2882    1.0000 </r>
       <r>  -21.2881    1.0000 </r>
       <r>  -21.2878    1.0000 </r>
       <r>  -21.2877    1.0000 </r>
       <r>  -21.2872    1.0000 </r>
       <r>  -21.2872    1.0000 </r>
       <r>  -21.2851    1.0000 </r>
       <r>  -21.2849    1.0000 </r>
       <r>  -21.2846    1.0000 </r>
       <r>  -21.2843    1.0000 </r>
       <r>  -21.2843    1.0000 </r>
       <r>  -21.2841    1.0000 </r>
       <r>  -21.2838    1.0000 </r>
       <r>  -21.2837    1.0000 </r>
       <r>  -21.2825    1.0000 </r>
       <r>  -21.2824    1.0000 </r>
       <r>  -21.2815    1.0000 </r>
       <r>  -21.2814    1.0000 </r>
       <r>  -21.2811    1.0000 </r>
       <r>  -21.2810    1.0000 </r>
       <r>  -21.2809    1.0000 </r>
       <r>  -21.2801    1.0000 </r>
       <r>  -21.2785    1.0000 </r>
       <r>  -21.2785    1.0000 </r>
       <r>  -21.2784    1.0000 </r>
       <r>  -21.2782    1.0000 </r>
       <r>  -21.2777    1.0000 </r>
       <r>  -21.2775    1.0000 </r>
       <r>  -21.2774    1.0000 </r>
       <r>  -21.2772    1.0000 </r>
       <r>  -21.2768    1.0000 </r>
       <r>  -21.2767    1.0000 </r>
       <r>  -21.2765    1.0000 </r>
       <r>  -21.2765    1.0000 </r>
       <r>  -21.2763    1.0000 </r>
       <r>  -21.2762    1.0000 </r>
       <r>  -21.2761    1.0000 </r>
       <r>  -21.2760    1.0000 </r>
       <r>  -21.2758    1.0000 </r>
       <r>  -21.2755    1.0000 </r>
       <r>  -21.2754    1.0000 </r>
       <r>  -21.2752    1.0000 </r>
       <r>  -21.2752    1.0000 </r>
       <r>  -21.2752    1.0000 </r>
       <r>  -21.2746    1.0000 </r>
       <r>  -21.2744    1.0000 </r>
       <r>  -21.2739    1.0000 </r>
       <r>  -21.2737    1.0000 </r>
       <r>  -21.2736    1.0000 </r>
       <r>  -21.2734    1.0000 </r>
       <r>  -21.2728    1.0000 </r>
       <r>  -21.2728    1.0000 </r>
       <r>  -21.2726    1.0000 </r>
       <r>  -21.2726    1.0000 </r>
       <r>  -21.2719    1.0000 </r>
       <r>  -21.2717    1.0000 </r>
       <r>  -21.2717    1.0000 </r>
       <r>  -21.2716    1.0000 </r>
       <r>  -21.2713    1.0000 </r>
       <r>  -21.2707    1.0000 </r>
       <r>  -21.2705    1.0000 </r>
       <r>  -21.2704    1.0000 </r>
       <r>  -21.2700    1.0000 </r>
       <r>  -21.2697    1.0000 </r>
       <r>  -21.2696    1.0000 </r>
       <r>  -21.2694    1.0000 </r>
       <r>  -21.2693    1.0000 </r>
       <r>  -21.2688    1.0000 </r>
       <r>  -21.2682    1.0000 </r>
       <r>  -21.2653    1.0000 </r>
       <r>  -21.2652    1.0000 </r>
       <r>  -21.2651    1.0000 </r>
       <r>  -13.2919    1.0000 </r>
       <r>  -13.2911    1.0000 </r>
       <r>  -13.1041    1.0000 </r>
       <r>  -13.1041    1.0000 </r>
       <r>  -13.0969    1.0000 </r>
       <r>  -13.0969    1.0000 </r>
       <r>  -13.0968    1.0000 </r>
       <r>  -13.0968    1.0000 </r>
       <r>  -13.0916    1.0000 </r>
       <r>  -13.0912    1.0000 </r>
       <r>  -13.0077    1.0000 </r>
       <r>  -13.0034    1.0000 </r>
       <r>  -13.0007    1.0000 </r>
       <r>  -13.0007    1.0000 </r>
       <r>  -13.0006    1.0000 </r>
       <r>  -13.0006    1.0000 </r>
       <r>  -13.0006    1.0000 </r>
       <r>  -13.0006    1.0000 </r>
       <r>  -12.9955    1.0000 </r>
       <r>  -12.9898    1.0000 </r>
       <r>  -12.9506    1.0000 </r>
       <r>  -12.9486    1.0000 </r>
       <r>  -12.9439    1.0000 </r>
       <r>  -12.9438    1.0000 </r>
       <r>  -12.9438    1.0000 </r>
       <r>  -12.9437    1.0000 </r>
       <r>  -12.9405    1.0000 </r>
       <r>  -12.9359    1.0000 </r>
       <r>  -12.9311    1.0000 </r>
       <r>  -12.9308    1.0000 </r>
       <r>  -12.9307    1.0000 </r>
       <r>  -12.9230    1.0000 </r>
       <r>   -2.5052    1.0000 </r>
       <r>   -2.5047    1.0000 </r>
       <r>   -2.5046    1.0000 </r>
       <r>   -2.5044    1.0000 </r>
       <r>   -2.5043    1.0000 </r>
       <r>   -2.5043    1.0000 </r>
       <r>   -2.5041    1.0000 </r>
       <r>   -2.5041    1.0000 </r>
       <r>   -2.2878    1.0000 </r>
       <r>   -2.2876    1.0000 </r>
       <r>   -2.2876    1.0000 </r>
       <r>   -2.2876    1.0000 </r>
       <r>   -2.2744    1.0000 </r>
       <r>   -2.2741    1.0000 </r>
       <r>   -2.1409    1.0000 </r>
       <r>   -2.1405    1.0000 </r>
       <r>   -2.1367    1.0000 </r>
       <r>   -2.1364    1.0000 </r>
       <r>   -2.1363    1.0000 </r>
       <r>   -2.1362    1.0000 </r>
       <r>   -2.1325    1.0000 </r>
       <r>   -2.1316    1.0000 </r>
       <r>   -1.9872    1.0000 </r>
       <r>   -1.9868    1.0000 </r>
       <r>   -1.9867    1.0000 </r>
       <r>   -1.9866    1.0000 </r>
       <r>   -1.9846    1.0000 </r>
       <r>   -1.9842    1.0000 </r>
       <r>   -1.9840    1.0000 </r>
       <r>   -1.9840    1.0000 </r>
       <r>   -1.8098    1.0000 </r>
       <r>   -1.8094    1.0000 </r>
       <r>   -1.8088    1.0000 </r>
       <r>   -1.8088    1.0000 </r>
       <r>   -1.8087    1.0000 </r>
       <r>   -1.8087    1.0000 </r>
       <r>   -1.8080    1.0000 </r>
       <r>   -1.8072    1.0000 </r>
       <r>   -1.4979    1.0000 </r>
       <r>   -1.4979    1.0000 </r>
       <r>   -1.4977    1.0000 </r>
       <r>   -1.4977    1.0000 </r>
       <r>   -1.3810    1.0000 </r>
       <r>   -1.3804    1.0000 </r>
       <r>   -1.3804    1.0000 </r>
       <r>   -1.3803    1.0000 </r>
       <r>   -1.2144    1.0000 </r>
       <r>   -1.2137    1.0000 </r>
       <r>   -1.2123    1.0000 </r>
       <r>   -1.2123    1.0000 </r>
       <r>   -1.1938    1.0000 </r>
       <r>   -1.1932    1.0000 </r>
       <r>   -1.1931    1.0000 </r>
       <r>   -1.1920    1.0000 </r>
       <r>   -1.1906    1.0000 </r>
       <r>   -1.1904    1.0000 </r>
       <r>   -1.1901    1.0000 </r>
       <r>   -1.1898    1.0000 </r>
       <r>   -1.1762    1.0000 </r>
       <r>   -1.1742    1.0000 </r>
       <r>   -1.1742    1.0000 </r>
       <r>   -1.1742    1.0000 </r>
       <r>   -1.1741    1.0000 </r>
       <r>   -1.1737    1.0000 </r>
       <r>   -1.1729    1.0000 </r>
       <r>   -1.1728    1.0000 </r>
       <r>   -1.1598    1.0000 </r>
       <r>   -1.1597    1.0000 </r>
       <r>   -1.1597    1.0000 </r>
       <r>   -1.1597    1.0000 </r>
       <r>   -1.1596    1.0000 </r>
       <r>   -1.1590    1.0000 </r>
       <r>   -1.1582    1.0000 </r>
       <r>   -1.1556    1.0000 </r>
       <r>   -1.0833    1.0000 </r>
       <r>   -1.0830    1.0000 </r>
       <r>   -0.9480    1.0000 </r>
       <r>   -0.9470    1.0000 </r>
       <r>   -0.9469    1.0000 </r>
       <r>   -0.9469    1.0000 </r>
       <r>   -0.9469    1.0000 </r>
       <r>   -0.9468    1.0000 </r>
       <r>   -0.9468    1.0000 </r>
       <r>   -0.9461    1.0000 </r>
       <r>   -0.9368    1.0000 </r>
       <r>   -0.9368    1.0000 </r>
       <r>   -0.9325    1.0000 </r>
       <r>   -0.9324    1.0000 </r>
       <r>   -0.9321    1.0000 </r>
       <r>   -0.9312    1.0000 </r>
       <r>   -0.9278    1.0000 </r>
       <r>   -0.9276    1.0000 </r>
       <r>   -0.7684    1.0000 </r>
       <r>   -0.7684    1.0000 </r>
       <r>   -0.7681    1.0000 </r>
       <r>   -0.7675    1.0000 </r>
       <r>    5.0224    0.0000 </r>
       <r>    5.0224    0.0000 </r>
       <r>    6.7143    0.0000 </r>
       <r>    6.7158    0.0000 </r>
       <r>    6.7178    0.0000 </r>
       <r>    6.7180    0.0000 </r>
       <r>    6.7188    0.0000 </r>
       <r>    6.7189    0.0000 </r>
       <r>    6.7209    0.0000 </r>
       <r>    6.7220    0.0000 </r>
       <r>    6.8421    0.0000 </r>
       <r>    6.8422    0.0000 </r>
       <r>    6.8432    0.0000 </r>
       <r>    6.8432    0.0000 </r>
       <r>    6.8432    0.0000 </r>
       <r>    6.8433    0.0000 </r>
       <r>    6.8441    0.0000 </r>
       <r>    6.8444    0.0000 </r>
       <r>    6.9710    0.0000 </r>
       <r>    6.9711    0.0000 </r>
       <r>    7.3625    0.0000 </r>
       <r>    7.3626    0.0000 </r>
       <r>    7.3626    0.0000 </r>
       <r>    7.3626    0.0000 </r>
       <r>    7.4802    0.0000 </r>
       <r>    7.4803    0.0000 </r>
       <r>    7.7144    0.0000 </r>
       <r>    7.7146    0.0000 </r>
       <r>    7.7146    0.0000 </r>
       <r>    7.7146    0.0000 </r>
       <r>    8.2613    0.0000 </r>
       <r>    8.2648    0.0000 </r>
       <r>    8.2650    0.0000 </r>
       <r>    8.2650    0.0000 </r>
       <r>    8.2668    0.0000 </r>
       <r>    8.2669    0.0000 </r>
       <r>    8.2671    0.0000 </r>
       <r>    8.2703    0.0000 </r>
       <r>    8.5339    0.0000 </r>
       <r>    8.5357    0.0000 </r>
       <r>    8.5361    0.0000 </r>
       <r>    8.5369    0.0000 </r>
       <r>    8.5372    0.0000 </r>
       <r>    8.5375    0.0000 </r>
       <r>    8.5380    0.0000 </r>
       <r>    8.5382    0.0000 </r>
       <r>    8.5389    0.0000 </r>
       <r>    8.5390    0.0000 </r>
       <r>    8.5391    0.0000 </r>
       <r>    8.5398    0.0000 </r>
       <r>    8.5403    0.0000 </r>
       <r>    8.5405    0.0000 </r>
       <r>    8.5411    0.0000 </r>
       <r>    8.5438    0.0000 </r>
       <r>    8.9427    0.0000 </r>
       <r>    8.9477    0.0000 </r>
       <r>    8.9501    0.0000 </r>
       <r>    8.9507    0.0000 </r>
       <r>    8.9511    0.0000 </r>
       <r>    8.9517    0.0000 </r>
       <r>    8.9540    0.0000 </r>
       <r>    8.9591    0.0000 </r>
       <r>    9.4909    0.0000 </r>
       <r>    9.4996    0.0000 </r>
      </set>
      <set comment="kpoint 4">
       <r>  -21.3014    1.0000 </r>
       <r>  -21.3011    1.0000 </r>
       <r>  -21.3009    1.0000 </r>
       <r>  -21.2987    1.0000 </r>
       <r>  -21.2981    1.0000 </r>
       <r>  -21.2973    1.0000 </r>
       <r>  -21.2966    1.0000 </r>
       <r>  -21.2959    1.0000 </r>
       <r>  -21.2958    1.0000 </r>
       <r>  -21.2951    1.0000 </r>
       <r>  -21.2946    1.0000 </r>
       <r>  -21.2944    1.0000 </r>
       <r>  -21.2942    1.0000 </r>
       <r>  -21.2936    1.0000 </r>
       <r>  -21.2933    1.0000 </r>
       <r>  -21.2930    1.0000 </r>
       <r>  -21.2926    1.0000 </r>
       <r>  -21.2925    1.0000 </r>
       <r>  -21.2921    1.0000 </r>
       <r>  -21.2917    1.0000 </r>
       <r>  -21.2914    1.0000 </r>
       <r>  -21.2911    1.0000 </r>
       <r>  -21.2907    1.0000 </r>
       <r>  -21.2906    1.0000 </r>
       <r>  -21.2898    1.0000 </r>
       <r>  -21.2898    1.0000 </r>
       <r>  -21.2893    1.0000 </r>
       <r>  -21.2872    1.0000 </r>
       <r>  -21.2870    1.0000 </r>
       <r>  -21.2863    1.0000 </r>
       <r>  -21.2859    1.0000 </r>
       <r>  -21.2856    1.0000 </r>
       <r>  -21.2837    1.0000 </r>
       <r>  -21.2833    1.0000 </r>
       <r>  -21.2827    1.0000 </r>
       <r>  -21.2824    1.0000 </r>
       <r>  -21.2817    1.0000 </r>
       <r>  -21.2808    1.0000 </r>
       <r>  -21.2807    1.0000 </r>
       <r>  -21.2806    1.0000 </r>
       <r>  -21.2804    1.0000 </r>
       <r>  -21.2796    1.0000 </r>
       <r>  -21.2795    1.0000 </r>
       <r>  -21.2795    1.0000 </r>
       <r>  -21.2794    1.0000 </r>
       <r>  -21.2794    1.0000 </r>
       <r>  -21.2793    1.0000 </r>
       <r>  -21.2793    1.0000 </r>
       <r>  -21.2790    1.0000 </r>
       <r>  -21.2787    1.0000 </r>
       <r>  -21.2785    1.0000 </r>
       <r>  -21.2784    1.0000 </r>
       <r>  -21.2779    1.0000 </r>
       <r>  -21.2779    1.0000 </r>
       <r>  -21.2779    1.0000 </r>
       <r>  -21.2775    1.0000 </r>
       <r>  -21.2768    1.0000 </r>
       <r>  -21.2767    1.0000 </r>
       <r>  -21.2766    1.0000 </r>
       <r>  -21.2765    1.0000 </r>
[...]
      </set>
     </set>
    </set>
   </array>
  </eigenvalues>
  <separator name="orbital magnetization" >
   <v name="MAGDIPOLOUT">      0.00000000      0.00000000      0.00000000</v>
  </separator>
  <dos>
   <i name="efermi">     -0.55251465 </i>
   <total>
    <array>
     <dimension dim="1">gridpoints</dimension>
     <dimension dim="2">spin</dimension>
     <field>energy</field>
     <field>total</field>
     <field>integrated</field>
     <set>
      <set comment="spin 1">
       <r>   -22.8466     0.0000     0.0000 </r>
       <r>   -22.7335     0.0000     0.0000 </r>
       <r>   -22.6205     0.0000     0.0000 </r>
       <r>   -22.5075     0.0000     0.0000 </r>
       <r>   -22.3945     0.0000     0.0000 </r>
       <r>   -22.2814     0.0000     0.0000 </r>
       <r>   -22.1684     0.0000     0.0000 </r>
       <r>   -22.0554     0.0000     0.0000 </r>
       <r>   -21.9424     0.0000     0.0000 </r>
       <r>   -21.8293     0.0000     0.0000 </r>
       <r>   -21.7163     0.0000     0.0000 </r>
       <r>   -21.6033     0.0000     0.0000 </r>
       <r>   -21.4903     0.0000     0.0000 </r>
       <r>   -21.3772     0.0000     0.0000 </r>
       <r>   -21.2642  1425.2269   161.0852 </r>
       <r>   -21.1512   273.5234   192.0000 </r>
       <r>   -21.0382     0.0000   192.0000 </r>
       <r>   -20.9251     0.0000   192.0000 </r>
       <r>   -20.8121     0.0000   192.0000 </r>
       <r>   -20.6991     0.0000   192.0000 </r>
       <r>   -20.5861     0.0000   192.0000 </r>
       <r>   -20.4730     0.0000   192.0000 </r>
       <r>   -20.3600     0.0000   192.0000 </r>
       <r>   -20.2470     0.0000   192.0000 </r>
       <r>   -20.1340     0.0000   192.0000 </r>
       <r>   -20.0209     0.0000   192.0000 </r>
       <r>   -19.9079     0.0000   192.0000 </r>
       <r>   -19.7949     0.0000   192.0000 </r>
       <r>   -19.6819     0.0000   192.0000 </r>
       <r>   -19.5688     0.0000   192.0000 </r>
       <r>   -19.4558     0.0000   192.0000 </r>
       <r>   -19.3428     0.0000   192.0000 </r>
       <r>   -19.2298     0.0000   192.0000 </r>
       <r>   -19.1168     0.0000   192.0000 </r>
       <r>   -19.0037     0.0000   192.0000 </r>
       <r>   -18.8907     0.0000   192.0000 </r>
       <r>   -18.7777     0.0000   192.0000 </r>
       <r>   -18.6647     0.0000   192.0000 </r>
       <r>   -18.5516     0.0000   192.0000 </r>
       <r>   -18.4386     0.0000   192.0000 </r>
       <r>   -18.3256     0.0000   192.0000 </r>
       <r>   -18.2126     0.0000   192.0000 </r>
       <r>   -18.0995     0.0000   192.0000 </r>
       <r>   -17.9865     0.0000   192.0000 </r>
       <r>   -17.8735     0.0000   192.0000 </r>
       <r>   -17.7605     0.0000   192.0000 </r>
       <r>   -17.6474     0.0000   192.0000 </r>
       <r>   -17.5344     0.0000   192.0000 </r>
       <r>   -17.4214     0.0000   192.0000 </r>
       <r>   -17.3084     0.0000   192.0000 </r>
       <r>   -17.1953     0.0000   192.0000 </r>
       <r>   -17.0823     0.0000   192.0000 </r>
       <r>   -16.9693     0.0000   192.0000 </r>
       <r>   -16.8563     0.0000   192.0000 </r>
       <r>   -16.7432     0.0000   192.0000 </r>
       <r>   -16.6302     0.0000   192.0000 </r>
       <r>   -16.5172     0.0000   192.0000 </r>
       <r>   -16.4042     0.0000   192.0000 </r>
       <r>   -16.2911     0.0000   192.0000 </r>
       <r>   -16.1781     0.0000   192.0000 </r>
       <r>   -16.0651     0.0000   192.0000 </r>
       <r>   -15.9521     0.0000   192.0000 </r>
       <r>   -15.8390     0.0000   192.0000 </r>
       <r>   -15.7260     0.0000   192.0000 </r>
       <r>   -15.6130     0.0000   192.0000 </r>
       <r>   -15.5000     0.0000   192.0000 </r>
       <r>   -15.3869     0.0000   192.0000 </r>
       <r>   -15.2739     0.0000   192.0000 </r>
       <r>   -15.1609     0.0000   192.0000 </r>
       <r>   -15.0479     0.0000   192.0000 </r>
       <r>   -14.9349     0.0000   192.0000 </r>
       <r>   -14.8218     0.0000   192.0000 </r>
       <r>   -14.7088     0.0000   192.0000 </r>
       <r>   -14.5958     0.0000   192.0000 </r>
       <r>   -14.4828     0.0000   192.0000 </r>
       <r>   -14.3697     0.0000   192.0000 </r>
       <r>   -14.2567     0.0000   192.0000 </r>
       <r>   -14.1437     0.0000   192.0000 </r>
       <r>   -14.0307     0.0000   192.0000 </r>
       <r>   -13.9176     0.0000   192.0000 </r>
       <r>   -13.8046     0.0000   192.0000 </r>
       <r>   -13.6916     0.0000   192.0000 </r>
       <r>   -13.5786     0.0000   192.0000 </r>
       <r>   -13.4655     0.0000   192.0000 </r>
       <r>   -13.3525     1.4514   192.1640 </r>
       <r>   -13.2395    22.0585   194.6572 </r>
       <r>   -13.1265    47.9118   200.0726 </r>
       <r>   -13.0134   132.9908   215.1039 </r>
       <r>   -12.9004   359.1734   255.6998 </r>
       <r>   -12.7874     2.6474   256.0000 </r>
       <r>   -12.6744     0.0000   256.0000 </r>
       <r>   -12.5613     0.0000   256.0000 </r>
       <r>   -12.4483     0.0000   256.0000 </r>
       <r>   -12.3353     0.0000   256.0000 </r>
       <r>   -12.2223     0.0000   256.0000 </r>
       <r>   -12.1092     0.0000   256.0000 </r>
       <r>   -11.9962     0.0000   256.0000 </r>
       <r>   -11.8832     0.0000   256.0000 </r>
       <r>   -11.7702     0.0000   256.0000 </r>
       <r>   -11.6571     0.0000   256.0000 </r>
       <r>   -11.5441     0.0000   256.0000 </r>
       <r>   -11.4311     0.0000   256.0000 </r>
       <r>   -11.3181     0.0000   256.0000 </r>
       <r>   -11.2051     0.0000   256.0000 </r>
       <r>   -11.0920     0.0000   256.0000 </r>
       <r>   -10.9790     0.0000   256.0000 </r>
       <r>   -10.8660     0.0000   256.0000 </r>
       <r>   -10.7530     0.0000   256.0000 </r>
       <r>   -10.6399     0.0000   256.0000 </r>
       <r>   -10.5269     0.0000   256.0000 </r>
       <r>   -10.4139     0.0000   256.0000 </r>
       <r>   -10.3009     0.0000   256.0000 </r>
       <r>   -10.1878     0.0000   256.0000 </r>
       <r>   -10.0748     0.0000   256.0000 </r>
       <r>    -9.9618     0.0000   256.0000 </r>
       <r>    -9.8488     0.0000   256.0000 </r>
       <r>    -9.7357     0.0000   256.0000 </r>
       <r>    -9.6227     0.0000   256.0000 </r>
       <r>    -9.5097     0.0000   256.0000 </r>
       <r>    -9.3967     0.0000   256.0000 </r>
       <r>    -9.2836     0.0000   256.0000 </r>
       <r>    -9.1706     0.0000   256.0000 </r>
       <r>    -9.0576     0.0000   256.0000 </r>
       <r>    -8.9446     0.0000   256.0000 </r>
       <r>    -8.8315     0.0000   256.0000 </r>
       <r>    -8.7185     0.0000   256.0000 </r>
       <r>    -8.6055     0.0000   256.0000 </r>
       <r>    -8.4925     0.0000   256.0000 </r>
       <r>    -8.3794     0.0000   256.0000 </r>
       <r>    -8.2664     0.0000   256.0000 </r>
       <r>    -8.1534     0.0000   256.0000 </r>
       <r>    -8.0404     0.0000   256.0000 </r>
       <r>    -7.9273     0.0000   256.0000 </r>
       <r>    -7.8143     0.0000   256.0000 </r>
       <r>    -7.7013     0.0000   256.0000 </r>
       <r>    -7.5883     0.0000   256.0000 </r>
       <r>    -7.4753     0.0000   256.0000 </r>
       <r>    -7.3622     0.0000   256.0000 </r>
       <r>    -7.2492     0.0000   256.0000 </r>
       <r>    -7.1362     0.0000   256.0000 </r>
       <r>    -7.0232     0.0000   256.0000 </r>
       <r>    -6.9101     0.0000   256.0000 </r>
       <r>    -6.7971     0.0000   256.0000 </r>
       <r>    -6.6841     0.0000   256.0000 </r>
       <r>    -6.5711     0.0000   256.0000 </r>
       <r>    -6.4580     0.0000   256.0000 </r>
       <r>    -6.3450     0.0000   256.0000 </r>
       <r>    -6.2320     0.0000   256.0000 </r>
       <r>    -6.1190     0.0000   256.0000 </r>
       <r>    -6.0059     0.0000   256.0000 </r>
       <r>    -5.8929     0.0000   256.0000 </r>
       <r>    -5.7799     0.0000   256.0000 </r>
       <r>    -5.6669     0.0000   256.0000 </r>
       <r>    -5.5538     0.0000   256.0000 </r>
       <r>    -5.4408     0.0000   256.0000 </r>
       <r>    -5.3278     0.0000   256.0000 </r>
       <r>    -5.2148     0.0000   256.0000 </r>
       <r>    -5.1017     0.0000   256.0000 </r>
       <r>    -4.9887     0.0000   256.0000 </r>
       <r>    -4.8757     0.0000   256.0000 </r>
       <r>    -4.7627     0.0000   256.0000 </r>
       <r>    -4.6496     0.0000   256.0000 </r>
       <r>    -4.5366     0.0000   256.0000 </r>
       <r>    -4.4236     0.0000   256.0000 </r>
       <r>    -4.3106     0.0000   256.0000 </r>
       <r>    -4.1975     0.0000   256.0000 </r>
       <r>    -4.0845     0.0000   256.0000 </r>
       <r>    -3.9715     0.0000   256.0000 </r>
       <r>    -3.8585     0.0000   256.0000 </r>
       <r>    -3.7455     0.0000   256.0000 </r>
       <r>    -3.6324     0.0000   256.0000 </r>
       <r>    -3.5194     0.0000   256.0000 </r>
       <r>    -3.4064     0.0000   256.0000 </r>
       <r>    -3.2934     0.0000   256.0000 </r>
       <r>    -3.1803     0.0000   256.0000 </r>
       <r>    -3.0673     0.0000   256.0000 </r>
       <r>    -2.9543     0.0000   256.0000 </r>
       <r>    -2.8413     0.0000   256.0000 </r>
       <r>    -2.7282     0.2053   256.0232 </r>
       <r>    -2.6152     8.6424   257.0000 </r>
       <r>    -2.5022    29.8808   260.3773 </r>
       <r>    -2.3892    80.3578   269.4596 </r>
       <r>    -2.2761    85.4003   279.1119 </r>
       <r>    -2.1631   152.8993   296.3939 </r>
       <r>    -2.0501    69.5082   304.2500 </r>
       <r>    -1.9371    58.2323   310.8317 </r>
       <r>    -1.8240    65.5812   318.2451 </r>
       <r>    -1.7110    66.4004   325.7500 </r>
       <r>    -1.5980     0.0000   325.7500 </r>
       <r>    -1.4850    84.2397   335.2711 </r>
       <r>    -1.3719   186.2879   356.3262 </r>
       <r>    -1.2589    22.0954   358.8235 </r>
       <r>    -1.1459   259.6633   388.1717 </r>
       <r>    -1.0329   132.9004   403.1936 </r>
       <r>    -0.9198   261.5438   432.7547 </r>
       <r>    -0.8068    60.4124   439.5833 </r>
       <r>    -0.6938    67.9447   447.2627 </r>
       <r>    -0.5808     6.5212   448.0000 </r>
       <r>    -0.4677     0.0000   448.0000 </r>
       <r>    -0.3547     0.0000   448.0000 </r>
       <r>    -0.2417     0.0000   448.0000 </r>
       <r>    -0.1287     0.0000   448.0000 </r>
       <r>    -0.0156     0.0000   448.0000 </r>
       <r>     0.0974     0.0000   448.0000 </r>
       <r>     0.2104     0.0000   448.0000 </r>
       <r>     0.3234     0.0000   448.0000 </r>
       <r>     0.4364     0.0000   448.0000 </r>
       <r>     0.5495     0.0000   448.0000 </r>
       <r>     0.6625     0.0000   448.0000 </r>
       <r>     0.7755     0.0000   448.0000 </r>
       <r>     0.8885     0.0000   448.0000 </r>
       <r>     1.0016     0.0000   448.0000 </r>
       <r>     1.1146     0.0000   448.0000 </r>
       <r>     1.2276     0.0000   448.0000 </r>
       <r>     1.3406     0.0000   448.0000 </r>
       <r>     1.4537     0.0000   448.0000 </r>
       <r>     1.5667     0.0000   448.0000 </r>
       <r>     1.6797     0.0000   448.0000 </r>
       <r>     1.7927     0.0000   448.0000 </r>
       <r>     1.9058     0.0000   448.0000 </r>
       <r>     2.0188     0.0000   448.0000 </r>
       <r>     2.1318     0.0000   448.0000 </r>
       <r>     2.2448     0.0000   448.0000 </r>
       <r>     2.3579     0.0000   448.0000 </r>
       <r>     2.4709     0.0000   448.0000 </r>
       <r>     2.5839     0.0000   448.0000 </r>
       <r>     2.6969     0.0000   448.0000 </r>
       <r>     2.8100     0.0000   448.0000 </r>
       <r>     2.9230     0.0000   448.0000 </r>
       <r>     3.0360     0.0000   448.0000 </r>
       <r>     3.1490     0.0000   448.0000 </r>
       <r>     3.2621     0.0000   448.0000 </r>
       <r>     3.3751     0.0000   448.0000 </r>
       <r>     3.4881     0.0000   448.0000 </r>
       <r>     3.6011     0.0000   448.0000 </r>
       <r>     3.7142     0.0000   448.0000 </r>
       <r>     3.8272     0.0000   448.0000 </r>
       <r>     3.9402     0.0000   448.0000 </r>
       <r>     4.0532     0.0000   448.0000 </r>
       <r>     4.1662     0.0000   448.0000 </r>
       <r>     4.2793     0.0000   448.0000 </r>
       <r>     4.3923     2.2116   448.2500 </r>
       <r>     4.5053     0.0000   448.2500 </r>
       <r>     4.6183     0.0000   448.2500 </r>
       <r>     4.7314     0.0000   448.2500 </r>
       <r>     4.8444     0.0000   448.2500 </r>
       <r>     4.9574     0.0000   448.2500 </r>
       <r>     5.0704    13.2667   449.7495 </r>
       <r>     5.1835     0.0024   449.7500 </r>
       <r>     5.2965     0.0000   449.7500 </r>
       <r>     5.4095     0.0000   449.7500 </r>
       <r>     5.5225     3.1530   450.1064 </r>
       <r>     5.6356    23.3900   452.7500 </r>
       <r>     5.7486     0.0000   452.7500 </r>
       <r>     5.8616    17.3605   454.7122 </r>
       <r>     5.9746     0.3348   454.7500 </r>
       <r>     6.0877     0.0000   454.7500 </r>
       <r>     6.2007     0.0000   454.7500 </r>
       <r>     6.3137     0.0009   454.7501 </r>
       <r>     6.4267    14.1811   456.3529 </r>
       <r>     6.5398     7.9368   457.2500 </r>
       <r>     6.6528    44.0982   462.2342 </r>
       <r>     6.7658    62.0489   469.2472 </r>
       <r>     6.8788    59.4017   475.9621 </r>
       <r>     6.9919    12.6563   477.3927 </r>
       <r>     7.1049     0.9492   477.5000 </r>
       <r>     7.2179     5.1966   478.0873 </r>
       <r>     7.3309     1.7950   478.2902 </r>
       <r>     7.4440    81.7878   487.5342 </r>
       <r>     7.5570   168.0450   506.5276 </r>
       <r>     7.6700     1.9930   506.7528 </r>
       <r>     7.7830    26.5179   509.7500 </r>
       <r>     7.8960     0.2538   509.7787 </r>
       <r>     8.0091    52.8322   515.7500 </r>
       <r>     8.1221     0.0075   515.7508 </r>
       <r>     8.2351    14.1345   517.3484 </r>
       <r>     8.3481    92.0246   527.7494 </r>
       <r>     8.4612     0.0000   527.7500 </r>
       <r>     8.5742   151.9266   544.9214 </r>
       <r>     8.6872     7.3312   545.7500 </r>
       <r>     8.8002     0.0000   545.7500 </r>
       <r>     8.9133    83.8068   555.2222 </r>
       <r>     9.0263   123.3722   569.1663 </r>
       <r>     9.1393     2.9529   569.5000 </r>
       <r>     9.2523    25.7490   572.4103 </r>
       <r>     9.3654    18.4893   574.5000 </r>
       <r>     9.4784     1.1744   574.6327 </r>
       <r>     9.5914    12.0971   576.0000 </r>
       <r>     9.7044     0.0000   576.0000 </r>
       <r>     9.8175     0.0000   576.0000 </r>
       <r>     9.9305     0.0000   576.0000 </r>
       <r>    10.0435     0.0000   576.0000 </r>
       <r>    10.1565     0.0000   576.0000 </r>
       <r>    10.2696     0.0000   576.0000 </r>
       <r>    10.3826     0.0000   576.0000 </r>
       <r>    10.4956     0.0000   576.0000 </r>
       <r>    10.6086     0.0000   576.0000 </r>
       <r>    10.7217     0.0000   576.0000 </r>
       <r>    10.8347     0.0000   576.0000 </r>
       <r>    10.9477     0.0000   576.0000 </r>
       <r>    11.0607     0.0000   576.0000 </r>
      </set>
     </set>
    </array>
   </total>
  </dos>
 </calculation>
 <structure name="finalpos" >
  <crystal>
   <varray name="basis" >
    <v>      11.20400236       0.00000000       0.00000000 </v>
    <v>       0.00000000      11.20400236       0.00000000 </v>
    <v>       0.00000000       0.00000000      11.20400236 </v>
   </varray>
   <i name="volume">   1406.43470641 </i>
   <varray name="rec_basis" >
    <v>       0.08925382       0.00000000       0.00000000 </v>
    <v>       0.00000000       0.08925382       0.00000000 </v>
    <v>       0.00000000       0.00000000       0.08925382 </v>
   </varray>
  </crystal>
  <varray name="positions" >
   <v>       0.00267761       0.00267761       0.00000000 </v>
   <v>       0.25000000       0.25000000       0.00000000 </v>
   <v>       0.25000000       0.00000000       0.25000000 </v>
   <v>       0.00000000       0.25000000       0.25000000 </v>
   <v>       0.00000000       0.00000000       0.50000000 </v>
   <v>       0.25000000       0.25000000       0.50000000 </v>
   <v>       0.25000000       0.00000000       0.75000000 </v>
   <v>       0.00000000       0.25000000       0.75000000 </v>
   <v>       0.00000000       0.50000000       0.00000000 </v>
   <v>       0.25000000       0.75000000       0.00000000 </v>
   <v>       0.25000000       0.50000000       0.25000000 </v>
   <v>       0.00000000       0.75000000       0.25000000 </v>
   <v>       0.00000000       0.50000000       0.50000000 </v>
   <v>       0.25000000       0.75000000       0.50000000 </v>
   <v>       0.25000000       0.50000000       0.75000000 </v>
   <v>       0.00000000       0.75000000       0.75000000 </v>
   <v>       0.50000000       0.00000000       0.00000000 </v>
   <v>       0.75000000       0.25000000       0.00000000 </v>
   <v>       0.75000000       0.00000000       0.25000000 </v>
   <v>       0.50000000       0.25000000       0.25000000 </v>
   <v>       0.50000000       0.00000000       0.50000000 </v>
   <v>       0.75000000       0.25000000       0.50000000 </v>
   <v>       0.75000000       0.00000000       0.75000000 </v>
   <v>       0.50000000       0.25000000       0.75000000 </v>
   <v>       0.50000000       0.50000000       0.00000000 </v>
   <v>       0.75000000       0.75000000       0.00000000 </v>
   <v>       0.75000000       0.50000000       0.25000000 </v>
   <v>       0.50000000       0.75000000       0.25000000 </v>
   <v>       0.50000000       0.50000000       0.50000000 </v>
   <v>       0.75000000       0.75000000       0.50000000 </v>
   <v>       0.75000000       0.50000000       0.75000000 </v>
   <v>       0.50000000       0.75000000       0.75000000 </v>
   <v>       0.25000000       0.25000000       0.25000000 </v>
   <v>       0.00000000       0.00000000       0.25000000 </v>
   <v>       0.00000000       0.25000000       0.00000000 </v>
   <v>       0.25000000       0.00000000       0.00000000 </v>
   <v>       0.25000000       0.25000000       0.75000000 </v>
   <v>       0.00000000       0.00000000       0.75000000 </v>
   <v>       0.00000000       0.25000000       0.50000000 </v>
   <v>       0.25000000       0.00000000       0.50000000 </v>
   <v>       0.25000000       0.75000000       0.25000000 </v>
   <v>       0.00000000       0.50000000       0.25000000 </v>
   <v>       0.00000000       0.75000000       0.00000000 </v>
   <v>       0.25000000       0.50000000       0.00000000 </v>
   <v>       0.25000000       0.75000000       0.75000000 </v>
   <v>       0.00000000       0.50000000       0.75000000 </v>
   <v>       0.00000000       0.75000000       0.50000000 </v>
   <v>       0.25000000       0.50000000       0.50000000 </v>
   <v>       0.75000000       0.25000000       0.25000000 </v>
   <v>       0.50000000       0.00000000       0.25000000 </v>
   <v>       0.50000000       0.25000000       0.00000000 </v>
   <v>       0.75000000       0.00000000       0.00000000 </v>
   <v>       0.75000000       0.25000000       0.75000000 </v>
   <v>       0.50000000       0.00000000       0.75000000 </v>
   <v>       0.50000000       0.25000000       0.50000000 </v>
   <v>       0.75000000       0.00000000       0.50000000 </v>
   <v>       0.75000000       0.75000000       0.25000000 </v>
   <v>       0.50000000       0.50000000       0.25000000 </v>
   <v>       0.50000000       0.75000000       0.00000000 </v>
   <v>       0.75000000       0.50000000       0.00000000 </v>
   <v>       0.75000000       0.75000000       0.75000000 </v>
   <v>       0.50000000       0.50000000       0.75000000 </v>
   <v>       0.50000000       0.75000000       0.50000000 </v>
   <v>       0.75000000       0.50000000       0.50000000 </v>
  </varray>
 </structure>
</modeling>
