    2    2  500    1
  0.2194682E+02  0.3959486E-09  0.3959486E-09  0.3959486E-09  0.5000000E-15
  1.000000000000000E-004
  CAR 
 unknown system                          
     14      8     16
 
  0.0000000E+00  0.0000000E+00  0.0000000E+00  0.1562500E-01
      1        -21.270339   1.000000
      2        -21.270339   1.000000
      3        -21.270338   1.000000
      4        -13.354724   1.000000
      5         -0.662142   1.000000
      6         -0.662142   1.000000
      7         -0.662141   1.000000
      8          4.341853   0.000000
      9         10.355701   0.000000
     10         10.355701   0.000000
     11         10.355702   0.000000
     12         12.607245   0.000000
     13         12.607245   0.000000
     14         14.003971   0.000000
     15         16.507156   0.000000
     16         16.507169   0.000000
 
  0.2500000E+00  0.1224827E-17 -0.1582362E-17  0.1250000E+00
      1        -21.287507   1.000000
      2        -21.271563   1.000000
      3        -21.271562   1.000000
      4        -13.176457   1.000000
      5         -1.826266   1.000000
      6         -0.807147   1.000000
      7         -0.807147   1.000000
      8          5.833173   0.000000
      9          9.240241   0.000000
     10         10.664936   0.000000
     11         10.664951   0.000000
     12         12.548683   0.000000
     13         12.548693   0.000000
     14         14.960372   0.000000
     15         18.239824   0.000000
     16         19.187068   0.000000
 
  0.5000000E+00  0.2449654E-17 -0.3164724E-17  0.6250000E-01
      1        -21.304488   1.000000
      2        -21.272776   1.000000
      3        -21.272775   1.000000
      4        -12.986753   1.000000
      5         -2.697684   1.000000
      6         -0.943074   1.000000
      7         -0.943074   1.000000
      8          6.446101   0.000000
      9          9.997450   0.000000
     10         10.249331   0.000000
     11         10.249348   0.000000
     12         14.294538   0.000000
     13         15.589191   0.000000
     14         15.589195   0.000000
     15         16.542558   0.000000
     16         16.542583   0.000000
 
  0.2500000E+00  0.2500000E+00  0.8083213E-17  0.9375000E-01
      1        -21.284680   1.000000
      2        -21.275133   1.000000
      3        -21.275132   1.000000
      4        -13.134061   1.000000
      5         -1.794149   1.000000
      6         -0.997959   1.000000
      7         -0.997958   1.000000
      8          6.369925   0.000000
      9          8.280983   0.000000
     10         10.142727   0.000000
     11         11.747384   0.000000
     12         11.747386   0.000000
     13         13.442263   0.000000
     14         18.104834   0.000000
     15         18.104843   0.000000
     16         18.324478   0.000000
 
  0.5000000E+00  0.2500000E+00  0.4488552E-16  0.3750000E+00
      1        -21.295131   1.000000
      2        -21.280185   1.000000
      3        -21.276223   1.000000
      4        -12.962999   1.000000
      5         -2.325159   1.000000
      6         -1.476162   1.000000
      7         -1.124743   1.000000
      8          7.400562   0.000000
      9          8.559146   0.000000
     10          9.400941   0.000000
     11         11.537278   0.000000
     12         13.365544   0.000000
     13         15.672297   0.000000
     14         16.502201   0.000000
     15         16.817275   0.000000
     16         17.857092   0.000000
 
 -0.2500000E+00  0.2500000E+00  0.2449654E-17  0.1875000E+00
      1        -21.293907   1.000000
      2        -21.280860   1.000000
      3        -21.272794   1.000000
      4        -13.007886   1.000000
      5         -2.201845   1.000000
      6         -1.502686   1.000000
      7         -0.945102   1.000000
      8          7.465962   0.000000
      9          8.902864   0.000000
     10          9.301228   0.000000
     11         11.150221   0.000000
     12         12.497208   0.000000
     13         15.102184   0.000000
     14         16.066289   0.000000
     15         17.700785   0.000000
     16         18.082667   0.000000
 
  0.5000000E+00  0.5000000E+00  0.1616643E-16  0.4687500E-01
      1        -21.293686   1.000000
      2        -21.279717   1.000000
      3        -21.279716   1.000000
      4        -12.937485   1.000000
      5         -2.421581   1.000000
      6         -1.292072   1.000000
      7         -1.292071   1.000000
      8          6.828838   0.000000
      9          7.208313   0.000000
     10         10.607601   0.000000
     11         14.133545   0.000000
     12         14.133550   0.000000
     13         14.683667   0.000000
     14         16.467407   0.000000
     15         16.467407   0.000000
     16         16.570524   0.000000
 
 -0.2500000E+00  0.5000000E+00  0.2500000E+00  0.9375000E-01
      1        -21.286554   1.000000
      2        -21.286553   1.000000
      3        -21.282167   1.000000
      4        -12.918187   1.000000
      5         -1.922178   1.000000
      6         -1.922175   1.000000
      7         -1.460312   1.000000
      8          8.169477   0.000000
      9          8.918543   0.000000
     10          8.918545   0.000000
     11         10.659549   0.000000
     12         15.067524   0.000000
     13         15.067552   0.000000
     14         15.713289   0.000000
     15         16.540736   0.000000
     16         19.088173   0.000000
