 running on   32 total cores
 distrk:  each k-point on   32 cores,    1 groups
 distr:  one band on    4 cores,    8 groups
 vasp.6.3.2 27Jun22 (build Oct 14 2022 12:38:20) complex                        
  
 POSCAR found type information on POSCAR NaCl
 POSCAR found :  2 types and       2 ions
 scaLAPACK will be used
 -----------------------------------------------------------------------------
|                                                                             |
|               ----> ADVICE to this user running VASP <----                  |
|                                                                             |
|     You enforced a specific xc type in the INCAR file but a different       |
|     type was found in the POTCAR file.                                      |
|     I HOPE YOU KNOW WHAT YOU ARE DOING!                                     |
|                                                                             |
 -----------------------------------------------------------------------------

 LDA part: xc-table for Pade appr. of Perdew
 POSCAR, INCAR and KPOINTS ok, starting setup
 FFT: planning ... GRIDC
 FFT: planning ... GRID_SOFT
 FFT: planning ... GRID
 WAVECAR not read
 entering main loop
       N       E                     dE             d eps       ncg     rms          rms(c)
DAV:   1     0.801064706471E+02    0.80106E+02   -0.56101E+03   256   0.666E+02
DAV:   2    -0.208327088133E+01   -0.82190E+02   -0.77307E+02   304   0.211E+02
DAV:   3    -0.709590453538E+01   -0.50126E+01   -0.49986E+01   296   0.511E+01
DAV:   4    -0.715470829090E+01   -0.58804E-01   -0.58790E-01   320   0.596E+00
DAV:   5    -0.715594229215E+01   -0.12340E-02   -0.12340E-02   304   0.833E-01    0.188E+00
DAV:   6    -0.700148252159E+01    0.15446E+00   -0.21705E-01   320   0.301E+00    0.134E+00
DAV:   7    -0.699111218287E+01    0.10370E-01   -0.55739E-02   352   0.141E+00    0.922E-01
DAV:   8    -0.699457583310E+01   -0.34637E-02   -0.71495E-03   264   0.687E-01    0.276E-01
DAV:   9    -0.699446409075E+01    0.11174E-03   -0.20052E-04   312   0.919E-02    0.144E-01
DAV:  10    -0.699451043910E+01   -0.46348E-04   -0.16226E-04   296   0.777E-02    0.428E-02
DAV:  11    -0.699450533812E+01    0.51010E-05   -0.85356E-06   352   0.232E-02    0.119E-02
DAV:  12    -0.699450517307E+01    0.16505E-06   -0.14185E-06   296   0.817E-03    0.273E-03
DAV:  13    -0.699450553384E+01   -0.36077E-06   -0.12560E-07   264   0.192E-03    0.101E-03
DAV:  14    -0.699450548430E+01    0.49544E-07   -0.35732E-09   280   0.354E-04    0.714E-04
DAV:  15    -0.699450548357E+01    0.72964E-09   -0.22379E-10   136   0.153E-04
   1 F= -.69945055E+01 E0= -.69945055E+01  d E =-.699451E+01
 curvature:   0.00 expect dE= 0.000E+00 dE for cont linesearch  0.000E+00
 trial: gam= 0.00000 g(F)=  0.161E-60 g(S)=  0.623E-05 ort = 0.000E+00 (trialstep = 0.100E+01)
 search vector abs. value=  0.623E-05
 bond charge predicted
       N       E                     dE             d eps       ncg     rms          rms(c)
DAV:   1    -0.699454926307E+01   -0.43779E-04   -0.73991E-04   336   0.314E-01    0.403E-02
DAV:   2    -0.699452092635E+01    0.28337E-04   -0.42856E-05   320   0.549E-02    0.165E-02
DAV:   3    -0.699451327219E+01    0.76542E-05   -0.11375E-05   336   0.299E-02    0.800E-03
DAV:   4    -0.699451021183E+01    0.30604E-05   -0.34576E-07   352   0.524E-03    0.102E-03
DAV:   5    -0.699451009923E+01    0.11260E-06   -0.40807E-08   256   0.125E-03    0.789E-04
DAV:   6    -0.699451005422E+01    0.45010E-07   -0.18420E-09   128   0.477E-04    0.708E-04
DAV:   7    -0.699451001547E+01    0.38744E-07   -0.57873E-10   128   0.242E-04    0.654E-04
DAV:   8    -0.699451002577E+01   -0.10291E-07   -0.56775E-11   128   0.658E-05    0.653E-04
DAV:   9    -0.699451002603E+01   -0.26716E-09   -0.11453E-11   128   0.381E-05
   2 F= -.69945100E+01 E0= -.69945100E+01  d E =-.454247E-05
 trial-energy change:   -0.000005  1 .order   -0.000005   -0.000006   -0.000003
 step:   2.5136(harm=  1.9387)  dis= 0.00000  next Energy=    -6.994512 (dE=-0.654E-05)
 bond charge predicted
       N       E                     dE             d eps       ncg     rms          rms(c)
DAV:   1    -0.699460071358E+01   -0.90688E-04   -0.16957E-03   336   0.475E-01    0.610E-02
DAV:   2    -0.699453214483E+01    0.68569E-04   -0.98294E-05   320   0.830E-02    0.249E-02
DAV:   3    -0.699451627446E+01    0.15870E-04   -0.26034E-05   336   0.452E-02    0.121E-02
DAV:   4    -0.699451119168E+01    0.50828E-05   -0.79079E-07   352   0.793E-03    0.135E-03
DAV:   5    -0.699451100736E+01    0.18433E-06   -0.93224E-08   256   0.190E-03    0.937E-04
DAV:   6    -0.699451093782E+01    0.69540E-07   -0.42161E-09   128   0.722E-04    0.773E-04
DAV:   7    -0.699451087887E+01    0.58952E-07   -0.13194E-09   128   0.365E-04    0.658E-04
DAV:   8    -0.699451089494E+01   -0.16076E-07   -0.12840E-10   128   0.996E-05    0.654E-04
DAV:   9    -0.699451089541E+01   -0.46794E-09   -0.22801E-11   128   0.581E-05
   3 F= -.69945109E+01 E0= -.69945109E+01  d E =-.541184E-05
 curvature:  -0.61 expect dE=-0.314E-06 dE for cont linesearch -0.314E-06
 ZBRENT: interpolating
 opt :   1.9484  next Energy=    -6.994511 (dE=-0.592E-05)
 bond charge predicted
       N       E                     dE             d eps       ncg     rms          rms(c)
DAV:   1    -0.699452388812E+01   -0.12993E-04   -0.23637E-04   336   0.177E-01    0.228E-02
DAV:   2    -0.699451062845E+01    0.13260E-04   -0.13691E-05   320   0.310E-02    0.932E-03
DAV:   3    -0.699451009191E+01    0.53654E-06   -0.36333E-06   336   0.169E-02    0.455E-03
DAV:   4    -0.699451133176E+01   -0.12399E-05   -0.11032E-07   352   0.296E-03    0.788E-04
DAV:   5    -0.699451138324E+01   -0.51476E-07   -0.12316E-08   192   0.706E-04    0.694E-04
DAV:   6    -0.699451140780E+01   -0.24563E-07   -0.96677E-10   128   0.286E-04    0.671E-04
DAV:   7    -0.699451142873E+01   -0.20924E-07   -0.28347E-10   128   0.192E-04    0.653E-04
DAV:   8    -0.699451142482E+01    0.39065E-08   -0.37894E-11   128   0.695E-05
   4 F= -.69945114E+01 E0= -.69945114E+01  d E =-.594125E-05
 curvature:  -0.98 expect dE=-0.115E-13 dE for cont linesearch -0.115E-13
 trial: gam= 0.00000 g(F)=  0.294E-62 g(S)=  0.118E-13 ort =-0.271E-09 (trialstep = 0.119E+01)
 search vector abs. value=  0.100E-09
 reached required accuracy - stopping structural energy minimisation
