unknown system                          
           1
     0.000000    2.799780    2.799780
     2.799780    0.000000    2.799780
     2.799780    2.799780    0.000000
   Na   Cl
     1     1
Direct configuration=     1
   0.00000000  0.00000000  0.00000000
   0.50000000  0.50000000  0.50000000
unknown system                          
           1
     0.000000    2.800406    2.800406
     2.800406    0.000000    2.800406
     2.800406    2.800406   -0.000000
   Na   Cl
     1     1
Direct configuration=     2
   0.00000000 -0.00000000 -0.00000000
   0.50000000  0.50000000  0.50000000
unknown system                          
           1
     0.000000    2.801355    2.801355
     2.801355    0.000000    2.801355
     2.801355    2.801355   -0.000000
   Na   Cl
     1     1
Direct configuration=     3
   0.00000000 -0.00000000 -0.00000000
   0.50000000  0.50000000  0.50000000
unknown system                          
           1
     0.000000    2.801001    2.801001
     2.801001    0.000000    2.801001
     2.801001    2.801001   -0.000000
   Na   Cl
     1     1
Direct configuration=     4
   0.00000000 -0.00000000 -0.00000000
   0.50000000  0.50000000  0.50000000
