  64  64   0   0
  0.2197554E+02  0.1120400E-08  0.1120400E-08  0.1120400E-08  0.5000000E-15
  1.000000000000000E-004
  CAR 
 unknown system                          
     11.04622391    -22.84727211  301     -0.56229848      1.00000000
    -22.847  0.0000E+00  0.0000E+00
    -22.734  0.0000E+00  0.0000E+00
    -22.621  0.0000E+00  0.0000E+00
    -22.508  0.0000E+00  0.0000E+00
    -22.395  0.0000E+00  0.0000E+00
    -22.282  0.0000E+00  0.0000E+00
    -22.169  0.0000E+00  0.0000E+00
    -22.056  0.0000E+00  0.0000E+00
    -21.943  0.0000E+00  0.0000E+00
    -21.830  0.0000E+00  0.0000E+00
    -21.717  0.0000E+00  0.0000E+00
    -21.605  0.0000E+00  0.0000E+00
    -21.492  0.0000E+00  0.0000E+00
    -21.379  0.5303E-05  0.5991E-06
    -21.266  0.1380E+04  0.1559E+03
    -21.153  0.3194E+03  0.1920E+03
    -21.040  0.0000E+00  0.1920E+03
    -20.927  0.0000E+00  0.1920E+03
    -20.814  0.0000E+00  0.1920E+03
    -20.701  0.0000E+00  0.1920E+03
    -20.588  0.0000E+00  0.1920E+03
    -20.475  0.0000E+00  0.1920E+03
    -20.362  0.0000E+00  0.1920E+03
    -20.249  0.0000E+00  0.1920E+03
    -20.136  0.0000E+00  0.1920E+03
    -20.023  0.0000E+00  0.1920E+03
    -19.910  0.0000E+00  0.1920E+03
    -19.797  0.0000E+00  0.1920E+03
    -19.684  0.0000E+00  0.1920E+03
    -19.571  0.0000E+00  0.1920E+03
    -19.458  0.0000E+00  0.1920E+03
    -19.345  0.0000E+00  0.1920E+03
    -19.232  0.0000E+00  0.1920E+03
    -19.119  0.0000E+00  0.1920E+03
    -19.006  0.0000E+00  0.1920E+03
    -18.893  0.0000E+00  0.1920E+03
    -18.780  0.0000E+00  0.1920E+03
    -18.667  0.0000E+00  0.1920E+03
    -18.554  0.0000E+00  0.1920E+03
    -18.441  0.0000E+00  0.1920E+03
    -18.328  0.0000E+00  0.1920E+03
    -18.215  0.0000E+00  0.1920E+03
    -18.102  0.0000E+00  0.1920E+03
    -17.989  0.0000E+00  0.1920E+03
    -17.876  0.0000E+00  0.1920E+03
    -17.763  0.0000E+00  0.1920E+03
    -17.650  0.0000E+00  0.1920E+03
    -17.537  0.0000E+00  0.1920E+03
    -17.424  0.0000E+00  0.1920E+03
    -17.311  0.0000E+00  0.1920E+03
    -17.198  0.0000E+00  0.1920E+03
    -17.085  0.0000E+00  0.1920E+03
    -16.972  0.0000E+00  0.1920E+03
    -16.859  0.0000E+00  0.1920E+03
    -16.746  0.0000E+00  0.1920E+03
    -16.633  0.0000E+00  0.1920E+03
    -16.520  0.0000E+00  0.1920E+03
    -16.408  0.0000E+00  0.1920E+03
    -16.295  0.0000E+00  0.1920E+03
    -16.182  0.0000E+00  0.1920E+03
    -16.069  0.0000E+00  0.1920E+03
    -15.956  0.0000E+00  0.1920E+03
    -15.843  0.0000E+00  0.1920E+03
    -15.730  0.0000E+00  0.1920E+03
    -15.617  0.0000E+00  0.1920E+03
    -15.504  0.0000E+00  0.1920E+03
    -15.391  0.0000E+00  0.1920E+03
    -15.278  0.0000E+00  0.1920E+03
    -15.165  0.0000E+00  0.1920E+03
    -15.052  0.0000E+00  0.1920E+03
    -14.939  0.0000E+00  0.1920E+03
    -14.826  0.0000E+00  0.1920E+03
    -14.713  0.0000E+00  0.1920E+03
    -14.600  0.0000E+00  0.1920E+03
    -14.487  0.0000E+00  0.1920E+03
    -14.374  0.0000E+00  0.1920E+03
    -14.261  0.0000E+00  0.1920E+03
    -14.148  0.0000E+00  0.1920E+03
    -14.035  0.0000E+00  0.1920E+03
    -13.922  0.0000E+00  0.1920E+03
    -13.809  0.0000E+00  0.1920E+03
    -13.696  0.0000E+00  0.1920E+03
    -13.583  0.0000E+00  0.1920E+03
    -13.470  0.2702E-14  0.1920E+03
    -13.357  0.1169E+01  0.1921E+03
    -13.244  0.1955E+02  0.1943E+03
    -13.131  0.4849E+02  0.1998E+03
    -13.018  0.1262E+03  0.2141E+03
    -12.905  0.3664E+03  0.2555E+03
    -12.792  0.4677E+01  0.2560E+03
    -12.679  0.0000E+00  0.2560E+03
    -12.566  0.0000E+00  0.2560E+03
    -12.453  0.0000E+00  0.2560E+03
    -12.340  0.0000E+00  0.2560E+03
    -12.227  0.0000E+00  0.2560E+03
    -12.114  0.0000E+00  0.2560E+03
    -12.001  0.0000E+00  0.2560E+03
    -11.888  0.0000E+00  0.2560E+03
    -11.775  0.0000E+00  0.2560E+03
    -11.662  0.0000E+00  0.2560E+03
    -11.549  0.0000E+00  0.2560E+03
    -11.436  0.0000E+00  0.2560E+03
    -11.323  0.0000E+00  0.2560E+03
    -11.211  0.0000E+00  0.2560E+03
    -11.098  0.0000E+00  0.2560E+03
    -10.985  0.0000E+00  0.2560E+03
    -10.872  0.0000E+00  0.2560E+03
    -10.759  0.0000E+00  0.2560E+03
    -10.646  0.0000E+00  0.2560E+03
    -10.533  0.0000E+00  0.2560E+03
    -10.420  0.0000E+00  0.2560E+03
    -10.307  0.0000E+00  0.2560E+03
    -10.194  0.0000E+00  0.2560E+03
    -10.081  0.0000E+00  0.2560E+03
     -9.968  0.0000E+00  0.2560E+03
     -9.855  0.0000E+00  0.2560E+03
     -9.742  0.0000E+00  0.2560E+03
     -9.629  0.0000E+00  0.2560E+03
     -9.516  0.0000E+00  0.2560E+03
     -9.403  0.0000E+00  0.2560E+03
     -9.290  0.0000E+00  0.2560E+03
     -9.177  0.0000E+00  0.2560E+03
     -9.064  0.0000E+00  0.2560E+03
     -8.951  0.0000E+00  0.2560E+03
     -8.838  0.0000E+00  0.2560E+03
     -8.725  0.0000E+00  0.2560E+03
     -8.612  0.0000E+00  0.2560E+03
     -8.499  0.0000E+00  0.2560E+03
     -8.386  0.0000E+00  0.2560E+03
     -8.273  0.0000E+00  0.2560E+03
     -8.160  0.0000E+00  0.2560E+03
     -8.047  0.0000E+00  0.2560E+03
     -7.934  0.0000E+00  0.2560E+03
     -7.821  0.0000E+00  0.2560E+03
     -7.708  0.0000E+00  0.2560E+03
     -7.595  0.0000E+00  0.2560E+03
     -7.482  0.0000E+00  0.2560E+03
     -7.369  0.0000E+00  0.2560E+03
     -7.256  0.0000E+00  0.2560E+03
     -7.143  0.0000E+00  0.2560E+03
     -7.030  0.0000E+00  0.2560E+03
     -6.917  0.0000E+00  0.2560E+03
     -6.804  0.0000E+00  0.2560E+03
     -6.691  0.0000E+00  0.2560E+03
     -6.578  0.0000E+00  0.2560E+03
     -6.465  0.0000E+00  0.2560E+03
     -6.352  0.0000E+00  0.2560E+03
     -6.239  0.0000E+00  0.2560E+03
     -6.126  0.0000E+00  0.2560E+03
     -6.014  0.0000E+00  0.2560E+03
     -5.901  0.0000E+00  0.2560E+03
     -5.788  0.0000E+00  0.2560E+03
     -5.675  0.0000E+00  0.2560E+03
     -5.562  0.0000E+00  0.2560E+03
     -5.449  0.0000E+00  0.2560E+03
     -5.336  0.0000E+00  0.2560E+03
     -5.223  0.0000E+00  0.2560E+03
     -5.110  0.0000E+00  0.2560E+03
     -4.997  0.0000E+00  0.2560E+03
     -4.884  0.0000E+00  0.2560E+03
     -4.771  0.0000E+00  0.2560E+03
     -4.658  0.0000E+00  0.2560E+03
     -4.545  0.0000E+00  0.2560E+03
     -4.432  0.0000E+00  0.2560E+03
     -4.319  0.0000E+00  0.2560E+03
     -4.206  0.0000E+00  0.2560E+03
     -4.093  0.0000E+00  0.2560E+03
     -3.980  0.0000E+00  0.2560E+03
     -3.867  0.0000E+00  0.2560E+03
     -3.754  0.0000E+00  0.2560E+03
     -3.641  0.0000E+00  0.2560E+03
     -3.528  0.0000E+00  0.2560E+03
     -3.415  0.0000E+00  0.2560E+03
     -3.302  0.0000E+00  0.2560E+03
     -3.189  0.0000E+00  0.2560E+03
     -3.076  0.0000E+00  0.2560E+03
     -2.963  0.0000E+00  0.2560E+03
     -2.850  0.0000E+00  0.2560E+03
     -2.737  0.3837E-01  0.2560E+03
     -2.624  0.8813E+01  0.2570E+03
     -2.511  0.1685E+02  0.2589E+03
     -2.398  0.8783E+02  0.2688E+03
     -2.285  0.7969E+02  0.2778E+03
     -2.172  0.1577E+03  0.2957E+03
     -2.059  0.7610E+02  0.3043E+03
     -1.946  0.5469E+02  0.3104E+03
     -1.833  0.5608E+02  0.3168E+03
     -1.720  0.7953E+02  0.3257E+03
     -1.607  0.1159E-10  0.3258E+03
     -1.494  0.5159E+02  0.3316E+03
     -1.381  0.2097E+03  0.3553E+03
     -1.268  0.3045E+02  0.3587E+03
     -1.155  0.2405E+03  0.3859E+03
     -1.042  0.1472E+03  0.4025E+03
     -0.929  0.2470E+03  0.4304E+03
     -0.816  0.7197E+02  0.4386E+03
     -0.704  0.7680E+02  0.4472E+03
     -0.591  0.6791E+01  0.4480E+03
     -0.478  0.0000E+00  0.4480E+03
     -0.365  0.0000E+00  0.4480E+03
     -0.252  0.0000E+00  0.4480E+03
     -0.139  0.0000E+00  0.4480E+03
     -0.026  0.0000E+00  0.4480E+03
      0.087  0.0000E+00  0.4480E+03
      0.200  0.0000E+00  0.4480E+03
      0.313  0.0000E+00  0.4480E+03
      0.426  0.0000E+00  0.4480E+03
      0.539  0.0000E+00  0.4480E+03
      0.652  0.0000E+00  0.4480E+03
      0.765  0.0000E+00  0.4480E+03
      0.878  0.0000E+00  0.4480E+03
      0.991  0.0000E+00  0.4480E+03
      1.104  0.0000E+00  0.4480E+03
      1.217  0.0000E+00  0.4480E+03
      1.330  0.0000E+00  0.4480E+03
      1.443  0.0000E+00  0.4480E+03
      1.556  0.0000E+00  0.4480E+03
      1.669  0.0000E+00  0.4480E+03
      1.782  0.0000E+00  0.4480E+03
      1.895  0.0000E+00  0.4480E+03
      2.008  0.0000E+00  0.4480E+03
      2.121  0.0000E+00  0.4480E+03
      2.234  0.0000E+00  0.4480E+03
      2.347  0.0000E+00  0.4480E+03
      2.460  0.0000E+00  0.4480E+03
      2.573  0.0000E+00  0.4480E+03
      2.686  0.0000E+00  0.4480E+03
      2.799  0.0000E+00  0.4480E+03
      2.912  0.0000E+00  0.4480E+03
      3.025  0.0000E+00  0.4480E+03
      3.138  0.0000E+00  0.4480E+03
      3.251  0.0000E+00  0.4480E+03
      3.364  0.0000E+00  0.4480E+03
      3.477  0.0000E+00  0.4480E+03
      3.590  0.0000E+00  0.4480E+03
      3.703  0.0000E+00  0.4480E+03
      3.816  0.0000E+00  0.4480E+03
      3.929  0.0000E+00  0.4480E+03
      4.042  0.0000E+00  0.4480E+03
      4.155  0.0000E+00  0.4480E+03
      4.268  0.2969E-06  0.4480E+03
      4.381  0.2208E+01  0.4482E+03
      4.493  0.4924E-02  0.4482E+03
      4.606  0.0000E+00  0.4482E+03
      4.719  0.0000E+00  0.4482E+03
      4.832  0.0000E+00  0.4482E+03
      4.945  0.5134E-06  0.4483E+03
      5.058  0.1320E+02  0.4497E+03
      5.171  0.7866E-01  0.4498E+03
      5.284  0.0000E+00  0.4498E+03
      5.397  0.0000E+00  0.4498E+03
      5.510  0.6150E+00  0.4498E+03
      5.623  0.2594E+02  0.4527E+03
      5.736  0.7692E-09  0.4528E+03
      5.849  0.1560E+02  0.4545E+03
      5.962  0.2104E+01  0.4548E+03
      6.075  0.0000E+00  0.4548E+03
      6.188  0.0000E+00  0.4548E+03
      6.301  0.3124E-04  0.4548E+03
      6.414  0.1340E+02  0.4563E+03
      6.527  0.8728E+01  0.4572E+03
      6.640  0.2806E+02  0.4604E+03
      6.753  0.7763E+02  0.4692E+03
      6.866  0.5711E+02  0.4756E+03
      6.979  0.1257E+02  0.4771E+03
      7.092  0.3870E+01  0.4775E+03
      7.205  0.2973E+01  0.4778E+03
      7.318  0.3692E+01  0.4783E+03
      7.431  0.7901E+02  0.4872E+03
      7.544  0.1626E+03  0.5055E+03
      7.657  0.1065E+02  0.5068E+03
      7.770  0.2655E+02  0.5097E+03
      7.883  0.1367E-01  0.5098E+03
      7.996  0.5309E+02  0.5157E+03
      8.109  0.2573E-03  0.5158E+03
      8.222  0.1335E+02  0.5173E+03
      8.335  0.9272E+02  0.5277E+03
      8.448  0.1424E+00  0.5278E+03
      8.561  0.1298E+03  0.5424E+03
      8.674  0.2957E+02  0.5457E+03
      8.787  0.6762E-08  0.5458E+03
      8.900  0.6544E+02  0.5531E+03
      9.013  0.1304E+03  0.5679E+03
      9.126  0.1434E+02  0.5695E+03
      9.239  0.1035E+02  0.5707E+03
      9.352  0.3390E+02  0.5745E+03
      9.465  0.2498E+00  0.5745E+03
      9.578  0.1303E+02  0.5760E+03
      9.690  0.0000E+00  0.5760E+03
      9.803  0.0000E+00  0.5760E+03
      9.916  0.0000E+00  0.5760E+03
     10.029  0.0000E+00  0.5760E+03
     10.142  0.0000E+00  0.5760E+03
     10.255  0.0000E+00  0.5760E+03
     10.368  0.0000E+00  0.5760E+03
     10.481  0.0000E+00  0.5760E+03
     10.594  0.0000E+00  0.5760E+03
     10.707  0.0000E+00  0.5760E+03
     10.820  0.0000E+00  0.5760E+03
     10.933  0.0000E+00  0.5760E+03
     11.046  0.0000E+00  0.5760E+03
