       N       E                     dE             d eps       ncg     rms          rms(c)
DAV:   1     0.432382073816E+04    0.43238E+04   -0.17163E+05  4608   0.125E+03
DAV:   2     0.363961483000E+03   -0.39599E+04   -0.37661E+04  5120   0.368E+02
DAV:   3    -0.206181027006E+03   -0.57014E+03   -0.56589E+03  5632   0.156E+02
DAV:   4    -0.228191041870E+03   -0.22010E+02   -0.21911E+02  5536   0.331E+01
DAV:   5    -0.229005636017E+03   -0.81459E+00   -0.81324E+00  5792   0.616E+00    0.106E+01
DAV:   6    -0.224138182063E+03    0.48675E+01   -0.94921E+00  5728   0.531E+00    0.776E+00
DAV:   7    -0.223777270645E+03    0.36091E+00   -0.20639E+00  6304   0.234E+00    0.533E+00
DAV:   8    -0.223902534090E+03   -0.12526E+00   -0.26673E-01  5344   0.124E+00    0.141E+00
DAV:   9    -0.223897064043E+03    0.54700E-02   -0.11263E-02  5664   0.259E-01    0.601E-01
DAV:  10    -0.223901362328E+03   -0.42983E-02   -0.18128E-02  5376   0.229E-01    0.283E-01
DAV:  11    -0.223900656898E+03    0.70543E-03   -0.15397E-03  5888   0.817E-02    0.871E-02
DAV:  12    -0.223900618575E+03    0.38323E-04   -0.14686E-04  5824   0.235E-02    0.157E-02
DAV:  13    -0.223900618507E+03    0.68074E-07   -0.22196E-05  5760   0.812E-03    0.361E-03
DAV:  14    -0.223900619646E+03   -0.11387E-05   -0.21110E-06  5632   0.353E-03    0.900E-03
DAV:  15    -0.223900620944E+03   -0.12978E-05   -0.41847E-07  5344   0.172E-03    0.359E-03
DAV:  16    -0.223900621508E+03   -0.56415E-06   -0.15123E-07  5600   0.885E-04    0.555E-04
DAV:  17    -0.223900621503E+03    0.43074E-08   -0.75143E-09  3776   0.600E-04
   1 F= -.22390062E+03 E0= -.22390062E+03  d E =-.163869E-13
