 vasp.6.3.2 27Jun22 (build Oct 14 2022 12:13:54) complex                        
  
 executed on             LinuxIFC date 2025.08.28  22:07:57
 running on   32 total cores
 distrk:  each k-point on   32 cores,    1 groups
 distr:  one band on NCORE=   1 cores,   32 groups


--------------------------------------------------------------------------------------------------------


 INCAR:
   ENCUT = 341.213600
   SIGMA = 0.020000
   EDIFF = 1.00e-08
   GGA = PS
   PREC = Accurate
   IALGO = 38
   IBRION = -1
   ISMEAR = 0
   NELMIN = 5
   ADDGRID = .TRUE.
   LCHARG = .FALSE.
   LWAVE = .FALSE.
   LREAL = .FALSE.

 POTCAR:    PAW_PBE Na_pv 19Sep2006               
 POTCAR:    PAW_PBE Cl 06Sep2000                  
 -----------------------------------------------------------------------------
|                                                                             |
|           W    W    AA    RRRRR   N    N  II  N    N   GGGG   !!!           |
|           W    W   A  A   R    R  NN   N  II  NN   N  G    G  !!!           |
|           W    W  A    A  R    R  N N  N  II  N N  N  G       !!!           |
|           W WW W  AAAAAA  RRRRR   N  N N  II  N  N N  G  GGG   !            |
|           WW  WW  A    A  R   R   N   NN  II  N   NN  G    G                |
|           W    W  A    A  R    R  N    N  II  N    N   GGGG   !!!           |
|                                                                             |
|     For optimal performance we recommend to set                             |
|       NCORE = 2 up to number-of-cores-per-socket                            |
|     NCORE specifies how many cores store one orbital (NPAR=cpu/NCORE).      |
|     This setting can greatly improve the performance of VASP for DFT.       |
|     The default, NCORE=1 might be grossly inefficient on modern             |
|     multi-core architectures or massively parallel machines. Do your        |
|     own testing! More info at https://www.vasp.at/wiki/index.php/NCORE      |
|     Unfortunately you need to use the default for GW and RPA                |
|     calculations (for HF NCORE is supported but not extensively tested      |
|     yet).                                                                   |
|                                                                             |
 -----------------------------------------------------------------------------

 POTCAR:    PAW_PBE Na_pv 19Sep2006               
   SHA256 =  6a2f546d9e11350984debacf3dc457d8cffc0868e817d445faca461816a32b94 Na_pv/POTCAR          
   COPYR  = (c) Copyright 19Sep2006 Georg Kresse                                                    
   COPYR  = This file is part of the software VASP. Any use, copying, and all other rights are regul
   COPYR  = If you do not have a valid VASP license, you may not use, copy or distribute this file. 
   VRHFIN =Na: p6s1                                                                                 
   LEXCH  = PE                                                                                      
   EATOM  =   766.0439 eV,   56.3026 Ry                                                             
                                                                                                    
   TITEL  = PAW_PBE Na_pv 19Sep2006                                                                 
   LULTRA =        F    use ultrasoft PP ?                                                          
   IUNSCR =        1    unscreen: 0-lin 1-nonlin 2-no                                               
   RPACOR =    1.800    partial core radius                                                         
   POMASS =   22.990; ZVAL   =    7.000    mass and valenz                                          
   RCORE  =    2.200    outmost cutoff radius                                                       
   RWIGS  =    2.200; RWIGS  =    1.164    wigner-seitz radius (au A)                               
   ENMAX  =  259.561; ENMIN  =  194.671 eV                                                          
   ICORE  =        2    local potential                                                             
   LCOR   =        T    correct aug charges                                                         
   LPAW   =        T    paw PP                                                                      
   EAUG   =  368.056                                                                                
   DEXC   =    0.000                                                                                
   RMAX   =    2.245    core radius for proj-oper                                                   
   RAUG   =    1.300    factor for augmentation sphere                                              
   RDEP   =    2.259    radius for radial grids                                                     
   RDEPT  =    1.738    core radius for aug-charge                                                  
                                                                                                    
   Atomic configuration                                                                             
    5 entries                                                                                       
     n  l   j            E        occ.                                                              
     1  0  0.50     -1033.6933   2.0000                                                             
     2  0  0.50       -56.7526   2.0000                                                             
     2  1  1.50       -28.6721   6.0000                                                             
     3  0  0.50        -2.7440   1.0000                                                             
     3  2  1.50        -1.3606   0.0000                                                             
   Description                                                                                      
     l       E           TYP  RCUT    TYP  RCUT                                                     
     1    -28.6720912     23  2.000                                                                 
     1      6.8029130     23  2.000                                                                 
     0     -2.7439560     23  2.200                                                                 
     0     34.0145650     23  2.200                                                                 
     2     -1.3605826     23  2.200                                                                 
  local pseudopotential read in
  partial core-charges read in
  partial kinetic energy density read in
  atomic valenz-charges read in
  non local Contribution for L=           1  read in
    real space projection operators read in
  non local Contribution for L=           1  read in
    real space projection operators read in
  non local Contribution for L=           0  read in
    real space projection operators read in
  non local Contribution for L=           0  read in
    real space projection operators read in
    PAW grid and wavefunctions read in
 
   number of l-projection  operators is LMAX  =           4
   number of lm-projection operators is LMMAX =           8
 
 POTCAR:    PAW_PBE Cl 06Sep2000                  
   SHA256 =  9f1b6e6ed4247ac726a768b330d26d7667cc3c95a39ff49c1d064c2d9dcce931 Cl/POTCAR             
   COPYR  = (c) Copyright 06Sep2000 Georg Kresse                                                    
   COPYR  = This file is part of the software VASP. Any use, copying, and all other rights are regul
   COPYR  = If you do not have a valid VASP license, you may not use, copy or distribute this file. 
   VRHFIN =Cl: s2p5                                                                                 
   LEXCH  = PE                                                                                      
   EATOM  =   409.7259 eV,   30.1140 Ry                                                             
                                                                                                    
   TITEL  = PAW_PBE Cl 06Sep2000                                                                    
   LULTRA =        F    use ultrasoft PP ?                                                          
   IUNSCR =        1    unscreen: 0-lin 1-nonlin 2-no                                               
   RPACOR =    1.500    partial core radius                                                         
   POMASS =   35.453; ZVAL   =    7.000    mass and valenz                                          
   RCORE  =    1.900    outmost cutoff radius                                                       
   RWIGS  =    2.100; RWIGS  =    1.111    wigner-seitz radius (au A)                               
   ENMAX  =  262.472; ENMIN  =  196.854 eV                                                          
   ICORE  =        2    local potential                                                             
   LCOR   =        T    correct aug charges                                                         
   LPAW   =        T    paw PP                                                                      
   EAUG   =  356.192                                                                                
   DEXC   =    0.000                                                                                
   RMAX   =    1.945    core radius for proj-oper                                                   
   RAUG   =    1.300    factor for augmentation sphere                                              
   RDEP   =    2.020    radius for radial grids                                                     
   RDEPT  =    1.678    core radius for aug-charge                                                  
                                                                                                    
   Atomic configuration                                                                             
    6 entries                                                                                       
     n  l   j            E        occ.                                                              
     1  0  0.50     -2751.1850   2.0000                                                             
     2  0  0.50      -252.6861   2.0000                                                             
     2  1  1.50      -191.6157   6.0000                                                             
     3  0  0.50       -20.6916   2.0000                                                             
     3  1  0.50        -8.5949   5.0000                                                             
     3  2  1.50        -8.1635   0.0000                                                             
   Description                                                                                      
     l       E           TYP  RCUT    TYP  RCUT                                                     
     0    -20.6915656     23  1.900                                                                 
     0    -22.0521482     23  1.900                                                                 
     1     -8.5948577     23  1.900                                                                 
     1     -5.3847331     23  1.900                                                                 
     2     -8.1634956     23  1.900                                                                 
  local pseudopotential read in
  partial core-charges read in
  partial kinetic energy density read in
  atomic valenz-charges read in
  non local Contribution for L=           0  read in
    real space projection operators read in
  non local Contribution for L=           0  read in
    real space projection operators read in
  non local Contribution for L=           1  read in
    real space projection operators read in
  non local Contribution for L=           1  read in
    real space projection operators read in
    PAW grid and wavefunctions read in
 
   number of l-projection  operators is LMAX  =           4
   number of lm-projection operators is LMMAX =           8
 
 -----------------------------------------------------------------------------
|                                                                             |
|               ----> ADVICE to this user running VASP <----                  |
|                                                                             |
|     You have a (more or less) 'large supercell' and for larger cells it     |
|     might be more efficient to use real-space projection operators.         |
|     Therefore, try LREAL= Auto in the INCAR file.                           |
|     Mind: For very accurate calculation, you might also keep the            |
|     reciprocal projection scheme (i.e. LREAL=.FALSE.).                      |
|                                                                             |
 -----------------------------------------------------------------------------

 -----------------------------------------------------------------------------
|                                                                             |
|               ----> ADVICE to this user running VASP <----                  |
|                                                                             |
|     You enforced a specific xc type in the INCAR file but a different       |
|     type was found in the POTCAR file.                                      |
|     I HOPE YOU KNOW WHAT YOU ARE DOING!                                     |
|                                                                             |
 -----------------------------------------------------------------------------

  PAW_PBE Na_pv 19Sep2006               :
 energy of atom  1       EATOM= -766.0439
 kinetic energy error for atom=    0.0189 (will be added to EATOM!!)
  PAW_PBE Cl 06Sep2000                  :
 energy of atom  2       EATOM= -409.7259
 kinetic energy error for atom=    0.0106 (will be added to EATOM!!)
 
 
 POSCAR: Na Cl
  positions in cartesian coordinates
  No initial velocities read in
 exchange correlation table for  LEXCH =       14
   RHO(1)=    0.500       N(1)  =     2000
   RHO(2)=  100.500       N(2)  =     4000
 


--------------------------------------------------------------------------------------------------------


 ion  position               nearest neighbor table
   1  0.997  0.000  0.000-
   2  0.250  0.250  0.000-
   3  0.250  0.000  0.250-
   4  0.000  0.250  0.250-
   5  0.000  0.000  0.500-
   6  0.250  0.250  0.500-
   7  0.250  0.000  0.750-
   8  0.000  0.250  0.750-
   9  0.000  0.500  0.000-
  10  0.250  0.750  0.000-
  11  0.250  0.500  0.250-
  12  0.000  0.750  0.250-
  13  0.000  0.500  0.500-
  14  0.250  0.750  0.500-
  15  0.250  0.500  0.750-
  16  0.000  0.750  0.750-
  17  0.500  0.000  0.000-
  18  0.750  0.250  0.000-
  19  0.750  0.000  0.250-
  20  0.500  0.250  0.250-
  21  0.500  0.000  0.500-
  22  0.750  0.250  0.500-
  23  0.750  0.000  0.750-
  24  0.500  0.250  0.750-
  25  0.500  0.500  0.000-
  26  0.750  0.750  0.000-
  27  0.750  0.500  0.250-
  28  0.500  0.750  0.250-
  29  0.500  0.500  0.500-
  30  0.750  0.750  0.500-
  31  0.750  0.500  0.750-
  32  0.500  0.750  0.750-
  33  0.250  0.250  0.250-
  34  0.000  0.000  0.250-
  35  0.000  0.250  0.000-
  36  0.250  0.003  0.000-
  37  0.250  0.250  0.750-
  38  0.000  0.000  0.750-
  39  0.000  0.250  0.500-
  40  0.250  0.000  0.500-
  41  0.250  0.750  0.250-
  42  0.000  0.500  0.250-
  43  0.000  0.750  0.000-
  44  0.250  0.500  0.000-
  45  0.250  0.750  0.750-
  46  0.000  0.500  0.750-
  47  0.000  0.750  0.500-
  48  0.250  0.500  0.500-
  49  0.750  0.250  0.250-
  50  0.500  0.000  0.250-
  51  0.500  0.250  0.000-
  52  0.750  0.000  0.000-
  53  0.750  0.250  0.750-
  54  0.500  0.000  0.750-
  55  0.500  0.250  0.500-
  56  0.750  0.000  0.500-
  57  0.750  0.750  0.250-
  58  0.500  0.500  0.250-
  59  0.500  0.750  0.000-
  60  0.750  0.500  0.000-
  61  0.750  0.750  0.750-
  62  0.500  0.500  0.750-
  63  0.500  0.750  0.500-
  64  0.750  0.500  0.500-
 
  LATTYP: Found a simple cubic cell.
 ALAT       =    11.2040023600
  
  Lattice vectors:
  
 A1 = (  11.2040023600,   0.0000000000,   0.0000000000)
 A2 = (   0.0000000000,  11.2040023600,   0.0000000000)
 A3 = (   0.0000000000,   0.0000000000,  11.2040023600)


Analysis of symmetry for initial positions (statically):
=====================================================================
 Subroutine PRICEL returns:
 Original cell was already a primitive cell.
 

 Routine SETGRP: Setting up the symmetry group for a 
 simple cubic supercell.


 Subroutine GETGRP returns: Found  2 space group operations
 (whereof  2 operations were pure point group operations)
 out of a pool of 48 trial point group operations.


The static configuration has the point symmetry C_1h.


Analysis of symmetry for dynamics (positions and initial velocities):
=====================================================================
 Subroutine PRICEL returns:
 Original cell was already a primitive cell.
 

 Routine SETGRP: Setting up the symmetry group for a 
 simple cubic supercell.


 Subroutine GETGRP returns: Found  2 space group operations
 (whereof  2 operations were pure point group operations)
 out of a pool of 48 trial point group operations.


The dynamic configuration has the point symmetry C_1h.


 Subroutine INISYM returns: Found  2 space group operations
 (whereof  2 operations are pure point group operations),
 and found     1 'primitive' translations


----------------------------------------------------------------------------------------

                                     Primitive cell                                     

  volume of cell :    1406.4347

  direct lattice vectors                    reciprocal lattice vectors
    11.204002360  0.000000000  0.000000000     0.089253819  0.000000000  0.000000000
     0.000000000 11.204002360  0.000000000     0.000000000  0.089253819  0.000000000
     0.000000000  0.000000000 11.204002360     0.000000000  0.000000000  0.089253819

  length of vectors
    11.204002360 11.204002360 11.204002360     0.089253819  0.089253819  0.089253819

  position of ions in fractional coordinates (direct lattice)
     0.997322385  0.000000000  0.000000000
     0.250000000  0.250000000  0.000000000
     0.250000000  0.000000000  0.250000000
     0.000000000  0.250000000  0.250000000
     0.000000000  0.000000000  0.500000000
     0.250000000  0.250000000  0.500000000
     0.250000000  0.000000000  0.750000000
     0.000000000  0.250000000  0.750000000
     0.000000000  0.500000000  0.000000000
     0.250000000  0.750000000  0.000000000
     0.250000000  0.500000000  0.250000000
     0.000000000  0.750000000  0.250000000
     0.000000000  0.500000000  0.500000000
     0.250000000  0.750000000  0.500000000
     0.250000000  0.500000000  0.750000000
     0.000000000  0.750000000  0.750000000
     0.500000000  0.000000000  0.000000000
     0.750000000  0.250000000  0.000000000
     0.750000000  0.000000000  0.250000000
     0.500000000  0.250000000  0.250000000
     0.500000000  0.000000000  0.500000000
     0.750000000  0.250000000  0.500000000
     0.750000000  0.000000000  0.750000000
     0.500000000  0.250000000  0.750000000
     0.500000000  0.500000000  0.000000000
     0.750000000  0.750000000  0.000000000
     0.750000000  0.500000000  0.250000000
     0.500000000  0.750000000  0.250000000
     0.500000000  0.500000000  0.500000000
     0.750000000  0.750000000  0.500000000
     0.750000000  0.500000000  0.750000000
     0.500000000  0.750000000  0.750000000
     0.250000000  0.250000000  0.250000000
     0.000000000  0.000000000  0.250000000
     0.000000000  0.250000000  0.000000000
     0.250000000  0.002677615  0.000000000
     0.250000000  0.250000000  0.750000000
     0.000000000  0.000000000  0.750000000
     0.000000000  0.250000000  0.500000000
     0.250000000  0.000000000  0.500000000
     0.250000000  0.750000000  0.250000000
     0.000000000  0.500000000  0.250000000
     0.000000000  0.750000000  0.000000000
     0.250000000  0.500000000  0.000000000
     0.250000000  0.750000000  0.750000000
     0.000000000  0.500000000  0.750000000
     0.000000000  0.750000000  0.500000000
     0.250000000  0.500000000  0.500000000
     0.750000000  0.250000000  0.250000000
     0.500000000  0.000000000  0.250000000
     0.500000000  0.250000000  0.000000000
     0.750000000  0.000000000  0.000000000
     0.750000000  0.250000000  0.750000000
     0.500000000  0.000000000  0.750000000
     0.500000000  0.250000000  0.500000000
     0.750000000  0.000000000  0.500000000
     0.750000000  0.750000000  0.250000000
     0.500000000  0.500000000  0.250000000
     0.500000000  0.750000000  0.000000000
     0.750000000  0.500000000  0.000000000
     0.750000000  0.750000000  0.750000000
     0.500000000  0.500000000  0.750000000
     0.500000000  0.750000000  0.500000000
     0.750000000  0.500000000  0.500000000

  ion indices of the primitive-cell ions
   primitive index   ion index
                 1           1
                 2           2
                 3           3
                 4           4
                 5           5
                 6           6
                 7           7
                 8           8
                 9           9
                10          10
                11          11
                12          12
                13          13
                14          14
                15          15
                16          16
                17          17
                18          18
                19          19
                20          20
                21          21
                22          22
                23          23
                24          24
                25          25
                26          26
                27          27
                28          28
                29          29
                30          30
                31          31
                32          32
                33          33
                34          34
                35          35
                36          36
                37          37
                38          38
                39          39
                40          40
                41          41
                42          42
                43          43
                44          44
                45          45
                46          46
                47          47
                48          48
                49          49
                50          50
                51          51
                52          52
                53          53
                54          54
                55          55
                56          56
                57          57
                58          58
                59          59
                60          60
                61          61
                62          62
                63          63
                64          64

----------------------------------------------------------------------------------------

 
 
 KPOINTS: KPOINTS created by Atomic Simulation Env

Automatic generation of k-mesh.
 Grid dimensions read from file:
 generate k-points for:    2    2    2

 Generating k-lattice:

  Cartesian coordinates                     Fractional coordinates (reciprocal lattice)
     0.044626910  0.000000000  0.000000000     0.500000000  0.000000000  0.000000000
     0.000000000  0.044626910  0.000000000     0.000000000  0.500000000  0.000000000
     0.000000000  0.000000000  0.044626910     0.000000000  0.000000000  0.500000000

  Length of vectors
     0.044626910  0.044626910  0.044626910

  Shift w.r.t. Gamma in fractional coordinates (k-lattice)
     0.000000000  0.000000000  0.000000000

 
 Subroutine IBZKPT returns following result:
 ===========================================
 
 Found      8 irreducible k-points:
 
 Following reciprocal coordinates:
            Coordinates               Weight
  0.000000  0.000000  0.000000      1.000000
  0.500000  0.000000  0.000000      1.000000
  0.000000  0.500000  0.000000      1.000000
  0.000000  0.000000  0.500000      1.000000
  0.500000  0.500000  0.000000      1.000000
  0.000000  0.500000  0.500000      1.000000
  0.500000  0.000000  0.500000      1.000000
  0.500000  0.500000  0.500000      1.000000
 
 Following cartesian coordinates:
            Coordinates               Weight
  0.000000  0.000000  0.000000      1.000000
  0.044627  0.000000  0.000000      1.000000
  0.000000  0.044627  0.000000      1.000000
  0.000000  0.000000  0.044627      1.000000
  0.044627  0.044627  0.000000      1.000000
  0.000000  0.044627  0.044627      1.000000
  0.044627  0.000000  0.044627      1.000000
  0.044627  0.044627  0.044627      1.000000
 


--------------------------------------------------------------------------------------------------------




 Dimension of arrays:
   k-points           NKPTS =      8   k-points in BZ     NKDIM =      8   number of bands    NBANDS=    288
   number of dos      NEDOS =    301   number of ions     NIONS =     64
   non local maximal  LDIM  =      4   non local SUM 2l+1 LMDIM =      8
   total plane-waves  NPLWV = 343000
   max r-space proj   IRMAX =      1   max aug-charges    IRDMAX=  56280
   dimension x,y,z NGX =    70 NGY =   70 NGZ =   70
   dimension x,y,z NGXF=   140 NGYF=  140 NGZF=  140
   support grid    NGXF=   280 NGYF=  280 NGZF=  280
   ions per type =              32  32
   NGX,Y,Z   is equivalent  to a cutoff of  10.39, 10.39, 10.39 a.u.
   NGXF,Y,Z  is equivalent  to a cutoff of  20.77, 20.77, 20.77 a.u.

 SYSTEM =  unknown system                          
 POSCAR =  Na Cl                                   

 Startparameter for this run:
   NWRITE =      2    write-flag & timer
   PREC   = accura    normal or accurate (medium, high low for compatibility)
   ISTART =      0    job   : 0-new  1-cont  2-samecut
   ICHARG =      2    charge: 1-file 2-atom 10-const
   ISPIN  =      1    spin polarized calculation?
   LNONCOLLINEAR =      F non collinear calculations
   LSORBIT =      F    spin-orbit coupling
   INIWAV =      1    electr: 0-lowe 1-rand  2-diag
   LASPH  =      F    aspherical Exc in radial PAW
 Electronic Relaxation 1
   ENCUT  =  341.2 eV  25.08 Ry    5.01 a.u.  16.87 16.87 16.87*2*pi/ulx,y,z
   ENINI  =  341.2     initial cutoff
   ENAUG  =  368.1 eV  augmentation charge cutoff
   NELM   =     60;   NELMIN=  5; NELMDL= -5     # of ELM steps 
   EDIFF  = 0.1E-07   stopping-criterion for ELM
   LREAL  =      F    real-space projection
   NLSPLINE    = F    spline interpolate recip. space projectors
   LCOMPAT=      F    compatible to vasp.4.4
   GGA_COMPAT  = T    GGA compatible to vasp.4.4-vasp.4.6
   LMAXPAW     = -100 max onsite density
   LMAXMIX     =    2 max onsite mixed and CHGCAR
   VOSKOWN=      0    Vosko Wilk Nusair interpolation
   ROPT   =    0.00000   0.00000
 Ionic relaxation
   EDIFFG = 0.1E-06   stopping-criterion for IOM
   NSW    =      0    number of steps for IOM
   NBLOCK =      1;   KBLOCK =      1    inner block; outer block 
   IBRION =     -1    ionic relax: 0-MD 1-quasi-New 2-CG
   NFREE  =      0    steps in history (QN), initial steepest desc. (CG)
   ISIF   =      2    stress and relaxation
   IWAVPR =     10    prediction:  0-non 1-charg 2-wave 3-comb
   ISYM   =      2    0-nonsym 1-usesym 2-fastsym
   LCORR  =      T    Harris-Foulkes like correction to forces

   POTIM  = 0.5000    time-step for ionic-motion
   TEIN   =    0.0    initial temperature
   TEBEG  =    0.0;   TEEND  =   0.0 temperature during run
   SMASS  =  -3.00    Nose mass-parameter (am)
   estimated Nose-frequenzy (Omega)   =  0.10E-29 period in steps = 0.13E+47 mass=  -0.287E-26a.u.
   SCALEE = 1.0000    scale energy and forces
   NPACO  =    256;   APACO  = 10.0  distance and # of slots for P.C.
   PSTRESS=    0.0 pullay stress

  Mass of Ions in am
   POMASS =  22.99 35.45
  Ionic Valenz
   ZVAL   =   7.00  7.00
  Atomic Wigner-Seitz radii
   RWIGS  =  -1.00 -1.00
  virtual crystal weights 
   VCA    =   1.00  1.00
   NELECT =     448.0000    total number of electrons
   NUPDOWN=      -1.0000    fix difference up-down

 DOS related values:
   EMIN   =  10.00;   EMAX   =-10.00  energy-range for DOS
   EFERMI =   0.00
   ISMEAR =     0;   SIGMA  =   0.02  broadening in eV -4-tet -1-fermi 0-gaus

 Electronic relaxation 2 (details)
   IALGO  =     38    algorithm
   LDIAG  =      T    sub-space diagonalisation (order eigenvalues)
   LSUBROT=      F    optimize rotation matrix (better conditioning)
   TURBO    =      0    0=normal 1=particle mesh
   IRESTART =      0    0=no restart 2=restart with 2 vectors
   NREBOOT  =      0    no. of reboots
   NMIN     =      0    reboot dimension
   EREF     =   0.00    reference energy to select bands
   IMIX   =      4    mixing-type and parameters
     AMIX     =   0.40;   BMIX     =  1.00
     AMIX_MAG =   1.60;   BMIX_MAG =  1.00
     AMIN     =   0.10
     WC   =   100.;   INIMIX=   1;  MIXPRE=   1;  MAXMIX= -45

 Intra band minimization:
   WEIMIN = 0.0000     energy-eigenvalue tresh-hold
   EBREAK =  0.87E-11  absolut break condition
   DEPER  =   0.30     relativ break condition  

   TIME   =   0.40     timestep for ELM

  volume/ion in A,a.u.               =      21.98       148.30
  Fermi-wavevector in a.u.,A,eV,Ry     =   1.118049  2.112807 17.007750  1.250034
  Thomas-Fermi vector in A             =   2.254677
 
 Write flags
   LWAVE        =      F    write WAVECAR
   LDOWNSAMPLE  =      F    k-point downsampling of WAVECAR
   LCHARG       =      F    write CHGCAR
   LVTOT        =      F    write LOCPOT, total local potential
   LVHAR        =      F    write LOCPOT, Hartree potential only
   LELF         =      F    write electronic localiz. function (ELF)
   LORBIT       =      0    0 simple, 1 ext, 2 COOP (PROOUT), +10 PAW based schemes


 Dipole corrections
   LMONO  =      F    monopole corrections only (constant potential shift)
   LDIPOL =      F    correct potential (dipole corrections)
   IDIPOL =      0    1-x, 2-y, 3-z, 4-all directions 
   EPSILON=  1.0000000 bulk dielectric constant

 Exchange correlation treatment:
   GGA     =    PS    GGA type
   LEXCH   =    14    internal setting for exchange type
   LIBXC   =     F    Libxc                    
   VOSKOWN =     0    Vosko Wilk Nusair interpolation
   LHFCALC =     F    Hartree Fock is set to
   LHFONE  =     F    Hartree Fock one center treatment
   AEXX    =    0.0000 exact exchange contribution

 Linear response parameters
   LEPSILON=     F    determine dielectric tensor
   LRPA    =     F    only Hartree local field effects (RPA)
   LNABLA  =     F    use nabla operator in PAW spheres
   LVEL    =     F    velocity operator in full k-point grid
   CSHIFT  =0.1000    complex shift for real part using Kramers Kronig
   OMEGAMAX=  -1.0    maximum frequency
   DEG_THRESHOLD= 0.2000000E-02 threshold for treating states as degnerate
   RTIME   =   -0.100 relaxation time in fs
  (WPLASMAI=    0.000 imaginary part of plasma frequency in eV, 0.658/RTIME)
   DFIELD  = 0.0000000 0.0000000 0.0000000 field for delta impulse in time
 
  Optional k-point grid parameters
   LKPOINTS_OPT  =     F    use optional k-point grid
   KPOINTS_OPT_MODE=     1    mode for optional k-point grid
 
 Orbital magnetization related:
   ORBITALMAG=     F  switch on orbital magnetization
   LCHIMAG   =     F  perturbation theory with respect to B field
   DQ        =  0.001000  dq finite difference perturbation B field
   LLRAUG    =     F  two centre corrections for induced B field



--------------------------------------------------------------------------------------------------------


 Static calculation
 charge density and potential will be updated during run
 non-spin polarized calculation
 Variant of blocked Davidson
 Davidson routine will perform the subspace rotation
 perform sub-space diagonalisation
    after iterative eigenvector-optimisation
 modified Broyden-mixing scheme, WC =      100.0
 initial mixing is a Kerker type mixing with AMIX =  0.4000 and BMIX =      1.0000
 Hartree-type preconditioning will be used
 using additional bands           64
 reciprocal scheme for non local part
 use partial core corrections
 calculate Harris-corrections to forces 
   (improved forces if not selfconsistent)
 use gradient corrections 
 use of overlap-Matrix (Vanderbilt PP)
 Gauss-broadening in eV      SIGMA  =   0.02


--------------------------------------------------------------------------------------------------------


  energy-cutoff  :      341.21
  volume of cell :     1406.43
      direct lattice vectors                 reciprocal lattice vectors
    11.204002360  0.000000000  0.000000000     0.089253819  0.000000000  0.000000000
     0.000000000 11.204002360  0.000000000     0.000000000  0.089253819  0.000000000
     0.000000000  0.000000000 11.204002360     0.000000000  0.000000000  0.089253819

  length of vectors
    11.204002360 11.204002360 11.204002360     0.089253819  0.089253819  0.089253819


 
 k-points in units of 2pi/SCALE and weight: KPOINTS created by Atomic Simulation Env
   0.00000000  0.00000000  0.00000000       0.125
   0.04462691  0.00000000  0.00000000       0.125
   0.00000000  0.04462691  0.00000000       0.125
   0.00000000  0.00000000  0.04462691       0.125
   0.04462691  0.04462691  0.00000000       0.125
   0.00000000  0.04462691  0.04462691       0.125
   0.04462691  0.00000000  0.04462691       0.125
   0.04462691  0.04462691  0.04462691       0.125
 
 k-points in reciprocal lattice and weights: KPOINTS created by Atomic Simulation Env
   0.00000000  0.00000000  0.00000000       0.125
   0.50000000  0.00000000  0.00000000       0.125
   0.00000000  0.50000000  0.00000000       0.125
   0.00000000  0.00000000  0.50000000       0.125
   0.50000000  0.50000000  0.00000000       0.125
   0.00000000  0.50000000  0.50000000       0.125
   0.50000000  0.00000000  0.50000000       0.125
   0.50000000  0.50000000  0.50000000       0.125
 
 position of ions in fractional coordinates (direct lattice) 
   0.99732239  0.00000000  0.00000000
   0.25000000  0.25000000  0.00000000
   0.25000000  0.00000000  0.25000000
   0.00000000  0.25000000  0.25000000
   0.00000000  0.00000000  0.50000000
   0.25000000  0.25000000  0.50000000
   0.25000000  0.00000000  0.75000000
   0.00000000  0.25000000  0.75000000
   0.00000000  0.50000000  0.00000000
   0.25000000  0.75000000  0.00000000
   0.25000000  0.50000000  0.25000000
   0.00000000  0.75000000  0.25000000
   0.00000000  0.50000000  0.50000000
   0.25000000  0.75000000  0.50000000
   0.25000000  0.50000000  0.75000000
   0.00000000  0.75000000  0.75000000
   0.50000000  0.00000000  0.00000000
   0.75000000  0.25000000  0.00000000
   0.75000000  0.00000000  0.25000000
   0.50000000  0.25000000  0.25000000
   0.50000000  0.00000000  0.50000000
   0.75000000  0.25000000  0.50000000
   0.75000000  0.00000000  0.75000000
   0.50000000  0.25000000  0.75000000
   0.50000000  0.50000000  0.00000000
   0.75000000  0.75000000  0.00000000
   0.75000000  0.50000000  0.25000000
   0.50000000  0.75000000  0.25000000
   0.50000000  0.50000000  0.50000000
   0.75000000  0.75000000  0.50000000
   0.75000000  0.50000000  0.75000000
   0.50000000  0.75000000  0.75000000
   0.25000000  0.25000000  0.25000000
   0.00000000  0.00000000  0.25000000
   0.00000000  0.25000000  0.00000000
   0.25000000  0.00267761  0.00000000
   0.25000000  0.25000000  0.75000000
   0.00000000  0.00000000  0.75000000
   0.00000000  0.25000000  0.50000000
   0.25000000  0.00000000  0.50000000
   0.25000000  0.75000000  0.25000000
   0.00000000  0.50000000  0.25000000
   0.00000000  0.75000000  0.00000000
   0.25000000  0.50000000  0.00000000
   0.25000000  0.75000000  0.75000000
   0.00000000  0.50000000  0.75000000
   0.00000000  0.75000000  0.50000000
   0.25000000  0.50000000  0.50000000
   0.75000000  0.25000000  0.25000000
   0.50000000  0.00000000  0.25000000
   0.50000000  0.25000000  0.00000000
   0.75000000  0.00000000  0.00000000
   0.75000000  0.25000000  0.75000000
   0.50000000  0.00000000  0.75000000
   0.50000000  0.25000000  0.50000000
   0.75000000  0.00000000  0.50000000
   0.75000000  0.75000000  0.25000000
   0.50000000  0.50000000  0.25000000
   0.50000000  0.75000000  0.00000000
   0.75000000  0.50000000  0.00000000
   0.75000000  0.75000000  0.75000000
   0.50000000  0.50000000  0.75000000
   0.50000000  0.75000000  0.50000000
   0.75000000  0.50000000  0.50000000
 
 position of ions in cartesian coordinates  (Angst):
  11.17400236  0.00000000  0.00000000
   2.80100059  2.80100059  0.00000000
   2.80100059  0.00000000  2.80100059
   0.00000000  2.80100059  2.80100059
   0.00000000  0.00000000  5.60200118
   2.80100059  2.80100059  5.60200118
   2.80100059  0.00000000  8.40300177
   0.00000000  2.80100059  8.40300177
   0.00000000  5.60200118  0.00000000
   2.80100059  8.40300177  0.00000000
   2.80100059  5.60200118  2.80100059
   0.00000000  8.40300177  2.80100059
   0.00000000  5.60200118  5.60200118
   2.80100059  8.40300177  5.60200118
   2.80100059  5.60200118  8.40300177
   0.00000000  8.40300177  8.40300177
   5.60200118  0.00000000  0.00000000
   8.40300177  2.80100059  0.00000000
   8.40300177  0.00000000  2.80100059
   5.60200118  2.80100059  2.80100059
   5.60200118  0.00000000  5.60200118
   8.40300177  2.80100059  5.60200118
   8.40300177  0.00000000  8.40300177
   5.60200118  2.80100059  8.40300177
   5.60200118  5.60200118  0.00000000
   8.40300177  8.40300177  0.00000000
   8.40300177  5.60200118  2.80100059
   5.60200118  8.40300177  2.80100059
   5.60200118  5.60200118  5.60200118
   8.40300177  8.40300177  5.60200118
   8.40300177  5.60200118  8.40300177
   5.60200118  8.40300177  8.40300177
   2.80100059  2.80100059  2.80100059
   0.00000000  0.00000000  2.80100059
   0.00000000  2.80100059  0.00000000
   2.80100059  0.03000000  0.00000000
   2.80100059  2.80100059  8.40300177
   0.00000000  0.00000000  8.40300177
   0.00000000  2.80100059  5.60200118
   2.80100059  0.00000000  5.60200118
   2.80100059  8.40300177  2.80100059
   0.00000000  5.60200118  2.80100059
   0.00000000  8.40300177  0.00000000
   2.80100059  5.60200118  0.00000000
   2.80100059  8.40300177  8.40300177
   0.00000000  5.60200118  8.40300177
   0.00000000  8.40300177  5.60200118
   2.80100059  5.60200118  5.60200118
   8.40300177  2.80100059  2.80100059
   5.60200118  0.00000000  2.80100059
   5.60200118  2.80100059  0.00000000
   8.40300177  0.00000000  0.00000000
   8.40300177  2.80100059  8.40300177
   5.60200118  0.00000000  8.40300177
   5.60200118  2.80100059  5.60200118
   8.40300177  0.00000000  5.60200118
   8.40300177  8.40300177  2.80100059
   5.60200118  5.60200118  2.80100059
   5.60200118  8.40300177  0.00000000
   8.40300177  5.60200118  0.00000000
   8.40300177  8.40300177  8.40300177
   5.60200118  5.60200118  8.40300177
   5.60200118  8.40300177  5.60200118
   8.40300177  5.60200118  5.60200118
 


--------------------------------------------------------------------------------------------------------


 k-point   1 :   0.0000 0.0000 0.0000  plane waves:   20005
 k-point   2 :   0.5000 0.0000 0.0000  plane waves:   20138
 k-point   3 :   0.0000 0.5000 0.0000  plane waves:   20138
 k-point   4 :   0.0000 0.0000 0.5000  plane waves:   20138
 k-point   5 :   0.5000 0.5000 0.0000  plane waves:   20160
 k-point   6 :   0.0000 0.5000 0.5000  plane waves:   20160
 k-point   7 :   0.5000 0.0000 0.5000  plane waves:   20160
 k-point   8 :   0.5000 0.5000 0.5000  plane waves:   20336

 maximum and minimum number of plane-waves per node :     20336    20005

 maximum number of plane-waves:     20336
 maximum index in each direction: 
   IXMAX=   16   IYMAX=   16   IZMAX=   16
   IXMIN=  -17   IYMIN=  -17   IZMIN=  -17


 serial   3D FFT for wavefunctions
 parallel 3D FFT for charge:
    minimum data exchange during FFTs selected (reduces bandwidth)


 total amount of memory used by VASP MPI-rank0   129658. kBytes
=======================================================================

   base      :      30000. kBytes
   nonl-proj :      41680. kBytes
   fftplans  :      14405. kBytes
   grid      :      19342. kBytes
   one-center:        196. kBytes
   wavefun   :      24035. kBytes
 
     INWAV:  cpu time      0.0000: real time      0.0000
 Broyden mixing: mesh for mixing (old mesh)
   NGX = 33   NGY = 33   NGZ = 33
  (NGX  =140   NGY  =140   NGZ  =140)
  gives a total of  35937 points

 initial charge density was supplied:
 charge density of overlapping atoms calculated
 number of electron     448.0000000 magnetization 
 keeping initial charge density in first step


--------------------------------------------------------------------------------------------------------


 Maximum index for augmentation-charges         1834 (set IRDMAX)


--------------------------------------------------------------------------------------------------------


 First call to EWALD:  gamma=   0.158
 Maximum number of real-space cells 3x 3x 3
 Maximum number of reciprocal cells 3x 3x 3

    FEWALD:  cpu time      0.0014: real time      0.0014


--------------------------------------- Iteration      1(   1)  ---------------------------------------


    POTLOK:  cpu time      0.0413: real time      0.0420
    SETDIJ:  cpu time      0.0341: real time      0.0342
     EDDAV:  cpu time      9.9173: real time      9.9682
       DOS:  cpu time      0.0012: real time      0.0012
    --------------------------------------------
      LOOP:  cpu time      9.9939: real time     10.0457

 eigenvalue-minimisations  :  4608
 total energy-change (2. order) : 0.4323821E+04  (-0.1716271E+05)
 number of electron     448.0000000 magnetization 
 augmentation part      448.0000000 magnetization 

 Free energy of the ion-electron system (eV)
  ---------------------------------------------------
  alpha Z        PSCENC =       751.52672365
  Ewald energy   TEWEN  =    -22871.33979096
  -Hartree energ DENC   =     -8992.24677695
  -exchange      EXHF   =         0.00000000
  -V(xc)+E(xc)   XCENC  =      1456.53426579
  PAW double counting   =     26466.43774078   -29286.08056155
  entropy T*S    EENTRO =        -0.00289460
  eigenvalues    EBANDS =      -733.18743793
  atomic energy  EATOM  =     37532.17946992
  Solvation  Ediel_sol  =         0.00000000
  ---------------------------------------------------
  free energy    TOTEN  =      4323.82073816 eV

  energy without entropy =     4323.82363275  energy(sigma->0) =     4323.82218546


--------------------------------------------------------------------------------------------------------




--------------------------------------- Iteration      1(   2)  ---------------------------------------


     EDDAV:  cpu time     10.8010: real time     10.8581
       DOS:  cpu time      0.0005: real time      0.0005
    --------------------------------------------
      LOOP:  cpu time     10.8015: real time     10.8586

 eigenvalue-minimisations  :  5120
 total energy-change (2. order) :-0.3959859E+04  (-0.3766098E+04)
 number of electron     448.0000000 magnetization 
 augmentation part      448.0000000 magnetization 

 Free energy of the ion-electron system (eV)
  ---------------------------------------------------
  alpha Z        PSCENC =       751.52672365
  Ewald energy   TEWEN  =    -22871.33979096
  -Hartree energ DENC   =     -8992.24677695
  -exchange      EXHF   =         0.00000000
  -V(xc)+E(xc)   XCENC  =      1456.53426579
  PAW double counting   =     26466.43774078   -29286.08056155
  entropy T*S    EENTRO =        -0.00000000
  eigenvalues    EBANDS =     -4693.04958769
  atomic energy  EATOM  =     37532.17946992
  Solvation  Ediel_sol  =         0.00000000
  ---------------------------------------------------
  free energy    TOTEN  =       363.96148300 eV

  energy without entropy =      363.96148300  energy(sigma->0) =      363.96148300


--------------------------------------------------------------------------------------------------------




--------------------------------------- Iteration      1(   3)  ---------------------------------------


     EDDAV:  cpu time     11.6625: real time     11.7260
       DOS:  cpu time      0.0004: real time      0.0004
    --------------------------------------------
      LOOP:  cpu time     11.6629: real time     11.7264

 eigenvalue-minimisations  :  5632
 total energy-change (2. order) :-0.5701425E+03  (-0.5658940E+03)
 number of electron     448.0000000 magnetization 
 augmentation part      448.0000000 magnetization 

 Free energy of the ion-electron system (eV)
  ---------------------------------------------------
  alpha Z        PSCENC =       751.52672365
  Ewald energy   TEWEN  =    -22871.33979096
  -Hartree energ DENC   =     -8992.24677695
  -exchange      EXHF   =         0.00000000
  -V(xc)+E(xc)   XCENC  =      1456.53426579
  PAW double counting   =     26466.43774078   -29286.08056155
  entropy T*S    EENTRO =        -0.00000000
  eigenvalues    EBANDS =     -5263.19209769
  atomic energy  EATOM  =     37532.17946992
  Solvation  Ediel_sol  =         0.00000000
  ---------------------------------------------------
  free energy    TOTEN  =      -206.18102701 eV

  energy without entropy =     -206.18102701  energy(sigma->0) =     -206.18102701


--------------------------------------------------------------------------------------------------------




--------------------------------------- Iteration      1(   4)  ---------------------------------------


     EDDAV:  cpu time     11.5193: real time     11.5793
       DOS:  cpu time      0.0005: real time      0.0005
    --------------------------------------------
      LOOP:  cpu time     11.5198: real time     11.5798

 eigenvalue-minimisations  :  5536
 total energy-change (2. order) :-0.2201001E+02  (-0.2191141E+02)
 number of electron     448.0000000 magnetization 
 augmentation part      448.0000000 magnetization 

 Free energy of the ion-electron system (eV)
  ---------------------------------------------------
  alpha Z        PSCENC =       751.52672365
  Ewald energy   TEWEN  =    -22871.33979096
  -Hartree energ DENC   =     -8992.24677695
  -exchange      EXHF   =         0.00000000
  -V(xc)+E(xc)   XCENC  =      1456.53426579
  PAW double counting   =     26466.43774078   -29286.08056155
  entropy T*S    EENTRO =        -0.00000000
  eigenvalues    EBANDS =     -5285.20211256
  atomic energy  EATOM  =     37532.17946992
  Solvation  Ediel_sol  =         0.00000000
  ---------------------------------------------------
  free energy    TOTEN  =      -228.19104187 eV

  energy without entropy =     -228.19104187  energy(sigma->0) =     -228.19104187


--------------------------------------------------------------------------------------------------------




--------------------------------------- Iteration      1(   5)  ---------------------------------------


     EDDAV:  cpu time     11.9185: real time     11.9854
       DOS:  cpu time      0.0005: real time      0.0005
    CHARGE:  cpu time      0.3391: real time      0.3411
    MIXING:  cpu time      0.0018: real time      0.0018
    --------------------------------------------
      LOOP:  cpu time     12.2599: real time     12.3287

 eigenvalue-minimisations  :  5792
 total energy-change (2. order) :-0.8145941E+00  (-0.8132352E+00)
 number of electron     448.0000022 magnetization 
 augmentation part      111.6429663 magnetization 

 Broyden mixing:
  rms(total) = 0.10607E+01    rms(broyden)= 0.10603E+01
  rms(prec ) = 0.14938E+01
  weight for this iteration     100.00

 Free energy of the ion-electron system (eV)
  ---------------------------------------------------
  alpha Z        PSCENC =       751.52672365
  Ewald energy   TEWEN  =    -22871.33979096
  -Hartree energ DENC   =     -8992.24677695
  -exchange      EXHF   =         0.00000000
  -V(xc)+E(xc)   XCENC  =      1456.53426579
  PAW double counting   =     26466.43774078   -29286.08056155
  entropy T*S    EENTRO =        -0.00000000
  eigenvalues    EBANDS =     -5286.01670671
  atomic energy  EATOM  =     37532.17946992
  Solvation  Ediel_sol  =         0.00000000
  ---------------------------------------------------
  free energy    TOTEN  =      -229.00563602 eV

  energy without entropy =     -229.00563602  energy(sigma->0) =     -229.00563602


--------------------------------------------------------------------------------------------------------




--------------------------------------- Iteration      1(   6)  ---------------------------------------


    POTLOK:  cpu time      0.0367: real time      0.0376
    SETDIJ:  cpu time      0.0308: real time      0.0310
     EDDAV:  cpu time     11.8109: real time     11.8764
       DOS:  cpu time      0.0002: real time      0.0002
    CHARGE:  cpu time      0.3492: real time      0.3510
    MIXING:  cpu time      0.0013: real time      0.0013
    --------------------------------------------
      LOOP:  cpu time     12.2293: real time     12.2976

 eigenvalue-minimisations  :  5728
 total energy-change (2. order) : 0.4867454E+01  (-0.9492123E+00)
 number of electron     448.0000022 magnetization 
 augmentation part      112.4581133 magnetization 

 Broyden mixing:
  rms(total) = 0.77610E+00    rms(broyden)= 0.77605E+00
  rms(prec ) = 0.89209E+00
  weight for this iteration     100.00

 eigenvalues of (default mixing * dielectric matrix)
  average eigenvalue GAMMA=   1.0735
  1.0735

 Free energy of the ion-electron system (eV)
  ---------------------------------------------------
  alpha Z        PSCENC =       751.52672365
  Ewald energy   TEWEN  =    -22871.33979096
  -Hartree energ DENC   =     -9061.78615351
  -exchange      EXHF   =         0.00000000
  -V(xc)+E(xc)   XCENC  =      1465.43138495
  PAW double counting   =     27290.64881278   -30102.61998272
  entropy T*S    EENTRO =        -0.00000000
  eigenvalues    EBANDS =     -5228.17864617
  atomic energy  EATOM  =     37532.17946992
  Solvation  Ediel_sol  =         0.00000000
  ---------------------------------------------------
  free energy    TOTEN  =      -224.13818206 eV

  energy without entropy =     -224.13818206  energy(sigma->0) =     -224.13818206


--------------------------------------------------------------------------------------------------------




--------------------------------------- Iteration      1(   7)  ---------------------------------------


    POTLOK:  cpu time      0.0362: real time      0.0366
    SETDIJ:  cpu time      0.0312: real time      0.0313
     EDDAV:  cpu time     12.7664: real time     12.8376
       DOS:  cpu time      0.0004: real time      0.0004
    CHARGE:  cpu time      0.3376: real time      0.3396
    MIXING:  cpu time      0.0021: real time      0.0021
    --------------------------------------------
      LOOP:  cpu time     13.1740: real time     13.2476

 eigenvalue-minimisations  :  6304
 total energy-change (2. order) : 0.3609114E+00  (-0.2063857E+00)
 number of electron     448.0000022 magnetization 
 augmentation part      112.8271811 magnetization 

 Broyden mixing:
  rms(total) = 0.53337E+00    rms(broyden)= 0.53334E+00
  rms(prec ) = 0.56339E+00
  weight for this iteration     100.00

 eigenvalues of (default mixing * dielectric matrix)
  average eigenvalue GAMMA=   2.1535
  1.4388  2.8682

 Free energy of the ion-electron system (eV)
  ---------------------------------------------------
  alpha Z        PSCENC =       751.52672365
  Ewald energy   TEWEN  =    -22871.33979096
  -Hartree energ DENC   =     -9085.82154451
  -exchange      EXHF   =         0.00000000
  -V(xc)+E(xc)   XCENC  =      1470.12303327
  PAW double counting   =     28328.90886512   -31141.63627969
  entropy T*S    EENTRO =        -0.00000000
  eigenvalues    EBANDS =     -5207.71774746
  atomic energy  EATOM  =     37532.17946992
  Solvation  Ediel_sol  =         0.00000000
  ---------------------------------------------------
  free energy    TOTEN  =      -223.77727065 eV

  energy without entropy =     -223.77727065  energy(sigma->0) =     -223.77727065


--------------------------------------------------------------------------------------------------------




--------------------------------------- Iteration      1(   8)  ---------------------------------------


    POTLOK:  cpu time      0.0370: real time      0.0411
    SETDIJ:  cpu time      0.0309: real time      0.0311
     EDDAV:  cpu time     11.1637: real time     11.2257
       DOS:  cpu time      0.0004: real time      0.0004
    CHARGE:  cpu time      0.3573: real time      0.3593
    MIXING:  cpu time      0.0018: real time      0.0018
    --------------------------------------------
      LOOP:  cpu time     11.5911: real time     11.6594

 eigenvalue-minimisations  :  5344
 total energy-change (2. order) :-0.1252634E+00  (-0.2667265E-01)
 number of electron     448.0000022 magnetization 
 augmentation part      112.8096308 magnetization 

 Broyden mixing:
  rms(total) = 0.14121E+00    rms(broyden)= 0.14121E+00
  rms(prec ) = 0.14408E+00
  weight for this iteration     100.00

 eigenvalues of (default mixing * dielectric matrix)
  average eigenvalue GAMMA=   1.5554
  2.5231  1.3859  0.7570

 Free energy of the ion-electron system (eV)
  ---------------------------------------------------
  alpha Z        PSCENC =       751.52672365
  Ewald energy   TEWEN  =    -22871.33979096
  -Hartree energ DENC   =     -9075.23215766
  -exchange      EXHF   =         0.00000000
  -V(xc)+E(xc)   XCENC  =      1472.33868863
  PAW double counting   =     29808.29145962   -32628.13204006
  entropy T*S    EENTRO =        -0.00000000
  eigenvalues    EBANDS =     -5213.53488724
  atomic energy  EATOM  =     37532.17946992
  Solvation  Ediel_sol  =         0.00000000
  ---------------------------------------------------
  free energy    TOTEN  =      -223.90253409 eV

  energy without entropy =     -223.90253409  energy(sigma->0) =     -223.90253409


--------------------------------------------------------------------------------------------------------




--------------------------------------- Iteration      1(   9)  ---------------------------------------


    POTLOK:  cpu time      0.0360: real time      0.0363
    SETDIJ:  cpu time      0.0306: real time      0.0308
     EDDAV:  cpu time     11.6842: real time     11.7482
       DOS:  cpu time      0.0004: real time      0.0004
    CHARGE:  cpu time      0.3493: real time      0.3511
    MIXING:  cpu time      0.0014: real time      0.0014
    --------------------------------------------
      LOOP:  cpu time     12.1019: real time     12.1682

 eigenvalue-minimisations  :  5664
 total energy-change (2. order) : 0.5470047E-02  (-0.1126341E-02)
 number of electron     448.0000022 magnetization 
 augmentation part      112.8313945 magnetization 

 Broyden mixing:
  rms(total) = 0.60086E-01    rms(broyden)= 0.60085E-01
  rms(prec ) = 0.62145E-01
  weight for this iteration     100.00

 eigenvalues of (default mixing * dielectric matrix)
  average eigenvalue GAMMA=   2.0034
  2.8112  2.8112  0.9993  1.3922

 Free energy of the ion-electron system (eV)
  ---------------------------------------------------
  alpha Z        PSCENC =       751.52672365
  Ewald energy   TEWEN  =    -22871.33979096
  -Hartree energ DENC   =     -9077.94522059
  -exchange      EXHF   =         0.00000000
  -V(xc)+E(xc)   XCENC  =      1472.35696273
  PAW double counting   =     29630.00177225   -32449.00479923
  entropy T*S    EENTRO =        -0.00000000
  eigenvalues    EBANDS =     -5211.67218182
  atomic energy  EATOM  =     37532.17946992
  Solvation  Ediel_sol  =         0.00000000
  ---------------------------------------------------
  free energy    TOTEN  =      -223.89706404 eV

  energy without entropy =     -223.89706404  energy(sigma->0) =     -223.89706404


--------------------------------------------------------------------------------------------------------




--------------------------------------- Iteration      1(  10)  ---------------------------------------


    POTLOK:  cpu time      0.0366: real time      0.0375
    SETDIJ:  cpu time      0.0302: real time      0.0303
     EDDAV:  cpu time     11.2319: real time     11.2942
       DOS:  cpu time      0.0004: real time      0.0004
    CHARGE:  cpu time      0.3407: real time      0.3426
    MIXING:  cpu time      0.0020: real time      0.0020
    --------------------------------------------
      LOOP:  cpu time     11.6417: real time     11.7069

 eigenvalue-minimisations  :  5376
 total energy-change (2. order) :-0.4298285E-02  (-0.1812777E-02)
 number of electron     448.0000022 magnetization 
 augmentation part      112.8607596 magnetization 

 Broyden mixing:
  rms(total) = 0.28270E-01    rms(broyden)= 0.28267E-01
  rms(prec ) = 0.30300E-01
  weight for this iteration     100.00

 eigenvalues of (default mixing * dielectric matrix)
  average eigenvalue GAMMA=   1.7109
  2.9413  2.5099  1.2954  1.0211  0.7869

 Free energy of the ion-electron system (eV)
  ---------------------------------------------------
  alpha Z        PSCENC =       751.52672365
  Ewald energy   TEWEN  =    -22871.33979096
  -Hartree energ DENC   =     -9079.41444725
  -exchange      EXHF   =         0.00000000
  -V(xc)+E(xc)   XCENC  =      1472.60434679
  PAW double counting   =     29456.44559242   -32275.67338531
  entropy T*S    EENTRO =        -0.00000000
  eigenvalues    EBANDS =     -5210.22987159
  atomic energy  EATOM  =     37532.17946992
  Solvation  Ediel_sol  =         0.00000000
  ---------------------------------------------------
  free energy    TOTEN  =      -223.90136233 eV

  energy without entropy =     -223.90136233  energy(sigma->0) =     -223.90136233


--------------------------------------------------------------------------------------------------------




--------------------------------------- Iteration      1(  11)  ---------------------------------------


    POTLOK:  cpu time      0.0361: real time      0.0377
    SETDIJ:  cpu time      0.0308: real time      0.0310
     EDDAV:  cpu time     12.0613: real time     12.1286
       DOS:  cpu time      0.0002: real time      0.0002
    CHARGE:  cpu time      0.3405: real time      0.3426
    MIXING:  cpu time      0.0013: real time      0.0013
    --------------------------------------------
      LOOP:  cpu time     12.4703: real time     12.5414

 eigenvalue-minimisations  :  5888
 total energy-change (2. order) : 0.7054296E-03  (-0.1539749E-03)
 number of electron     448.0000022 magnetization 
 augmentation part      112.8516730 magnetization 

 Broyden mixing:
  rms(total) = 0.87110E-02    rms(broyden)= 0.87109E-02
  rms(prec ) = 0.91439E-02
  weight for this iteration     100.00

 eigenvalues of (default mixing * dielectric matrix)
  average eigenvalue GAMMA=   1.5682
  2.9165  2.4435  1.3199  1.0111  0.8590  0.8590

 Free energy of the ion-electron system (eV)
  ---------------------------------------------------
  alpha Z        PSCENC =       751.52672365
  Ewald energy   TEWEN  =    -22871.33979096
  -Hartree energ DENC   =     -9078.33657541
  -exchange      EXHF   =         0.00000000
  -V(xc)+E(xc)   XCENC  =      1472.52932167
  PAW double counting   =     29487.21861308   -32306.59161485
  entropy T*S    EENTRO =        -0.00000000
  eigenvalues    EBANDS =     -5211.08680400
  atomic energy  EATOM  =     37532.17946992
  Solvation  Ediel_sol  =         0.00000000
  ---------------------------------------------------
  free energy    TOTEN  =      -223.90065690 eV

  energy without entropy =     -223.90065690  energy(sigma->0) =     -223.90065690


--------------------------------------------------------------------------------------------------------




--------------------------------------- Iteration      1(  12)  ---------------------------------------


    POTLOK:  cpu time      0.0359: real time      0.0361
    SETDIJ:  cpu time      0.0302: real time      0.0303
     EDDAV:  cpu time     11.9610: real time     12.0273
       DOS:  cpu time      0.0004: real time      0.0004
    CHARGE:  cpu time      0.3395: real time      0.3413
    MIXING:  cpu time      0.0014: real time      0.0014
    --------------------------------------------
      LOOP:  cpu time     12.3685: real time     12.4369

 eigenvalue-minimisations  :  5824
 total energy-change (2. order) : 0.3832332E-04  (-0.1468631E-04)
 number of electron     448.0000022 magnetization 
 augmentation part      112.8489173 magnetization 

 Broyden mixing:
  rms(total) = 0.15673E-02    rms(broyden)= 0.15665E-02
  rms(prec ) = 0.18366E-02
  weight for this iteration     100.00

 eigenvalues of (default mixing * dielectric matrix)
  average eigenvalue GAMMA=   1.5840
  2.8897  2.4135  1.5000  1.2151  1.2151  1.0575  0.7973

 Free energy of the ion-electron system (eV)
  ---------------------------------------------------
  alpha Z        PSCENC =       751.52672365
  Ewald energy   TEWEN  =    -22871.33979096
  -Hartree energ DENC   =     -9078.18666354
  -exchange      EXHF   =         0.00000000
  -V(xc)+E(xc)   XCENC  =      1472.51864408
  PAW double counting   =     29498.27975180   -32317.65414091
  entropy T*S    EENTRO =        -0.00000000
  eigenvalues    EBANDS =     -5211.22461263
  atomic energy  EATOM  =     37532.17946992
  Solvation  Ediel_sol  =         0.00000000
  ---------------------------------------------------
  free energy    TOTEN  =      -223.90061858 eV

  energy without entropy =     -223.90061858  energy(sigma->0) =     -223.90061858


--------------------------------------------------------------------------------------------------------




--------------------------------------- Iteration      1(  13)  ---------------------------------------


    POTLOK:  cpu time      0.0366: real time      0.0410
    SETDIJ:  cpu time      0.0305: real time      0.0307
     EDDAV:  cpu time     11.8423: real time     11.9082
       DOS:  cpu time      0.0004: real time      0.0004
    CHARGE:  cpu time      0.3352: real time      0.3369
    MIXING:  cpu time      0.0016: real time      0.0016
    --------------------------------------------
      LOOP:  cpu time     12.2466: real time     12.3188

 eigenvalue-minimisations  :  5760
 total energy-change (2. order) : 0.6807386E-07  (-0.2219582E-05)
 number of electron     448.0000022 magnetization 
 augmentation part      112.8477850 magnetization 

 Broyden mixing:
  rms(total) = 0.36102E-03    rms(broyden)= 0.36044E-03
  rms(prec ) = 0.42616E-03
  weight for this iteration     100.00

 eigenvalues of (default mixing * dielectric matrix)
  average eigenvalue GAMMA=   1.6184
  2.9766  2.3280  2.3280  1.2558  0.9995  0.9995  1.0299  1.0299

 Free energy of the ion-electron system (eV)
  ---------------------------------------------------
  alpha Z        PSCENC =       751.52672365
  Ewald energy   TEWEN  =    -22871.33979096
  -Hartree energ DENC   =     -9078.11246586
  -exchange      EXHF   =         0.00000000
  -V(xc)+E(xc)   XCENC  =      1472.51092103
  PAW double counting   =     29498.76184628   -32318.13624908
  entropy T*S    EENTRO =        -0.00000000
  eigenvalues    EBANDS =     -5211.29107350
  atomic energy  EATOM  =     37532.17946992
  Solvation  Ediel_sol  =         0.00000000
  ---------------------------------------------------
  free energy    TOTEN  =      -223.90061851 eV

  energy without entropy =     -223.90061851  energy(sigma->0) =     -223.90061851


--------------------------------------------------------------------------------------------------------




--------------------------------------- Iteration      1(  14)  ---------------------------------------


    POTLOK:  cpu time      0.0358: real time      0.0361
    SETDIJ:  cpu time      0.0303: real time      0.0304
     EDDAV:  cpu time     11.6412: real time     11.7066
       DOS:  cpu time      0.0004: real time      0.0004
    CHARGE:  cpu time      0.3447: real time      0.3467
    MIXING:  cpu time      0.0019: real time      0.0019
    --------------------------------------------
      LOOP:  cpu time     12.0543: real time     12.1220

 eigenvalue-minimisations  :  5632
 total energy-change (2. order) :-0.1138731E-05  (-0.2110966E-06)
 number of electron     448.0000022 magnetization 
 augmentation part      112.8476705 magnetization 

 Broyden mixing:
  rms(total) = 0.90040E-03    rms(broyden)= 0.90036E-03
  rms(prec ) = 0.92350E-03
  weight for this iteration     100.00

 eigenvalues of (default mixing * dielectric matrix)
  average eigenvalue GAMMA=   1.6471
  3.0233  2.6064  2.6064  1.3960  1.2279  1.2279  0.9641  0.9641  0.8083

 Free energy of the ion-electron system (eV)
  ---------------------------------------------------
  alpha Z        PSCENC =       751.52672365
  Ewald energy   TEWEN  =    -22871.33979096
  -Hartree energ DENC   =     -9078.12182055
  -exchange      EXHF   =         0.00000000
  -V(xc)+E(xc)   XCENC  =      1472.51215393
  PAW double counting   =     29500.12591678   -32319.49618961
  entropy T*S    EENTRO =        -0.00000000
  eigenvalues    EBANDS =     -5211.28708281
  atomic energy  EATOM  =     37532.17946992
  Solvation  Ediel_sol  =         0.00000000
  ---------------------------------------------------
  free energy    TOTEN  =      -223.90061965 eV

  energy without entropy =     -223.90061965  energy(sigma->0) =     -223.90061965


--------------------------------------------------------------------------------------------------------




--------------------------------------- Iteration      1(  15)  ---------------------------------------


    POTLOK:  cpu time      0.0365: real time      0.0374
    SETDIJ:  cpu time      0.0303: real time      0.0305
     EDDAV:  cpu time     11.1590: real time     11.2180
       DOS:  cpu time      0.0003: real time      0.0003
    CHARGE:  cpu time      0.3461: real time      0.3480
    MIXING:  cpu time      0.0015: real time      0.0015
    --------------------------------------------
      LOOP:  cpu time     11.5737: real time     11.6356

 eigenvalue-minimisations  :  5344
 total energy-change (2. order) :-0.1297754E-05  (-0.4184658E-07)
 number of electron     448.0000022 magnetization 
 augmentation part      112.8477636 magnetization 

 Broyden mixing:
  rms(total) = 0.35864E-03    rms(broyden)= 0.35861E-03
  rms(prec ) = 0.36941E-03
  weight for this iteration     100.00

 eigenvalues of (default mixing * dielectric matrix)
  average eigenvalue GAMMA=   1.6142
  3.0980  2.7134  2.4668  1.4273  1.3243  1.3243  0.9739  0.9739  0.9632  0.8771

 Free energy of the ion-electron system (eV)
  ---------------------------------------------------
  alpha Z        PSCENC =       751.52672365
  Ewald energy   TEWEN  =    -22871.33979096
  -Hartree energ DENC   =     -9078.14942702
  -exchange      EXHF   =         0.00000000
  -V(xc)+E(xc)   XCENC  =      1472.51290873
  PAW double counting   =     29499.02211415   -32318.38769862
  entropy T*S    EENTRO =        -0.00000000
  eigenvalues    EBANDS =     -5211.26492080
  atomic energy  EATOM  =     37532.17946992
  Solvation  Ediel_sol  =         0.00000000
  ---------------------------------------------------
  free energy    TOTEN  =      -223.90062094 eV

  energy without entropy =     -223.90062094  energy(sigma->0) =     -223.90062094


--------------------------------------------------------------------------------------------------------




--------------------------------------- Iteration      1(  16)  ---------------------------------------


    POTLOK:  cpu time      0.0362: real time      0.0373
    SETDIJ:  cpu time      0.0303: real time      0.0304
     EDDAV:  cpu time     11.5851: real time     11.6448
       DOS:  cpu time      0.0004: real time      0.0004
    CHARGE:  cpu time      0.3482: real time      0.3500
    MIXING:  cpu time      0.0019: real time      0.0019
    --------------------------------------------
      LOOP:  cpu time     12.0021: real time     12.0648

 eigenvalue-minimisations  :  5600
 total energy-change (2. order) :-0.5641486E-06  (-0.1512285E-07)
 number of electron     448.0000022 magnetization 
 augmentation part      112.8478486 magnetization 

 Broyden mixing:
  rms(total) = 0.55510E-04    rms(broyden)= 0.55323E-04
  rms(prec ) = 0.61942E-04
  weight for this iteration     100.00

 eigenvalues of (default mixing * dielectric matrix)
  average eigenvalue GAMMA=   1.6227
  3.1279  2.6723  2.4833  1.6028  1.6028  1.3634  1.1425  1.1425  0.9058  0.9058
  0.9001

 Free energy of the ion-electron system (eV)
  ---------------------------------------------------
  alpha Z        PSCENC =       751.52672365
  Ewald energy   TEWEN  =    -22871.33979096
  -Hartree energ DENC   =     -9078.15985695
  -exchange      EXHF   =         0.00000000
  -V(xc)+E(xc)   XCENC  =      1472.51334838
  PAW double counting   =     29498.39291241   -32317.75780457
  entropy T*S    EENTRO =        -0.00000000
  eigenvalues    EBANDS =     -5211.25562340
  atomic energy  EATOM  =     37532.17946992
  Solvation  Ediel_sol  =         0.00000000
  ---------------------------------------------------
  free energy    TOTEN  =      -223.90062151 eV

  energy without entropy =     -223.90062151  energy(sigma->0) =     -223.90062151


--------------------------------------------------------------------------------------------------------




--------------------------------------- Iteration      1(  17)  ---------------------------------------


    POTLOK:  cpu time      0.0360: real time      0.0363
    SETDIJ:  cpu time      0.0306: real time      0.0307
     EDDAV:  cpu time      8.6463: real time      8.6909
       DOS:  cpu time      0.0003: real time      0.0003
    --------------------------------------------
      LOOP:  cpu time      8.7132: real time      8.7582

 eigenvalue-minimisations  :  3776
 total energy-change (2. order) : 0.4307367E-08  (-0.7514300E-09)
 number of electron     448.0000022 magnetization 
 augmentation part      112.8478486 magnetization 

 Free energy of the ion-electron system (eV)
  ---------------------------------------------------
  alpha Z        PSCENC =       751.52672365
  Ewald energy   TEWEN  =    -22871.33979096
  -Hartree energ DENC   =     -9078.16151028
  -exchange      EXHF   =         0.00000000
  -V(xc)+E(xc)   XCENC  =      1472.51340748
  PAW double counting   =     29498.30521622   -32317.67010069
  entropy T*S    EENTRO =        -0.00000000
  eigenvalues    EBANDS =     -5211.25403684
  atomic energy  EATOM  =     37532.17946992
  Solvation  Ediel_sol  =         0.00000000
  ---------------------------------------------------
  free energy    TOTEN  =      -223.90062150 eV

  energy without entropy =     -223.90062150  energy(sigma->0) =     -223.90062150


--------------------------------------------------------------------------------------------------------




 average (electrostatic) potential at core
  the test charge radii are     0.9254  0.9406
  (the norm of the test charge is              1.0000)
       1 -46.9497       2 -46.9205       3 -46.9441       4 -46.9467       5 -46.9496
       6 -46.9452       7 -46.9441       8 -46.9467       9 -46.9495      10 -46.9671
      11 -46.9484      12 -46.9525      13 -46.9496      14 -46.9516      15 -46.9484
      16 -46.9525      17 -46.9498      18 -46.9521      19 -46.9553      20 -46.9467
      21 -46.9496      22 -46.9498      23 -46.9553      24 -46.9467      25 -46.9496
      26 -46.9585      27 -46.9508      28 -46.9525      29 -46.9496      30 -46.9518
      31 -46.9508      32 -46.9525      33 -93.5779      34 -93.5882      35 -93.5805
      36 -93.5647      37 -93.5779      38 -93.5882      39 -93.5867      40 -93.5874
      41 -93.5931      42 -93.5882      43 -93.5957      44 -93.5873      45 -93.5931
      46 -93.5882      47 -93.5897      48 -93.5872      49 -93.5895      50 -93.5883
      51 -93.5806      52 -93.6116      53 -93.5895      54 -93.5883      55 -93.5868
      56 -93.5891      57 -93.5924      58 -93.5882      59 -93.5958      60 -93.5890
      61 -93.5924      62 -93.5882      63 -93.5897      64 -93.5892
 
 
 
 E-fermi :  -0.5623     XC(G=0):  -8.4227     alpha+bet : -8.2520

 Fermi energy:        -0.5622984768

 k-point     1 :       0.0000    0.0000    0.0000
  band No.  band energies     occupation 
      1     -21.3067      2.00000
      2     -21.3065      2.00000
      3     -21.3059      2.00000
      4     -21.3039      2.00000
      5     -21.3000      2.00000
      6     -21.2998      2.00000
      7     -21.2982      2.00000
      8     -21.2952      2.00000
      9     -21.2951      2.00000
     10     -21.2947      2.00000
     11     -21.2946      2.00000
     12     -21.2938      2.00000
     13     -21.2937      2.00000
     14     -21.2936      2.00000
     15     -21.2933      2.00000
     16     -21.2933      2.00000
     17     -21.2927      2.00000
     18     -21.2925      2.00000
     19     -21.2919      2.00000
     20     -21.2904      2.00000
     21     -21.2899      2.00000
     22     -21.2881      2.00000
     23     -21.2873      2.00000
     24     -21.2868      2.00000
     25     -21.2867      2.00000
     26     -21.2867      2.00000
     27     -21.2863      2.00000
     28     -21.2863      2.00000
     29     -21.2862      2.00000
     30     -21.2860      2.00000
     31     -21.2852      2.00000
     32     -21.2847      2.00000
     33     -21.2847      2.00000
     34     -21.2838      2.00000
     35     -21.2837      2.00000
     36     -21.2836      2.00000
     37     -21.2833      2.00000
     38     -21.2828      2.00000
     39     -21.2828      2.00000
     40     -21.2824      2.00000
     41     -21.2817      2.00000
     42     -21.2815      2.00000
     43     -21.2811      2.00000
     44     -21.2810      2.00000
     45     -21.2809      2.00000
     46     -21.2809      2.00000
     47     -21.2807      2.00000
     48     -21.2804      2.00000
     49     -21.2800      2.00000
     50     -21.2800      2.00000
     51     -21.2799      2.00000
     52     -21.2799      2.00000
     53     -21.2798      2.00000
     54     -21.2798      2.00000
     55     -21.2798      2.00000
     56     -21.2792      2.00000
     57     -21.2791      2.00000
     58     -21.2787      2.00000
     59     -21.2786      2.00000
     60     -21.2778      2.00000
     61     -21.2771      2.00000
     62     -21.2759      2.00000
     63     -21.2758      2.00000
     64     -21.2758      2.00000
     65     -21.2753      2.00000
     66     -21.2751      2.00000
     67     -21.2749      2.00000
     68     -21.2747      2.00000
     69     -21.2744      2.00000
     70     -21.2742      2.00000
     71     -21.2742      2.00000
     72     -21.2742      2.00000
     73     -21.2738      2.00000
     74     -21.2737      2.00000
     75     -21.2734      2.00000
     76     -21.2723      2.00000
     77     -21.2720      2.00000
     78     -21.2717      2.00000
     79     -21.2717      2.00000
     80     -21.2716      2.00000
     81     -21.2714      2.00000
     82     -21.2714      2.00000
     83     -21.2713      2.00000
     84     -21.2711      2.00000
     85     -21.2710      2.00000
     86     -21.2710      2.00000
     87     -21.2700      2.00000
     88     -21.2697      2.00000
     89     -21.2696      2.00000
     90     -21.2694      2.00000
     91     -21.2687      2.00000
     92     -21.2685      2.00000
     93     -21.2684      2.00000
     94     -21.2506      2.00000
     95     -21.2504      2.00000
     96     -21.2499      2.00000
     97     -13.3581      2.00000
     98     -13.1426      2.00000
     99     -13.1385      2.00000
    100     -13.1374      2.00000
    101     -13.1374      2.00000
    102     -13.1364      2.00000
    103     -13.1332      2.00000
    104     -13.0215      2.00000
    105     -13.0145      2.00000
    106     -13.0142      2.00000
    107     -13.0114      2.00000
    108     -13.0113      2.00000
    109     -13.0112      2.00000
    110     -13.0112      2.00000
    111     -13.0111      2.00000
    112     -13.0111      2.00000
    113     -13.0095      2.00000
    114     -13.0087      2.00000
    115     -13.0043      2.00000
    116     -12.9900      2.00000
    117     -12.9891      2.00000
    118     -12.9887      2.00000
    119     -12.9885      2.00000
    120     -12.9418      2.00000
    121     -12.9408      2.00000
    122     -12.9404      2.00000
    123     -12.9253      2.00000
    124     -12.9218      2.00000
    125     -12.9213      2.00000
    126     -12.9213      2.00000
    127     -12.9192      2.00000
    128     -12.9148      2.00000
    129      -2.7001      2.00000
    130      -2.7000      2.00000
    131      -2.7000      2.00000
    132      -2.7000      2.00000
    133      -2.4240      2.00000
    134      -2.4240      2.00000
    135      -2.4240      2.00000
    136      -2.2074      2.00000
    137      -2.2073      2.00000
    138      -2.2053      2.00000
    139      -2.2049      2.00000
    140      -2.2046      2.00000
    141      -2.2044      2.00000
    142      -2.2042      2.00000
    143      -2.2040      2.00000
    144      -2.2039      2.00000
    145      -2.2035      2.00000
    146      -2.2011      2.00000
    147      -2.2009      2.00000
    148      -1.9281      2.00000
    149      -1.9277      2.00000
    150      -1.9264      2.00000
    151      -1.9258      2.00000
    152      -1.9255      2.00000
    153      -1.9252      2.00000
    154      -1.9243      2.00000
    155      -1.9241      2.00000
    156      -1.9239      2.00000
    157      -1.9226      2.00000
    158      -1.9216      2.00000
    159      -1.9209      2.00000
    160      -1.7977      2.00000
    161      -1.7968      2.00000
    162      -1.7966      2.00000
    163      -1.7966      2.00000
    164      -1.7965      2.00000
    165      -1.7956      2.00000
    166      -1.5086      2.00000
    167      -1.5082      2.00000
    168      -1.5062      2.00000
    169      -1.5061      2.00000
    170      -1.5058      2.00000
    171      -1.5055      2.00000
    172      -1.5053      2.00000
    173      -1.5053      2.00000
    174      -1.5051      2.00000
    175      -1.5043      2.00000
    176      -1.5027      2.00000
    177      -1.5024      2.00000
    178      -1.4646      2.00000
    179      -1.4636      2.00000
    180      -1.4628      2.00000
    181      -1.4623      2.00000
    182      -1.4622      2.00000
    183      -1.4603      2.00000
    184      -1.2947      2.00000
    185      -1.2947      2.00000
    186      -1.2947      2.00000
    187      -1.2946      2.00000
    188      -1.2946      2.00000
    189      -1.2946      2.00000
    190      -1.0043      2.00000
    191      -1.0041      2.00000
    192      -1.0039      2.00000
    193      -1.0020      2.00000
    194      -1.0013      2.00000
    195      -1.0012      2.00000
    196      -1.0009      2.00000
    197      -1.0007      2.00000
    198      -1.0003      2.00000
    199      -0.9989      2.00000
    200      -0.9983      2.00000
    201      -0.9965      2.00000
    202      -0.9532      2.00000
    203      -0.9526      2.00000
    204      -0.9515      2.00000
    205      -0.9512      2.00000
    206      -0.9485      2.00000
    207      -0.9483      2.00000
    208      -0.9479      2.00000
    209      -0.9479      2.00000
    210      -0.9477      2.00000
    211      -0.9473      2.00000
    212      -0.9469      2.00000
    213      -0.9469      2.00000
    214      -0.9458      2.00000
[...]
         0         1         2         3         4         5         6         7         8         9
 total charge-density along one line
 
 pseudopotential strength for first ion, spin component:           1
-25.387  -0.000   0.000   2.510   0.000  -0.000  -0.000  -0.001
 -0.000 -25.387  -0.000   0.000   2.510   0.000  -0.000  -0.000
  0.000  -0.000 -25.387  -0.000   0.000   2.510   0.000   0.001
  2.510   0.000  -0.000   6.528   0.000   0.000   0.000  -0.000
  0.000   2.510   0.000   0.000   6.528   0.000   0.000  -0.000
 -0.000   0.000   2.510   0.000   0.000   6.528  -0.000  -0.000
 -0.000  -0.000   0.000   0.000   0.000  -0.000   1.428   6.993
 -0.001  -0.000   0.001  -0.000  -0.000  -0.000   6.993  33.989
 total augmentation occupancy for first ion, spin component:           1
  2.002   0.000  -0.000   0.002   0.000  -0.000   0.001  -0.000
  0.000   2.002   0.000   0.000   0.002   0.000   0.000   0.000
 -0.000   0.000   2.002  -0.000   0.000   0.002  -0.001   0.000
  0.002   0.000  -0.000   0.017   0.000   0.000   0.000  -0.000
  0.000   0.002   0.000   0.000   0.017   0.000   0.000   0.000
 -0.000   0.000   0.002   0.000   0.000   0.017  -0.003   0.000
  0.001   0.000  -0.001   0.000   0.000  -0.003   0.403  -0.001
 -0.000   0.000   0.000  -0.000   0.000   0.000  -0.001   0.000


------------------------ aborting loop because EDIFF is reached ----------------------------------------


    CHARGE:  cpu time      0.3410: real time      0.3427
    FORLOC:  cpu time      0.0112: real time      0.0113
    FORNL :  cpu time      2.2786: real time      2.2906
    STRESS:  cpu time     12.8365: real time     12.8961
    FORCOR:  cpu time      0.0433: real time      0.0434
    FORHAR:  cpu time      0.0172: real time      0.0173
    MIXING:  cpu time      0.0012: real time      0.0012
    OFIELD:  cpu time      0.0000: real time      0.0000

  FORCE on cell =-STRESS in cart. coord.  units (eV):
  Direction    XX          YY          ZZ          XY          YZ          ZX
  --------------------------------------------------------------------------------------
  Alpha Z   751.52672   751.52672   751.52672
  Ewald   -7623.77399 -7623.77624 -7623.92689    -0.05985     0.00000     0.00000
  Hartree  3026.07715  3026.06838  3026.01807    -0.03910    -0.00000    -0.00000
  E(xc)   -2014.34806 -2014.34805 -2014.34812    -0.00004     0.00000     0.00000
  Local   -2024.96557 -2024.95227 -2024.75618     0.09854     0.00000     0.00000
  n-local  1887.62616  1887.62582  1887.62049    -0.00063     0.00000     0.00000
  augment   687.00899   687.00919   687.00897    -0.00021    -0.00010    -0.00010
  Kinetic  5310.52727  5310.52525  5310.52539     0.00111     0.00000     0.00000
  Fock        0.00000     0.00000     0.00000     0.00000     0.00000     0.00000
  -------------------------------------------------------------------------------------
  Total      -0.32133    -0.32121    -0.33155    -0.00018     0.00000     0.00000
  in kB      -0.36605    -0.36592    -0.37769    -0.00020     0.00000     0.00000
  external pressure =       -0.37 kB  Pullay stress =        0.00 kB


 VOLUME and BASIS-vectors are now :
 -----------------------------------------------------------------------------
  energy-cutoff  :      341.21
  volume of cell :     1406.43
      direct lattice vectors                 reciprocal lattice vectors
    11.204002360  0.000000000  0.000000000     0.089253819  0.000000000  0.000000000
     0.000000000 11.204002360  0.000000000     0.000000000  0.089253819  0.000000000
     0.000000000  0.000000000 11.204002360     0.000000000  0.000000000  0.089253819

  length of vectors
    11.204002360 11.204002360 11.204002360     0.089253819  0.089253819  0.089253819


 FORCES acting on ions
    electron-ion (+dipol)            ewald-force                    non-local-force                 convergence-correction
 -----------------------------------------------------------------------------------------------
   -.404E+01 0.930E+00 0.663E-05   0.399E+01 -.889E+00 -.121E-13   0.116E+00 -.359E-01 -.394E-22   -.154E-03 -.225E-03 0.338E-12
   0.246E+00 -.174E+01 0.851E-06   -.250E+00 0.159E+01 0.682E-14   0.287E-02 0.171E+00 -.119E-22   0.482E-06 -.495E-05 -.152E-12
   0.246E+00 0.961E+00 0.453E+00   -.250E+00 -.918E+00 -.485E+00   0.303E-02 -.377E-01 0.260E-01   -.284E-05 -.227E-03 0.794E-05
   -.132E+00 -.596E-01 -.166E+00   0.147E+00 0.588E-01 0.158E+00   -.125E-01 0.493E-03 0.615E-02   -.131E-03 0.241E-06 0.723E-05
   -.164E+00 0.113E+00 0.279E-07   0.164E+00 -.109E+00 0.180E-14   0.320E-03 -.267E-02 -.398E-24   -.118E-03 -.214E-03 -.363E-12
   0.882E-02 0.245E-01 -.530E-08   -.877E-02 -.229E-01 0.125E-13   -.307E-04 -.134E-02 0.242E-24   -.594E-05 0.134E-05 -.214E-12
   0.246E+00 0.961E+00 -.453E+00   -.250E+00 -.918E+00 0.485E+00   0.303E-02 -.377E-01 -.260E-01   -.284E-05 -.227E-03 -.794E-05
   -.132E+00 -.596E-01 0.166E+00   0.147E+00 0.588E-01 -.158E+00   -.125E-01 0.493E-03 -.615E-02   -.131E-03 0.241E-06 -.723E-05
   -.162E+00 -.300E+00 0.159E-09   0.162E+00 0.281E+00 0.131E-13   0.319E-03 0.155E-01 0.742E-24   -.117E-03 0.229E-03 -.108E-12
   0.246E+00 -.256E+01 0.847E-06   -.250E+00 0.247E+01 0.954E-14   0.319E-02 0.112E+00 -.787E-23   -.230E-05 -.191E-04 -.616E-13
   0.882E-02 -.300E+00 0.379E-01   -.877E-02 0.281E+00 -.375E-01   -.340E-04 0.155E-01 -.396E-03   -.258E-05 0.230E-03 -.350E-05
   -.466E+00 -.679E-01 0.169E+00   0.467E+00 0.672E-01 -.162E+00   -.404E-03 0.421E-03 -.592E-02   -.114E-03 0.111E-05 -.136E-04
   -.646E-01 -.972E-01 0.153E-10   0.671E-01 0.935E-01 0.160E-13   -.201E-02 0.290E-02 -.266E-24   -.118E-03 0.211E-03 -.259E-12
   0.882E-02 -.571E-01 -.530E-08   -.877E-02 0.576E-01 0.125E-13   -.354E-04 -.446E-03 0.271E-24   -.107E-05 0.135E-05 -.240E-12
   0.882E-02 -.300E+00 -.379E-01   -.877E-02 0.281E+00 0.375E-01   -.340E-04 0.155E-01 0.396E-03   -.258E-05 0.230E-03 0.350E-05
   -.466E+00 -.679E-01 -.169E+00   0.467E+00 0.672E-01 0.162E+00   -.404E-03 0.421E-03 0.592E-02   -.114E-03 0.111E-05 0.136E-04
   0.467E+00 0.962E+00 -.502E-05   -.531E+00 -.918E+00 -.153E-13   0.550E-01 -.378E-01 0.434E-22   0.135E-03 -.229E-03 0.105E-12
   0.242E+00 -.461E+00 0.121E-08   -.247E+00 0.495E+00 0.599E-14   0.298E-02 -.283E-01 0.108E-24   0.279E-05 -.106E-04 0.443E-14
   0.242E+00 0.113E+00 -.445E+00   -.247E+00 -.109E+00 0.478E+00   0.293E-02 -.267E-02 -.273E-01   0.420E-05 -.211E-03 -.138E-04
   -.155E-02 -.628E-01 -.169E+00   -.126E-01 0.622E-01 0.161E+00   0.116E-01 0.385E-03 0.609E-02   0.131E-03 0.193E-05 0.454E-05
   0.127E+00 0.113E+00 0.279E-07   -.129E+00 -.109E+00 0.160E-13   0.119E-02 -.267E-02 -.172E-23   0.117E-03 -.216E-03 -.369E-12
   0.720E-02 -.413E-01 -.115E-10   -.709E-02 0.408E-01 0.891E-14   -.936E-04 0.405E-03 0.465E-24   0.283E-05 0.151E-06 -.242E-12
   0.242E+00 0.113E+00 0.445E+00   -.247E+00 -.109E+00 -.478E+00   0.293E-02 -.267E-02 0.273E-01   0.420E-05 -.211E-03 0.138E-04
   -.155E-02 -.628E-01 0.169E+00   -.126E-01 0.622E-01 -.161E+00   0.116E-01 0.385E-03 -.609E-02   0.131E-03 0.193E-05 -.454E-05
   0.125E+00 -.300E+00 0.172E-09   -.127E+00 0.281E+00 -.162E-13   0.119E-02 0.156E-01 0.354E-24   0.119E-03 0.229E-03 -.647E-13
   0.242E+00 0.428E+00 0.121E-08   -.247E+00 -.460E+00 0.194E-13   0.287E-02 0.265E-01 -.318E-24   0.476E-05 0.126E-04 0.960E-13
   0.720E-02 -.972E-01 -.400E-01   -.709E-02 0.935E-01 0.395E-01   -.932E-04 0.289E-02 0.440E-03   0.293E-05 0.212E-03 -.313E-05
   0.333E+00 -.646E-01 0.166E+00   -.332E+00 0.639E-01 -.158E+00   -.558E-03 0.533E-03 -.608E-02   0.113E-03 0.120E-05 -.128E-04
   0.602E-01 -.972E-01 0.746E-11   -.628E-01 0.935E-01 0.142E-13   0.201E-02 0.290E-02 -.109E-23   0.117E-03 0.212E-03 -.252E-12
   0.720E-02 0.369E-01 -.372E-11   -.709E-02 -.365E-01 0.892E-14   -.926E-04 -.407E-03 0.660E-24   0.430E-05 0.131E-05 -.324E-12
   0.720E-02 -.972E-01 0.400E-01   -.709E-02 0.935E-01 -.395E-01   -.932E-04 0.289E-02 -.440E-03   0.293E-05 0.212E-03 0.313E-05
   0.333E+00 -.646E-01 -.166E+00   -.332E+00 0.639E-01 0.158E+00   -.558E-03 0.533E-03 0.608E-02   0.113E-03 0.120E-05 0.128E-04
   0.643E-01 -.952E-01 -.330E+00   -.646E-01 0.878E-01 0.320E+00   0.580E-03 0.126E-01 0.173E-01   -.832E-05 0.679E-05 -.183E-05
   -.909E+00 0.312E+00 0.178E-01   0.921E+00 -.308E+00 -.179E-01   -.164E-01 -.585E-02 -.116E-03   -.103E-03 -.184E-03 -.450E-06
   -.420E+00 -.237E+00 0.212E-09   0.440E+00 0.232E+00 0.869E-14   -.305E-01 0.922E-02 0.187E-24   -.100E-03 0.420E-06 -.610E-14
   0.198E+01 0.405E+01 -.528E-05   -.200E+01 -.400E+01 -.134E-14   -.256E-02 -.121E+00 -.704E-23   0.338E-05 -.160E-03 0.356E-13
   0.643E-01 -.952E-01 0.330E+00   -.646E-01 0.878E-01 -.320E+00   0.580E-03 0.126E-01 -.173E-01   -.832E-05 0.679E-05 0.183E-05
   -.909E+00 0.312E+00 -.178E-01   0.921E+00 -.308E+00 0.179E-01   -.164E-01 -.585E-02 0.116E-03   -.103E-03 -.184E-03 0.450E-06
   -.683E-01 -.664E-02 0.847E-11   0.702E-01 0.669E-02 -.354E-14   -.296E-02 -.102E-03 -.238E-24   -.942E-04 0.123E-04 -.199E-12
   0.187E-01 0.166E+00 -.913E-08   -.185E-01 -.163E+00 0.623E-14   -.374E-03 -.389E-02 0.134E-23   -.108E-05 -.191E-03 -.247E-12
   0.643E-01 -.413E+00 0.635E+00   -.646E-01 0.409E+00 -.629E+00   0.611E-03 0.598E-02 -.105E-01   -.987E-06 -.293E-05 0.255E-05
   -.108E+00 -.176E+00 -.396E-03   0.109E+00 0.173E+00 0.379E-03   -.152E-02 0.388E-02 0.312E-04   -.968E-04 0.184E-03 0.143E-05
   -.138E+01 -.271E+00 0.213E-09   0.139E+01 0.266E+00 0.237E-14   -.281E-02 0.922E-02 0.578E-24   -.105E-03 0.927E-06 0.460E-13
   0.187E-01 -.522E+00 0.852E-06   -.185E-01 0.516E+00 -.145E-13   -.374E-03 0.957E-02 -.128E-26   -.337E-05 0.190E-03 -.406E-13
   0.643E-01 -.413E+00 -.635E+00   -.646E-01 0.409E+00 0.629E+00   0.611E-03 0.598E-02 0.105E-01   -.987E-06 -.293E-05 -.255E-05
   -.108E+00 -.176E+00 0.396E-03   0.109E+00 0.173E+00 -.379E-03   -.152E-02 0.388E-02 -.312E-04   -.968E-04 0.184E-03 -.143E-05
   -.148E+00 -.910E-02 0.810E-11   0.148E+00 0.917E-02 -.266E-14   -.780E-04 -.111E-03 -.965E-25   -.948E-04 0.207E-05 -.251E-12
   0.273E-02 -.131E+00 -.779E-09   -.273E-02 0.128E+00 0.771E-17   0.496E-05 0.493E-02 -.235E-24   -.359E-05 0.181E-03 -.154E-12
   0.611E-01 -.166E+00 -.199E+00   -.614E-01 0.168E+00 0.200E+00   0.547E-03 -.342E-02 -.185E-02   0.121E-05 -.247E-05 0.122E-05
   0.279E+00 0.312E+00 0.108E-02   -.284E+00 -.308E+00 -.102E-02   0.702E-02 -.588E-02 -.993E-04   0.101E-03 -.186E-03 -.384E-05
   -.210E+00 -.254E+00 0.210E-09   0.198E+00 0.248E+00 0.104E-13   0.212E-01 0.932E-02 0.284E-24   0.935E-04 0.221E-05 0.905E-14
   0.204E+01 0.166E+00 -.148E-05   -.206E+01 -.163E+00 -.829E-14   -.769E-02 -.388E-02 -.539E-23   0.896E-05 -.183E-03 0.181E-12
   0.611E-01 -.166E+00 0.199E+00   -.614E-01 0.168E+00 -.200E+00   0.547E-03 -.342E-02 0.185E-02   0.121E-05 -.247E-05 -.122E-05
   0.279E+00 0.312E+00 -.108E-02   -.284E+00 -.308E+00 0.102E-02   0.702E-02 -.588E-02 0.993E-04   0.101E-03 -.186E-03 0.384E-05
   0.523E-01 -.729E-02 0.777E-11   -.543E-01 0.736E-02 -.355E-14   0.310E-02 -.128E-03 -.156E-23   0.108E-03 -.178E-05 -.213E-12
   0.164E-01 0.684E-01 -.832E-08   -.162E-01 -.674E-01 0.837E-17   -.448E-03 -.129E-02 -.735E-24   -.110E-05 -.177E-03 -.321E-12
   0.611E-01 0.150E+00 -.119E+00   -.614E-01 -.152E+00 0.122E+00   0.540E-03 0.321E-02 -.473E-02   0.937E-06 0.204E-05 -.981E-05
   0.916E-01 -.176E+00 -.105E-02   -.927E-01 0.173E+00 0.105E-02   0.166E-02 0.390E-02 0.723E-05   0.951E-04 0.176E-03 -.468E-05
   0.755E+00 -.254E+00 0.212E-09   -.751E+00 0.249E+00 0.734E-14   -.670E-02 0.929E-02 0.990E-25   0.108E-03 -.434E-06 0.721E-13
   0.164E-01 -.131E+00 0.686E-10   -.162E-01 0.128E+00 -.140E-13   -.448E-03 0.493E-02 0.110E-24   -.594E-05 0.188E-03 -.979E-14
   0.611E-01 0.150E+00 0.119E+00   -.614E-01 -.152E+00 -.122E+00   0.540E-03 0.321E-02 0.473E-02   0.937E-06 0.204E-05 0.981E-05
   0.916E-01 -.176E+00 0.105E-02   -.927E-01 0.173E+00 -.105E-02   0.166E-02 0.390E-02 -.723E-05   0.951E-04 0.176E-03 0.468E-05
   0.132E+00 -.845E-02 0.888E-11   -.133E+00 0.849E-02 -.416E-16   0.223E-03 -.855E-04 -.162E-23   0.893E-04 0.113E-04 -.272E-12
   0.165E-02 -.640E-01 0.154E-10   -.163E-02 0.630E-01 -.583E-16   -.240E-04 0.132E-02 0.629E-25   0.422E-05 0.174E-03 -.197E-12
 -----------------------------------------------------------------------------------------------
   -.150E+00 -.152E+00 -.251E-05   0.853E-13 -.402E-13 0.315E-13   0.149E+00 0.152E+00 0.298E-17   -.259E-04 0.315E-04 -.139E-11
 
 
 POSITION                                       TOTAL-FORCE (eV/Angst)
 -----------------------------------------------------------------------------------
     11.17400      0.00000      0.00000         0.062886      0.005116      0.000000
      2.80100      2.80100      0.00000        -0.001474      0.014470      0.000000
      2.80100      0.00000      2.80100        -0.001509      0.005030     -0.005893
      0.00000      2.80100      2.80100         0.002965     -0.000234     -0.001316
      0.00000      0.00000      5.60200         0.000052      0.000608      0.000000
      2.80100      2.80100      5.60200         0.000021      0.000240      0.000000
      2.80100      0.00000      8.40300        -0.001509      0.005030      0.005893
      0.00000      2.80100      8.40300         0.002965     -0.000234      0.001316
      0.00000      5.60200      0.00000         0.000055     -0.002828      0.000000
      2.80100      8.40300      0.00000        -0.001543      0.022000      0.000000
      2.80100      5.60200      2.80100         0.000020     -0.002839      0.000071
      0.00000      8.40300      2.80100         0.000371     -0.000217      0.001268
      0.00000      5.60200      5.60200         0.000456     -0.000670      0.000000
      2.80100      8.40300      5.60200         0.000021      0.000079      0.000000
      2.80100      5.60200      8.40300         0.000020     -0.002839     -0.000071
      0.00000      8.40300      8.40300         0.000371     -0.000217     -0.001268
      5.60200      0.00000      0.00000        -0.009005      0.005057      0.000000
      8.40300      2.80100      0.00000        -0.001522      0.006093      0.000000
      8.40300      0.00000      2.80100        -0.001514      0.000609      0.005925
      5.60200      2.80100      2.80100        -0.002465     -0.000211     -0.001301
      5.60200      0.00000      5.60200        -0.000311      0.000607      0.000000
      8.40300      2.80100      5.60200         0.000033     -0.000072      0.000000
      8.40300      0.00000      8.40300        -0.001514      0.000609     -0.005925
      5.60200      2.80100      8.40300        -0.002465     -0.000211      0.001301
      5.60200      5.60200      0.00000        -0.000311     -0.002846      0.000000
      8.40300      8.40300      0.00000        -0.001506     -0.005778      0.000000
      8.40300      5.60200      2.80100         0.000033     -0.000670     -0.000081
      5.60200      8.40300      2.80100         0.000132     -0.000242      0.001302
      5.60200      5.60200      5.60200        -0.000443     -0.000670      0.000000
      8.40300      8.40300      5.60200         0.000033      0.000074      0.000000
      8.40300      5.60200      8.40300         0.000033     -0.000670      0.000081
      5.60200      8.40300      8.40300         0.000132     -0.000242     -0.001302
      2.80100      2.80100      2.80100         0.000236      0.005203      0.007177
      0.00000      0.00000      2.80100        -0.004958     -0.002316     -0.000152
      0.00000      2.80100      0.00000        -0.010854      0.003771      0.000000
      2.80100      0.03000      0.00000        -0.016154     -0.076185      0.000000
      2.80100      2.80100      8.40300         0.000236      0.005203     -0.007177
      0.00000      0.00000      8.40300        -0.004958     -0.002316      0.000152
      0.00000      2.80100      5.60200        -0.001160     -0.000037      0.000000
      2.80100      0.00000      5.60200        -0.000139     -0.001537      0.000000
      2.80100      8.40300      2.80100         0.000248      0.002582     -0.004459
      0.00000      5.60200      2.80100        -0.000589      0.001530      0.000016
      0.00000      8.40300      0.00000         0.000731      0.003962      0.000000
      2.80100      5.60200      0.00000        -0.000141      0.003838      0.000000
      2.80100      8.40300      8.40300         0.000248      0.002582      0.004459
      0.00000      5.60200      8.40300        -0.000589      0.001530     -0.000016
      0.00000      8.40300      5.60200        -0.000019     -0.000046      0.000000
      2.80100      5.60200      5.60200         0.000011      0.001944      0.000000
      8.40300      2.80100      2.80100         0.000219     -0.001359     -0.000727
      5.60200      0.00000      2.80100         0.002793     -0.002330     -0.000043
      5.60200      2.80100      0.00000         0.008731      0.003921      0.000000
      8.40300      0.00000      0.00000        -0.020226     -0.001529      0.000000
      8.40300      2.80100      8.40300         0.000219     -0.001359      0.000727
      5.60200      0.00000      8.40300         0.002793     -0.002330      0.000043
      5.60200      2.80100      5.60200         0.001240     -0.000055      0.000000
      8.40300      0.00000      5.60200        -0.000174     -0.000504      0.000000
      8.40300      8.40300      2.80100         0.000213      0.001267     -0.001873
      5.60200      5.60200      2.80100         0.000663      0.001530      0.000002
      5.60200      8.40300      0.00000        -0.002927      0.003890      0.000000
      8.40300      5.60200      0.00000        -0.000173      0.001944      0.000000
      8.40300      8.40300      8.40300         0.000213      0.001267      0.001873
      5.60200      5.60200      8.40300         0.000663      0.001530     -0.000002
      5.60200      8.40300      5.60200         0.000093     -0.000035      0.000000
      8.40300      5.60200      5.60200         0.000001      0.000510      0.000000
 -----------------------------------------------------------------------------------
    total drift:                               -0.000569      0.000209     -0.000003


--------------------------------------------------------------------------------------------------------



  FREE ENERGIE OF THE ION-ELECTRON SYSTEM (eV)
  ---------------------------------------------------
  free  energy   TOTEN  =      -223.90062150 eV

  energy  without entropy=     -223.90062150  energy(sigma->0) =     -223.90062150
 


--------------------------------------------------------------------------------------------------------


    POTLOK:  cpu time      0.0692: real time      0.0695


--------------------------------------------------------------------------------------------------------


     LOOP+:  cpu time    214.0430: real time    215.2211
    4ORBIT:  cpu time      0.0000: real time      0.0000

 total amount of memory used by VASP MPI-rank0   129658. kBytes
=======================================================================

   base      :      30000. kBytes
   nonl-proj :      41680. kBytes
   fftplans  :      14405. kBytes
   grid      :      19342. kBytes
   one-center:        196. kBytes
   wavefun   :      24035. kBytes
 
  
  
 General timing and accounting informations for this job:
 ========================================================
  
                  Total CPU time used (sec):      218.436
                            User time (sec):      217.932
                          System time (sec):        0.504
                         Elapsed time (sec):      220.040
  
                   Maximum memory used (kb):      316696.
                   Average memory used (kb):          N/A
  
                          Minor page faults:        97077
                          Major page faults:            0
                 Voluntary context switches:          882
