<?xml version="1.0" encoding="ISO-8859-1"?>
<modeling>
 <generator>
  <i name="program" type="string">vasp </i>
  <i name="version" type="string">6.3.2  </i>
  <i name="subversion" type="string">27Jun22 (build Oct 14 2022 12:13:54) complex                          parallel </i>
  <i name="platform" type="string">LinuxIFC </i>
  <i name="date" type="string">2025 08 28 </i>
  <i name="time" type="string">22:07:57 </i>
 </generator>
 <incar>
  <i type="string" name="PREC">Accurate</i>
  <i type="int" name="IALGO">    38</i>
  <i type="logical" name="ADDGRID"> T  </i>
  <i type="int" name="NELMIN">     5</i>
  <i type="int" name="IBRION">    -1</i>
  <i name="EDIFF">      0.00000001</i>
  <i name="ENCUT">    341.21360000</i>
  <i type="logical" name="LREAL"> F  </i>
  <i type="int" name="ISMEAR">     0</i>
  <i name="SIGMA">      0.02000000</i>
  <i type="logical" name="LWAVE"> F  </i>
  <i type="logical" name="LCHARG"> F  </i>
  <i type="string" name="GGA">PS</i>
 </incar>
 <primitive_cell>
  <structure name="primitive_cell" >
   <crystal>
    <varray name="basis" >
     <v>      11.20400236       0.00000000       0.00000000 </v>
     <v>       0.00000000      11.20400236       0.00000000 </v>
     <v>       0.00000000       0.00000000      11.20400236 </v>
    </varray>
    <i name="volume">   1406.43470641 </i>
    <varray name="rec_basis" >
     <v>       0.08925382       0.00000000       0.00000000 </v>
     <v>       0.00000000       0.08925382       0.00000000 </v>
     <v>       0.00000000       0.00000000       0.08925382 </v>
    </varray>
   </crystal>
   <varray name="positions" >
    <v>       0.99732239       0.00000000       0.00000000 </v>
    <v>       0.25000000       0.25000000       0.00000000 </v>
    <v>       0.25000000       0.00000000       0.25000000 </v>
    <v>       0.00000000       0.25000000       0.25000000 </v>
    <v>       0.00000000       0.00000000       0.50000000 </v>
    <v>       0.25000000       0.25000000       0.50000000 </v>
    <v>       0.25000000       0.00000000       0.75000000 </v>
    <v>       0.00000000       0.25000000       0.75000000 </v>
    <v>       0.00000000       0.50000000       0.00000000 </v>
    <v>       0.25000000       0.75000000       0.00000000 </v>
    <v>       0.25000000       0.50000000       0.25000000 </v>
    <v>       0.00000000       0.75000000       0.25000000 </v>
    <v>       0.00000000       0.50000000       0.50000000 </v>
    <v>       0.25000000       0.75000000       0.50000000 </v>
    <v>       0.25000000       0.50000000       0.75000000 </v>
    <v>       0.00000000       0.75000000       0.75000000 </v>
    <v>       0.50000000       0.00000000       0.00000000 </v>
    <v>       0.75000000       0.25000000       0.00000000 </v>
    <v>       0.75000000       0.00000000       0.25000000 </v>
    <v>       0.50000000       0.25000000       0.25000000 </v>
    <v>       0.50000000       0.00000000       0.50000000 </v>
    <v>       0.75000000       0.25000000       0.50000000 </v>
    <v>       0.75000000       0.00000000       0.75000000 </v>
    <v>       0.50000000       0.25000000       0.75000000 </v>
    <v>       0.50000000       0.50000000       0.00000000 </v>
    <v>       0.75000000       0.75000000       0.00000000 </v>
    <v>       0.75000000       0.50000000       0.25000000 </v>
    <v>       0.50000000       0.75000000       0.25000000 </v>
    <v>       0.50000000       0.50000000       0.50000000 </v>
    <v>       0.75000000       0.75000000       0.50000000 </v>
    <v>       0.75000000       0.50000000       0.75000000 </v>
    <v>       0.50000000       0.75000000       0.75000000 </v>
    <v>       0.25000000       0.25000000       0.25000000 </v>
    <v>       0.00000000       0.00000000       0.25000000 </v>
    <v>       0.00000000       0.25000000       0.00000000 </v>
    <v>       0.25000000       0.00267761       0.00000000 </v>
    <v>       0.25000000       0.25000000       0.75000000 </v>
    <v>       0.00000000       0.00000000       0.75000000 </v>
    <v>       0.00000000       0.25000000       0.50000000 </v>
    <v>       0.25000000       0.00000000       0.50000000 </v>
    <v>       0.25000000       0.75000000       0.25000000 </v>
    <v>       0.00000000       0.50000000       0.25000000 </v>
    <v>       0.00000000       0.75000000       0.00000000 </v>
    <v>       0.25000000       0.50000000       0.00000000 </v>
    <v>       0.25000000       0.75000000       0.75000000 </v>
    <v>       0.00000000       0.50000000       0.75000000 </v>
    <v>       0.00000000       0.75000000       0.50000000 </v>
    <v>       0.25000000       0.50000000       0.50000000 </v>
    <v>       0.75000000       0.25000000       0.25000000 </v>
    <v>       0.50000000       0.00000000       0.25000000 </v>
    <v>       0.50000000       0.25000000       0.00000000 </v>
    <v>       0.75000000       0.00000000       0.00000000 </v>
    <v>       0.75000000       0.25000000       0.75000000 </v>
    <v>       0.50000000       0.00000000       0.75000000 </v>
    <v>       0.50000000       0.25000000       0.50000000 </v>
    <v>       0.75000000       0.00000000       0.50000000 </v>
    <v>       0.75000000       0.75000000       0.25000000 </v>
    <v>       0.50000000       0.50000000       0.25000000 </v>
    <v>       0.50000000       0.75000000       0.00000000 </v>
    <v>       0.75000000       0.50000000       0.00000000 </v>
    <v>       0.75000000       0.75000000       0.75000000 </v>
    <v>       0.50000000       0.50000000       0.75000000 </v>
    <v>       0.50000000       0.75000000       0.50000000 </v>
    <v>       0.75000000       0.50000000       0.50000000 </v>
   </varray>
  </structure>
  <varray name="primitive_index" >
   <v type="int" >        1 </v>
   <v type="int" >        2 </v>
   <v type="int" >        3 </v>
   <v type="int" >        4 </v>
   <v type="int" >        5 </v>
   <v type="int" >        6 </v>
   <v type="int" >        7 </v>
   <v type="int" >        8 </v>
   <v type="int" >        9 </v>
   <v type="int" >       10 </v>
   <v type="int" >       11 </v>
   <v type="int" >       12 </v>
   <v type="int" >       13 </v>
   <v type="int" >       14 </v>
   <v type="int" >       15 </v>
   <v type="int" >       16 </v>
   <v type="int" >       17 </v>
   <v type="int" >       18 </v>
   <v type="int" >       19 </v>
   <v type="int" >       20 </v>
   <v type="int" >       21 </v>
   <v type="int" >       22 </v>
   <v type="int" >       23 </v>
   <v type="int" >       24 </v>
   <v type="int" >       25 </v>
   <v type="int" >       26 </v>
   <v type="int" >       27 </v>
   <v type="int" >       28 </v>
   <v type="int" >       29 </v>
   <v type="int" >       30 </v>
   <v type="int" >       31 </v>
   <v type="int" >       32 </v>
   <v type="int" >       33 </v>
   <v type="int" >       34 </v>
   <v type="int" >       35 </v>
   <v type="int" >       36 </v>
   <v type="int" >       37 </v>
   <v type="int" >       38 </v>
   <v type="int" >       39 </v>
   <v type="int" >       40 </v>
   <v type="int" >       41 </v>
   <v type="int" >       42 </v>
   <v type="int" >       43 </v>
   <v type="int" >       44 </v>
   <v type="int" >       45 </v>
   <v type="int" >       46 </v>
   <v type="int" >       47 </v>
   <v type="int" >       48 </v>
   <v type="int" >       49 </v>
   <v type="int" >       50 </v>
   <v type="int" >       51 </v>
   <v type="int" >       52 </v>
   <v type="int" >       53 </v>
   <v type="int" >       54 </v>
   <v type="int" >       55 </v>
   <v type="int" >       56 </v>
   <v type="int" >       57 </v>
   <v type="int" >       58 </v>
   <v type="int" >       59 </v>
   <v type="int" >       60 </v>
   <v type="int" >       61 </v>
   <v type="int" >       62 </v>
   <v type="int" >       63 </v>
   <v type="int" >       64 </v>
  </varray>
 </primitive_cell>
 <kpoints>
  <generation param="Gamma">
   <v type="int" name="divisions">       2        2        2 </v>
   <v name="usershift">      0.00000000       0.00000000       0.00000000 </v>
   <v name="genvec1">      0.50000000       0.00000000       0.00000000 </v>
   <v name="genvec2">      0.00000000       0.50000000       0.00000000 </v>
   <v name="genvec3">      0.00000000       0.00000000       0.50000000 </v>
   <v name="shift">      0.00000000       0.00000000       0.00000000 </v>
  </generation>
  <varray name="kpointlist" >
   <v>       0.00000000       0.00000000       0.00000000 </v>
   <v>       0.50000000       0.00000000       0.00000000 </v>
   <v>       0.00000000       0.50000000       0.00000000 </v>
   <v>       0.00000000       0.00000000       0.50000000 </v>
   <v>       0.50000000       0.50000000       0.00000000 </v>
   <v>       0.00000000       0.50000000       0.50000000 </v>
   <v>       0.50000000       0.00000000       0.50000000 </v>
   <v>       0.50000000       0.50000000       0.50000000 </v>
  </varray>
  <varray name="weights" >
   <v>       0.12500000 </v>
   <v>       0.12500000 </v>
   <v>       0.12500000 </v>
   <v>       0.12500000 </v>
   <v>       0.12500000 </v>
   <v>       0.12500000 </v>
   <v>       0.12500000 </v>
   <v>       0.12500000 </v>
  </varray>
 </kpoints>
 <parameters>
  <separator name="general" >
   <i type="string" name="SYSTEM">unknown system</i>
   <i type="logical" name="LCOMPAT"> F  </i>
  </separator>
  <separator name="electronic" >
   <i type="string" name="PREC">accura</i>
   <i name="ENMAX">    341.21360000</i>
   <i name="ENAUG">    368.05600000</i>
   <i name="EDIFF">      0.00000001</i>
   <i type="int" name="IALGO">    38</i>
   <i type="int" name="IWAVPR">    10</i>
   <i type="int" name="NBANDS">   288</i>
   <i type="int" name="NBANDSLOW">    -1</i>
   <i type="int" name="NBANDSHIGH">    -1</i>
   <i name="NELECT">    448.00000000</i>
   <i type="int" name="TURBO">     0</i>
   <i type="int" name="IRESTART">     0</i>
   <i type="int" name="NREBOOT">     0</i>
   <i type="int" name="NMIN">     0</i>
   <i name="EREF">      0.00000000</i>
   <separator name="electronic smearing" >
    <i type="int" name="ISMEAR">     0</i>
    <i name="SIGMA">      0.02000000</i>
    <i name="KSPACING">      0.50000000</i>
    <i type="logical" name="KGAMMA"> T  </i>
    <i type="logical" name="KBLOWUP"> T  </i>
   </separator>
   <separator name="electronic projectors" >
    <i type="logical" name="LREAL"> F  </i>
    <v name="ROPT">      0.00000000      0.00000000</v>
    <i type="int" name="LMAXPAW">  -100</i>
    <i type="int" name="LMAXMIX">     2</i>
    <i type="logical" name="NLSPLINE"> F  </i>
   </separator>
   <separator name="electronic startup" >
    <i type="int" name="ISTART">     0</i>
    <i type="int" name="ICHARG">     2</i>
    <i type="int" name="INIWAV">     1</i>
   </separator>
   <separator name="electronic spin" >
    <i type="int" name="ISPIN">     1</i>
    <i type="logical" name="LNONCOLLINEAR"> F  </i>
    <v name="MAGMOM">      1.00000000      1.00000000      1.00000000      1.00000000      1.00000000      1.00000000      1.00000000      1.00000000      1.00000000      1.00000000      1.00000000      1.00000000      1.00000000      1.00000000      1.00000000      1.00000000      1.00000000      1.00000000      1.00000000      1.00000000
      1.00000000      1.00000000      1.00000000      1.00000000      1.00000000      1.00000000      1.00000000      1.00000000      1.00000000      1.00000000      1.00000000      1.00000000      1.00000000      1.00000000      1.00000000      1.00000000      1.00000000      1.00000000      1.00000000      1.00000000
      1.00000000      1.00000000      1.00000000      1.00000000      1.00000000      1.00000000      1.00000000      1.00000000      1.00000000      1.00000000      1.00000000      1.00000000      1.00000000      1.00000000      1.00000000      1.00000000      1.00000000      1.00000000      1.00000000      1.00000000
      1.00000000      1.00000000      1.00000000      1.00000000</v>
    <i name="NUPDOWN">     -1.00000000</i>
    <i type="logical" name="LSORBIT"> F  </i>
    <v name="SAXIS">      0.00000000      0.00000000      1.00000000</v>
    <i type="logical" name="LSPIRAL"> F  </i>
    <v name="QSPIRAL">      0.00000000      0.00000000      0.00000000</v>
    <i type="logical" name="LZEROZ"> F  </i>
   </separator>
   <separator name="electronic exchange-correlation" >
    <i type="logical" name="LASPH"> F  </i>
    <i type="logical" name="LMETAGGA"> F  </i>
   </separator>
   <separator name="electronic convergence" >
    <i type="int" name="NELM">    60</i>
    <i type="int" name="NELMDL">    -5</i>
    <i type="int" name="NELMIN">     5</i>
    <i name="ENINI">    341.21360000</i>
    <separator name="electronic convergence detail" >
     <i type="logical" name="LDIAG"> T  </i>
     <i type="logical" name="LSUBROT"> F  </i>
     <i name="WEIMIN">      0.00000000</i>
     <i name="EBREAK">      0.00000000</i>
     <i name="DEPER">      0.30000000</i>
     <i type="int" name="NRMM">     4</i>
     <i name="TIME">      0.40000000</i>
    </separator>
   </separator>
   <separator name="electronic mixer" >
    <i name="AMIX">      0.40000000</i>
    <i name="BMIX">      1.00000000</i>
    <i name="AMIN">      0.10000000</i>
    <i name="AMIX_MAG">      1.60000000</i>
    <i name="BMIX_MAG">      1.00000000</i>
    <separator name="electronic mixer details" >
     <i type="int" name="IMIX">     4</i>
     <i type="logical" name="MIXFIRST"> F  </i>
     <i type="int" name="MAXMIX">   -45</i>
     <i name="WC">    100.00000000</i>
     <i type="int" name="INIMIX">     1</i>
     <i type="int" name="MIXPRE">     1</i>
     <i type="int" name="MREMOVE">     5</i>
    </separator>
   </separator>
   <separator name="electronic dipolcorrection" >
    <i type="logical" name="LDIPOL"> F  </i>
    <i type="logical" name="LMONO"> F  </i>
    <i type="int" name="IDIPOL">     0</i>
    <i name="EPSILON">      1.00000000</i>
    <v name="DIPOL">   -100.00000000   -100.00000000   -100.00000000</v>
    <i name="EFIELD">      0.00000000</i>
   </separator>
  </separator>
  <separator name="grids" >
   <i type="int" name="NGX">    70</i>
   <i type="int" name="NGY">    70</i>
   <i type="int" name="NGZ">    70</i>
   <i type="int" name="NGXF">   140</i>
   <i type="int" name="NGYF">   140</i>
   <i type="int" name="NGZF">   140</i>
   <i type="logical" name="ADDGRID"> T  </i>
  </separator>
  <separator name="ionic" >
   <i type="int" name="NSW">     0</i>
   <i type="int" name="IBRION">    -1</i>
   <i type="int" name="MDALGO">     0</i>
   <i type="int" name="ISIF">     2</i>
   <i name="PSTRESS">      0.00000000</i>
   <i name="EDIFFG">      0.00000010</i>
   <i type="int" name="NFREE">     0</i>
   <i name="POTIM">      0.50000000</i>
   <i name="SMASS">     -3.00000000</i>
   <i name="SCALEE">      1.00000000</i>
  </separator>
  <separator name="ionic md" >
   <i name="TEBEG">      0.00010000</i>
   <i name="TEEND">      0.00010000</i>
   <i type="int" name="NBLOCK">     1</i>
   <i type="int" name="KBLOCK">     1</i>
   <i type="int" name="NPACO">   256</i>
   <i name="APACO">     10.00000000</i>
  </separator>
  <separator name="symmetry" >
   <i type="int" name="ISYM">     2</i>
   <i name="SYMPREC">      0.00001000</i>
  </separator>
  <separator name="dos" >
   <i type="int" name="LORBIT">     0</i>
   <v name="RWIGS">     -1.00000000     -1.00000000</v>
   <i type="int" name="NEDOS">   301</i>
   <i name="EMIN">     10.00000000</i>
   <i name="EMAX">    -10.00000000</i>
   <i name="EFERMI">      0.00000000</i>
  </separator>
  <separator name="writing" >
   <i type="int" name="NWRITE">     2</i>
   <i type="logical" name="LWAVE"> F  </i>
   <i type="logical" name="LDOWNSAMPLE"> F  </i>
   <i type="logical" name="LCHARG"> F  </i>
   <i type="logical" name="LPARD"> F  </i>
   <i type="logical" name="LVTOT"> F  </i>
   <i type="logical" name="LVHAR"> F  </i>
   <i type="logical" name="LELF"> F  </i>
   <i type="logical" name="LOPTICS"> F  </i>
   <v name="STM">      0.00000000      0.00000000      0.00000000      0.00000000      0.00000000      0.00000000      0.00000000</v>
  </separator>
  <separator name="performance" >
   <i type="int" name="NPAR">    32</i>
   <i type="int" name="NSIM">     4</i>
   <i type="int" name="NBLK">    -1</i>
   <i type="logical" name="LPLANE"> T  </i>
   <i type="logical" name="LSCALAPACK"> T  </i>
   <i type="logical" name="LSCAAWARE"> F  </i>
   <i type="logical" name="LSCALU"> F  </i>
   <i type="logical" name="LASYNC"> F  </i>
   <i type="logical" name="LORBITALREAL"> F  </i>
  </separator>
  <separator name="miscellaneous" >
   <i type="int" name="IDIOT">     3</i>
   <i type="int" name="PHON_NSTRUCT">    -1</i>
   <i type="logical" name="LMUSIC"> F  </i>
   <v name="POMASS">     22.99000000     35.45300000</v>
   <v name="DARWINR">      0.00000000      0.00000000</v>
   <v name="DARWINV">      1.00000000      1.00000000</v>
   <i type="logical" name="LCORR"> T  </i>
  </separator>
  <i type="logical" name="GGA_COMPAT"> T  </i>
  <i type="logical" name="LBERRY"> F  </i>
  <i type="int" name="ICORELEVEL">     0</i>
  <i type="logical" name="LDAU"> F  </i>
  <i type="int" name="I_CONSTRAINED_M">     0</i>
  <separator name="electronic exchange-correlation" >
   <i type="string" name="GGA">PS</i>
   <i type="int" name="VOSKOWN">     0</i>
   <i type="logical" name="LHFCALC"> F  </i>
   <i type="string" name="PRECFOCK"></i>
   <i type="logical" name="LSYMGRAD"> F  </i>
   <i type="logical" name="LHFONE"> F  </i>
   <i type="logical" name="LRHFCALC"> F  </i>
   <i type="logical" name="LTHOMAS"> F  </i>
   <i type="logical" name="LMODELHF"> F  </i>
   <i type="logical" name="LFOCKACE"> F  </i>
   <i name="ENCUT4O">     -1.00000000</i>
   <i type="int" name="EXXOEP">     0</i>
   <i type="int" name="FOURORBIT">     0</i>
   <i name="AEXX">      0.00000000</i>
   <i name="HFALPHA">      0.00000000</i>
   <i name="MCALPHA">      0.00000000</i>
   <i name="ALDAX">      1.00000000</i>
   <i name="AGGAX">      1.00000000</i>
   <i name="ALDAC">      1.00000000</i>
   <i name="AGGAC">      1.00000000</i>
   <i type="int" name="NKREDX">     1</i>
   <i type="int" name="NKREDY">     1</i>
   <i type="int" name="NKREDZ">     1</i>
   <i type="logical" name="SHIFTRED"> F  </i>
   <i type="logical" name="ODDONLY"> F  </i>
   <i type="logical" name="EVENONLY"> F  </i>
   <i type="int" name="LMAXFOCK">     0</i>
   <i type="int" name="NMAXFOCKAE">     0</i>
   <i type="logical" name="LFOCKAEDFT"> F  </i>
   <i name="HFSCREEN">      0.00000000</i>
   <i name="HFSCREENC">      0.00000000</i>
   <i type="int" name="NBANDSGWLOW">     0</i>
  </separator>
  <separator name="vdW DFT" >
   <i type="logical" name="LUSE_VDW"> F  </i>
   <i name="Zab_VDW">     -0.84910000</i>
   <i name="PARAM1">      0.12340000</i>
   <i name="PARAM2">      1.00000000</i>
   <i name="PARAM3">      0.00000000</i>
  </separator>
  <separator name="model GW" >
   <i type="int" name="MODEL_GW">     0</i>
   <i name="MODEL_EPS0">     13.18532537</i>
   <i name="MODEL_ALPHA">      1.00000000</i>
  </separator>
  <separator name="linear response parameters" >
   <i type="logical" name="LEPSILON"> F  </i>
   <i type="logical" name="LRPA"> F  </i>
   <i type="logical" name="LNABLA"> F  </i>
   <i type="logical" name="LVEL"> F  </i>
   <i name="CSHIFT">      0.10000000</i>
   <i name="OMEGAMAX">     -1.00000000</i>
   <i name="DEG_THRESHOLD">      0.00200000</i>
   <i name="RTIME">     -0.10000000</i>
   <i name="WPLASMAI">      0.00000000</i>
   <v name="DFIELD">      0.00000000      0.00000000      0.00000000</v>
   <v name="WPLASMA">      0.00000000      0.00000000      0.00000000      0.00000000      0.00000000      0.00000000      0.00000000      0.00000000      0.00000000</v>
  </separator>
  <separator name="orbital magnetization" >
   <i type="logical" name="NUCIND"> F  </i>
   <v name="MAGPOS">      0.00000000      0.00000000      0.00000000</v>
   <i type="logical" name="LNICSALL"> T  </i>
   <i type="logical" name="ORBITALMAG"> F  </i>
   <i type="logical" name="LMAGBLOCH"> F  </i>
   <i type="logical" name="LCHIMAG"> F  </i>
   <i type="logical" name="LGAUGE"> T  </i>
   <i type="int" name="MAGATOM">     0</i>
   <v name="MAGDIPOL">      0.00000000      0.00000000      0.00000000</v>
   <v name="AVECCONST">      0.00000000      0.00000000      0.00000000</v>
  </separator>
  <separator name="response functions" >
   <i type="logical" name="LFINITE_TEMPERATURE"> F  </i>
   <i type="logical" name="LADDER"> F  </i>
   <i type="logical" name="LRPAFORCE"> F  </i>
   <i type="logical" name="LFXC"> F  </i>
   <i type="logical" name="LHARTREE"> T  </i>
   <i type="int" name="IBSE">     0</i>
   <v type="int" name="KPOINT">    -1     0     0     0</v>
   <i type="logical" name="LTCTC"> F  </i>
   <i type="logical" name="LTCTE"> F  </i>
   <i type="logical" name="LTETE"> F  </i>
   <i type="logical" name="LTRIPLET"> F  </i>
   <i type="logical" name="LFXCEPS"> F  </i>
   <i type="logical" name="LFXHEG"> F  </i>
   <i type="int" name="NATURALO">     2</i>
   <i type="logical" name="LHOLEGF"> F  </i>
   <i type="logical" name="L2ORDER"> F  </i>
   <i type="logical" name="LDMP1"> F  </i>
   <i type="logical" name="LMP2LT"> F  </i>
   <i type="logical" name="LSMP2LT"> F  </i>
   <i type="logical" name="LGWLF"> F  </i>
   <i name="ENCUTGW">     -2.00000000</i>
   <i name="ENCUTGWSOFT">     -2.00000000</i>
   <i name="ENCUTLF">     -1.00000000</i>
   <i type="logical" name="LESF_SPLINES"> F  </i>
   <i type="int" name="LMAXMP2">    -1</i>
   <i name="SCISSOR">      0.00000000</i>
   <i type="int" name="NOMEGA">     0</i>
   <i type="int" name="NOMEGAR">     0</i>
   <i type="int" name="NBANDSGW">    -1</i>
   <i type="int" name="NBANDSO">    -1</i>
   <i type="int" name="NBANDSV">    -1</i>
   <i type="int" name="NELMGW">     1</i>
   <i type="int" name="NELMHF">     1</i>
   <i type="int" name="DIM">     3</i>
   <i type="int" name="IESPILON">     4</i>
   <i type="int" name="ANTIRES">     0</i>
   <i name="OMEGAMAX">    -30.00000000</i>
   <i name="OMEGAMIN">    -30.00000000</i>
   <i name="OMEGATL">   -200.00000000</i>
   <i type="int" name="OMEGAGRID">     0</i>
   <i name="CSHIFT">     -0.10000000</i>
   <i type="logical" name="LSELFENERGY"> F  </i>
   <i type="logical" name="LSPECTRAL"> F  </i>
   <i type="logical" name="LSPECTRALGW"> F  </i>
   <i type="logical" name="LSINGLES"> F  </i>
   <i type="logical" name="LFERMIGW"> F  </i>
   <i type="logical" name="ODDONLYGW"> F  </i>
   <i type="logical" name="EVENONLYGW"> F  </i>
   <i type="int" name="NKREDLFX">     1</i>
   <i type="int" name="NKREDLFY">     1</i>
   <i type="int" name="NKREDLFZ">     1</i>
   <i type="int" name="MAXMEM">  2800</i>
   <i type="int" name="TELESCOPE">     0</i>
   <i type="int" name="NTAUPAR">    -1</i>
   <i type="int" name="NOMEGAPAR">    -1</i>
   <i name="DAMP_NEWTON">      0.80000001</i>
   <i name="LAMBDA">      1.00000000</i>
  </separator>
  <separator name="External order field" >
   <i name="OFIELD_KAPPA">      0.00000000</i>
   <v name="OFIELD_K">      0.00000000      0.00000000      0.00000000</v>
   <i name="OFIELD_Q6_NEAR">      0.00000000</i>
   <i name="OFIELD_Q6_FAR">      0.00000000</i>
   <i name="OFIELD_A">      0.00000000</i>
  </separator>
  <separator name="optional k-points parameters" >
   <i type="int" name="KPOINTS_OPT_MODE">     1</i>
   <i type="logical" name="LKPOINTS_OPT"> F  </i>
  </separator>
 </parameters>
 <atominfo>
  <atoms>      64 </atoms>
  <types>       2 </types>
  <array name="atoms" >
   <dimension dim="1">ion</dimension>
   <field type="string">element</field>
   <field type="int">atomtype</field>
   <set>
    <rc><c>Na</c><c>   1</c></rc>
    <rc><c>Na</c><c>   1</c></rc>
    <rc><c>Na</c><c>   1</c></rc>
    <rc><c>Na</c><c>   1</c></rc>
    <rc><c>Na</c><c>   1</c></rc>
    <rc><c>Na</c><c>   1</c></rc>
    <rc><c>Na</c><c>   1</c></rc>
    <rc><c>Na</c><c>   1</c></rc>
    <rc><c>Na</c><c>   1</c></rc>
    <rc><c>Na</c><c>   1</c></rc>
    <rc><c>Na</c><c>   1</c></rc>
    <rc><c>Na</c><c>   1</c></rc>
    <rc><c>Na</c><c>   1</c></rc>
    <rc><c>Na</c><c>   1</c></rc>
    <rc><c>Na</c><c>   1</c></rc>
    <rc><c>Na</c><c>   1</c></rc>
    <rc><c>Na</c><c>   1</c></rc>
    <rc><c>Na</c><c>   1</c></rc>
    <rc><c>Na</c><c>   1</c></rc>
    <rc><c>Na</c><c>   1</c></rc>
    <rc><c>Na</c><c>   1</c></rc>
    <rc><c>Na</c><c>   1</c></rc>
    <rc><c>Na</c><c>   1</c></rc>
    <rc><c>Na</c><c>   1</c></rc>
    <rc><c>Na</c><c>   1</c></rc>
    <rc><c>Na</c><c>   1</c></rc>
    <rc><c>Na</c><c>   1</c></rc>
    <rc><c>Na</c><c>   1</c></rc>
    <rc><c>Na</c><c>   1</c></rc>
    <rc><c>Na</c><c>   1</c></rc>
    <rc><c>Na</c><c>   1</c></rc>
    <rc><c>Na</c><c>   1</c></rc>
    <rc><c>Cl</c><c>   2</c></rc>
    <rc><c>Cl</c><c>   2</c></rc>
    <rc><c>Cl</c><c>   2</c></rc>
    <rc><c>Cl</c><c>   2</c></rc>
    <rc><c>Cl</c><c>   2</c></rc>
    <rc><c>Cl</c><c>   2</c></rc>
    <rc><c>Cl</c><c>   2</c></rc>
    <rc><c>Cl</c><c>   2</c></rc>
    <rc><c>Cl</c><c>   2</c></rc>
    <rc><c>Cl</c><c>   2</c></rc>
    <rc><c>Cl</c><c>   2</c></rc>
    <rc><c>Cl</c><c>   2</c></rc>
    <rc><c>Cl</c><c>   2</c></rc>
    <rc><c>Cl</c><c>   2</c></rc>
    <rc><c>Cl</c><c>   2</c></rc>
    <rc><c>Cl</c><c>   2</c></rc>
    <rc><c>Cl</c><c>   2</c></rc>
    <rc><c>Cl</c><c>   2</c></rc>
    <rc><c>Cl</c><c>   2</c></rc>
    <rc><c>Cl</c><c>   2</c></rc>
    <rc><c>Cl</c><c>   2</c></rc>
    <rc><c>Cl</c><c>   2</c></rc>
    <rc><c>Cl</c><c>   2</c></rc>
    <rc><c>Cl</c><c>   2</c></rc>
    <rc><c>Cl</c><c>   2</c></rc>
    <rc><c>Cl</c><c>   2</c></rc>
    <rc><c>Cl</c><c>   2</c></rc>
    <rc><c>Cl</c><c>   2</c></rc>
    <rc><c>Cl</c><c>   2</c></rc>
    <rc><c>Cl</c><c>   2</c></rc>
    <rc><c>Cl</c><c>   2</c></rc>
    <rc><c>Cl</c><c>   2</c></rc>
   </set>
  </array>
  <array name="atomtypes" >
   <dimension dim="1">type</dimension>
   <field type="int">atomspertype</field>
   <field type="string">element</field>
   <field>mass</field>
   <field>valence</field>
   <field type="string">pseudopotential</field>
   <set>
    <rc><c>  32</c><c>Na</c><c>     22.99000000</c><c>      7.00000000</c><c>  PAW_PBE Na_pv 19Sep2006               </c></rc>
    <rc><c>  32</c><c>Cl</c><c>     35.45300000</c><c>      7.00000000</c><c>  PAW_PBE Cl 06Sep2000                  </c></rc>
   </set>
  </array>
 </atominfo>
 <structure name="initialpos" >
  <crystal>
   <varray name="basis" >
    <v>      11.20400236       0.00000000       0.00000000 </v>
    <v>       0.00000000      11.20400236       0.00000000 </v>
    <v>       0.00000000       0.00000000      11.20400236 </v>
   </varray>
   <i name="volume">   1406.43470641 </i>
   <varray name="rec_basis" >
    <v>       0.08925382       0.00000000       0.00000000 </v>
    <v>       0.00000000       0.08925382       0.00000000 </v>
    <v>       0.00000000       0.00000000       0.08925382 </v>
   </varray>
  </crystal>
  <varray name="positions" >
   <v>       0.99732239       0.00000000       0.00000000 </v>
   <v>       0.25000000       0.25000000       0.00000000 </v>
   <v>       0.25000000       0.00000000       0.25000000 </v>
   <v>       0.00000000       0.25000000       0.25000000 </v>
   <v>       0.00000000       0.00000000       0.50000000 </v>
   <v>       0.25000000       0.25000000       0.50000000 </v>
   <v>       0.25000000       0.00000000       0.75000000 </v>
   <v>       0.00000000       0.25000000       0.75000000 </v>
   <v>       0.00000000       0.50000000       0.00000000 </v>
   <v>       0.25000000       0.75000000       0.00000000 </v>
   <v>       0.25000000       0.50000000       0.25000000 </v>
   <v>       0.00000000       0.75000000       0.25000000 </v>
   <v>       0.00000000       0.50000000       0.50000000 </v>
   <v>       0.25000000       0.75000000       0.50000000 </v>
   <v>       0.25000000       0.50000000       0.75000000 </v>
   <v>       0.00000000       0.75000000       0.75000000 </v>
   <v>       0.50000000       0.00000000       0.00000000 </v>
   <v>       0.75000000       0.25000000       0.00000000 </v>
   <v>       0.75000000       0.00000000       0.25000000 </v>
   <v>       0.50000000       0.25000000       0.25000000 </v>
   <v>       0.50000000       0.00000000       0.50000000 </v>
   <v>       0.75000000       0.25000000       0.50000000 </v>
   <v>       0.75000000       0.00000000       0.75000000 </v>
   <v>       0.50000000       0.25000000       0.75000000 </v>
   <v>       0.50000000       0.50000000       0.00000000 </v>
   <v>       0.75000000       0.75000000       0.00000000 </v>
   <v>       0.75000000       0.50000000       0.25000000 </v>
   <v>       0.50000000       0.75000000       0.25000000 </v>
   <v>       0.50000000       0.50000000       0.50000000 </v>
   <v>       0.75000000       0.75000000       0.50000000 </v>
   <v>       0.75000000       0.50000000       0.75000000 </v>
   <v>       0.50000000       0.75000000       0.75000000 </v>
   <v>       0.25000000       0.25000000       0.25000000 </v>
   <v>       0.00000000       0.00000000       0.25000000 </v>
   <v>       0.00000000       0.25000000       0.00000000 </v>
   <v>       0.25000000       0.00267761       0.00000000 </v>
   <v>       0.25000000       0.25000000       0.75000000 </v>
   <v>       0.00000000       0.00000000       0.75000000 </v>
   <v>       0.00000000       0.25000000       0.50000000 </v>
   <v>       0.25000000       0.00000000       0.50000000 </v>
   <v>       0.25000000       0.75000000       0.25000000 </v>
   <v>       0.00000000       0.50000000       0.25000000 </v>
   <v>       0.00000000       0.75000000       0.00000000 </v>
   <v>       0.25000000       0.50000000       0.00000000 </v>
   <v>       0.25000000       0.75000000       0.75000000 </v>
   <v>       0.00000000       0.50000000       0.75000000 </v>
   <v>       0.00000000       0.75000000       0.50000000 </v>
   <v>       0.25000000       0.50000000       0.50000000 </v>
   <v>       0.75000000       0.25000000       0.25000000 </v>
   <v>       0.50000000       0.00000000       0.25000000 </v>
   <v>       0.50000000       0.25000000       0.00000000 </v>
   <v>       0.75000000       0.00000000       0.00000000 </v>
   <v>       0.75000000       0.25000000       0.75000000 </v>
   <v>       0.50000000       0.00000000       0.75000000 </v>
   <v>       0.50000000       0.25000000       0.50000000 </v>
   <v>       0.75000000       0.00000000       0.50000000 </v>
   <v>       0.75000000       0.75000000       0.25000000 </v>
   <v>       0.50000000       0.50000000       0.25000000 </v>
   <v>       0.50000000       0.75000000       0.00000000 </v>
   <v>       0.75000000       0.50000000       0.00000000 </v>
   <v>       0.75000000       0.75000000       0.75000000 </v>
   <v>       0.50000000       0.50000000       0.75000000 </v>
   <v>       0.50000000       0.75000000       0.50000000 </v>
   <v>       0.75000000       0.50000000       0.50000000 </v>
  </varray>
 </structure>
 <calculation>
  <scstep>
   <time name="dav">    9.92    9.97</time>
   <time name="total">    9.99   10.05</time>
   <energy>
    <i name="alphaZ">    751.52672365 </i>
    <i name="ewald"> -22871.33979096 </i>
    <i name="hartreedc">  -8992.24677695 </i>
    <i name="XCdc">   1456.53426579 </i>
    <i name="pawpsdc">  26466.43774078 </i>
    <i name="pawaedc"> -29286.08056155 </i>
    <i name="eentropy">     -0.00289460 </i>
    <i name="bandstr">   -733.18743793 </i>
    <i name="atom">  37532.17946992 </i>
    <i name="e_fr_energy">   4323.82073816 </i>
    <i name="e_wo_entrp">   4323.82363275 </i>
    <i name="e_0_energy">   4323.82218546 </i>
   </energy>
  </scstep>
  <scstep>
   <time name="dav">   10.80   10.86</time>
   <time name="total">   10.80   10.86</time>
   <energy>
    <i name="e_fr_energy">    363.96148300 </i>
    <i name="e_wo_entrp">    363.96148300 </i>
    <i name="e_0_energy">    363.96148300 </i>
   </energy>
  </scstep>
  <scstep>
   <time name="dav">   11.66   11.73</time>
   <time name="total">   11.66   11.73</time>
   <energy>
    <i name="e_fr_energy">   -206.18102701 </i>
    <i name="e_wo_entrp">   -206.18102701 </i>
    <i name="e_0_energy">   -206.18102701 </i>
   </energy>
  </scstep>
  <scstep>
   <time name="dav">   11.52   11.58</time>
   <time name="total">   11.52   11.58</time>
   <energy>
    <i name="e_fr_energy">   -228.19104187 </i>
    <i name="e_wo_entrp">   -228.19104187 </i>
    <i name="e_0_energy">   -228.19104187 </i>
   </energy>
  </scstep>
  <scstep>
   <time name="dav">   11.92   11.99</time>
   <time name="total">   12.26   12.33</time>
   <energy>
    <i name="e_fr_energy">   -229.00563602 </i>
    <i name="e_wo_entrp">   -229.00563602 </i>
    <i name="e_0_energy">   -229.00563602 </i>
   </energy>
  </scstep>
  <scstep>
   <time name="dav">   11.81   11.88</time>
   <time name="total">   12.23   12.30</time>
   <energy>
    <i name="e_fr_energy">   -224.13818206 </i>
    <i name="e_wo_entrp">   -224.13818206 </i>
    <i name="e_0_energy">   -224.13818206 </i>
   </energy>
  </scstep>
  <scstep>
   <time name="dav">   12.77   12.84</time>
   <time name="total">   13.17   13.25</time>
   <energy>
    <i name="e_fr_energy">   -223.77727065 </i>
    <i name="e_wo_entrp">   -223.77727065 </i>
    <i name="e_0_energy">   -223.77727065 </i>
   </energy>
  </scstep>
  <scstep>
   <time name="dav">   11.16   11.23</time>
   <time name="total">   11.59   11.66</time>
   <energy>
    <i name="e_fr_energy">   -223.90253409 </i>
    <i name="e_wo_entrp">   -223.90253409 </i>
    <i name="e_0_energy">   -223.90253409 </i>
   </energy>
  </scstep>
  <scstep>
   <time name="dav">   11.68   11.75</time>
   <time name="total">   12.10   12.17</time>
   <energy>
    <i name="e_fr_energy">   -223.89706404 </i>
    <i name="e_wo_entrp">   -223.89706404 </i>
    <i name="e_0_energy">   -223.89706404 </i>
   </energy>
  </scstep>
  <scstep>
   <time name="dav">   11.23   11.29</time>
   <time name="total">   11.64   11.71</time>
   <energy>
    <i name="e_fr_energy">   -223.90136233 </i>
    <i name="e_wo_entrp">   -223.90136233 </i>
    <i name="e_0_energy">   -223.90136233 </i>
   </energy>
  </scstep>
  <scstep>
   <time name="dav">   12.06   12.13</time>
   <time name="total">   12.47   12.54</time>
   <energy>
    <i name="e_fr_energy">   -223.90065690 </i>
    <i name="e_wo_entrp">   -223.90065690 </i>
    <i name="e_0_energy">   -223.90065690 </i>
   </energy>
  </scstep>
  <scstep>
   <time name="dav">   11.96   12.03</time>
   <time name="total">   12.37   12.44</time>
   <energy>
    <i name="e_fr_energy">   -223.90061858 </i>
    <i name="e_wo_entrp">   -223.90061858 </i>
    <i name="e_0_energy">   -223.90061858 </i>
   </energy>
  </scstep>
  <scstep>
   <time name="dav">   11.84   11.91</time>
   <time name="total">   12.25   12.32</time>
   <energy>
    <i name="e_fr_energy">   -223.90061851 </i>
    <i name="e_wo_entrp">   -223.90061851 </i>
    <i name="e_0_energy">   -223.90061851 </i>
   </energy>
  </scstep>
  <scstep>
   <time name="dav">   11.64   11.71</time>
   <time name="total">   12.05   12.12</time>
   <energy>
    <i name="e_fr_energy">   -223.90061965 </i>
    <i name="e_wo_entrp">   -223.90061965 </i>
    <i name="e_0_energy">   -223.90061965 </i>
   </energy>
  </scstep>
  <scstep>
   <time name="dav">   11.16   11.22</time>
   <time name="total">   11.57   11.64</time>
   <energy>
    <i name="e_fr_energy">   -223.90062094 </i>
    <i name="e_wo_entrp">   -223.90062094 </i>
    <i name="e_0_energy">   -223.90062094 </i>
   </energy>
  </scstep>
  <scstep>
   <time name="dav">   11.59   11.64</time>
   <time name="total">   12.00   12.06</time>
   <energy>
    <i name="e_fr_energy">   -223.90062151 </i>
    <i name="e_wo_entrp">   -223.90062151 </i>
    <i name="e_0_energy">   -223.90062151 </i>
   </energy>
  </scstep>
  <scstep>
   <time name="dav">    8.65    8.69</time>
   <time name="total">    8.71    8.76</time>
   <energy>
    <i name="alphaZ">    751.52672365 </i>
    <i name="ewald"> -22871.33979096 </i>
    <i name="hartreedc">  -9078.16151028 </i>
    <i name="XCdc">   1472.51340748 </i>
    <i name="pawpsdc">  29498.30521622 </i>
    <i name="pawaedc"> -32317.67010069 </i>
    <i name="eentropy">     -0.00000000 </i>
    <i name="bandstr">  -5211.25403684 </i>
    <i name="atom">  37532.17946992 </i>
    <i name="e_fr_energy">   -223.90062150 </i>
    <i name="e_wo_entrp">   -223.90062150 </i>
    <i name="e_0_energy">   -223.90062150 </i>
   </energy>
  </scstep>
  <structure>
   <crystal>
    <varray name="basis" >
     <v>      11.20400236       0.00000000       0.00000000 </v>
     <v>       0.00000000      11.20400236       0.00000000 </v>
     <v>       0.00000000       0.00000000      11.20400236 </v>
    </varray>
    <i name="volume">   1406.43470641 </i>
    <varray name="rec_basis" >
     <v>       0.08925382       0.00000000       0.00000000 </v>
     <v>       0.00000000       0.08925382       0.00000000 </v>
     <v>       0.00000000       0.00000000       0.08925382 </v>
    </varray>
   </crystal>
   <varray name="positions" >
    <v>       0.99732239       0.00000000       0.00000000 </v>
    <v>       0.25000000       0.25000000       0.00000000 </v>
    <v>       0.25000000       0.00000000       0.25000000 </v>
    <v>       0.00000000       0.25000000       0.25000000 </v>
    <v>       0.00000000       0.00000000       0.50000000 </v>
    <v>       0.25000000       0.25000000       0.50000000 </v>
    <v>       0.25000000       0.00000000       0.75000000 </v>
    <v>       0.00000000       0.25000000       0.75000000 </v>
    <v>       0.00000000       0.50000000       0.00000000 </v>
    <v>       0.25000000       0.75000000       0.00000000 </v>
    <v>       0.25000000       0.50000000       0.25000000 </v>
    <v>       0.00000000       0.75000000       0.25000000 </v>
    <v>       0.00000000       0.50000000       0.50000000 </v>
    <v>       0.25000000       0.75000000       0.50000000 </v>
    <v>       0.25000000       0.50000000       0.75000000 </v>
    <v>       0.00000000       0.75000000       0.75000000 </v>
    <v>       0.50000000       0.00000000       0.00000000 </v>
    <v>       0.75000000       0.25000000       0.00000000 </v>
    <v>       0.75000000       0.00000000       0.25000000 </v>
    <v>       0.50000000       0.25000000       0.25000000 </v>
    <v>       0.50000000       0.00000000       0.50000000 </v>
    <v>       0.75000000       0.25000000       0.50000000 </v>
    <v>       0.75000000       0.00000000       0.75000000 </v>
    <v>       0.50000000       0.25000000       0.75000000 </v>
    <v>       0.50000000       0.50000000       0.00000000 </v>
    <v>       0.75000000       0.75000000       0.00000000 </v>
    <v>       0.75000000       0.50000000       0.25000000 </v>
    <v>       0.50000000       0.75000000       0.25000000 </v>
    <v>       0.50000000       0.50000000       0.50000000 </v>
    <v>       0.75000000       0.75000000       0.50000000 </v>
    <v>       0.75000000       0.50000000       0.75000000 </v>
    <v>       0.50000000       0.75000000       0.75000000 </v>
    <v>       0.25000000       0.25000000       0.25000000 </v>
    <v>       0.00000000       0.00000000       0.25000000 </v>
    <v>       0.00000000       0.25000000       0.00000000 </v>
    <v>       0.25000000       0.00267761       0.00000000 </v>
    <v>       0.25000000       0.25000000       0.75000000 </v>
    <v>       0.00000000       0.00000000       0.75000000 </v>
    <v>       0.00000000       0.25000000       0.50000000 </v>
    <v>       0.25000000       0.00000000       0.50000000 </v>
    <v>       0.25000000       0.75000000       0.25000000 </v>
    <v>       0.00000000       0.50000000       0.25000000 </v>
    <v>       0.00000000       0.75000000       0.00000000 </v>
    <v>       0.25000000       0.50000000       0.00000000 </v>
    <v>       0.25000000       0.75000000       0.75000000 </v>
    <v>       0.00000000       0.50000000       0.75000000 </v>
    <v>       0.00000000       0.75000000       0.50000000 </v>
    <v>       0.25000000       0.50000000       0.50000000 </v>
    <v>       0.75000000       0.25000000       0.25000000 </v>
    <v>       0.50000000       0.00000000       0.25000000 </v>
    <v>       0.50000000       0.25000000       0.00000000 </v>
    <v>       0.75000000       0.00000000       0.00000000 </v>
    <v>       0.75000000       0.25000000       0.75000000 </v>
    <v>       0.50000000       0.00000000       0.75000000 </v>
    <v>       0.50000000       0.25000000       0.50000000 </v>
    <v>       0.75000000       0.00000000       0.50000000 </v>
    <v>       0.75000000       0.75000000       0.25000000 </v>
    <v>       0.50000000       0.50000000       0.25000000 </v>
    <v>       0.50000000       0.75000000       0.00000000 </v>
    <v>       0.75000000       0.50000000       0.00000000 </v>
    <v>       0.75000000       0.75000000       0.75000000 </v>
    <v>       0.50000000       0.50000000       0.75000000 </v>
    <v>       0.50000000       0.75000000       0.50000000 </v>
    <v>       0.75000000       0.50000000       0.50000000 </v>
   </varray>
  </structure>
  <varray name="forces" >
   <v>       0.06288596       0.00511626       0.00000000 </v>
   <v>      -0.00147368       0.01447006       0.00000000 </v>
   <v>      -0.00150865       0.00503049      -0.00589265 </v>
   <v>       0.00296519      -0.00023352      -0.00131613 </v>
   <v>       0.00005184       0.00060807       0.00000000 </v>
   <v>       0.00002085       0.00024028       0.00000000 </v>
   <v>      -0.00150865       0.00503049       0.00589265 </v>
   <v>       0.00296519      -0.00023352       0.00131613 </v>
   <v>       0.00005484      -0.00282771       0.00000000 </v>
   <v>      -0.00154334       0.02199986       0.00000000 </v>
   <v>       0.00002035      -0.00283897       0.00007051 </v>
   <v>       0.00037052      -0.00021678       0.00126843 </v>
   <v>       0.00045573      -0.00067043       0.00000000 </v>
   <v>       0.00002081       0.00007869       0.00000000 </v>
   <v>       0.00002035      -0.00283897      -0.00007051 </v>
   <v>       0.00037052      -0.00021678      -0.00126843 </v>
   <v>      -0.00900545       0.00505653       0.00000000 </v>
   <v>      -0.00152235       0.00609336       0.00000000 </v>
   <v>      -0.00151369       0.00060881       0.00592529 </v>
   <v>      -0.00246510      -0.00021116      -0.00130128 </v>
   <v>      -0.00031102       0.00060678       0.00000000 </v>
   <v>       0.00003313      -0.00007193       0.00000000 </v>
   <v>      -0.00151369       0.00060881      -0.00592529 </v>
   <v>      -0.00246510      -0.00021116       0.00130128 </v>
   <v>      -0.00031070      -0.00284563       0.00000000 </v>
   <v>      -0.00150596      -0.00577837       0.00000000 </v>
   <v>       0.00003332      -0.00066982      -0.00008056 </v>
   <v>       0.00013194      -0.00024182       0.00130175 </v>
   <v>      -0.00044350      -0.00066992       0.00000000 </v>
   <v>       0.00003341       0.00007379       0.00000000 </v>
   <v>       0.00003332      -0.00066982       0.00008056 </v>
   <v>       0.00013194      -0.00024182      -0.00130175 </v>
   <v>       0.00023634       0.00520331       0.00717654 </v>
   <v>      -0.00495802      -0.00231594      -0.00015171 </v>
   <v>      -0.01085385       0.00377069       0.00000000 </v>
   <v>      -0.01615374      -0.07618514       0.00000000 </v>
   <v>       0.00023634       0.00520331      -0.00717654 </v>
   <v>      -0.00495802      -0.00231594       0.00015171 </v>
   <v>      -0.00116019      -0.00003747       0.00000000 </v>
   <v>      -0.00013900      -0.00153671       0.00000000 </v>
   <v>       0.00024799       0.00258212      -0.00445947 </v>
   <v>      -0.00058918       0.00153017       0.00001580 </v>
   <v>       0.00073110       0.00396221       0.00000000 </v>
   <v>      -0.00014090       0.00383769       0.00000000 </v>
   <v>       0.00024799       0.00258212       0.00445947 </v>
   <v>      -0.00058918       0.00153017      -0.00001580 </v>
   <v>      -0.00001882      -0.00004608       0.00000000 </v>
   <v>       0.00001072       0.00194405       0.00000000 </v>
   <v>       0.00021899      -0.00135855      -0.00072697 </v>
   <v>       0.00279291      -0.00233041      -0.00004315 </v>
   <v>       0.00873123       0.00392060       0.00000000 </v>
   <v>      -0.02022590      -0.00152912       0.00000000 </v>
   <v>       0.00021899      -0.00135855       0.00072697 </v>
   <v>       0.00279291      -0.00233041       0.00004315 </v>
   <v>       0.00123970      -0.00005533       0.00000000 </v>
   <v>      -0.00017360      -0.00050401       0.00000000 </v>
   <v>       0.00021321       0.00126673      -0.00187288 </v>
   <v>       0.00066323       0.00152985       0.00000207 </v>
   <v>      -0.00292716       0.00388996       0.00000000 </v>
   <v>      -0.00017275       0.00194441       0.00000000 </v>
   <v>       0.00021321       0.00126673       0.00187288 </v>
   <v>       0.00066323       0.00152985      -0.00000207 </v>
   <v>       0.00009266      -0.00003471       0.00000000 </v>
   <v>       0.00000121       0.00051026       0.00000000 </v>
  </varray>
  <varray name="stress" >
   <v>      -0.36604676      -0.00020352       0.00000000 </v>
   <v>      -0.00020345      -0.36591832       0.00000000 </v>
   <v>       0.00000000       0.00000000      -0.37769010 </v>
  </varray>
  <energy>
   <i name="e_fr_energy">   -223.90062150 </i>
   <i name="e_wo_entrp">   -223.90062150 </i>
   <i name="e_0_energy">   -223.90062150 </i>
  </energy>
  <time name="totalsc">  214.04  215.22</time>
  <eigenvalues>
   <array>
    <dimension dim="1">band</dimension>
    <dimension dim="2">kpoint</dimension>
    <dimension dim="3">spin</dimension>
    <field>eigene</field>
    <field>occ</field>
    <set>
     <set comment="spin 1">
      <set comment="kpoint 1">
       <r>  -21.3067    1.0000 </r>
       <r>  -21.3065    1.0000 </r>
       <r>  -21.3059    1.0000 </r>
       <r>  -21.3039    1.0000 </r>
       <r>  -21.3000    1.0000 </r>
       <r>  -21.2998    1.0000 </r>
       <r>  -21.2982    1.0000 </r>
       <r>  -21.2952    1.0000 </r>
       <r>  -21.2951    1.0000 </r>
       <r>  -21.2947    1.0000 </r>
       <r>  -21.2946    1.0000 </r>
       <r>  -21.2938    1.0000 </r>
       <r>  -21.2937    1.0000 </r>
       <r>  -21.2936    1.0000 </r>
       <r>  -21.2933    1.0000 </r>
       <r>  -21.2933    1.0000 </r>
       <r>  -21.2927    1.0000 </r>
       <r>  -21.2925    1.0000 </r>
       <r>  -21.2919    1.0000 </r>
       <r>  -21.2904    1.0000 </r>
       <r>  -21.2899    1.0000 </r>
       <r>  -21.2881    1.0000 </r>
       <r>  -21.2873    1.0000 </r>
       <r>  -21.2868    1.0000 </r>
       <r>  -21.2867    1.0000 </r>
       <r>  -21.2867    1.0000 </r>
       <r>  -21.2863    1.0000 </r>
       <r>  -21.2863    1.0000 </r>
       <r>  -21.2862    1.0000 </r>
       <r>  -21.2860    1.0000 </r>
       <r>  -21.2852    1.0000 </r>
       <r>  -21.2847    1.0000 </r>
       <r>  -21.2847    1.0000 </r>
       <r>  -21.2838    1.0000 </r>
       <r>  -21.2837    1.0000 </r>
       <r>  -21.2836    1.0000 </r>
       <r>  -21.2833    1.0000 </r>
       <r>  -21.2828    1.0000 </r>
       <r>  -21.2828    1.0000 </r>
       <r>  -21.2824    1.0000 </r>
       <r>  -21.2817    1.0000 </r>
       <r>  -21.2815    1.0000 </r>
       <r>  -21.2811    1.0000 </r>
       <r>  -21.2810    1.0000 </r>
       <r>  -21.2809    1.0000 </r>
       <r>  -21.2809    1.0000 </r>
       <r>  -21.2807    1.0000 </r>
       <r>  -21.2804    1.0000 </r>
       <r>  -21.2800    1.0000 </r>
       <r>  -21.2800    1.0000 </r>
       <r>  -21.2799    1.0000 </r>
       <r>  -21.2799    1.0000 </r>
       <r>  -21.2798    1.0000 </r>
       <r>  -21.2798    1.0000 </r>
       <r>  -21.2798    1.0000 </r>
       <r>  -21.2792    1.0000 </r>
       <r>  -21.2791    1.0000 </r>
       <r>  -21.2787    1.0000 </r>
       <r>  -21.2786    1.0000 </r>
       <r>  -21.2778    1.0000 </r>
       <r>  -21.2771    1.0000 </r>
       <r>  -21.2759    1.0000 </r>
       <r>  -21.2758    1.0000 </r>
       <r>  -21.2758    1.0000 </r>
       <r>  -21.2753    1.0000 </r>
       <r>  -21.2751    1.0000 </r>
       <r>  -21.2749    1.0000 </r>
       <r>  -21.2747    1.0000 </r>
       <r>  -21.2744    1.0000 </r>
       <r>  -21.2742    1.0000 </r>
       <r>  -21.2742    1.0000 </r>
       <r>  -21.2742    1.0000 </r>
       <r>  -21.2738    1.0000 </r>
       <r>  -21.2737    1.0000 </r>
       <r>  -21.2734    1.0000 </r>
       <r>  -21.2723    1.0000 </r>
       <r>  -21.2720    1.0000 </r>
       <r>  -21.2717    1.0000 </r>
       <r>  -21.2717    1.0000 </r>
       <r>  -21.2716    1.0000 </r>
       <r>  -21.2714    1.0000 </r>
       <r>  -21.2714    1.0000 </r>
       <r>  -21.2713    1.0000 </r>
       <r>  -21.2711    1.0000 </r>
       <r>  -21.2710    1.0000 </r>
       <r>  -21.2710    1.0000 </r>
       <r>  -21.2700    1.0000 </r>
       <r>  -21.2697    1.0000 </r>
       <r>  -21.2696    1.0000 </r>
       <r>  -21.2694    1.0000 </r>
       <r>  -21.2687    1.0000 </r>
       <r>  -21.2685    1.0000 </r>
       <r>  -21.2684    1.0000 </r>
       <r>  -21.2506    1.0000 </r>
       <r>  -21.2504    1.0000 </r>
       <r>  -21.2499    1.0000 </r>
       <r>  -13.3581    1.0000 </r>
       <r>  -13.1426    1.0000 </r>
       <r>  -13.1385    1.0000 </r>
       <r>  -13.1374    1.0000 </r>
       <r>  -13.1374    1.0000 </r>
       <r>  -13.1364    1.0000 </r>
       <r>  -13.1332    1.0000 </r>
       <r>  -13.0215    1.0000 </r>
       <r>  -13.0145    1.0000 </r>
       <r>  -13.0142    1.0000 </r>
       <r>  -13.0114    1.0000 </r>
       <r>  -13.0113    1.0000 </r>
       <r>  -13.0112    1.0000 </r>
       <r>  -13.0112    1.0000 </r>
       <r>  -13.0111    1.0000 </r>
       <r>  -13.0111    1.0000 </r>
       <r>  -13.0095    1.0000 </r>
       <r>  -13.0087    1.0000 </r>
       <r>  -13.0043    1.0000 </r>
       <r>  -12.9900    1.0000 </r>
       <r>  -12.9891    1.0000 </r>
       <r>  -12.9887    1.0000 </r>
       <r>  -12.9885    1.0000 </r>
       <r>  -12.9418    1.0000 </r>
       <r>  -12.9408    1.0000 </r>
       <r>  -12.9404    1.0000 </r>
       <r>  -12.9253    1.0000 </r>
       <r>  -12.9218    1.0000 </r>
       <r>  -12.9213    1.0000 </r>
       <r>  -12.9213    1.0000 </r>
       <r>  -12.9192    1.0000 </r>
       <r>  -12.9148    1.0000 </r>
       <r>   -2.7001    1.0000 </r>
       <r>   -2.7000    1.0000 </r>
       <r>   -2.7000    1.0000 </r>
       <r>   -2.7000    1.0000 </r>
       <r>   -2.4240    1.0000 </r>
       <r>   -2.4240    1.0000 </r>
       <r>   -2.4240    1.0000 </r>
       <r>   -2.2074    1.0000 </r>
       <r>   -2.2073    1.0000 </r>
       <r>   -2.2053    1.0000 </r>
       <r>   -2.2049    1.0000 </r>
       <r>   -2.2046    1.0000 </r>
       <r>   -2.2044    1.0000 </r>
       <r>   -2.2042    1.0000 </r>
       <r>   -2.2040    1.0000 </r>
       <r>   -2.2039    1.0000 </r>
       <r>   -2.2035    1.0000 </r>
       <r>   -2.2011    1.0000 </r>
       <r>   -2.2009    1.0000 </r>
       <r>   -1.9281    1.0000 </r>
       <r>   -1.9277    1.0000 </r>
       <r>   -1.9264    1.0000 </r>
       <r>   -1.9258    1.0000 </r>
       <r>   -1.9255    1.0000 </r>
       <r>   -1.9252    1.0000 </r>
       <r>   -1.9243    1.0000 </r>
       <r>   -1.9241    1.0000 </r>
       <r>   -1.9239    1.0000 </r>
       <r>   -1.9226    1.0000 </r>
       <r>   -1.9216    1.0000 </r>
       <r>   -1.9209    1.0000 </r>
       <r>   -1.7977    1.0000 </r>
       <r>   -1.7968    1.0000 </r>
       <r>   -1.7966    1.0000 </r>
       <r>   -1.7966    1.0000 </r>
       <r>   -1.7965    1.0000 </r>
       <r>   -1.7956    1.0000 </r>
       <r>   -1.5086    1.0000 </r>
       <r>   -1.5082    1.0000 </r>
       <r>   -1.5062    1.0000 </r>
       <r>   -1.5061    1.0000 </r>
       <r>   -1.5058    1.0000 </r>
       <r>   -1.5055    1.0000 </r>
       <r>   -1.5053    1.0000 </r>
       <r>   -1.5053    1.0000 </r>
       <r>   -1.5051    1.0000 </r>
       <r>   -1.5043    1.0000 </r>
       <r>   -1.5027    1.0000 </r>
       <r>   -1.5024    1.0000 </r>
       <r>   -1.4646    1.0000 </r>
       <r>   -1.4636    1.0000 </r>
       <r>   -1.4628    1.0000 </r>
       <r>   -1.4623    1.0000 </r>
       <r>   -1.4622    1.0000 </r>
       <r>   -1.4603    1.0000 </r>
       <r>   -1.2947    1.0000 </r>
       <r>   -1.2947    1.0000 </r>
       <r>   -1.2947    1.0000 </r>
       <r>   -1.2946    1.0000 </r>
       <r>   -1.2946    1.0000 </r>
       <r>   -1.2946    1.0000 </r>
       <r>   -1.0043    1.0000 </r>
       <r>   -1.0041    1.0000 </r>
       <r>   -1.0039    1.0000 </r>
       <r>   -1.0020    1.0000 </r>
       <r>   -1.0013    1.0000 </r>
       <r>   -1.0012    1.0000 </r>
       <r>   -1.0009    1.0000 </r>
       <r>   -1.0007    1.0000 </r>
       <r>   -1.0003    1.0000 </r>
       <r>   -0.9989    1.0000 </r>
       <r>   -0.9983    1.0000 </r>
       <r>   -0.9965    1.0000 </r>
       <r>   -0.9532    1.0000 </r>
       <r>   -0.9526    1.0000 </r>
       <r>   -0.9515    1.0000 </r>
       <r>   -0.9512    1.0000 </r>
       <r>   -0.9485    1.0000 </r>
       <r>   -0.9483    1.0000 </r>
       <r>   -0.9479    1.0000 </r>
       <r>   -0.9479    1.0000 </r>
       <r>   -0.9477    1.0000 </r>
       <r>   -0.9473    1.0000 </r>
       <r>   -0.9469    1.0000 </r>
       <r>   -0.9469    1.0000 </r>
       <r>   -0.9458    1.0000 </r>
       <r>   -0.9458    1.0000 </r>
       <r>   -0.9457    1.0000 </r>
       <r>   -0.9438    1.0000 </r>
       <r>   -0.9424    1.0000 </r>
       <r>   -0.9418    1.0000 </r>
       <r>   -0.9404    1.0000 </r>
       <r>   -0.9396    1.0000 </r>
       <r>   -0.6649    1.0000 </r>
       <r>   -0.6648    1.0000 </r>
       <r>   -0.6648    1.0000 </r>
       <r>    4.3403    0.0000 </r>
       <r>    6.3620    0.0000 </r>
       <r>    6.3657    0.0000 </r>
       <r>    6.3680    0.0000 </r>
       <r>    6.3680    0.0000 </r>
       <r>    6.3686    0.0000 </r>
       <r>    6.3759    0.0000 </r>
       <r>    6.4446    0.0000 </r>
       <r>    6.4447    0.0000 </r>
       <r>    6.4448    0.0000 </r>
       <r>    6.4448    0.0000 </r>
       <r>    6.8279    0.0000 </r>
       <r>    6.8280    0.0000 </r>
       <r>    6.8281    0.0000 </r>
       <r>    7.2068    0.0000 </r>
       <r>    7.2068    0.0000 </r>
       <r>    7.2069    0.0000 </r>
       <r>    7.4561    0.0000 </r>
       <r>    7.4590    0.0000 </r>
       <r>    7.4597    0.0000 </r>
       <r>    7.4616    0.0000 </r>
       <r>    7.4625    0.0000 </r>
       <r>    7.4626    0.0000 </r>
       <r>    7.4639    0.0000 </r>
       <r>    7.4643    0.0000 </r>
       <r>    7.4645    0.0000 </r>
       <r>    7.4694    0.0000 </r>
       <r>    7.4703    0.0000 </r>
       <r>    7.4760    0.0000 </r>
       <r>    8.1634    0.0000 </r>
       <r>    8.1667    0.0000 </r>
       <r>    8.1681    0.0000 </r>
       <r>    8.1681    0.0000 </r>
       <r>    8.1689    0.0000 </r>
       <r>    8.1747    0.0000 </r>
       <r>    8.2770    0.0000 </r>
       <r>    8.2784    0.0000 </r>
       <r>    8.2796    0.0000 </r>
       <r>    8.2796    0.0000 </r>
       <r>    8.2799    0.0000 </r>
       <r>    8.2830    0.0000 </r>
       <r>    8.8924    0.0000 </r>
       <r>    8.8932    0.0000 </r>
       <r>    8.8966    0.0000 </r>
       <r>    8.8973    0.0000 </r>
       <r>    8.8988    0.0000 </r>
       <r>    8.9005    0.0000 </r>
       <r>    8.9007    0.0000 </r>
       <r>    8.9010    0.0000 </r>
       <r>    8.9023    0.0000 </r>
       <r>    8.9041    0.0000 </r>
       <r>    8.9057    0.0000 </r>
       <r>    8.9064    0.0000 </r>
       <r>    8.9116    0.0000 </r>
       <r>    8.9130    0.0000 </r>
       <r>    8.9138    0.0000 </r>
       <r>    8.9150    0.0000 </r>
       <r>    8.9154    0.0000 </r>
       <r>    8.9162    0.0000 </r>
       <r>    8.9172    0.0000 </r>
       <r>    8.9174    0.0000 </r>
       <r>    8.9205    0.0000 </r>
       <r>    8.9286    0.0000 </r>
       <r>    8.9314    0.0000 </r>
      </set>
      <set comment="kpoint 2">
       <r>  -21.3039    1.0000 </r>
       <r>  -21.3037    1.0000 </r>
       <r>  -21.3028    1.0000 </r>
       <r>  -21.3026    1.0000 </r>
       <r>  -21.3024    1.0000 </r>
       <r>  -21.3009    1.0000 </r>
       <r>  -21.3004    1.0000 </r>
       <r>  -21.2986    1.0000 </r>
       <r>  -21.2958    1.0000 </r>
       <r>  -21.2945    1.0000 </r>
       <r>  -21.2940    1.0000 </r>
       <r>  -21.2940    1.0000 </r>
       <r>  -21.2938    1.0000 </r>
       <r>  -21.2927    1.0000 </r>
       <r>  -21.2926    1.0000 </r>
       <r>  -21.2921    1.0000 </r>
       <r>  -21.2920    1.0000 </r>
       <r>  -21.2919    1.0000 </r>
       <r>  -21.2917    1.0000 </r>
       <r>  -21.2915    1.0000 </r>
       <r>  -21.2910    1.0000 </r>
       <r>  -21.2909    1.0000 </r>
       <r>  -21.2891    1.0000 </r>
       <r>  -21.2882    1.0000 </r>
       <r>  -21.2882    1.0000 </r>
       <r>  -21.2881    1.0000 </r>
       <r>  -21.2880    1.0000 </r>
       <r>  -21.2872    1.0000 </r>
       <r>  -21.2870    1.0000 </r>
       <r>  -21.2869    1.0000 </r>
       <r>  -21.2864    1.0000 </r>
       <r>  -21.2862    1.0000 </r>
       <r>  -21.2859    1.0000 </r>
       <r>  -21.2857    1.0000 </r>
       <r>  -21.2841    1.0000 </r>
       <r>  -21.2834    1.0000 </r>
       <r>  -21.2829    1.0000 </r>
       <r>  -21.2829    1.0000 </r>
       <r>  -21.2829    1.0000 </r>
       <r>  -21.2828    1.0000 </r>
       <r>  -21.2824    1.0000 </r>
       <r>  -21.2821    1.0000 </r>
       <r>  -21.2816    1.0000 </r>
       <r>  -21.2811    1.0000 </r>
       <r>  -21.2806    1.0000 </r>
       <r>  -21.2800    1.0000 </r>
       <r>  -21.2797    1.0000 </r>
       <r>  -21.2794    1.0000 </r>
       <r>  -21.2788    1.0000 </r>
       <r>  -21.2785    1.0000 </r>
       <r>  -21.2782    1.0000 </r>
       <r>  -21.2779    1.0000 </r>
       <r>  -21.2779    1.0000 </r>
       <r>  -21.2778    1.0000 </r>
       <r>  -21.2776    1.0000 </r>
       <r>  -21.2772    1.0000 </r>
       <r>  -21.2771    1.0000 </r>
       <r>  -21.2770    1.0000 </r>
       <r>  -21.2765    1.0000 </r>
       <r>  -21.2764    1.0000 </r>
       <r>  -21.2762    1.0000 </r>
       <r>  -21.2758    1.0000 </r>
       <r>  -21.2758    1.0000 </r>
       <r>  -21.2756    1.0000 </r>
       <r>  -21.2755    1.0000 </r>
       <r>  -21.2749    1.0000 </r>
       <r>  -21.2749    1.0000 </r>
       <r>  -21.2748    1.0000 </r>
       <r>  -21.2746    1.0000 </r>
       <r>  -21.2745    1.0000 </r>
       <r>  -21.2742    1.0000 </r>
       <r>  -21.2741    1.0000 </r>
       <r>  -21.2740    1.0000 </r>
       <r>  -21.2739    1.0000 </r>
       <r>  -21.2739    1.0000 </r>
       <r>  -21.2735    1.0000 </r>
       <r>  -21.2727    1.0000 </r>
       <r>  -21.2726    1.0000 </r>
       <r>  -21.2724    1.0000 </r>
       <r>  -21.2721    1.0000 </r>
       <r>  -21.2716    1.0000 </r>
       <r>  -21.2715    1.0000 </r>
       <r>  -21.2713    1.0000 </r>
       <r>  -21.2713    1.0000 </r>
       <r>  -21.2712    1.0000 </r>
       <r>  -21.2709    1.0000 </r>
       <r>  -21.2703    1.0000 </r>
       <r>  -21.2703    1.0000 </r>
       <r>  -21.2703    1.0000 </r>
       <r>  -21.2698    1.0000 </r>
       <r>  -21.2697    1.0000 </r>
       <r>  -21.2690    1.0000 </r>
       <r>  -21.2688    1.0000 </r>
       <r>  -21.2507    1.0000 </r>
       <r>  -21.2504    1.0000 </r>
       <r>  -21.2499    1.0000 </r>
       <r>  -13.2938    1.0000 </r>
       <r>  -13.2888    1.0000 </r>
       <r>  -13.1048    1.0000 </r>
       <r>  -13.0988    1.0000 </r>
       <r>  -13.0982    1.0000 </r>
       <r>  -13.0972    1.0000 </r>
       <r>  -13.0966    1.0000 </r>
       <r>  -13.0957    1.0000 </r>
       <r>  -13.0949    1.0000 </r>
       <r>  -13.0909    1.0000 </r>
       <r>  -13.0093    1.0000 </r>
       <r>  -13.0033    1.0000 </r>
       <r>  -13.0012    1.0000 </r>
       <r>  -13.0011    1.0000 </r>
       <r>  -13.0006    1.0000 </r>
       <r>  -13.0006    1.0000 </r>
       <r>  -12.9981    1.0000 </r>
       <r>  -12.9965    1.0000 </r>
       <r>  -12.9965    1.0000 </r>
       <r>  -12.9907    1.0000 </r>
       <r>  -12.9504    1.0000 </r>
       <r>  -12.9459    1.0000 </r>
       <r>  -12.9451    1.0000 </r>
       <r>  -12.9445    1.0000 </r>
       <r>  -12.9435    1.0000 </r>
       <r>  -12.9426    1.0000 </r>
       <r>  -12.9419    1.0000 </r>
       <r>  -12.9370    1.0000 </r>
       <r>  -12.9347    1.0000 </r>
       <r>  -12.9307    1.0000 </r>
       <r>  -12.9306    1.0000 </r>
       <r>  -12.9228    1.0000 </r>
       <r>   -2.5081    1.0000 </r>
       <r>   -2.5081    1.0000 </r>
       <r>   -2.5065    1.0000 </r>
       <r>   -2.5051    1.0000 </r>
       <r>   -2.5036    1.0000 </r>
       <r>   -2.5023    1.0000 </r>
       <r>   -2.5007    1.0000 </r>
       <r>   -2.5007    1.0000 </r>
       <r>   -2.2902    1.0000 </r>
       <r>   -2.2901    1.0000 </r>
       <r>   -2.2852    1.0000 </r>
       <r>   -2.2852    1.0000 </r>
       <r>   -2.2769    1.0000 </r>
       <r>   -2.2716    1.0000 </r>
       <r>   -2.1417    1.0000 </r>
       <r>   -2.1376    1.0000 </r>
       <r>   -2.1365    1.0000 </r>
       <r>   -2.1363    1.0000 </r>
       <r>   -2.1363    1.0000 </r>
       <r>   -2.1362    1.0000 </r>
       <r>   -2.1358    1.0000 </r>
       <r>   -2.1311    1.0000 </r>
       <r>   -1.9879    1.0000 </r>
       <r>   -1.9877    1.0000 </r>
       <r>   -1.9859    1.0000 </r>
       <r>   -1.9854    1.0000 </r>
       <r>   -1.9852    1.0000 </r>
       <r>   -1.9849    1.0000 </r>
       <r>   -1.9832    1.0000 </r>
       <r>   -1.9831    1.0000 </r>
       <r>   -1.8122    1.0000 </r>
       <r>   -1.8122    1.0000 </r>
       <r>   -1.8105    1.0000 </r>
       <r>   -1.8100    1.0000 </r>
       <r>   -1.8098    1.0000 </r>
       <r>   -1.8075    1.0000 </r>
       <r>   -1.8053    1.0000 </r>
       <r>   -1.8027    1.0000 </r>
       <r>   -1.5001    1.0000 </r>
       <r>   -1.5000    1.0000 </r>
       <r>   -1.4955    1.0000 </r>
       <r>   -1.4955    1.0000 </r>
       <r>   -1.3859    1.0000 </r>
       <r>   -1.3805    1.0000 </r>
       <r>   -1.3804    1.0000 </r>
       <r>   -1.3752    1.0000 </r>
       <r>   -1.2151    1.0000 </r>
       <r>   -1.2150    1.0000 </r>
       <r>   -1.2107    1.0000 </r>
       <r>   -1.2100    1.0000 </r>
       <r>   -1.1934    1.0000 </r>
       <r>   -1.1931    1.0000 </r>
       <r>   -1.1929    1.0000 </r>
       <r>   -1.1912    1.0000 </r>
       <r>   -1.1905    1.0000 </r>
       <r>   -1.1904    1.0000 </r>
       <r>   -1.1895    1.0000 </r>
       <r>   -1.1889    1.0000 </r>
       <r>   -1.1796    1.0000 </r>
       <r>   -1.1760    1.0000 </r>
       <r>   -1.1758    1.0000 </r>
       <r>   -1.1755    1.0000 </r>
       <r>   -1.1734    1.0000 </r>
       <r>   -1.1730    1.0000 </r>
       <r>   -1.1721    1.0000 </r>
       <r>   -1.1692    1.0000 </r>
       <r>   -1.1625    1.0000 </r>
       <r>   -1.1612    1.0000 </r>
       <r>   -1.1609    1.0000 </r>
       <r>   -1.1603    1.0000 </r>
       <r>   -1.1601    1.0000 </r>
       <r>   -1.1584    1.0000 </r>
       <r>   -1.1559    1.0000 </r>
       <r>   -1.1541    1.0000 </r>
       <r>   -1.0856    1.0000 </r>
       <r>   -1.0807    1.0000 </r>
       <r>   -0.9517    1.0000 </r>
       <r>   -0.9517    1.0000 </r>
       <r>   -0.9472    1.0000 </r>
       <r>   -0.9469    1.0000 </r>
       <r>   -0.9469    1.0000 </r>
       <r>   -0.9468    1.0000 </r>
       <r>   -0.9428    1.0000 </r>
       <r>   -0.9419    1.0000 </r>
       <r>   -0.9373    1.0000 </r>
       <r>   -0.9337    1.0000 </r>
       <r>   -0.9337    1.0000 </r>
       <r>   -0.9322    1.0000 </r>
       <r>   -0.9322    1.0000 </r>
       <r>   -0.9321    1.0000 </r>
       <r>   -0.9304    1.0000 </r>
       <r>   -0.9248    1.0000 </r>
       <r>   -0.7707    1.0000 </r>
       <r>   -0.7706    1.0000 </r>
       <r>   -0.7658    1.0000 </r>
       <r>   -0.7658    1.0000 </r>
       <r>    5.0205    0.0000 </r>
       <r>    5.0241    0.0000 </r>
       <r>    6.7114    0.0000 </r>
       <r>    6.7140    0.0000 </r>
       <r>    6.7166    0.0000 </r>
       <r>    6.7176    0.0000 </r>
       <r>    6.7182    0.0000 </r>
       <r>    6.7194    0.0000 </r>
       <r>    6.7195    0.0000 </r>
       <r>    6.7282    0.0000 </r>
       <r>    6.8397    0.0000 </r>
       <r>    6.8399    0.0000 </r>
       <r>    6.8400    0.0000 </r>
       <r>    6.8403    0.0000 </r>
       <r>    6.8446    0.0000 </r>
       <r>    6.8452    0.0000 </r>
       <r>    6.8484    0.0000 </r>
       <r>    6.8484    0.0000 </r>
       <r>    6.9696    0.0000 </r>
       <r>    6.9727    0.0000 </r>
       <r>    7.3591    0.0000 </r>
       <r>    7.3623    0.0000 </r>
       <r>    7.3627    0.0000 </r>
       <r>    7.3661    0.0000 </r>
       <r>    7.4774    0.0000 </r>
       <r>    7.4831    0.0000 </r>
       <r>    7.7116    0.0000 </r>
       <r>    7.7116    0.0000 </r>
       <r>    7.7176    0.0000 </r>
       <r>    7.7176    0.0000 </r>
       <r>    8.2616    0.0000 </r>
       <r>    8.2621    0.0000 </r>
       <r>    8.2637    0.0000 </r>
       <r>    8.2643    0.0000 </r>
       <r>    8.2659    0.0000 </r>
       <r>    8.2662    0.0000 </r>
       <r>    8.2682    0.0000 </r>
       <r>    8.2750    0.0000 </r>
       <r>    8.5288    0.0000 </r>
       <r>    8.5326    0.0000 </r>
       <r>    8.5328    0.0000 </r>
       <r>    8.5358    0.0000 </r>
       <r>    8.5361    0.0000 </r>
       <r>    8.5365    0.0000 </r>
       <r>    8.5366    0.0000 </r>
       <r>    8.5371    0.0000 </r>
       <r>    8.5380    0.0000 </r>
       <r>    8.5388    0.0000 </r>
       <r>    8.5396    0.0000 </r>
       <r>    8.5397    0.0000 </r>
       <r>    8.5422    0.0000 </r>
       <r>    8.5449    0.0000 </r>
       <r>    8.5474    0.0000 </r>
       <r>    8.5493    0.0000 </r>
       <r>    8.9453    0.0000 </r>
       <r>    8.9460    0.0000 </r>
       <r>    8.9484    0.0000 </r>
       <r>    8.9485    0.0000 </r>
       <r>    8.9503    0.0000 </r>
       <r>    8.9517    0.0000 </r>
       <r>    8.9533    0.0000 </r>
       <r>    8.9640    0.0000 </r>
       <r>    9.4872    0.0000 </r>
       <r>    9.5042    0.0000 </r>
      </set>
      <set comment="kpoint 3">
       <r>  -21.3053    1.0000 </r>
       <r>  -21.3050    1.0000 </r>
       <r>  -21.3037    1.0000 </r>
       <r>  -21.3003    1.0000 </r>
       <r>  -21.2999    1.0000 </r>
       <r>  -21.2988    1.0000 </r>
       <r>  -21.2986    1.0000 </r>
       <r>  -21.2982    1.0000 </r>
       <r>  -21.2976    1.0000 </r>
       <r>  -21.2969    1.0000 </r>
       <r>  -21.2968    1.0000 </r>
       <r>  -21.2945    1.0000 </r>
       <r>  -21.2935    1.0000 </r>
       <r>  -21.2929    1.0000 </r>
       <r>  -21.2926    1.0000 </r>
       <r>  -21.2924    1.0000 </r>
       <r>  -21.2917    1.0000 </r>
       <r>  -21.2917    1.0000 </r>
       <r>  -21.2915    1.0000 </r>
       <r>  -21.2911    1.0000 </r>
       <r>  -21.2906    1.0000 </r>
       <r>  -21.2896    1.0000 </r>
       <r>  -21.2896    1.0000 </r>
       <r>  -21.2891    1.0000 </r>
       <r>  -21.2887    1.0000 </r>
       <r>  -21.2883    1.0000 </r>
       <r>  -21.2878    1.0000 </r>
       <r>  -21.2877    1.0000 </r>
       <r>  -21.2876    1.0000 </r>
       <r>  -21.2865    1.0000 </r>
       <r>  -21.2861    1.0000 </r>
       <r>  -21.2858    1.0000 </r>
       <r>  -21.2857    1.0000 </r>
       <r>  -21.2857    1.0000 </r>
       <r>  -21.2846    1.0000 </r>
       <r>  -21.2837    1.0000 </r>
       <r>  -21.2832    1.0000 </r>
       <r>  -21.2828    1.0000 </r>
       <r>  -21.2824    1.0000 </r>
       <r>  -21.2822    1.0000 </r>
       <r>  -21.2819    1.0000 </r>
       <r>  -21.2816    1.0000 </r>
       <r>  -21.2808    1.0000 </r>
       <r>  -21.2803    1.0000 </r>
       <r>  -21.2802    1.0000 </r>
       <r>  -21.2800    1.0000 </r>
       <r>  -21.2799    1.0000 </r>
       <r>  -21.2799    1.0000 </r>
       <r>  -21.2790    1.0000 </r>
       <r>  -21.2790    1.0000 </r>
       <r>  -21.2786    1.0000 </r>
       <r>  -21.2780    1.0000 </r>
       <r>  -21.2778    1.0000 </r>
       <r>  -21.2776    1.0000 </r>
       <r>  -21.2773    1.0000 </r>
       <r>  -21.2771    1.0000 </r>
       <r>  -21.2771    1.0000 </r>
       <r>  -21.2770    1.0000 </r>
       <r>  -21.2767    1.0000 </r>
       <r>  -21.2766    1.0000 </r>
       <r>  -21.2760    1.0000 </r>
       <r>  -21.2757    1.0000 </r>
       <r>  -21.2757    1.0000 </r>
       <r>  -21.2756    1.0000 </r>
       <r>  -21.2756    1.0000 </r>
       <r>  -21.2751    1.0000 </r>
       <r>  -21.2750    1.0000 </r>
       <r>  -21.2749    1.0000 </r>
       <r>  -21.2747    1.0000 </r>
       <r>  -21.2746    1.0000 </r>
       <r>  -21.2744    1.0000 </r>
       <r>  -21.2741    1.0000 </r>
       <r>  -21.2741    1.0000 </r>
       <r>  -21.2740    1.0000 </r>
       <r>  -21.2737    1.0000 </r>
       <r>  -21.2732    1.0000 </r>
       <r>  -21.2730    1.0000 </r>
       <r>  -21.2727    1.0000 </r>
       <r>  -21.2722    1.0000 </r>
       <r>  -21.2722    1.0000 </r>
       <r>  -21.2717    1.0000 </r>
       <r>  -21.2716    1.0000 </r>
       <r>  -21.2715    1.0000 </r>
       <r>  -21.2715    1.0000 </r>
       <r>  -21.2715    1.0000 </r>
       <r>  -21.2711    1.0000 </r>
       <r>  -21.2703    1.0000 </r>
       <r>  -21.2702    1.0000 </r>
       <r>  -21.2698    1.0000 </r>
       <r>  -21.2698    1.0000 </r>
       <r>  -21.2695    1.0000 </r>
       <r>  -21.2688    1.0000 </r>
       <r>  -21.2686    1.0000 </r>
       <r>  -21.2506    1.0000 </r>
       <r>  -21.2504    1.0000 </r>
       <r>  -21.2500    1.0000 </r>
       <r>  -13.2932    1.0000 </r>
       <r>  -13.2895    1.0000 </r>
       <r>  -13.1047    1.0000 </r>
       <r>  -13.0991    1.0000 </r>
       <r>  -13.0991    1.0000 </r>
       <r>  -13.0973    1.0000 </r>
       <r>  -13.0963    1.0000 </r>
       <r>  -13.0948    1.0000 </r>
       <r>  -13.0947    1.0000 </r>
       <r>  -13.0910    1.0000 </r>
       <r>  -13.0061    1.0000 </r>
       <r>  -13.0051    1.0000 </r>
       <r>  -13.0050    1.0000 </r>
       <r>  -13.0006    1.0000 </r>
       <r>  -13.0006    1.0000 </r>
       <r>  -13.0006    1.0000 </r>
       <r>  -12.9966    1.0000 </r>
       <r>  -12.9963    1.0000 </r>
       <r>  -12.9962    1.0000 </r>
       <r>  -12.9911    1.0000 </r>
       <r>  -12.9505    1.0000 </r>
       <r>  -12.9460    1.0000 </r>
       <r>  -12.9459    1.0000 </r>
       <r>  -12.9450    1.0000 </r>
       <r>  -12.9435    1.0000 </r>
       <r>  -12.9414    1.0000 </r>
       <r>  -12.9412    1.0000 </r>
       <r>  -12.9381    1.0000 </r>
       <r>  -12.9354    1.0000 </r>
       <r>  -12.9311    1.0000 </r>
       <r>  -12.9266    1.0000 </r>
       <r>  -12.9251    1.0000 </r>
       <r>   -2.5074    1.0000 </r>
       <r>   -2.5068    1.0000 </r>
       <r>   -2.5047    1.0000 </r>
       <r>   -2.5047    1.0000 </r>
       <r>   -2.5041    1.0000 </r>
       <r>   -2.5041    1.0000 </r>
       <r>   -2.5020    1.0000 </r>
       <r>   -2.5012    1.0000 </r>
       <r>   -2.2891    1.0000 </r>
       <r>   -2.2890    1.0000 </r>
       <r>   -2.2863    1.0000 </r>
       <r>   -2.2863    1.0000 </r>
       <r>   -2.2762    1.0000 </r>
       <r>   -2.2722    1.0000 </r>
       <r>   -2.1408    1.0000 </r>
       <r>   -2.1376    1.0000 </r>
       <r>   -2.1367    1.0000 </r>
       <r>   -2.1367    1.0000 </r>
       <r>   -2.1364    1.0000 </r>
       <r>   -2.1362    1.0000 </r>
       <r>   -2.1361    1.0000 </r>
       <r>   -2.1307    1.0000 </r>
       <r>   -1.9879    1.0000 </r>
       <r>   -1.9867    1.0000 </r>
       <r>   -1.9866    1.0000 </r>
       <r>   -1.9855    1.0000 </r>
       <r>   -1.9853    1.0000 </r>
       <r>   -1.9844    1.0000 </r>
       <r>   -1.9844    1.0000 </r>
       <r>   -1.9829    1.0000 </r>
       <r>   -1.8114    1.0000 </r>
       <r>   -1.8104    1.0000 </r>
       <r>   -1.8096    1.0000 </r>
       <r>   -1.8095    1.0000 </r>
       <r>   -1.8079    1.0000 </r>
       <r>   -1.8078    1.0000 </r>
       <r>   -1.8072    1.0000 </r>
       <r>   -1.8060    1.0000 </r>
       <r>   -1.5010    1.0000 </r>
       <r>   -1.5009    1.0000 </r>
       <r>   -1.4946    1.0000 </r>
       <r>   -1.4946    1.0000 </r>
       <r>   -1.3844    1.0000 </r>
       <r>   -1.3810    1.0000 </r>
       <r>   -1.3802    1.0000 </r>
       <r>   -1.3763    1.0000 </r>
       <r>   -1.2148    1.0000 </r>
       <r>   -1.2143    1.0000 </r>
       <r>   -1.2114    1.0000 </r>
       <r>   -1.2107    1.0000 </r>
       <r>   -1.1938    1.0000 </r>
       <r>   -1.1931    1.0000 </r>
       <r>   -1.1926    1.0000 </r>
       <r>   -1.1916    1.0000 </r>
       <r>   -1.1912    1.0000 </r>
       <r>   -1.1909    1.0000 </r>
       <r>   -1.1909    1.0000 </r>
       <r>   -1.1882    1.0000 </r>
       <r>   -1.1785    1.0000 </r>
       <r>   -1.1780    1.0000 </r>
       <r>   -1.1759    1.0000 </r>
       <r>   -1.1753    1.0000 </r>
       <r>   -1.1734    1.0000 </r>
       <r>   -1.1719    1.0000 </r>
       <r>   -1.1699    1.0000 </r>
       <r>   -1.1697    1.0000 </r>
       <r>   -1.1632    1.0000 </r>
       <r>   -1.1627    1.0000 </r>
       <r>   -1.1622    1.0000 </r>
       <r>   -1.1613    1.0000 </r>
       <r>   -1.1581    1.0000 </r>
       <r>   -1.1570    1.0000 </r>
       <r>   -1.1543    1.0000 </r>
       <r>   -1.1533    1.0000 </r>
       <r>   -1.0857    1.0000 </r>
       <r>   -1.0807    1.0000 </r>
       <r>   -0.9516    1.0000 </r>
       <r>   -0.9511    1.0000 </r>
       <r>   -0.9475    1.0000 </r>
       <r>   -0.9468    1.0000 </r>
       <r>   -0.9468    1.0000 </r>
       <r>   -0.9466    1.0000 </r>
       <r>   -0.9426    1.0000 </r>
       <r>   -0.9426    1.0000 </r>
       <r>   -0.9368    1.0000 </r>
       <r>   -0.9340    1.0000 </r>
       <r>   -0.9339    1.0000 </r>
       <r>   -0.9331    1.0000 </r>
       <r>   -0.9320    1.0000 </r>
       <r>   -0.9307    1.0000 </r>
       <r>   -0.9301    1.0000 </r>
       <r>   -0.9268    1.0000 </r>
       <r>   -0.7712    1.0000 </r>
       <r>   -0.7711    1.0000 </r>
       <r>   -0.7653    1.0000 </r>
       <r>   -0.7652    1.0000 </r>
       <r>    5.0188    0.0000 </r>
       <r>    5.0259    0.0000 </r>
       <r>    6.7117    0.0000 </r>
       <r>    6.7142    0.0000 </r>
       <r>    6.7146    0.0000 </r>
       <r>    6.7149    0.0000 </r>
       <r>    6.7184    0.0000 </r>
       <r>    6.7217    0.0000 </r>
       <r>    6.7219    0.0000 </r>
       <r>    6.7278    0.0000 </r>
       <r>    6.8384    0.0000 </r>
       <r>    6.8385    0.0000 </r>
       <r>    6.8403    0.0000 </r>
       <r>    6.8428    0.0000 </r>
       <r>    6.8436    0.0000 </r>
       <r>    6.8460    0.0000 </r>
       <r>    6.8482    0.0000 </r>
       <r>    6.8483    0.0000 </r>
       <r>    6.9684    0.0000 </r>
       <r>    6.9741    0.0000 </r>
       <r>    7.3562    0.0000 </r>
       <r>    7.3626    0.0000 </r>
       <r>    7.3626    0.0000 </r>
       <r>    7.3689    0.0000 </r>
       <r>    7.4789    0.0000 </r>
       <r>    7.4816    0.0000 </r>
       <r>    7.7110    0.0000 </r>
       <r>    7.7110    0.0000 </r>
       <r>    7.7182    0.0000 </r>
       <r>    7.7182    0.0000 </r>
       <r>    8.2577    0.0000 </r>
       <r>    8.2623    0.0000 </r>
       <r>    8.2637    0.0000 </r>
       <r>    8.2642    0.0000 </r>
       <r>    8.2653    0.0000 </r>
       <r>    8.2679    0.0000 </r>
       <r>    8.2681    0.0000 </r>
       <r>    8.2769    0.0000 </r>
       <r>    8.5283    0.0000 </r>
       <r>    8.5287    0.0000 </r>
       <r>    8.5326    0.0000 </r>
       <r>    8.5352    0.0000 </r>
       <r>    8.5353    0.0000 </r>
       <r>    8.5369    0.0000 </r>
       <r>    8.5375    0.0000 </r>
       <r>    8.5386    0.0000 </r>
       <r>    8.5386    0.0000 </r>
       <r>    8.5389    0.0000 </r>
       <r>    8.5395    0.0000 </r>
       <r>    8.5395    0.0000 </r>
       <r>    8.5415    0.0000 </r>
       <r>    8.5471    0.0000 </r>
       <r>    8.5490    0.0000 </r>
       <r>    8.5493    0.0000 </r>
       <r>    8.9440    0.0000 </r>
       <r>    8.9467    0.0000 </r>
       <r>    8.9471    0.0000 </r>
       <r>    8.9509    0.0000 </r>
       <r>    8.9514    0.0000 </r>
       <r>    8.9547    0.0000 </r>
       <r>    8.9553    0.0000 </r>
       <r>    8.9576    0.0000 </r>
       <r>    9.4958    0.0000 </r>
       <r>    9.5056    0.0000 </r>
      </set>
      <set comment="kpoint 4">
       <r>  -21.3048    1.0000 </r>
       <r>  -21.3040    1.0000 </r>
       <r>  -21.3038    1.0000 </r>
       <r>  -21.3001    1.0000 </r>
       <r>  -21.2997    1.0000 </r>
       <r>  -21.2996    1.0000 </r>
       <r>  -21.2996    1.0000 </r>
       <r>  -21.2995    1.0000 </r>
       <r>  -21.2986    1.0000 </r>
       <r>  -21.2983    1.0000 </r>
       <r>  -21.2956    1.0000 </r>
       <r>  -21.2939    1.0000 </r>
       <r>  -21.2929    1.0000 </r>
       <r>  -21.2921    1.0000 </r>
       <r>  -21.2921    1.0000 </r>
       <r>  -21.2919    1.0000 </r>
       <r>  -21.2918    1.0000 </r>
       <r>  -21.2917    1.0000 </r>
       <r>  -21.2912    1.0000 </r>
       <r>  -21.2910    1.0000 </r>
       <r>  -21.2908    1.0000 </r>
       <r>  -21.2897    1.0000 </r>
       <r>  -21.2896    1.0000 </r>
       <r>  -21.2889    1.0000 </r>
       <r>  -21.2888    1.0000 </r>
       <r>  -21.2887    1.0000 </r>
       <r>  -21.2883    1.0000 </r>
       <r>  -21.2879    1.0000 </r>
       <r>  -21.2878    1.0000 </r>
       <r>  -21.2867    1.0000 </r>
       <r>  -21.2847    1.0000 </r>
       <r>  -21.2845    1.0000 </r>
       <r>  -21.2844    1.0000 </r>
       <r>  -21.2843    1.0000 </r>
       <r>  -21.2841    1.0000 </r>
       <r>  -21.2840    1.0000 </r>
       <r>  -21.2838    1.0000 </r>
       <r>  -21.2838    1.0000 </r>
       <r>  -21.2827    1.0000 </r>
       <r>  -21.2822    1.0000 </r>
       <r>  -21.2821    1.0000 </r>
       <r>  -21.2814    1.0000 </r>
       <r>  -21.2813    1.0000 </r>
       <r>  -21.2808    1.0000 </r>
       <r>  -21.2807    1.0000 </r>
       <r>  -21.2806    1.0000 </r>
       <r>  -21.2805    1.0000 </r>
       <r>  -21.2801    1.0000 </r>
       <r>  -21.2801    1.0000 </r>
       <r>  -21.2785    1.0000 </r>
       <r>  -21.2782    1.0000 </r>
       <r>  -21.2781    1.0000 </r>
       <r>  -21.2776    1.0000 </r>
       <r>  -21.2774    1.0000 </r>
       <r>  -21.2772    1.0000 </r>
       <r>  -21.2772    1.0000 </r>
       <r>  -21.2769    1.0000 </r>
       <r>  -21.2767    1.0000 </r>
       <r>  -21.2766    1.0000 </r>
       <r>  -21.2765    1.0000 </r>
       <r>  -21.2765    1.0000 </r>
       <r>  -21.2763    1.0000 </r>
       <r>  -21.2762    1.0000 </r>
       <r>  -21.2760    1.0000 </r>
       <r>  -21.2758    1.0000 </r>
       <r>  -21.2755    1.0000 </r>
       <r>  -21.2753    1.0000 </r>
       <r>  -21.2753    1.0000 </r>
       <r>  -21.2744    1.0000 </r>
       <r>  -21.2743    1.0000 </r>
[...]
      </set>
     </set>
    </set>
   </array>
  </eigenvalues>
  <separator name="orbital magnetization" >
   <v name="MAGDIPOLOUT">      0.00000000      0.00000000      0.00000000</v>
  </separator>
  <dos>
   <i name="efermi">     -0.56229848 </i>
   <total>
    <array>
     <dimension dim="1">gridpoints</dimension>
     <dimension dim="2">spin</dimension>
     <field>energy</field>
     <field>total</field>
     <field>integrated</field>
     <set>
      <set comment="spin 1">
       <r>   -22.8473     0.0000     0.0000 </r>
       <r>   -22.7343     0.0000     0.0000 </r>
       <r>   -22.6213     0.0000     0.0000 </r>
       <r>   -22.5083     0.0000     0.0000 </r>
       <r>   -22.3954     0.0000     0.0000 </r>
       <r>   -22.2824     0.0000     0.0000 </r>
       <r>   -22.1694     0.0000     0.0000 </r>
       <r>   -22.0564     0.0000     0.0000 </r>
       <r>   -21.9434     0.0000     0.0000 </r>
       <r>   -21.8305     0.0000     0.0000 </r>
       <r>   -21.7175     0.0000     0.0000 </r>
       <r>   -21.6045     0.0000     0.0000 </r>
       <r>   -21.4915     0.0000     0.0000 </r>
       <r>   -21.3786     0.0000     0.0000 </r>
       <r>   -21.2656  1380.0502   155.9158 </r>
       <r>   -21.1526   319.3909   192.0000 </r>
       <r>   -21.0396     0.0000   192.0000 </r>
       <r>   -20.9266     0.0000   192.0000 </r>
       <r>   -20.8137     0.0000   192.0000 </r>
       <r>   -20.7007     0.0000   192.0000 </r>
       <r>   -20.5877     0.0000   192.0000 </r>
       <r>   -20.4747     0.0000   192.0000 </r>
       <r>   -20.3617     0.0000   192.0000 </r>
       <r>   -20.2488     0.0000   192.0000 </r>
       <r>   -20.1358     0.0000   192.0000 </r>
       <r>   -20.0228     0.0000   192.0000 </r>
       <r>   -19.9098     0.0000   192.0000 </r>
       <r>   -19.7969     0.0000   192.0000 </r>
       <r>   -19.6839     0.0000   192.0000 </r>
       <r>   -19.5709     0.0000   192.0000 </r>
       <r>   -19.4579     0.0000   192.0000 </r>
       <r>   -19.3449     0.0000   192.0000 </r>
       <r>   -19.2320     0.0000   192.0000 </r>
       <r>   -19.1190     0.0000   192.0000 </r>
       <r>   -19.0060     0.0000   192.0000 </r>
       <r>   -18.8930     0.0000   192.0000 </r>
       <r>   -18.7801     0.0000   192.0000 </r>
       <r>   -18.6671     0.0000   192.0000 </r>
       <r>   -18.5541     0.0000   192.0000 </r>
       <r>   -18.4411     0.0000   192.0000 </r>
       <r>   -18.3281     0.0000   192.0000 </r>
       <r>   -18.2152     0.0000   192.0000 </r>
       <r>   -18.1022     0.0000   192.0000 </r>
       <r>   -17.9892     0.0000   192.0000 </r>
       <r>   -17.8762     0.0000   192.0000 </r>
       <r>   -17.7632     0.0000   192.0000 </r>
       <r>   -17.6503     0.0000   192.0000 </r>
       <r>   -17.5373     0.0000   192.0000 </r>
       <r>   -17.4243     0.0000   192.0000 </r>
       <r>   -17.3113     0.0000   192.0000 </r>
       <r>   -17.1984     0.0000   192.0000 </r>
       <r>   -17.0854     0.0000   192.0000 </r>
       <r>   -16.9724     0.0000   192.0000 </r>
       <r>   -16.8594     0.0000   192.0000 </r>
       <r>   -16.7464     0.0000   192.0000 </r>
       <r>   -16.6335     0.0000   192.0000 </r>
       <r>   -16.5205     0.0000   192.0000 </r>
       <r>   -16.4075     0.0000   192.0000 </r>
       <r>   -16.2945     0.0000   192.0000 </r>
       <r>   -16.1816     0.0000   192.0000 </r>
       <r>   -16.0686     0.0000   192.0000 </r>
       <r>   -15.9556     0.0000   192.0000 </r>
       <r>   -15.8426     0.0000   192.0000 </r>
       <r>   -15.7296     0.0000   192.0000 </r>
       <r>   -15.6167     0.0000   192.0000 </r>
       <r>   -15.5037     0.0000   192.0000 </r>
       <r>   -15.3907     0.0000   192.0000 </r>
       <r>   -15.2777     0.0000   192.0000 </r>
       <r>   -15.1647     0.0000   192.0000 </r>
       <r>   -15.0518     0.0000   192.0000 </r>
       <r>   -14.9388     0.0000   192.0000 </r>
       <r>   -14.8258     0.0000   192.0000 </r>
       <r>   -14.7128     0.0000   192.0000 </r>
       <r>   -14.5999     0.0000   192.0000 </r>
       <r>   -14.4869     0.0000   192.0000 </r>
       <r>   -14.3739     0.0000   192.0000 </r>
       <r>   -14.2609     0.0000   192.0000 </r>
       <r>   -14.1479     0.0000   192.0000 </r>
       <r>   -14.0350     0.0000   192.0000 </r>
       <r>   -13.9220     0.0000   192.0000 </r>
       <r>   -13.8090     0.0000   192.0000 </r>
       <r>   -13.6960     0.0000   192.0000 </r>
       <r>   -13.5830     0.0000   192.0000 </r>
       <r>   -13.4701     0.0000   192.0000 </r>
       <r>   -13.3571     1.1685   192.1320 </r>
       <r>   -13.2441    19.5515   194.3409 </r>
       <r>   -13.1311    48.4866   199.8192 </r>
       <r>   -13.0182   126.1781   214.0749 </r>
       <r>   -12.9052   366.3979   255.4707 </r>
       <r>   -12.7922     4.6767   256.0000 </r>
       <r>   -12.6792     0.0000   256.0000 </r>
       <r>   -12.5662     0.0000   256.0000 </r>
       <r>   -12.4533     0.0000   256.0000 </r>
       <r>   -12.3403     0.0000   256.0000 </r>
       <r>   -12.2273     0.0000   256.0000 </r>
       <r>   -12.1143     0.0000   256.0000 </r>
       <r>   -12.0014     0.0000   256.0000 </r>
       <r>   -11.8884     0.0000   256.0000 </r>
       <r>   -11.7754     0.0000   256.0000 </r>
       <r>   -11.6624     0.0000   256.0000 </r>
       <r>   -11.5494     0.0000   256.0000 </r>
       <r>   -11.4365     0.0000   256.0000 </r>
       <r>   -11.3235     0.0000   256.0000 </r>
       <r>   -11.2105     0.0000   256.0000 </r>
       <r>   -11.0975     0.0000   256.0000 </r>
       <r>   -10.9845     0.0000   256.0000 </r>
       <r>   -10.8716     0.0000   256.0000 </r>
       <r>   -10.7586     0.0000   256.0000 </r>
       <r>   -10.6456     0.0000   256.0000 </r>
       <r>   -10.5326     0.0000   256.0000 </r>
       <r>   -10.4197     0.0000   256.0000 </r>
       <r>   -10.3067     0.0000   256.0000 </r>
       <r>   -10.1937     0.0000   256.0000 </r>
       <r>   -10.0807     0.0000   256.0000 </r>
       <r>    -9.9677     0.0000   256.0000 </r>
       <r>    -9.8548     0.0000   256.0000 </r>
       <r>    -9.7418     0.0000   256.0000 </r>
       <r>    -9.6288     0.0000   256.0000 </r>
       <r>    -9.5158     0.0000   256.0000 </r>
       <r>    -9.4029     0.0000   256.0000 </r>
       <r>    -9.2899     0.0000   256.0000 </r>
       <r>    -9.1769     0.0000   256.0000 </r>
       <r>    -9.0639     0.0000   256.0000 </r>
       <r>    -8.9509     0.0000   256.0000 </r>
       <r>    -8.8380     0.0000   256.0000 </r>
       <r>    -8.7250     0.0000   256.0000 </r>
       <r>    -8.6120     0.0000   256.0000 </r>
       <r>    -8.4990     0.0000   256.0000 </r>
       <r>    -8.3860     0.0000   256.0000 </r>
       <r>    -8.2731     0.0000   256.0000 </r>
       <r>    -8.1601     0.0000   256.0000 </r>
       <r>    -8.0471     0.0000   256.0000 </r>
       <r>    -7.9341     0.0000   256.0000 </r>
       <r>    -7.8212     0.0000   256.0000 </r>
       <r>    -7.7082     0.0000   256.0000 </r>
       <r>    -7.5952     0.0000   256.0000 </r>
       <r>    -7.4822     0.0000   256.0000 </r>
       <r>    -7.3692     0.0000   256.0000 </r>
       <r>    -7.2563     0.0000   256.0000 </r>
       <r>    -7.1433     0.0000   256.0000 </r>
       <r>    -7.0303     0.0000   256.0000 </r>
       <r>    -6.9173     0.0000   256.0000 </r>
       <r>    -6.8044     0.0000   256.0000 </r>
       <r>    -6.6914     0.0000   256.0000 </r>
       <r>    -6.5784     0.0000   256.0000 </r>
       <r>    -6.4654     0.0000   256.0000 </r>
       <r>    -6.3524     0.0000   256.0000 </r>
       <r>    -6.2395     0.0000   256.0000 </r>
       <r>    -6.1265     0.0000   256.0000 </r>
       <r>    -6.0135     0.0000   256.0000 </r>
       <r>    -5.9005     0.0000   256.0000 </r>
       <r>    -5.7875     0.0000   256.0000 </r>
       <r>    -5.6746     0.0000   256.0000 </r>
       <r>    -5.5616     0.0000   256.0000 </r>
       <r>    -5.4486     0.0000   256.0000 </r>
       <r>    -5.3356     0.0000   256.0000 </r>
       <r>    -5.2227     0.0000   256.0000 </r>
       <r>    -5.1097     0.0000   256.0000 </r>
       <r>    -4.9967     0.0000   256.0000 </r>
       <r>    -4.8837     0.0000   256.0000 </r>
       <r>    -4.7707     0.0000   256.0000 </r>
       <r>    -4.6578     0.0000   256.0000 </r>
       <r>    -4.5448     0.0000   256.0000 </r>
       <r>    -4.4318     0.0000   256.0000 </r>
       <r>    -4.3188     0.0000   256.0000 </r>
       <r>    -4.2058     0.0000   256.0000 </r>
       <r>    -4.0929     0.0000   256.0000 </r>
       <r>    -3.9799     0.0000   256.0000 </r>
       <r>    -3.8669     0.0000   256.0000 </r>
       <r>    -3.7539     0.0000   256.0000 </r>
       <r>    -3.6410     0.0000   256.0000 </r>
       <r>    -3.5280     0.0000   256.0000 </r>
       <r>    -3.4150     0.0000   256.0000 </r>
       <r>    -3.3020     0.0000   256.0000 </r>
       <r>    -3.1890     0.0000   256.0000 </r>
       <r>    -3.0761     0.0000   256.0000 </r>
       <r>    -2.9631     0.0000   256.0000 </r>
       <r>    -2.8501     0.0000   256.0000 </r>
       <r>    -2.7371     0.0384   256.0043 </r>
       <r>    -2.6242     8.8129   257.0000 </r>
       <r>    -2.5112    16.8542   258.9042 </r>
       <r>    -2.3982    87.8335   268.8274 </r>
       <r>    -2.2852    79.6892   277.8306 </r>
       <r>    -2.1722   157.7448   295.6525 </r>
       <r>    -2.0593    76.0990   304.2500 </r>
       <r>    -1.9463    54.6912   310.4289 </r>
       <r>    -1.8333    56.0791   316.7646 </r>
       <r>    -1.7203    79.5317   325.7500 </r>
       <r>    -1.6073     0.0000   325.7500 </r>
       <r>    -1.4944    51.5869   331.5782 </r>
       <r>    -1.3814   209.7415   355.2744 </r>
       <r>    -1.2684    30.4469   358.7143 </r>
       <r>    -1.1554   240.4775   385.8830 </r>
       <r>    -1.0425   147.2283   402.5167 </r>
       <r>    -0.9295   247.0168   430.4244 </r>
       <r>    -0.8165    71.9726   438.5561 </r>
       <r>    -0.7035    76.7990   447.2327 </r>
       <r>    -0.5905     6.7913   448.0000 </r>
       <r>    -0.4776     0.0000   448.0000 </r>
       <r>    -0.3646     0.0000   448.0000 </r>
       <r>    -0.2516     0.0000   448.0000 </r>
       <r>    -0.1386     0.0000   448.0000 </r>
       <r>    -0.0257     0.0000   448.0000 </r>
       <r>     0.0873     0.0000   448.0000 </r>
       <r>     0.2003     0.0000   448.0000 </r>
       <r>     0.3133     0.0000   448.0000 </r>
       <r>     0.4263     0.0000   448.0000 </r>
       <r>     0.5392     0.0000   448.0000 </r>
       <r>     0.6522     0.0000   448.0000 </r>
       <r>     0.7652     0.0000   448.0000 </r>
       <r>     0.8782     0.0000   448.0000 </r>
       <r>     0.9912     0.0000   448.0000 </r>
       <r>     1.1041     0.0000   448.0000 </r>
       <r>     1.2171     0.0000   448.0000 </r>
       <r>     1.3301     0.0000   448.0000 </r>
       <r>     1.4431     0.0000   448.0000 </r>
       <r>     1.5560     0.0000   448.0000 </r>
       <r>     1.6690     0.0000   448.0000 </r>
       <r>     1.7820     0.0000   448.0000 </r>
       <r>     1.8950     0.0000   448.0000 </r>
       <r>     2.0080     0.0000   448.0000 </r>
       <r>     2.1209     0.0000   448.0000 </r>
       <r>     2.2339     0.0000   448.0000 </r>
       <r>     2.3469     0.0000   448.0000 </r>
       <r>     2.4599     0.0000   448.0000 </r>
       <r>     2.5728     0.0000   448.0000 </r>
       <r>     2.6858     0.0000   448.0000 </r>
       <r>     2.7988     0.0000   448.0000 </r>
       <r>     2.9118     0.0000   448.0000 </r>
       <r>     3.0248     0.0000   448.0000 </r>
       <r>     3.1377     0.0000   448.0000 </r>
       <r>     3.2507     0.0000   448.0000 </r>
       <r>     3.3637     0.0000   448.0000 </r>
       <r>     3.4767     0.0000   448.0000 </r>
       <r>     3.5897     0.0000   448.0000 </r>
       <r>     3.7026     0.0000   448.0000 </r>
       <r>     3.8156     0.0000   448.0000 </r>
       <r>     3.9286     0.0000   448.0000 </r>
       <r>     4.0416     0.0000   448.0000 </r>
       <r>     4.1545     0.0000   448.0000 </r>
       <r>     4.2675     0.0000   448.0000 </r>
       <r>     4.3805     2.2079   448.2494 </r>
       <r>     4.4935     0.0049   448.2500 </r>
       <r>     4.6065     0.0000   448.2500 </r>
       <r>     4.7194     0.0000   448.2500 </r>
       <r>     4.8324     0.0000   448.2500 </r>
       <r>     4.9454     0.0000   448.2500 </r>
       <r>     5.0584    13.1982   449.7411 </r>
       <r>     5.1714     0.0787   449.7500 </r>
       <r>     5.2843     0.0000   449.7500 </r>
       <r>     5.3973     0.0000   449.7500 </r>
       <r>     5.5103     0.6150   449.8195 </r>
       <r>     5.6233    25.9388   452.7500 </r>
       <r>     5.7362     0.0000   452.7500 </r>
       <r>     5.8492    15.5983   454.5123 </r>
       <r>     5.9622     2.1043   454.7500 </r>
       <r>     6.0752     0.0000   454.7500 </r>
       <r>     6.1882     0.0000   454.7500 </r>
       <r>     6.3011     0.0000   454.7500 </r>
       <r>     6.4141    13.3991   456.2638 </r>
       <r>     6.5271     8.7281   457.2500 </r>
       <r>     6.6401    28.0550   460.4196 </r>
       <r>     6.7530    77.6334   469.1905 </r>
       <r>     6.8660    57.1125   475.6430 </r>
       <r>     6.9790    12.5668   477.0628 </r>
       <r>     7.0920     3.8702   477.5000 </r>
       <r>     7.2050     2.9733   477.8359 </r>
       <r>     7.3179     3.6919   478.2530 </r>
       <r>     7.4309    79.0123   487.1797 </r>
       <r>     7.5439   162.5720   505.5468 </r>
       <r>     7.6569    10.6485   506.7501 </r>
       <r>     7.7699    26.5513   509.7498 </r>
       <r>     7.8828     0.0137   509.7515 </r>
       <r>     7.9958    53.0928   515.7499 </r>
       <r>     8.1088     0.0003   515.7500 </r>
       <r>     8.2218    13.3465   517.2579 </r>
       <r>     8.3347    92.7234   527.7338 </r>
       <r>     8.4477     0.1424   527.7500 </r>
       <r>     8.5607   129.7559   542.4096 </r>
       <r>     8.6737    29.5667   545.7500 </r>
       <r>     8.7867     0.0000   545.7500 </r>
       <r>     8.8996    65.4375   553.1430 </r>
       <r>     9.0126   130.4347   567.8793 </r>
       <r>     9.1256    14.3435   569.5000 </r>
       <r>     9.2386    10.3514   570.6695 </r>
       <r>     9.3515    33.9049   574.5000 </r>
       <r>     9.4645     0.2498   574.5282 </r>
       <r>     9.5775    13.0271   576.0000 </r>
       <r>     9.6905     0.0000   576.0000 </r>
       <r>     9.8035     0.0000   576.0000 </r>
       <r>     9.9164     0.0000   576.0000 </r>
       <r>    10.0294     0.0000   576.0000 </r>
       <r>    10.1424     0.0000   576.0000 </r>
       <r>    10.2554     0.0000   576.0000 </r>
       <r>    10.3684     0.0000   576.0000 </r>
       <r>    10.4813     0.0000   576.0000 </r>
       <r>    10.5943     0.0000   576.0000 </r>
       <r>    10.7073     0.0000   576.0000 </r>
       <r>    10.8203     0.0000   576.0000 </r>
       <r>    10.9332     0.0000   576.0000 </r>
       <r>    11.0462     0.0000   576.0000 </r>
      </set>
     </set>
    </array>
   </total>
  </dos>
 </calculation>
 <structure name="finalpos" >
  <crystal>
   <varray name="basis" >
    <v>      11.20400236       0.00000000       0.00000000 </v>
    <v>       0.00000000      11.20400236       0.00000000 </v>
    <v>       0.00000000       0.00000000      11.20400236 </v>
   </varray>
   <i name="volume">   1406.43470641 </i>
   <varray name="rec_basis" >
    <v>       0.08925382       0.00000000       0.00000000 </v>
    <v>       0.00000000       0.08925382       0.00000000 </v>
    <v>       0.00000000       0.00000000       0.08925382 </v>
   </varray>
  </crystal>
  <varray name="positions" >
   <v>       0.99732239       0.00000000       0.00000000 </v>
   <v>       0.25000000       0.25000000       0.00000000 </v>
   <v>       0.25000000       0.00000000       0.25000000 </v>
   <v>       0.00000000       0.25000000       0.25000000 </v>
   <v>       0.00000000       0.00000000       0.50000000 </v>
   <v>       0.25000000       0.25000000       0.50000000 </v>
   <v>       0.25000000       0.00000000       0.75000000 </v>
   <v>       0.00000000       0.25000000       0.75000000 </v>
   <v>       0.00000000       0.50000000       0.00000000 </v>
   <v>       0.25000000       0.75000000       0.00000000 </v>
   <v>       0.25000000       0.50000000       0.25000000 </v>
   <v>       0.00000000       0.75000000       0.25000000 </v>
   <v>       0.00000000       0.50000000       0.50000000 </v>
   <v>       0.25000000       0.75000000       0.50000000 </v>
   <v>       0.25000000       0.50000000       0.75000000 </v>
   <v>       0.00000000       0.75000000       0.75000000 </v>
   <v>       0.50000000       0.00000000       0.00000000 </v>
   <v>       0.75000000       0.25000000       0.00000000 </v>
   <v>       0.75000000       0.00000000       0.25000000 </v>
   <v>       0.50000000       0.25000000       0.25000000 </v>
   <v>       0.50000000       0.00000000       0.50000000 </v>
   <v>       0.75000000       0.25000000       0.50000000 </v>
   <v>       0.75000000       0.00000000       0.75000000 </v>
   <v>       0.50000000       0.25000000       0.75000000 </v>
   <v>       0.50000000       0.50000000       0.00000000 </v>
   <v>       0.75000000       0.75000000       0.00000000 </v>
   <v>       0.75000000       0.50000000       0.25000000 </v>
   <v>       0.50000000       0.75000000       0.25000000 </v>
   <v>       0.50000000       0.50000000       0.50000000 </v>
   <v>       0.75000000       0.75000000       0.50000000 </v>
   <v>       0.75000000       0.50000000       0.75000000 </v>
   <v>       0.50000000       0.75000000       0.75000000 </v>
   <v>       0.25000000       0.25000000       0.25000000 </v>
   <v>       0.00000000       0.00000000       0.25000000 </v>
   <v>       0.00000000       0.25000000       0.00000000 </v>
   <v>       0.25000000       0.00267761       0.00000000 </v>
   <v>       0.25000000       0.25000000       0.75000000 </v>
   <v>       0.00000000       0.00000000       0.75000000 </v>
   <v>       0.00000000       0.25000000       0.50000000 </v>
   <v>       0.25000000       0.00000000       0.50000000 </v>
   <v>       0.25000000       0.75000000       0.25000000 </v>
   <v>       0.00000000       0.50000000       0.25000000 </v>
   <v>       0.00000000       0.75000000       0.00000000 </v>
   <v>       0.25000000       0.50000000       0.00000000 </v>
   <v>       0.25000000       0.75000000       0.75000000 </v>
   <v>       0.00000000       0.50000000       0.75000000 </v>
   <v>       0.00000000       0.75000000       0.50000000 </v>
   <v>       0.25000000       0.50000000       0.50000000 </v>
   <v>       0.75000000       0.25000000       0.25000000 </v>
   <v>       0.50000000       0.00000000       0.25000000 </v>
   <v>       0.50000000       0.25000000       0.00000000 </v>
   <v>       0.75000000       0.00000000       0.00000000 </v>
   <v>       0.75000000       0.25000000       0.75000000 </v>
   <v>       0.50000000       0.00000000       0.75000000 </v>
   <v>       0.50000000       0.25000000       0.50000000 </v>
   <v>       0.75000000       0.00000000       0.50000000 </v>
   <v>       0.75000000       0.75000000       0.25000000 </v>
   <v>       0.50000000       0.50000000       0.25000000 </v>
   <v>       0.50000000       0.75000000       0.00000000 </v>
   <v>       0.75000000       0.50000000       0.00000000 </v>
   <v>       0.75000000       0.75000000       0.75000000 </v>
   <v>       0.50000000       0.50000000       0.75000000 </v>
   <v>       0.50000000       0.75000000       0.50000000 </v>
   <v>       0.75000000       0.50000000       0.50000000 </v>
  </varray>
 </structure>
</modeling>
