  64  64   0   0
  0.2006348E+02  0.1086915E-08  0.1086915E-08  0.1086915E-08  0.5000000E-15
  1.000000000000000E-004
  CAR 
 unknown system                          
     10.09972080     -6.98195478  301      5.89335819      1.00000000
     -6.982  0.0000E+00  0.0000E+00
     -6.925  0.0000E+00  0.0000E+00
     -6.868  0.0000E+00  0.0000E+00
     -6.811  0.0000E+00  0.0000E+00
     -6.754  0.0000E+00  0.0000E+00
     -6.697  0.0000E+00  0.0000E+00
     -6.640  0.0000E+00  0.0000E+00
     -6.583  0.0000E+00  0.0000E+00
     -6.526  0.0000E+00  0.0000E+00
     -6.470  0.0000E+00  0.0000E+00
     -6.413  0.0000E+00  0.0000E+00
     -6.356  0.0000E+00  0.0000E+00
     -6.299  0.9766E-10  0.5561E-11
     -6.242  0.2284E-01  0.1300E-02
     -6.185  0.4054E+01  0.2321E+00
     -6.128  0.3143E+00  0.2500E+00
     -6.071  0.8811E-07  0.2500E+00
     -6.014  0.9183E-07  0.2500E+00
     -5.957  0.1014E+01  0.3077E+00
     -5.900  0.2501E+02  0.1732E+01
     -5.843  0.3183E+00  0.1750E+01
     -5.786  0.4531E-08  0.1750E+01
     -5.729  0.1043E-03  0.1750E+01
     -5.672  0.1452E+02  0.2577E+01
     -5.615  0.3815E+02  0.4749E+01
     -5.558  0.1638E-01  0.4750E+01
     -5.502  0.9922E-10  0.4750E+01
     -5.445  0.7023E-01  0.4754E+01
     -5.388  0.3053E+02  0.6492E+01
     -5.331  0.4524E+01  0.6750E+01
     -5.274  0.4764E-05  0.6750E+01
     -5.217  0.2208E-09  0.6750E+01
     -5.160  0.8568E-01  0.6755E+01
     -5.103  0.2366E+02  0.8102E+01
     -5.046  0.2603E+01  0.8250E+01
     -4.989  0.1537E-05  0.8250E+01
     -4.932  0.1537E-02  0.8250E+01
     -4.875  0.4539E+02  0.1083E+02
     -4.818  0.5997E+02  0.1425E+02
     -4.761  0.6718E-02  0.1425E+02
     -4.704  0.1251E-02  0.1425E+02
     -4.647  0.4298E+02  0.1670E+02
     -4.591  0.6239E+02  0.2025E+02
     -4.534  0.8913E-02  0.2025E+02
     -4.477  0.0000E+00  0.2025E+02
     -4.420  0.0000E+00  0.2025E+02
     -4.363  0.0000E+00  0.2025E+02
     -4.306  0.0000E+00  0.2025E+02
     -4.249  0.1497E-08  0.2025E+02
     -4.192  0.2624E+00  0.2026E+02
     -4.135  0.4817E+02  0.2301E+02
     -4.078  0.4263E+01  0.2325E+02
     -4.021  0.5731E+02  0.2651E+02
     -3.964  0.4806E+02  0.2925E+02
     -3.907  0.1120E-01  0.2925E+02
     -3.850  0.1347E+02  0.3002E+02
     -3.793  0.2535E+02  0.3146E+02
     -3.736  0.5080E+01  0.3175E+02
     -3.679  0.2463E-04  0.3175E+02
     -3.623  0.1205E+02  0.3244E+02
     -3.566  0.9304E+02  0.3773E+02
     -3.509  0.2029E+01  0.3785E+02
     -3.452  0.9980E+02  0.4353E+02
     -3.395  0.3825E+01  0.4375E+02
     -3.338  0.1342E+02  0.4451E+02
     -3.281  0.9173E+02  0.4974E+02
     -3.224  0.2266E+00  0.4975E+02
     -3.167  0.1165E-07  0.4975E+02
     -3.110  0.9568E+00  0.4980E+02
     -3.053  0.9896E+02  0.5544E+02
     -2.996  0.5462E+01  0.5575E+02
     -2.939  0.1027E-05  0.5575E+02
     -2.882  0.0000E+00  0.5575E+02
     -2.825  0.0000E+00  0.5575E+02
     -2.768  0.0000E+00  0.5575E+02
     -2.712  0.0000E+00  0.5575E+02
     -2.655  0.0000E+00  0.5575E+02
     -2.598  0.0000E+00  0.5575E+02
     -2.541  0.3224E-06  0.5575E+02
     -2.484  0.2399E+01  0.5589E+02
     -2.427  0.4975E+02  0.5872E+02
     -2.370  0.5415E+00  0.5875E+02
     -2.313  0.6760E-08  0.5875E+02
     -2.256  0.0000E+00  0.5875E+02
     -2.199  0.0000E+00  0.5875E+02
     -2.142  0.3279E-08  0.5875E+02
     -2.085  0.2600E+00  0.5876E+02
     -2.028  0.2482E+02  0.6018E+02
     -1.971  0.5437E+02  0.6327E+02
     -1.914  0.5299E+02  0.6629E+02
     -1.857  0.4990E+02  0.6913E+02
     -1.801  0.2074E+01  0.6925E+02
     -1.744  0.2727E-06  0.6925E+02
     -1.687  0.0000E+00  0.6925E+02
     -1.630  0.0000E+00  0.6925E+02
     -1.573  0.2247E-12  0.6925E+02
     -1.516  0.4735E-02  0.6925E+02
     -1.459  0.3190E+02  0.7107E+02
     -1.402  0.2078E+02  0.7225E+02
     -1.345  0.4888E-03  0.7225E+02
     -1.288  0.1504E-02  0.7225E+02
     -1.231  0.1052E+02  0.7285E+02
     -1.174  0.7041E+01  0.7325E+02
     -1.117  0.1814E-03  0.7325E+02
     -1.060  0.6553E+01  0.7362E+02
     -1.003  0.9806E+02  0.7921E+02
     -0.946  0.7604E+00  0.7925E+02
     -0.889  0.8579E-07  0.7925E+02
     -0.833  0.2061E+01  0.7937E+02
     -0.776  0.1004E+03  0.8508E+02
     -0.719  0.2924E+01  0.8525E+02
     -0.662  0.3288E+01  0.8544E+02
     -0.605  0.1961E+03  0.9660E+02
     -0.548  0.1137E+02  0.9725E+02
     -0.491  0.9298E-05  0.9725E+02
     -0.434  0.0000E+00  0.9725E+02
     -0.377  0.0000E+00  0.9725E+02
     -0.320  0.0000E+00  0.9725E+02
     -0.263  0.1052E-03  0.9725E+02
     -0.206  0.2332E+02  0.9858E+02
     -0.149  0.8199E+02  0.1032E+03
     -0.092  0.6828E-01  0.1032E+03
     -0.035  0.4507E-03  0.1033E+03
      0.022  0.1191E+02  0.1039E+03
      0.078  0.1443E+02  0.1047E+03
      0.135  0.1255E-02  0.1048E+03
      0.192  0.1103E-07  0.1048E+03
      0.249  0.6020E+00  0.1048E+03
      0.306  0.4970E+02  0.1076E+03
      0.363  0.2388E+01  0.1077E+03
      0.420  0.8584E-01  0.1078E+03
      0.477  0.8437E+02  0.1126E+03
      0.534  0.2092E+02  0.1137E+03
      0.591  0.6683E-04  0.1138E+03
      0.648  0.0000E+00  0.1138E+03
      0.705  0.0000E+00  0.1138E+03
      0.762  0.0000E+00  0.1138E+03
      0.819  0.0000E+00  0.1138E+03
      0.876  0.0000E+00  0.1138E+03
      0.933  0.0000E+00  0.1138E+03
      0.989  0.0000E+00  0.1138E+03
      1.046  0.0000E+00  0.1138E+03
      1.103  0.0000E+00  0.1138E+03
      1.160  0.0000E+00  0.1138E+03
      1.217  0.0000E+00  0.1138E+03
      1.274  0.0000E+00  0.1138E+03
      1.331  0.3421E-07  0.1138E+03
      1.388  0.1076E+01  0.1138E+03
      1.445  0.5251E+02  0.1168E+03
      1.502  0.1784E+03  0.1270E+03
      1.559  0.3149E+02  0.1287E+03
      1.616  0.2015E-03  0.1288E+03
      1.673  0.0000E+00  0.1288E+03
      1.730  0.1107E-08  0.1288E+03
      1.787  0.1986E+00  0.1288E+03
      1.844  0.3381E+02  0.1307E+03
      1.901  0.5279E+02  0.1337E+03
      1.957  0.8017E+01  0.1341E+03
      2.014  0.4559E+02  0.1367E+03
      2.071  0.1028E+00  0.1367E+03
      2.128  0.5328E-04  0.1368E+03
      2.185  0.1888E+02  0.1378E+03
      2.242  0.9324E+02  0.1431E+03
      2.299  0.1131E+03  0.1496E+03
      2.356  0.1303E+03  0.1570E+03
      2.413  0.9217E+02  0.1622E+03
      2.470  0.2111E+00  0.1622E+03
      2.527  0.2818E-09  0.1622E+03
      2.584  0.0000E+00  0.1622E+03
      2.641  0.0000E+00  0.1622E+03
      2.698  0.0000E+00  0.1622E+03
      2.755  0.0000E+00  0.1622E+03
      2.812  0.2519E-08  0.1623E+03
      2.868  0.2490E+00  0.1623E+03
      2.925  0.2486E+02  0.1637E+03
      2.982  0.5159E+02  0.1666E+03
      3.039  0.1444E+03  0.1748E+03
      3.096  0.6422E+02  0.1785E+03
      3.153  0.7357E+02  0.1827E+03
      3.210  0.8892E+02  0.1877E+03
      3.267  0.9936E+01  0.1883E+03
      3.324  0.1109E+03  0.1946E+03
      3.381  0.3722E+02  0.1967E+03
      3.438  0.1255E-01  0.1967E+03
      3.495  0.2966E-02  0.1968E+03
      3.552  0.5086E+02  0.1996E+03
      3.609  0.1485E+03  0.2081E+03
      3.666  0.1138E+02  0.2087E+03
      3.723  0.8173E-05  0.2088E+03
      3.780  0.2584E-07  0.2088E+03
      3.836  0.8969E+00  0.2088E+03
      3.893  0.5443E+02  0.2119E+03
      3.950  0.1015E+03  0.2177E+03
      4.007  0.1269E+01  0.2177E+03
      4.064  0.3337E-02  0.2178E+03
      4.121  0.3036E+02  0.2195E+03
      4.178  0.8643E+02  0.2244E+03
      4.235  0.4127E+02  0.2267E+03
      4.292  0.2726E+00  0.2268E+03
      4.349  0.9297E+02  0.2321E+03
      4.406  0.1365E+02  0.2328E+03
      4.463  0.7558E+02  0.2371E+03
      4.520  0.9739E+02  0.2427E+03
      4.577  0.3391E+02  0.2446E+03
      4.634  0.1114E+02  0.2452E+03
      4.691  0.1404E-03  0.2452E+03
      4.747  0.0000E+00  0.2452E+03
      4.804  0.0000E+00  0.2452E+03
      4.861  0.1043E-08  0.2453E+03
      4.918  0.2463E+00  0.2453E+03
      4.975  0.4914E+02  0.2481E+03
      5.032  0.7035E+02  0.2521E+03
      5.089  0.3203E+01  0.2522E+03
      5.146  0.8166E-06  0.2522E+03
      5.203  0.0000E+00  0.2522E+03
      5.260  0.0000E+00  0.2522E+03
      5.317  0.0000E+00  0.2522E+03
      5.374  0.2076E-11  0.2523E+03
      5.431  0.1346E-01  0.2523E+03
      5.488  0.3681E+02  0.2543E+03
      5.545  0.1586E+02  0.2552E+03
      5.602  0.1645E-03  0.2552E+03
      5.658  0.1048E-13  0.2552E+03
      5.715  0.4755E-03  0.2553E+03
      5.772  0.6733E+01  0.2556E+03
      5.829  0.6438E+01  0.2560E+03
      5.886  0.3749E-03  0.2560E+03
      5.943  0.0000E+00  0.2560E+03
      6.000  0.0000E+00  0.2560E+03
      6.057  0.0000E+00  0.2560E+03
      6.114  0.0000E+00  0.2560E+03
      6.171  0.1994E-12  0.2560E+03
      6.228  0.3281E-02  0.2560E+03
      6.285  0.1687E+02  0.2570E+03
      6.342  0.1067E+02  0.2576E+03
      6.399  0.2488E+02  0.2590E+03
      6.456  0.2698E+00  0.2590E+03
      6.513  0.3334E-08  0.2590E+03
      6.570  0.0000E+00  0.2590E+03
      6.626  0.0000E+00  0.2590E+03
      6.683  0.0000E+00  0.2590E+03
      6.740  0.2441E-04  0.2590E+03
      6.797  0.5889E+01  0.2593E+03
      6.854  0.3133E+02  0.2611E+03
      6.911  0.4178E+02  0.2635E+03
      6.968  0.3646E-01  0.2635E+03
      7.025  0.1342E-10  0.2635E+03
      7.082  0.7009E-11  0.2635E+03
      7.139  0.2971E-01  0.2635E+03
      7.196  0.8725E+02  0.2685E+03
      7.253  0.6076E+02  0.2719E+03
      7.310  0.1244E+01  0.2720E+03
      7.367  0.3425E-06  0.2720E+03
      7.424  0.0000E+00  0.2720E+03
      7.481  0.0000E+00  0.2720E+03
      7.537  0.1860E-08  0.2720E+03
      7.594  0.4838E+00  0.2720E+03
      7.651  0.1647E+03  0.2814E+03
      7.708  0.5806E+02  0.2847E+03
      7.765  0.4883E+02  0.2875E+03
      7.822  0.1069E+00  0.2875E+03
      7.879  0.9677E-03  0.2875E+03
      7.936  0.4114E+02  0.2898E+03
      7.993  0.6422E+02  0.2935E+03
      8.050  0.2589E+02  0.2950E+03
      8.107  0.8056E+02  0.2996E+03
      8.164  0.1445E+03  0.3078E+03
      8.221  0.1249E+02  0.3085E+03
      8.278  0.3244E+01  0.3087E+03
      8.335  0.1063E+03  0.3147E+03
      8.392  0.9006E+01  0.3152E+03
      8.448  0.3879E-05  0.3153E+03
      8.505  0.4429E-01  0.3153E+03
      8.562  0.7901E+02  0.3198E+03
      8.619  0.2632E+02  0.3212E+03
      8.676  0.1444E-03  0.3213E+03
      8.733  0.6488E+00  0.3213E+03
      8.790  0.1214E+03  0.3282E+03
      8.847  0.6222E+02  0.3317E+03
      8.904  0.1639E+00  0.3317E+03
      8.961  0.3715E-08  0.3318E+03
      9.018  0.1395E+00  0.3318E+03
      9.075  0.1245E+02  0.3325E+03
      9.132  0.5791E+00  0.3325E+03
      9.189  0.6205E-01  0.3325E+03
      9.246  0.3007E+02  0.3342E+03
      9.303  0.7490E+01  0.3346E+03
      9.360  0.2375E+02  0.3360E+03
      9.416  0.9448E-01  0.3360E+03
      9.473  0.2916E-09  0.3360E+03
      9.530  0.0000E+00  0.3360E+03
      9.587  0.0000E+00  0.3360E+03
      9.644  0.0000E+00  0.3360E+03
      9.701  0.0000E+00  0.3360E+03
      9.758  0.0000E+00  0.3360E+03
      9.815  0.0000E+00  0.3360E+03
      9.872  0.0000E+00  0.3360E+03
      9.929  0.0000E+00  0.3360E+03
      9.986  0.0000E+00  0.3360E+03
     10.043  0.0000E+00  0.3360E+03
     10.100  0.0000E+00  0.3360E+03
