       N       E                     dE             d eps       ncg     rms          rms(c)
DAV:   1     0.451013611713E+03    0.45101E+03   -0.72608E+04  2688   0.852E+02
DAV:   2    -0.322071573486E+03   -0.77309E+03   -0.73078E+03  3232   0.155E+02
DAV:   3    -0.373414441369E+03   -0.51343E+02   -0.50481E+02  3304   0.365E+01
DAV:   4    -0.374597919792E+03   -0.11835E+01   -0.11750E+01  3224   0.671E+00
DAV:   5    -0.374640544129E+03   -0.42624E-01   -0.42572E-01  3184   0.112E+00    0.285E+01
DAV:   6    -0.369721613341E+03    0.49189E+01   -0.25925E+00  3064   0.242E+00    0.172E+01
DAV:   7    -0.367490381926E+03    0.22312E+01   -0.52388E+00  3056   0.349E+00    0.996E-01
DAV:   8    -0.367497507340E+03   -0.71254E-02   -0.28314E-01  3056   0.970E-01    0.352E-01
DAV:   9    -0.367498994619E+03   -0.14873E-02   -0.72246E-03  3272   0.163E-01    0.310E-01
DAV:  10    -0.367499846584E+03   -0.85197E-03   -0.20923E-03  3000   0.833E-02    0.230E-01
DAV:  11    -0.367499886946E+03   -0.40362E-04   -0.88960E-05  3152   0.189E-02    0.843E-03
DAV:  12    -0.367499889160E+03   -0.22141E-05   -0.31939E-06  3208   0.354E-03    0.854E-03
DAV:  13    -0.367499888050E+03    0.11097E-05   -0.88714E-07  3000   0.197E-03    0.164E-03
DAV:  14    -0.367499887962E+03    0.88712E-07   -0.18855E-08  2264   0.327E-04    0.487E-04
DAV:  15    -0.367499887948E+03    0.14168E-07   -0.12678E-08  1848   0.211E-04    0.111E-04
DAV:  16    -0.367499887938E+03    0.94788E-08   -0.23621E-09  1744   0.121E-04
   1 F= -.36749989E+03 E0= -.36749989E+03  d E =-.683920E-18
