 vasp.6.3.2 27Jun22 (build Oct 14 2022 12:13:54) complex                        
  
 executed on             LinuxIFC date 2023.04.03  14:48:54
 running on   32 total cores
 distrk:  each k-point on   32 cores,    1 groups
 distr:  one band on NCORE=   4 cores,    8 groups


--------------------------------------------------------------------------------------------------------


 INCAR:
   ADDGRID = True
   EDIFF = 1e-08
   ENCUT = 318
   GGA = Ps
   IALGO = 38
   IBRION = -1
   ISMEAR = 0
   LCHARG = False
   LREAL = False
   LWAVE = False
   NELMIN = 5
   NPAR = 8
   PREC = Accurate
   SIGMA = 0.02

 POTCAR:    PAW_PBE Si 05Jan2001                  
 POTCAR:    PAW_PBE Si 05Jan2001                  
   SHA256 =  79d9987ad8750f624c4d6acb2a16d13abf6a777132adc04dc6c8399be72b42bb Si/POTCAR             
   COPYR  = (c) Copyright 05Jan2001 Georg Kresse                                                    
   COPYR  = This file is part of the software VASP. Any use, copying, and all other rights are regul
   COPYR  = If you do not have a valid VASP license, you may not use, copy or distribute this file. 
   VRHFIN =Si: s2p2                                                                                 
   LEXCH  = PE                                                                                      
   EATOM  =   103.0669 eV,    7.5752 Ry                                                             
                                                                                                    
   TITEL  = PAW_PBE Si 05Jan2001                                                                    
   LULTRA =        F    use ultrasoft PP ?                                                          
   IUNSCR =        1    unscreen: 0-lin 1-nonlin 2-no                                               
   RPACOR =    1.500    partial core radius                                                         
   POMASS =   28.085; ZVAL   =    4.000    mass and valenz                                          
   RCORE  =    1.900    outmost cutoff radius                                                       
   RWIGS  =    2.480; RWIGS  =    1.312    wigner-seitz radius (au A)                               
   ENMAX  =  245.345; ENMIN  =  184.009 eV                                                          
   ICORE  =        2    local potential                                                             
   LCOR   =        T    correct aug charges                                                         
   LPAW   =        T    paw PP                                                                      
   EAUG   =  322.069                                                                                
   DEXC   =    0.000                                                                                
   RMAX   =    1.950    core radius for proj-oper                                                   
   RAUG   =    1.300    factor for augmentation sphere                                              
   RDEP   =    1.993    radius for radial grids                                                     
   RDEPT  =    1.837    core radius for aug-charge                                                  
                                                                                                    
   Atomic configuration                                                                             
    6 entries                                                                                       
     n  l   j            E        occ.                                                              
     1  0  0.50     -1785.8828   2.0000                                                             
     2  0  0.50      -139.4969   2.0000                                                             
     2  1  1.50       -95.5546   6.0000                                                             
     3  0  0.50       -10.8127   2.0000                                                             
     3  1  0.50        -4.0811   2.0000                                                             
     3  2  1.50        -4.0817   0.0000                                                             
   Description                                                                                      
     l       E           TYP  RCUT    TYP  RCUT                                                     
     0    -10.8127223     23  1.900                                                                 
     0     -7.6451159     23  1.900                                                                 
     1     -4.0811372     23  1.900                                                                 
     1      2.4879257     23  1.900                                                                 
     2     -4.0817478      7  1.900                                                                 
  local pseudopotential read in
  partial core-charges read in
  partial kinetic energy density read in
  atomic valenz-charges read in
  non local Contribution for L=           0  read in
    real space projection operators read in
  non local Contribution for L=           0  read in
    real space projection operators read in
  non local Contribution for L=           1  read in
    real space projection operators read in
  non local Contribution for L=           1  read in
    real space projection operators read in
    PAW grid and wavefunctions read in
 
   number of l-projection  operators is LMAX  =           4
   number of lm-projection operators is LMMAX =           8
 
 -----------------------------------------------------------------------------
|                                                                             |
|               ----> ADVICE to this user running VASP <----                  |
|                                                                             |
|     You have a (more or less) 'large supercell' and for larger cells it     |
|     might be more efficient to use real-space projection operators.         |
|     Therefore, try LREAL= Auto in the INCAR file.                           |
|     Mind: For very accurate calculation, you might also keep the            |
|     reciprocal projection scheme (i.e. LREAL=.FALSE.).                      |
|                                                                             |
 -----------------------------------------------------------------------------

 -----------------------------------------------------------------------------
|                                                                             |
|               ----> ADVICE to this user running VASP <----                  |
|                                                                             |
|     You enforced a specific xc type in the INCAR file but a different       |
|     type was found in the POTCAR file.                                      |
|     I HOPE YOU KNOW WHAT YOU ARE DOING!                                     |
|                                                                             |
 -----------------------------------------------------------------------------

  PAW_PBE Si 05Jan2001                  :
 energy of atom  1       EATOM= -103.0669
 kinetic energy error for atom=    0.0016 (will be added to EATOM!!)
 
 
 POSCAR: Si
  positions in cartesian coordinates
  No initial velocities read in
 exchange correlation table for  LEXCH =       14
   RHO(1)=    0.500       N(1)  =     2000
   RHO(2)=  100.500       N(2)  =     4000
 


--------------------------------------------------------------------------------------------------------


 ion  position               nearest neighbor table
   1  0.251  0.250  0.250-  33 2.35  41 2.35  49 2.36  57 2.36
   2  0.750  0.250  0.250-  34 2.35  42 2.35  50 2.35  58 2.35
   3  0.250  0.750  0.250-  35 2.35  43 2.35  51 2.35  59 2.35
   4  0.750  0.750  0.250-  36 2.35  44 2.35  52 2.35  60 2.35
   5  0.250  0.250  0.750-  37 2.35  45 2.35  53 2.35  61 2.35
   6  0.750  0.250  0.750-  38 2.35  46 2.35  54 2.35  62 2.35
   7  0.250  0.750  0.750-  39 2.35  47 2.35  55 2.35  63 2.35
   8  0.750  0.750  0.750-  40 2.35  48 2.35  56 2.35  64 2.35
   9  0.250  0.000  0.000-  39 2.35  41 2.35  51 2.35  61 2.35
  10  0.750  0.000  0.000-  40 2.35  42 2.35  52 2.35  62 2.35
  11  0.250  0.500  0.000-  37 2.35  43 2.35  49 2.35  63 2.35
  12  0.750  0.500  0.000-  38 2.35  44 2.35  50 2.35  64 2.35
  13  0.250  0.000  0.500-  35 2.35  45 2.35  55 2.35  57 2.35
  14  0.750  0.000  0.500-  36 2.35  46 2.35  56 2.35  58 2.35
  15  0.250  0.500  0.500-  33 2.35  47 2.35  53 2.35  59 2.35
  16  0.750  0.500  0.500-  34 2.35  48 2.35  54 2.35  60 2.35
  17  0.000  0.250  0.001-  42 2.35  49 2.35  38 2.36  61 2.36
  18  0.500  0.250  0.000-  37 2.35  41 2.35  50 2.35  62 2.35
  19  0.000  0.750  0.000-  40 2.35  44 2.35  51 2.35  63 2.35
  20  0.500  0.750  0.000-  39 2.35  43 2.35  52 2.35  64 2.35
  21  0.000  0.250  0.500-  34 2.35  46 2.35  53 2.35  57 2.35
  22  0.500  0.250  0.500-  33 2.35  45 2.35  54 2.35  58 2.35
  23  0.000  0.750  0.500-  36 2.35  48 2.35  55 2.35  59 2.35
  24  0.500  0.750  0.500-  35 2.35  47 2.35  56 2.35  60 2.35
  25  0.000  0.000  0.250-  36 2.35  42 2.35  51 2.35  57 2.35
  26  0.500  0.000  0.250-  35 2.35  41 2.35  52 2.35  58 2.35
  27  0.000  0.500  0.250-  34 2.35  44 2.35  49 2.35  59 2.35
  28  0.500  0.500  0.250-  33 2.35  43 2.35  50 2.35  60 2.35
  29  0.000  0.000  0.750-  40 2.35  46 2.35  55 2.35  61 2.35
  30  0.500  0.000  0.750-  39 2.35  45 2.35  56 2.35  62 2.35
  31  0.000  0.500  0.750-  38 2.35  48 2.35  53 2.35  63 2.35
  32  0.500  0.500  0.750-  37 2.35  47 2.35  54 2.35  64 2.35
  33  0.375  0.375  0.375-   1 2.35  15 2.35  22 2.35  28 2.35
  34  0.875  0.375  0.375-   2 2.35  16 2.35  21 2.35  27 2.35
  35  0.375  0.875  0.375-   3 2.35  13 2.35  24 2.35  26 2.35
  36  0.875  0.875  0.375-   4 2.35  14 2.35  23 2.35  25 2.35
  37  0.375  0.375  0.875-   5 2.35  11 2.35  18 2.35  32 2.35
  38  0.875  0.375  0.875-   6 2.35  12 2.35  31 2.35  17 2.36
  39  0.375  0.875  0.875-   7 2.35   9 2.35  20 2.35  30 2.35
  40  0.875  0.875  0.875-   8 2.35  10 2.35  19 2.35  29 2.35
  41  0.375  0.125  0.125-   1 2.35   9 2.35  18 2.35  26 2.35
  42  0.875  0.125  0.125-  17 2.35  10 2.35   2 2.35  25 2.35
  43  0.375  0.625  0.125-   3 2.35  11 2.35  20 2.35  28 2.35
  44  0.875  0.625  0.125-   4 2.35  12 2.35  19 2.35  27 2.35
  45  0.375  0.125  0.625-   5 2.35  13 2.35  22 2.35  30 2.35
  46  0.875  0.125  0.625-   6 2.35  14 2.35  21 2.35  29 2.35
  47  0.375  0.625  0.625-   7 2.35  15 2.35  24 2.35  32 2.35
  48  0.875  0.625  0.625-   8 2.35  16 2.35  23 2.35  31 2.35
  49  0.125  0.375  0.125-  17 2.35  11 2.35  27 2.35   1 2.36
  50  0.625  0.375  0.125-   2 2.35  12 2.35  18 2.35  28 2.35
  51  0.125  0.875  0.125-   3 2.35   9 2.35  19 2.35  25 2.35
  52  0.625  0.875  0.125-   4 2.35  10 2.35  20 2.35  26 2.35
  53  0.125  0.375  0.625-   5 2.35  15 2.35  21 2.35  31 2.35
  54  0.625  0.375  0.625-   6 2.35  16 2.35  22 2.35  32 2.35
  55  0.125  0.875  0.625-   7 2.35  13 2.35  23 2.35  29 2.35
  56  0.625  0.875  0.625-   8 2.35  14 2.35  24 2.35  30 2.35
  57  0.125  0.125  0.375-  13 2.35  21 2.35  25 2.35   1 2.36
  58  0.625  0.125  0.375-   2 2.35  14 2.35  22 2.35  26 2.35
  59  0.125  0.625  0.375-   3 2.35  15 2.35  23 2.35  27 2.35
  60  0.625  0.625  0.375-   4 2.35  16 2.35  24 2.35  28 2.35
  61  0.125  0.125  0.875-   5 2.35   9 2.35  29 2.35  17 2.36
  62  0.625  0.125  0.875-   6 2.35  10 2.35  18 2.35  30 2.35
  63  0.125  0.625  0.875-   7 2.35  11 2.35  19 2.35  31 2.35
  64  0.625  0.625  0.875-   8 2.35  12 2.35  20 2.35  32 2.35
 
  LATTYP: Found a simple cubic cell.
 ALAT       =    10.8691451200
  
  Lattice vectors:
  
 A1 = (  10.8691451200,  -0.0000000000,  -0.0000000000)
 A2 = (  -0.0000000000,  10.8691451200,   0.0000000000)
 A3 = (   0.0000000000,   0.0000000000,  10.8691451200)


Analysis of symmetry for initial positions (statically):
=====================================================================
 Subroutine PRICEL returns:
 Original cell was already a primitive cell.
 

 Routine SETGRP: Setting up the symmetry group for a 
 simple cubic supercell.


 Subroutine GETGRP returns: Found  1 space group operations
 (whereof  1 operations were pure point group operations)
 out of a pool of 48 trial point group operations.


The static configuration has the point symmetry C_1 .


Analysis of symmetry for dynamics (positions and initial velocities):
=====================================================================
 Subroutine PRICEL returns:
 Original cell was already a primitive cell.
 

 Routine SETGRP: Setting up the symmetry group for a 
 simple cubic supercell.


 Subroutine GETGRP returns: Found  1 space group operations
 (whereof  1 operations were pure point group operations)
 out of a pool of 48 trial point group operations.


The dynamic configuration has the point symmetry C_1 .


 Subroutine INISYM returns: Found  1 space group operations
 (whereof  1 operations are pure point group operations),
 and found     1 'primitive' translations


----------------------------------------------------------------------------------------

                                     Primitive cell                                     

  volume of cell :    1284.0625

  direct lattice vectors                    reciprocal lattice vectors
    10.869145120 -0.000000000 -0.000000000     0.092003556  0.000000000 -0.000000000
    -0.000000000 10.869145120  0.000000000     0.000000000  0.092003556 -0.000000000
     0.000000000  0.000000000 10.869145120     0.000000000 -0.000000000  0.092003556

  length of vectors
    10.869145120 10.869145120 10.869145120     0.092003556  0.092003556  0.092003556

  position of ions in fractional coordinates (direct lattice)
     0.250920036  0.250000000  0.250000000
     0.750000000  0.250000000  0.250000000
     0.250000000  0.750000000  0.250000000
     0.750000000  0.750000000  0.250000000
     0.250000000  0.250000000  0.750000000
     0.750000000  0.250000000  0.750000000
     0.250000000  0.750000000  0.750000000
     0.750000000  0.750000000  0.750000000
     0.250000000  1.000000000  1.000000000
     0.750000000  1.000000000  1.000000000
     0.250000000  0.500000000  0.000000000
     0.750000000  0.500000000  1.000000000
     0.250000000  0.000000000  0.500000000
     0.750000000  1.000000000  0.500000000
     0.250000000  0.500000000  0.500000000
     0.750000000  0.500000000  0.500000000
     1.000000000  0.250000000  0.000920036
     0.500000000  0.250000000  1.000000000
     1.000000000  0.750000000  0.000000000
     0.500000000  0.750000000  0.000000000
     0.000000000  0.250000000  0.500000000
     0.500000000  0.250000000  0.500000000
     1.000000000  0.750000000  0.500000000
     0.500000000  0.750000000  0.500000000
     0.000000000  0.000000000  0.250000000
     0.500000000  1.000000000  0.250000000
     1.000000000  0.500000000  0.250000000
     0.500000000  0.500000000  0.250000000
     0.000000000  0.000000000  0.750000000
     0.500000000  0.000000000  0.750000000
     0.000000000  0.500000000  0.750000000
     0.500000000  0.500000000  0.750000000
     0.375000000  0.375000000  0.375000000
     0.875000000  0.375000000  0.375000000
     0.375000000  0.875000000  0.375000000
     0.875000000  0.875000000  0.375000000
     0.375000000  0.375000000  0.875000000
     0.875000000  0.375000000  0.875000000
     0.375000000  0.875000000  0.875000000
     0.875000000  0.875000000  0.875000000
     0.375000000  0.125000000  0.125000000
     0.875000000  0.125000000  0.125000000
     0.375000000  0.625000000  0.125000000
     0.875000000  0.625000000  0.125000000
     0.375000000  0.125000000  0.625000000
     0.875000000  0.125000000  0.625000000
     0.375000000  0.625000000  0.625000000
     0.875000000  0.625000000  0.625000000
     0.125000000  0.375000000  0.125000000
     0.625000000  0.375000000  0.125000000
     0.125000000  0.875000000  0.125000000
     0.625000000  0.875000000  0.125000000
     0.125000000  0.375000000  0.625000000
     0.625000000  0.375000000  0.625000000
     0.125000000  0.875000000  0.625000000
     0.625000000  0.875000000  0.625000000
     0.125000000  0.125000000  0.375000000
     0.625000000  0.125000000  0.375000000
     0.125000000  0.625000000  0.375000000
     0.625000000  0.625000000  0.375000000
     0.125000000  0.125000000  0.875000000
     0.625000000  0.125000000  0.875000000
     0.125000000  0.625000000  0.875000000
     0.625000000  0.625000000  0.875000000

  ion indices of the primitive-cell ions
   primitive index   ion index
                 1           1
                 2           2
                 3           3
                 4           4
                 5           5
                 6           6
                 7           7
                 8           8
                 9           9
                10          10
                11          11
                12          12
                13          13
                14          14
                15          15
                16          16
                17          17
                18          18
                19          19
                20          20
                21          21
                22          22
                23          23
                24          24
                25          25
                26          26
                27          27
                28          28
                29          29
                30          30
                31          31
                32          32
                33          33
                34          34
                35          35
                36          36
                37          37
                38          38
                39          39
                40          40
                41          41
                42          42
                43          43
                44          44
                45          45
                46          46
                47          47
                48          48
                49          49
                50          50
                51          51
                52          52
                53          53
                54          54
                55          55
                56          56
                57          57
                58          58
                59          59
                60          60
                61          61
                62          62
                63          63
                64          64

----------------------------------------------------------------------------------------

 
 
 KPOINTS: KPOINTS created by Atomic Simulation Env

Automatic generation of k-mesh.
 Grid dimensions read from file:
 generate k-points for:    2    2    2

 Generating k-lattice:

  Cartesian coordinates                     Fractional coordinates (reciprocal lattice)
     0.046001778  0.000000000 -0.000000000     0.500000000 -0.000000000  0.000000000
     0.000000000  0.046001778 -0.000000000    -0.000000000  0.500000000  0.000000000
     0.000000000 -0.000000000  0.046001778    -0.000000000  0.000000000  0.500000000

  Length of vectors
     0.046001778  0.046001778  0.046001778

  Shift w.r.t. Gamma in fractional coordinates (k-lattice)
     0.000000000  0.000000000  0.000000000

 
 Subroutine IBZKPT returns following result:
 ===========================================
 
 Found      8 irreducible k-points:
 
 Following reciprocal coordinates:
            Coordinates               Weight
  0.000000  0.000000  0.000000      1.000000
  0.500000  0.000000  0.000000      1.000000
 -0.000000  0.500000  0.000000      1.000000
  0.000000 -0.000000  0.500000      1.000000
  0.500000  0.500000  0.000000      1.000000
  0.000000  0.500000  0.500000      1.000000
  0.500000 -0.000000  0.500000      1.000000
  0.500000  0.500000  0.500000      1.000000
 
 Following cartesian coordinates:
            Coordinates               Weight
  0.000000  0.000000  0.000000      1.000000
  0.046002  0.000000  0.000000      1.000000
  0.000000  0.046002  0.000000      1.000000
  0.000000 -0.000000  0.046002      1.000000
  0.046002  0.046002  0.000000      1.000000
  0.000000  0.046002  0.046002      1.000000
  0.046002  0.000000  0.046002      1.000000
  0.046002  0.046002  0.046002      1.000000
 


--------------------------------------------------------------------------------------------------------




 Dimension of arrays:
   k-points           NKPTS =      8   k-points in BZ     NKDIM =      8   number of bands    NBANDS=    168
   number of dos      NEDOS =    301   number of ions     NIONS =     64
   non local maximal  LDIM  =      4   non local SUM 2l+1 LMDIM =      8
   total plane-waves  NPLWV = 262144
   max r-space proj   IRMAX =      1   max aug-charges    IRDMAX=  54800
   dimension x,y,z NGX =    64 NGY =   64 NGZ =   64
   dimension x,y,z NGXF=   128 NGYF=  128 NGZF=  128
   support grid    NGXF=   256 NGYF=  256 NGZF=  256
   ions per type =              64
   NGX,Y,Z   is equivalent  to a cutoff of   9.79,  9.79,  9.79 a.u.
   NGXF,Y,Z  is equivalent  to a cutoff of  19.58, 19.58, 19.58 a.u.

 SYSTEM =  unknown system                          
 POSCAR =  Si                                      

 Startparameter for this run:
   NWRITE =      2    write-flag & timer
   PREC   = accura    normal or accurate (medium, high low for compatibility)
   ISTART =      0    job   : 0-new  1-cont  2-samecut
   ICHARG =      2    charge: 1-file 2-atom 10-const
   ISPIN  =      1    spin polarized calculation?
   LNONCOLLINEAR =      F non collinear calculations
   LSORBIT =      F    spin-orbit coupling
   INIWAV =      1    electr: 0-lowe 1-rand  2-diag
   LASPH  =      F    aspherical Exc in radial PAW
 Electronic Relaxation 1
   ENCUT  =  318.0 eV  23.37 Ry    4.83 a.u.  15.80 15.80 15.80*2*pi/ulx,y,z
   ENINI  =  318.0     initial cutoff
   ENAUG  =  322.1 eV  augmentation charge cutoff
   NELM   =     60;   NELMIN=  5; NELMDL= -5     # of ELM steps 
   EDIFF  = 0.1E-07   stopping-criterion for ELM
   LREAL  =      F    real-space projection
   NLSPLINE    = F    spline interpolate recip. space projectors
   LCOMPAT=      F    compatible to vasp.4.4
   GGA_COMPAT  = T    GGA compatible to vasp.4.4-vasp.4.6
   LMAXPAW     = -100 max onsite density
   LMAXMIX     =    2 max onsite mixed and CHGCAR
   VOSKOWN=      0    Vosko Wilk Nusair interpolation
   ROPT   =    0.00000
 Ionic relaxation
   EDIFFG = 0.1E-06   stopping-criterion for IOM
   NSW    =      0    number of steps for IOM
   NBLOCK =      1;   KBLOCK =      1    inner block; outer block 
   IBRION =     -1    ionic relax: 0-MD 1-quasi-New 2-CG
   NFREE  =      0    steps in history (QN), initial steepest desc. (CG)
   ISIF   =      2    stress and relaxation
   IWAVPR =     10    prediction:  0-non 1-charg 2-wave 3-comb
   ISYM   =      2    0-nonsym 1-usesym 2-fastsym
   LCORR  =      T    Harris-Foulkes like correction to forces

   POTIM  = 0.5000    time-step for ionic-motion
   TEIN   =    0.0    initial temperature
   TEBEG  =    0.0;   TEEND  =   0.0 temperature during run
   SMASS  =  -3.00    Nose mass-parameter (am)
   estimated Nose-frequenzy (Omega)   =  0.10E-29 period in steps = 0.13E+47 mass=  -0.270E-26a.u.
   SCALEE = 1.0000    scale energy and forces
   NPACO  =    256;   APACO  = 10.0  distance and # of slots for P.C.
   PSTRESS=    0.0 pullay stress

  Mass of Ions in am
   POMASS =  28.09
  Ionic Valenz
   ZVAL   =   4.00
  Atomic Wigner-Seitz radii
   RWIGS  =  -1.00
  virtual crystal weights 
   VCA    =   1.00
   NELECT =     256.0000    total number of electrons
   NUPDOWN=      -1.0000    fix difference up-down

 DOS related values:
   EMIN   =  10.00;   EMAX   =-10.00  energy-range for DOS
   EFERMI =   0.00
   ISMEAR =     0;   SIGMA  =   0.02  broadening in eV -4-tet -1-fermi 0-gaus

 Electronic relaxation 2 (details)
   IALGO  =     38    algorithm
   LDIAG  =      T    sub-space diagonalisation (order eigenvalues)
   LSUBROT=      F    optimize rotation matrix (better conditioning)
   TURBO    =      0    0=normal 1=particle mesh
   IRESTART =      0    0=no restart 2=restart with 2 vectors
   NREBOOT  =      0    no. of reboots
   NMIN     =      0    reboot dimension
   EREF     =   0.00    reference energy to select bands
   IMIX   =      4    mixing-type and parameters
     AMIX     =   0.40;   BMIX     =  1.00
     AMIX_MAG =   1.60;   BMIX_MAG =  1.00
     AMIN     =   0.10
     WC   =   100.;   INIMIX=   1;  MIXPRE=   1;  MAXMIX= -45

 Intra band minimization:
   WEIMIN = 0.0000     energy-eigenvalue tresh-hold
   EBREAK =  0.15E-10  absolut break condition
   DEPER  =   0.30     relativ break condition  

   TIME   =   0.40     timestep for ELM

  volume/ion in A,a.u.               =      20.06       135.40
  Fermi-wavevector in a.u.,A,eV,Ry     =   0.956370  1.807278 12.444490  0.914644
  Thomas-Fermi vector in A             =   2.085292
 
 Write flags
   LWAVE        =      F    write WAVECAR
   LDOWNSAMPLE  =      F    k-point downsampling of WAVECAR
   LCHARG       =      F    write CHGCAR
   LVTOT        =      F    write LOCPOT, total local potential
   LVHAR        =      F    write LOCPOT, Hartree potential only
   LELF         =      F    write electronic localiz. function (ELF)
   LORBIT       =      0    0 simple, 1 ext, 2 COOP (PROOUT), +10 PAW based schemes


 Dipole corrections
   LMONO  =      F    monopole corrections only (constant potential shift)
   LDIPOL =      F    correct potential (dipole corrections)
   IDIPOL =      0    1-x, 2-y, 3-z, 4-all directions 
   EPSILON=  1.0000000 bulk dielectric constant

 Exchange correlation treatment:
   GGA     =    PS    GGA type
   LEXCH   =    14    internal setting for exchange type
   LIBXC   =     F    Libxc                    
   VOSKOWN =     0    Vosko Wilk Nusair interpolation
   LHFCALC =     F    Hartree Fock is set to
   LHFONE  =     F    Hartree Fock one center treatment
   AEXX    =    0.0000 exact exchange contribution

 Linear response parameters
   LEPSILON=     F    determine dielectric tensor
   LRPA    =     F    only Hartree local field effects (RPA)
   LNABLA  =     F    use nabla operator in PAW spheres
   LVEL    =     F    velocity operator in full k-point grid
   CSHIFT  =0.1000    complex shift for real part using Kramers Kronig
   OMEGAMAX=  -1.0    maximum frequency
   DEG_THRESHOLD= 0.2000000E-02 threshold for treating states as degnerate
   RTIME   =   -0.100 relaxation time in fs
  (WPLASMAI=    0.000 imaginary part of plasma frequency in eV, 0.658/RTIME)
   DFIELD  = 0.0000000 0.0000000 0.0000000 field for delta impulse in time
 
  Optional k-point grid parameters
   LKPOINTS_OPT  =     F    use optional k-point grid
   KPOINTS_OPT_MODE=     1    mode for optional k-point grid
 
 Orbital magnetization related:
   ORBITALMAG=     F  switch on orbital magnetization
   LCHIMAG   =     F  perturbation theory with respect to B field
   DQ        =  0.001000  dq finite difference perturbation B field
   LLRAUG    =     F  two centre corrections for induced B field



--------------------------------------------------------------------------------------------------------


 Static calculation
 charge density and potential will be updated during run
 non-spin polarized calculation
 Variant of blocked Davidson
 Davidson routine will perform the subspace rotation
 perform sub-space diagonalisation
    after iterative eigenvector-optimisation
 modified Broyden-mixing scheme, WC =      100.0
 initial mixing is a Kerker type mixing with AMIX =  0.4000 and BMIX =      1.0000
 Hartree-type preconditioning will be used
 using additional bands           40
 reciprocal scheme for non local part
 use partial core corrections
 calculate Harris-corrections to forces 
   (improved forces if not selfconsistent)
 use gradient corrections 
 use of overlap-Matrix (Vanderbilt PP)
 Gauss-broadening in eV      SIGMA  =   0.02


--------------------------------------------------------------------------------------------------------


  energy-cutoff  :      318.00
  volume of cell :     1284.06
      direct lattice vectors                 reciprocal lattice vectors
    10.869145120 -0.000000000 -0.000000000     0.092003556  0.000000000 -0.000000000
    -0.000000000 10.869145120  0.000000000     0.000000000  0.092003556 -0.000000000
     0.000000000  0.000000000 10.869145120     0.000000000 -0.000000000  0.092003556

  length of vectors
    10.869145120 10.869145120 10.869145120     0.092003556  0.092003556  0.092003556


 
 k-points in units of 2pi/SCALE and weight: KPOINTS created by Atomic Simulation Env
   0.00000000  0.00000000  0.00000000       0.125
   0.04600178  0.00000000  0.00000000       0.125
   0.00000000  0.04600178  0.00000000       0.125
   0.00000000 -0.00000000  0.04600178       0.125
   0.04600178  0.04600178  0.00000000       0.125
   0.00000000  0.04600178  0.04600178       0.125
   0.04600178  0.00000000  0.04600178       0.125
   0.04600178  0.04600178  0.04600178       0.125
 
 k-points in reciprocal lattice and weights: KPOINTS created by Atomic Simulation Env
   0.00000000  0.00000000  0.00000000       0.125
   0.50000000  0.00000000  0.00000000       0.125
  -0.00000000  0.50000000  0.00000000       0.125
   0.00000000 -0.00000000  0.50000000       0.125
   0.50000000  0.50000000  0.00000000       0.125
   0.00000000  0.50000000  0.50000000       0.125
   0.50000000 -0.00000000  0.50000000       0.125
   0.50000000  0.50000000  0.50000000       0.125
 
 position of ions in fractional coordinates (direct lattice) 
   0.25092004  0.25000000  0.25000000
   0.75000000  0.25000000  0.25000000
   0.25000000  0.75000000  0.25000000
   0.75000000  0.75000000  0.25000000
   0.25000000  0.25000000  0.75000000
   0.75000000  0.25000000  0.75000000
   0.25000000  0.75000000  0.75000000
   0.75000000  0.75000000  0.75000000
   0.25000000  0.00000000  0.00000000
   0.75000000  0.00000000  0.00000000
   0.25000000  0.50000000  0.00000000
   0.75000000  0.50000000  0.00000000
   0.25000000  0.00000000  0.50000000
   0.75000000  0.00000000  0.50000000
   0.25000000  0.50000000  0.50000000
   0.75000000  0.50000000  0.50000000
   0.00000000  0.25000000  0.00092004
   0.50000000  0.25000000  0.00000000
   0.00000000  0.75000000  0.00000000
   0.50000000  0.75000000  0.00000000
   0.00000000  0.25000000  0.50000000
   0.50000000  0.25000000  0.50000000
   0.00000000  0.75000000  0.50000000
   0.50000000  0.75000000  0.50000000
   0.00000000  0.00000000  0.25000000
   0.50000000  0.00000000  0.25000000
   0.00000000  0.50000000  0.25000000
   0.50000000  0.50000000  0.25000000
   0.00000000  0.00000000  0.75000000
   0.50000000  0.00000000  0.75000000
   0.00000000  0.50000000  0.75000000
   0.50000000  0.50000000  0.75000000
   0.37500000  0.37500000  0.37500000
   0.87500000  0.37500000  0.37500000
   0.37500000  0.87500000  0.37500000
   0.87500000  0.87500000  0.37500000
   0.37500000  0.37500000  0.87500000
   0.87500000  0.37500000  0.87500000
   0.37500000  0.87500000  0.87500000
   0.87500000  0.87500000  0.87500000
   0.37500000  0.12500000  0.12500000
   0.87500000  0.12500000  0.12500000
   0.37500000  0.62500000  0.12500000
   0.87500000  0.62500000  0.12500000
   0.37500000  0.12500000  0.62500000
   0.87500000  0.12500000  0.62500000
   0.37500000  0.62500000  0.62500000
   0.87500000  0.62500000  0.62500000
   0.12500000  0.37500000  0.12500000
   0.62500000  0.37500000  0.12500000
   0.12500000  0.87500000  0.12500000
   0.62500000  0.87500000  0.12500000
   0.12500000  0.37500000  0.62500000
   0.62500000  0.37500000  0.62500000
   0.12500000  0.87500000  0.62500000
   0.62500000  0.87500000  0.62500000
   0.12500000  0.12500000  0.37500000
   0.62500000  0.12500000  0.37500000
   0.12500000  0.62500000  0.37500000
   0.62500000  0.62500000  0.37500000
   0.12500000  0.12500000  0.87500000
   0.62500000  0.12500000  0.87500000
   0.12500000  0.62500000  0.87500000
   0.62500000  0.62500000  0.87500000
 
 position of ions in cartesian coordinates  (Angst):
   2.72728628  2.71728628  2.71728628
   8.15185884  2.71728628  2.71728628
   2.71728628  8.15185884  2.71728628
   8.15185884  8.15185884  2.71728628
   2.71728628  2.71728628  8.15185884
   8.15185884  2.71728628  8.15185884
   2.71728628  8.15185884  8.15185884
   8.15185884  8.15185884  8.15185884
   2.71728628 -0.00000000 -0.00000000
   8.15185884 -0.00000000 -0.00000000
   2.71728628  5.43457256  0.00000000
   8.15185884  5.43457256 -0.00000000
   2.71728628  0.00000000  5.43457256
   8.15185884 -0.00000000  5.43457256
   2.71728628  5.43457256  5.43457256
   8.15185884  5.43457256  5.43457256
  -0.00000000  2.71728628  0.01000000
   5.43457256  2.71728628 -0.00000000
  -0.00000000  8.15185884  0.00000000
   5.43457256  8.15185884  0.00000000
   0.00000000  2.71728628  5.43457256
   5.43457256  2.71728628  5.43457256
  -0.00000000  8.15185884  5.43457256
   5.43457256  8.15185884  5.43457256
   0.00000000  0.00000000  2.71728628
   5.43457256 -0.00000000  2.71728628
  -0.00000000  5.43457256  2.71728628
   5.43457256  5.43457256  2.71728628
   0.00000000  0.00000000  8.15185884
   5.43457256  0.00000000  8.15185884
   0.00000000  5.43457256  8.15185884
   5.43457256  5.43457256  8.15185884
   4.07592942  4.07592942  4.07592942
   9.51050198  4.07592942  4.07592942
   4.07592942  9.51050198  4.07592942
   9.51050198  9.51050198  4.07592942
   4.07592942  4.07592942  9.51050198
   9.51050198  4.07592942  9.51050198
   4.07592942  9.51050198  9.51050198
   9.51050198  9.51050198  9.51050198
   4.07592942  1.35864314  1.35864314
   9.51050198  1.35864314  1.35864314
   4.07592942  6.79321570  1.35864314
   9.51050198  6.79321570  1.35864314
   4.07592942  1.35864314  6.79321570
   9.51050198  1.35864314  6.79321570
   4.07592942  6.79321570  6.79321570
   9.51050198  6.79321570  6.79321570
   1.35864314  4.07592942  1.35864314
   6.79321570  4.07592942  1.35864314
   1.35864314  9.51050198  1.35864314
   6.79321570  9.51050198  1.35864314
   1.35864314  4.07592942  6.79321570
   6.79321570  4.07592942  6.79321570
   1.35864314  9.51050198  6.79321570
   6.79321570  9.51050198  6.79321570
   1.35864314  1.35864314  4.07592942
   6.79321570  1.35864314  4.07592942
   1.35864314  6.79321570  4.07592942
   6.79321570  6.79321570  4.07592942
   1.35864314  1.35864314  9.51050198
   6.79321570  1.35864314  9.51050198
   1.35864314  6.79321570  9.51050198
   6.79321570  6.79321570  9.51050198
 


--------------------------------------------------------------------------------------------------------


 k-point   1 :   0.0000 0.0000 0.0000  plane waves:   16519
 k-point   2 :   0.5000 0.0000 0.0000  plane waves:   16488
 k-point   3 :  -0.0000 0.5000 0.0000  plane waves:   16488
 k-point   4 :   0.0000-0.0000 0.5000  plane waves:   16488
 k-point   5 :   0.5000 0.5000 0.0000  plane waves:   16588
 k-point   6 :   0.0000 0.5000 0.5000  plane waves:   16588
 k-point   7 :   0.5000-0.0000 0.5000  plane waves:   16588
 k-point   8 :   0.5000 0.5000 0.5000  plane waves:   16560

 maximum and minimum number of plane-waves per node :      4165     4106

 maximum number of plane-waves:     16588
 maximum index in each direction: 
   IXMAX=   15   IYMAX=   15   IZMAX=   15
   IXMIN=  -16   IYMIN=  -16   IZMIN=  -16


 parallel 3D FFT for wavefunctions:
    minimum data exchange during FFTs selected (reduces bandwidth)
 parallel 3D FFT for charge:
    minimum data exchange during FFTs selected (reduces bandwidth)


 total amount of memory used by VASP MPI-rank0    65387. kBytes
=======================================================================

   base      :      30000. kBytes
   nonl-proj :       6402. kBytes
   fftplans  :      11573. kBytes
   grid      :       5816. kBytes
   one-center:         49. kBytes
   wavefun   :      11547. kBytes
 
     INWAV:  cpu time      0.0000: real time      0.0000
 Broyden mixing: mesh for mixing (old mesh)
   NGX = 31   NGY = 31   NGZ = 31
  (NGX  =128   NGY  =128   NGZ  =128)
  gives a total of  29791 points

 initial charge density was supplied:
 charge density of overlapping atoms calculated
 number of electron     256.0000000 magnetization 
 keeping initial charge density in first step


--------------------------------------------------------------------------------------------------------


 Maximum index for augmentation-charges         1707 (set IRDMAX)


--------------------------------------------------------------------------------------------------------


 First call to EWALD:  gamma=   0.163
 Maximum number of real-space cells 3x 3x 3
 Maximum number of reciprocal cells 3x 3x 3

    FEWALD:  cpu time      0.0021: real time      0.0021


--------------------------------------- Iteration      1(   1)  ---------------------------------------


    POTLOK:  cpu time      0.0228: real time      0.0230
    SETDIJ:  cpu time      0.0224: real time      0.0225
     EDDAV:  cpu time      2.3056: real time      2.3170
       DOS:  cpu time      0.0007: real time      0.0007
    --------------------------------------------
      LOOP:  cpu time      2.3515: real time      2.3633

 eigenvalue-minimisations  :  2688
 total energy-change (2. order) : 0.4510136E+03  (-0.7260797E+04)
 number of electron     256.0000000 magnetization 
 augmentation part      256.0000000 magnetization 

 Free energy of the ion-electron system (eV)
  ---------------------------------------------------
  alpha Z        PSCENC =       107.38120932
  Ewald energy   TEWEN  =     -7307.87593351
  -Hartree energ DENC   =      -353.25040901
  -exchange      EXHF   =         0.00000000
  -V(xc)+E(xc)   XCENC  =      -558.85371335
  PAW double counting   =      5598.62625415    -4492.17844134
  entropy T*S    EENTRO =        -0.00325805
  eigenvalues    EBANDS =       892.40087931
  atomic energy  EATOM  =      6564.76702419
  Solvation  Ediel_sol  =         0.00000000
  ---------------------------------------------------
  free energy    TOTEN  =       451.01361171 eV

  energy without entropy =      451.01686976  energy(sigma->0) =      451.01524074


--------------------------------------------------------------------------------------------------------




--------------------------------------- Iteration      1(   2)  ---------------------------------------


     EDDAV:  cpu time      2.8384: real time      2.8551
       DOS:  cpu time      0.0002: real time      0.0002
    --------------------------------------------
      LOOP:  cpu time      2.8386: real time      2.8554

 eigenvalue-minimisations  :  3232
 total energy-change (2. order) :-0.7730852E+03  (-0.7307770E+03)
 number of electron     256.0000000 magnetization 
 augmentation part      256.0000000 magnetization 

 Free energy of the ion-electron system (eV)
  ---------------------------------------------------
  alpha Z        PSCENC =       107.38120932
  Ewald energy   TEWEN  =     -7307.87593351
  -Hartree energ DENC   =      -353.25040901
  -exchange      EXHF   =         0.00000000
  -V(xc)+E(xc)   XCENC  =      -558.85371335
  PAW double counting   =      5598.62625415    -4492.17844134
  entropy T*S    EENTRO =        -0.00000000
  eigenvalues    EBANDS =       119.31243606
  atomic energy  EATOM  =      6564.76702419
  Solvation  Ediel_sol  =         0.00000000
  ---------------------------------------------------
  free energy    TOTEN  =      -322.07157349 eV

  energy without entropy =     -322.07157349  energy(sigma->0) =     -322.07157349


--------------------------------------------------------------------------------------------------------




--------------------------------------- Iteration      1(   3)  ---------------------------------------


     EDDAV:  cpu time      2.6878: real time      2.7013
       DOS:  cpu time      0.0003: real time      0.0003
    --------------------------------------------
      LOOP:  cpu time      2.6881: real time      2.7015

 eigenvalue-minimisations  :  3304
 total energy-change (2. order) :-0.5134287E+02  (-0.5048129E+02)
 number of electron     256.0000000 magnetization 
 augmentation part      256.0000000 magnetization 

 Free energy of the ion-electron system (eV)
  ---------------------------------------------------
  alpha Z        PSCENC =       107.38120932
  Ewald energy   TEWEN  =     -7307.87593351
  -Hartree energ DENC   =      -353.25040901
  -exchange      EXHF   =         0.00000000
  -V(xc)+E(xc)   XCENC  =      -558.85371335
  PAW double counting   =      5598.62625415    -4492.17844134
  entropy T*S    EENTRO =        -0.00000000
  eigenvalues    EBANDS =        67.96956818
  atomic energy  EATOM  =      6564.76702419
  Solvation  Ediel_sol  =         0.00000000
  ---------------------------------------------------
  free energy    TOTEN  =      -373.41444137 eV

  energy without entropy =     -373.41444137  energy(sigma->0) =     -373.41444137


--------------------------------------------------------------------------------------------------------




--------------------------------------- Iteration      1(   4)  ---------------------------------------


     EDDAV:  cpu time      2.6325: real time      2.6455
       DOS:  cpu time      0.0002: real time      0.0002
    --------------------------------------------
      LOOP:  cpu time      2.6327: real time      2.6457

 eigenvalue-minimisations  :  3224
 total energy-change (2. order) :-0.1183478E+01  (-0.1174992E+01)
 number of electron     256.0000000 magnetization 
 augmentation part      256.0000000 magnetization 

 Free energy of the ion-electron system (eV)
  ---------------------------------------------------
  alpha Z        PSCENC =       107.38120932
  Ewald energy   TEWEN  =     -7307.87593351
  -Hartree energ DENC   =      -353.25040901
  -exchange      EXHF   =         0.00000000
  -V(xc)+E(xc)   XCENC  =      -558.85371335
  PAW double counting   =      5598.62625415    -4492.17844134
  entropy T*S    EENTRO =        -0.00000000
  eigenvalues    EBANDS =        66.78608976
  atomic energy  EATOM  =      6564.76702419
  Solvation  Ediel_sol  =         0.00000000
  ---------------------------------------------------
  free energy    TOTEN  =      -374.59791979 eV

  energy without entropy =     -374.59791979  energy(sigma->0) =     -374.59791979


--------------------------------------------------------------------------------------------------------




--------------------------------------- Iteration      1(   5)  ---------------------------------------


     EDDAV:  cpu time      2.6076: real time      2.6207
       DOS:  cpu time      0.0003: real time      0.0003
    CHARGE:  cpu time      0.0770: real time      0.0775
    MIXING:  cpu time      0.0026: real time      0.0026
    --------------------------------------------
      LOOP:  cpu time      2.6875: real time      2.7010

 eigenvalue-minimisations  :  3184
 total energy-change (2. order) :-0.4262434E-01  (-0.4257190E-01)
 number of electron     255.9999994 magnetization 
 augmentation part      -14.9589639 magnetization 

 Broyden mixing:
  rms(total) = 0.28465E+01    rms(broyden)= 0.28465E+01
  rms(prec ) = 0.31321E+01
  weight for this iteration     100.00

 Free energy of the ion-electron system (eV)
  ---------------------------------------------------
  alpha Z        PSCENC =       107.38120932
  Ewald energy   TEWEN  =     -7307.87593351
  -Hartree energ DENC   =      -353.25040901
  -exchange      EXHF   =         0.00000000
  -V(xc)+E(xc)   XCENC  =      -558.85371335
  PAW double counting   =      5598.62625415    -4492.17844134
  entropy T*S    EENTRO =        -0.00000000
  eigenvalues    EBANDS =        66.74346542
  atomic energy  EATOM  =      6564.76702419
  Solvation  Ediel_sol  =         0.00000000
  ---------------------------------------------------
  free energy    TOTEN  =      -374.64054413 eV

  energy without entropy =     -374.64054413  energy(sigma->0) =     -374.64054413


--------------------------------------------------------------------------------------------------------




--------------------------------------- Iteration      1(   6)  ---------------------------------------


    POTLOK:  cpu time      0.0226: real time      0.0227
    SETDIJ:  cpu time      0.0222: real time      0.0223
     EDDAV:  cpu time      2.5408: real time      2.5536
       DOS:  cpu time      0.0003: real time      0.0003
    CHARGE:  cpu time      0.0769: real time      0.0775
    MIXING:  cpu time      0.0023: real time      0.0023
    --------------------------------------------
      LOOP:  cpu time      2.6649: real time      2.6786

 eigenvalue-minimisations  :  3064
 total energy-change (2. order) : 0.4918931E+01  (-0.2592528E+00)
 number of electron     255.9999994 magnetization 
 augmentation part      -14.7996860 magnetization 

 Broyden mixing:
  rms(total) = 0.17163E+01    rms(broyden)= 0.17163E+01
  rms(prec ) = 0.18755E+01
  weight for this iteration     100.00

 eigenvalues of (default mixing * dielectric matrix)
  average eigenvalue GAMMA=   2.5112
  2.5112

 Free energy of the ion-electron system (eV)
  ---------------------------------------------------
  alpha Z        PSCENC =       107.38120932
  Ewald energy   TEWEN  =     -7307.87593351
  -Hartree energ DENC   =      -399.23464649
  -exchange      EXHF   =         0.00000000
  -V(xc)+E(xc)   XCENC  =      -551.57560162
  PAW double counting   =     12482.56757385   -11379.36538334
  entropy T*S    EENTRO =        -0.00000000
  eigenvalues    EBANDS =       113.61414427
  atomic energy  EATOM  =      6564.76702419
  Solvation  Ediel_sol  =         0.00000000
  ---------------------------------------------------
  free energy    TOTEN  =      -369.72161334 eV

  energy without entropy =     -369.72161334  energy(sigma->0) =     -369.72161334


--------------------------------------------------------------------------------------------------------




--------------------------------------- Iteration      1(   7)  ---------------------------------------


    POTLOK:  cpu time      0.0217: real time      0.0221
    SETDIJ:  cpu time      0.0221: real time      0.0222
     EDDAV:  cpu time      2.5297: real time      2.5422
       DOS:  cpu time      0.0003: real time      0.0003
    CHARGE:  cpu time      0.0781: real time      0.0785
    MIXING:  cpu time      0.0023: real time      0.0023
    --------------------------------------------
      LOOP:  cpu time      2.6542: real time      2.6676

 eigenvalue-minimisations  :  3056
 total energy-change (2. order) : 0.2231231E+01  (-0.5238808E+00)
 number of electron     255.9999994 magnetization 
 augmentation part      -14.5985345 magnetization 

 Broyden mixing:
  rms(total) = 0.99611E-01    rms(broyden)= 0.99610E-01
  rms(prec ) = 0.12387E+00
  weight for this iteration     100.00

 eigenvalues of (default mixing * dielectric matrix)
  average eigenvalue GAMMA=   2.2503
  2.2503  2.2503

 Free energy of the ion-electron system (eV)
  ---------------------------------------------------
  alpha Z        PSCENC =       107.38120932
  Ewald energy   TEWEN  =     -7307.87593351
  -Hartree energ DENC   =      -473.65509743
  -exchange      EXHF   =         0.00000000
  -V(xc)+E(xc)   XCENC  =      -539.13639073
  PAW double counting   =     29123.54265829   -28024.71247254
  entropy T*S    EENTRO =        -0.00000000
  eigenvalues    EBANDS =       182.19862048
  atomic energy  EATOM  =      6564.76702419
  Solvation  Ediel_sol  =         0.00000000
  ---------------------------------------------------
  free energy    TOTEN  =      -367.49038193 eV

  energy without entropy =     -367.49038193  energy(sigma->0) =     -367.49038193


--------------------------------------------------------------------------------------------------------




--------------------------------------- Iteration      1(   8)  ---------------------------------------


    POTLOK:  cpu time      0.0219: real time      0.0221
    SETDIJ:  cpu time      0.0219: real time      0.0221
     EDDAV:  cpu time      2.5326: real time      2.5454
       DOS:  cpu time      0.0002: real time      0.0002
    CHARGE:  cpu time      0.0778: real time      0.0782
    MIXING:  cpu time      0.0030: real time      0.0030
    --------------------------------------------
      LOOP:  cpu time      2.6574: real time      2.6709

 eigenvalue-minimisations  :  3056
 total energy-change (2. order) :-0.7125414E-02  (-0.2831351E-01)
 number of electron     255.9999994 magnetization 
 augmentation part      -14.6403114 magnetization 

 Broyden mixing:
  rms(total) = 0.35212E-01    rms(broyden)= 0.35211E-01
  rms(prec ) = 0.40561E-01
  weight for this iteration     100.00

 eigenvalues of (default mixing * dielectric matrix)
  average eigenvalue GAMMA=   2.4275
  2.8182  2.2322  2.2322

 Free energy of the ion-electron system (eV)
  ---------------------------------------------------
  alpha Z        PSCENC =       107.38120932
  Ewald energy   TEWEN  =     -7307.87593351
  -Hartree energ DENC   =      -466.68665085
  -exchange      EXHF   =         0.00000000
  -V(xc)+E(xc)   XCENC  =      -539.74352121
  PAW double counting   =     28621.83974462   -27522.20891882
  entropy T*S    EENTRO =        -0.00000000
  eigenvalues    EBANDS =       175.02953892
  atomic energy  EATOM  =      6564.76702419
  Solvation  Ediel_sol  =         0.00000000
  ---------------------------------------------------
  free energy    TOTEN  =      -367.49750734 eV

  energy without entropy =     -367.49750734  energy(sigma->0) =     -367.49750734


--------------------------------------------------------------------------------------------------------




--------------------------------------- Iteration      1(   9)  ---------------------------------------


    POTLOK:  cpu time      0.0215: real time      0.0217
    SETDIJ:  cpu time      0.0221: real time      0.0222
     EDDAV:  cpu time      2.6638: real time      2.6773
       DOS:  cpu time      0.0003: real time      0.0003
    CHARGE:  cpu time      0.0776: real time      0.0780
    MIXING:  cpu time      0.0025: real time      0.0025
    --------------------------------------------
      LOOP:  cpu time      2.7877: real time      2.8019

 eigenvalue-minimisations  :  3272
 total energy-change (2. order) :-0.1487279E-02  (-0.7224606E-03)
 number of electron     255.9999994 magnetization 
 augmentation part      -14.6409826 magnetization 

 Broyden mixing:
  rms(total) = 0.30981E-01    rms(broyden)= 0.30981E-01
  rms(prec ) = 0.32083E-01
  weight for this iteration     100.00

 eigenvalues of (default mixing * dielectric matrix)
  average eigenvalue GAMMA=   2.3770
  3.8841  2.3800  2.3800  0.8639

 Free energy of the ion-electron system (eV)
  ---------------------------------------------------
  alpha Z        PSCENC =       107.38120932
  Ewald energy   TEWEN  =     -7307.87593351
  -Hartree energ DENC   =      -468.63873560
  -exchange      EXHF   =         0.00000000
  -V(xc)+E(xc)   XCENC  =      -539.41445849
  PAW double counting   =     28768.15997903   -27668.63299916
  entropy T*S    EENTRO =        -0.00000000
  eigenvalues    EBANDS =       176.75491961
  atomic energy  EATOM  =      6564.76702419
  Solvation  Ediel_sol  =         0.00000000
  ---------------------------------------------------
  free energy    TOTEN  =      -367.49899462 eV

  energy without entropy =     -367.49899462  energy(sigma->0) =     -367.49899462


--------------------------------------------------------------------------------------------------------




--------------------------------------- Iteration      1(  10)  ---------------------------------------


    POTLOK:  cpu time      0.0215: real time      0.0217
    SETDIJ:  cpu time      0.0219: real time      0.0219
     EDDAV:  cpu time      2.4961: real time      2.5085
       DOS:  cpu time      0.0003: real time      0.0003
    CHARGE:  cpu time      0.0789: real time      0.0793
    MIXING:  cpu time      0.0026: real time      0.0027
    --------------------------------------------
      LOOP:  cpu time      2.6212: real time      2.6343

 eigenvalue-minimisations  :  3000
 total energy-change (2. order) :-0.8519650E-03  (-0.2092332E-03)
 number of electron     255.9999994 magnetization 
 augmentation part      -14.6429511 magnetization 

 Broyden mixing:
  rms(total) = 0.23002E-01    rms(broyden)= 0.23002E-01
  rms(prec ) = 0.23121E-01
  weight for this iteration     100.00

 eigenvalues of (default mixing * dielectric matrix)
  average eigenvalue GAMMA=   1.8671
  2.8659  2.2497  2.2497  0.9851  0.9851

 Free energy of the ion-electron system (eV)
  ---------------------------------------------------
  alpha Z        PSCENC =       107.38120932
  Ewald energy   TEWEN  =     -7307.87593351
  -Hartree energ DENC   =      -468.87883642
  -exchange      EXHF   =         0.00000000
  -V(xc)+E(xc)   XCENC  =      -539.34018660
  PAW double counting   =     28252.49482063   -27152.93678234
  entropy T*S    EENTRO =        -0.00000000
  eigenvalues    EBANDS =       176.88883816
  atomic energy  EATOM  =      6564.76702419
  Solvation  Ediel_sol  =         0.00000000
  ---------------------------------------------------
  free energy    TOTEN  =      -367.49984658 eV

  energy without entropy =     -367.49984658  energy(sigma->0) =     -367.49984658


--------------------------------------------------------------------------------------------------------




--------------------------------------- Iteration      1(  11)  ---------------------------------------


    POTLOK:  cpu time      0.0216: real time      0.0218
    SETDIJ:  cpu time      0.0218: real time      0.0219
     EDDAV:  cpu time      2.5839: real time      2.5974
       DOS:  cpu time      0.0003: real time      0.0003
    CHARGE:  cpu time      0.0780: real time      0.0783
    MIXING:  cpu time      0.0025: real time      0.0026
    --------------------------------------------
      LOOP:  cpu time      2.7081: real time      2.7223

 eigenvalue-minimisations  :  3152
 total energy-change (2. order) :-0.4036195E-04  (-0.8896020E-05)
 number of electron     255.9999994 magnetization 
 augmentation part      -14.6438098 magnetization 

 Broyden mixing:
  rms(total) = 0.84260E-03    rms(broyden)= 0.84258E-03
  rms(prec ) = 0.93898E-03
  weight for this iteration     100.00

 eigenvalues of (default mixing * dielectric matrix)
  average eigenvalue GAMMA=   1.7674
  2.8853  2.2534  2.2534  1.2634  1.1717  0.7769

 Free energy of the ion-electron system (eV)
  ---------------------------------------------------
  alpha Z        PSCENC =       107.38120932
  Ewald energy   TEWEN  =     -7307.87593351
  -Hartree energ DENC   =      -468.75127142
  -exchange      EXHF   =         0.00000000
  -V(xc)+E(xc)   XCENC  =      -539.35256303
  PAW double counting   =     28479.09999525   -27379.53021560
  entropy T*S    EENTRO =        -0.00000000
  eigenvalues    EBANDS =       176.76186786
  atomic energy  EATOM  =      6564.76702419
  Solvation  Ediel_sol  =         0.00000000
  ---------------------------------------------------
  free energy    TOTEN  =      -367.49988695 eV

  energy without entropy =     -367.49988695  energy(sigma->0) =     -367.49988695


--------------------------------------------------------------------------------------------------------




--------------------------------------- Iteration      1(  12)  ---------------------------------------


    POTLOK:  cpu time      0.0218: real time      0.0220
    SETDIJ:  cpu time      0.0220: real time      0.0221
     EDDAV:  cpu time      2.6210: real time      2.6344
       DOS:  cpu time      0.0003: real time      0.0003
    CHARGE:  cpu time      0.0770: real time      0.0774
    MIXING:  cpu time      0.0022: real time      0.0022
    --------------------------------------------
      LOOP:  cpu time      2.7442: real time      2.7584

 eigenvalue-minimisations  :  3208
 total energy-change (2. order) :-0.2214094E-05  (-0.3193880E-06)
 number of electron     255.9999994 magnetization 
 augmentation part      -14.6436885 magnetization 

 Broyden mixing:
  rms(total) = 0.85402E-03    rms(broyden)= 0.85402E-03
  rms(prec ) = 0.88320E-03
  weight for this iteration     100.00

 eigenvalues of (default mixing * dielectric matrix)
  average eigenvalue GAMMA=   1.8594
  3.0301  2.4922  2.4922  2.2113  0.9804  0.9047  0.9047

 Free energy of the ion-electron system (eV)
  ---------------------------------------------------
  alpha Z        PSCENC =       107.38120932
  Ewald energy   TEWEN  =     -7307.87593351
  -Hartree energ DENC   =      -468.78384681
  -exchange      EXHF   =         0.00000000
  -V(xc)+E(xc)   XCENC  =      -539.35100117
  PAW double counting   =     28482.42362909   -27382.85291987
  entropy T*S    EENTRO =        -0.00000000
  eigenvalues    EBANDS =       176.79194961
  atomic energy  EATOM  =      6564.76702419
  Solvation  Ediel_sol  =         0.00000000
  ---------------------------------------------------
  free energy    TOTEN  =      -367.49988916 eV

  energy without entropy =     -367.49988916  energy(sigma->0) =     -367.49988916


--------------------------------------------------------------------------------------------------------




--------------------------------------- Iteration      1(  13)  ---------------------------------------


    POTLOK:  cpu time      0.0214: real time      0.0216
    SETDIJ:  cpu time      0.0220: real time      0.0221
     EDDAV:  cpu time      2.6659: real time      2.6860
       DOS:  cpu time      0.0011: real time      0.0011
    CHARGE:  cpu time      0.0830: real time      0.0835
    MIXING:  cpu time      0.0018: real time      0.0018
    --------------------------------------------
      LOOP:  cpu time      2.7952: real time      2.8160

 eigenvalue-minimisations  :  3000
 total energy-change (2. order) : 0.1109717E-05  (-0.8871382E-07)
 number of electron     255.9999994 magnetization 
 augmentation part      -14.6436533 magnetization 

 Broyden mixing:
  rms(total) = 0.16429E-03    rms(broyden)= 0.16429E-03
  rms(prec ) = 0.16993E-03
  weight for this iteration     100.00

 eigenvalues of (default mixing * dielectric matrix)
  average eigenvalue GAMMA=   1.7847
  3.0635  2.6297  2.3702  2.2130  0.9539  0.9539  1.0467  1.0467

 Free energy of the ion-electron system (eV)
  ---------------------------------------------------
  alpha Z        PSCENC =       107.38120932
  Ewald energy   TEWEN  =     -7307.87593351
  -Hartree energ DENC   =      -468.78634093
  -exchange      EXHF   =         0.00000000
  -V(xc)+E(xc)   XCENC  =      -539.35339486
  PAW double counting   =     28476.26026788   -27376.68708566
  entropy T*S    EENTRO =        -0.00000000
  eigenvalues    EBANDS =       176.79436551
  atomic energy  EATOM  =      6564.76702419
  Solvation  Ediel_sol  =         0.00000000
  ---------------------------------------------------
  free energy    TOTEN  =      -367.49988805 eV

  energy without entropy =     -367.49988805  energy(sigma->0) =     -367.49988805


--------------------------------------------------------------------------------------------------------




--------------------------------------- Iteration      1(  14)  ---------------------------------------


    POTLOK:  cpu time      0.0213: real time      0.0215
    SETDIJ:  cpu time      0.0218: real time      0.0220
     EDDAV:  cpu time      2.0364: real time      2.0467
       DOS:  cpu time      0.0003: real time      0.0003
    CHARGE:  cpu time      0.0779: real time      0.0784
    MIXING:  cpu time      0.0021: real time      0.0021
    --------------------------------------------
      LOOP:  cpu time      2.1598: real time      2.1710

 eigenvalue-minimisations  :  2264
 total energy-change (2. order) : 0.8871211E-07  (-0.1885468E-08)
 number of electron     255.9999994 magnetization 
 augmentation part      -14.6436493 magnetization 

 Broyden mixing:
  rms(total) = 0.48703E-04    rms(broyden)= 0.48697E-04
  rms(prec ) = 0.51042E-04
  weight for this iteration     100.00

 eigenvalues of (default mixing * dielectric matrix)
  average eigenvalue GAMMA=   1.8309
  3.0817  2.5412  2.5412  2.1652  2.1652  1.1475  0.9847  0.9255  0.9255

 Free energy of the ion-electron system (eV)
  ---------------------------------------------------
  alpha Z        PSCENC =       107.38120932
  Ewald energy   TEWEN  =     -7307.87593351
  -Hartree energ DENC   =      -468.78603995
  -exchange      EXHF   =         0.00000000
  -V(xc)+E(xc)   XCENC  =      -539.35374316
  PAW double counting   =     28475.08565426   -27375.51236447
  entropy T*S    EENTRO =        -0.00000000
  eigenvalues    EBANDS =       176.79430536
  atomic energy  EATOM  =      6564.76702419
  Solvation  Ediel_sol  =         0.00000000
  ---------------------------------------------------
  free energy    TOTEN  =      -367.49988796 eV

  energy without entropy =     -367.49988796  energy(sigma->0) =     -367.49988796


--------------------------------------------------------------------------------------------------------




--------------------------------------- Iteration      1(  15)  ---------------------------------------


    POTLOK:  cpu time      0.0214: real time      0.0216
    SETDIJ:  cpu time      0.0221: real time      0.0222
     EDDAV:  cpu time      1.7873: real time      1.7965
       DOS:  cpu time      0.0003: real time      0.0003
    CHARGE:  cpu time      0.0785: real time      0.0789
    MIXING:  cpu time      0.0018: real time      0.0018
    --------------------------------------------
      LOOP:  cpu time      1.9112: real time      1.9211

 eigenvalue-minimisations  :  1848
 total energy-change (2. order) : 0.1416811E-07  (-0.1267834E-08)
 number of electron     255.9999994 magnetization 
 augmentation part      -14.6436490 magnetization 

 Broyden mixing:
  rms(total) = 0.11145E-04    rms(broyden)= 0.11119E-04
  rms(prec ) = 0.13568E-04
  weight for this iteration     100.00

 eigenvalues of (default mixing * dielectric matrix)
  average eigenvalue GAMMA=   1.7984
  3.0865  2.6429  2.2932  2.2932  1.9156  1.9156  0.9874  0.9874  0.9311  0.9311

 Free energy of the ion-electron system (eV)
  ---------------------------------------------------
  alpha Z        PSCENC =       107.38120932
  Ewald energy   TEWEN  =     -7307.87593351
  -Hartree energ DENC   =      -468.78551008
  -exchange      EXHF   =         0.00000000
  -V(xc)+E(xc)   XCENC  =      -539.35380694
  PAW double counting   =     28474.92633020   -27375.35308782
  entropy T*S    EENTRO =        -0.00000000
  eigenvalues    EBANDS =       176.79388669
  atomic energy  EATOM  =      6564.76702419
  Solvation  Ediel_sol  =         0.00000000
  ---------------------------------------------------
  free energy    TOTEN  =      -367.49988795 eV

  energy without entropy =     -367.49988795  energy(sigma->0) =     -367.49988795


--------------------------------------------------------------------------------------------------------




--------------------------------------- Iteration      1(  16)  ---------------------------------------


    POTLOK:  cpu time      0.0216: real time      0.0224
    SETDIJ:  cpu time      0.0217: real time      0.0218
     EDDAV:  cpu time      1.7381: real time      1.7468
       DOS:  cpu time      0.0005: real time      0.0005
    --------------------------------------------
      LOOP:  cpu time      1.7818: real time      1.7915

 eigenvalue-minimisations  :  1744
 total energy-change (2. order) : 0.9478754E-08  (-0.2362142E-09)
 number of electron     255.9999994 magnetization 
 augmentation part      -14.6436490 magnetization 

 Free energy of the ion-electron system (eV)
  ---------------------------------------------------
  alpha Z        PSCENC =       107.38120932
  Ewald energy   TEWEN  =     -7307.87593351
  -Hartree energ DENC   =      -468.78545425
  -exchange      EXHF   =         0.00000000
  -V(xc)+E(xc)   XCENC  =      -539.35382162
  PAW double counting   =     28474.90059360   -27375.32733630
  entropy T*S    EENTRO =        -0.00000000
  eigenvalues    EBANDS =       176.79383065
  atomic energy  EATOM  =      6564.76702419
  Solvation  Ediel_sol  =         0.00000000
  ---------------------------------------------------
  free energy    TOTEN  =      -367.49988794 eV

  energy without entropy =     -367.49988794  energy(sigma->0) =     -367.49988794


--------------------------------------------------------------------------------------------------------




 average (electrostatic) potential at core
  the test charge radii are     0.9892
  (the norm of the test charge is              1.0000)
       1 -83.0573       2 -83.0572       3 -83.0574       4 -83.0574       5 -83.0574
       6 -83.0574       7 -83.0572       8 -83.0572       9 -83.0573      10 -83.0591
      11 -83.0573      12 -83.0555      13 -83.0555      14 -83.0573      15 -83.0591
      16 -83.0573      17 -83.0574      18 -83.0572      19 -83.0572      20 -83.0574
      21 -83.0574      22 -83.0572      23 -83.0572      24 -83.0574      25 -83.0573
      26 -83.0573      27 -83.0573      28 -83.0573      29 -83.0573      30 -83.0573
      31 -83.0573      32 -83.0573      33 -83.0568      34 -83.0573      35 -83.0572
      36 -83.0573      37 -83.0573      38 -83.0578      39 -83.0573      40 -83.0574
      41 -83.0569      42 -83.0568      43 -83.0584      44 -83.0573      45 -83.0573
      46 -83.0572      47 -83.0584      48 -83.0574      49 -83.0573      50 -83.0574
      51 -83.0573      52 -83.0584      53 -83.0572      54 -83.0573      55 -83.0563
      56 -83.0573      57 -83.0579      58 -83.0574      59 -83.0573      60 -83.0572
      61 -83.0578      62 -83.0573      63 -83.0562      64 -83.0562
 
 
 
 E-fermi :   5.8934     XC(G=0):  -9.5445     alpha+bet :-11.9543

 Fermi energy:         5.8933581880

 k-point     1 :       0.0000    0.0000    0.0000
  band No.  band energies     occupation 
      1      -6.2055      2.00000
      2      -5.1231      2.00000
      3      -5.1225      2.00000
      4      -5.1213      2.00000
      5      -5.1213      2.00000
      6      -5.1200      2.00000
      7      -5.1195      2.00000
      8      -4.1597      2.00000
      9      -4.1576      2.00000
     10      -4.1563      2.00000
     11      -4.1555      2.00000
     12      -4.1551      2.00000
     13      -4.1550      2.00000
     14      -4.1550      2.00000
     15      -4.1549      2.00000
     16      -4.1546      2.00000
     17      -4.1538      2.00000
     18      -4.1525      2.00000
     19      -4.1504      2.00000
     20      -3.8624      2.00000
     21      -3.8607      2.00000
     22      -3.8606      2.00000
     23      -3.8588      2.00000
     24      -2.0542      2.00000
     25      -2.0542      2.00000
     26      -2.0520      2.00000
     27      -2.0519      2.00000
     28      -2.0498      2.00000
     29      -2.0497      2.00000
     30      -1.8874      2.00000
     31      -1.8860      2.00000
     32      -1.8847      2.00000
     33      -1.8831      2.00000
     34      -1.8828      2.00000
     35      -1.8827      2.00000
     36      -1.8827      2.00000
     37      -1.8827      2.00000
     38      -1.8823      2.00000
     39      -1.8808      2.00000
     40      -1.8793      2.00000
     41      -1.8780      2.00000
     42      -1.2365      2.00000
     43      -1.2347      2.00000
     44      -1.2347      2.00000
     45      -1.2328      2.00000
     46       0.2775      2.00000
     47       0.2784      2.00000
     48       0.2802      2.00000
     49       0.2817      2.00000
     50       0.2818      2.00000
     51       0.2819      2.00000
     52       0.2819      2.00000
     53       0.2821      2.00000
     54       0.2822      2.00000
     55       0.2837      2.00000
     56       0.2855      2.00000
     57       0.2864      2.00000
     58       1.8684      2.00000
     59       1.8700      2.00000
     60       1.8702      2.00000
     61       1.8708      2.00000
     62       1.8710      2.00000
     63       1.8711      2.00000
     64       1.8713      2.00000
     65       1.8714      2.00000
     66       1.8716      2.00000
     67       1.8721      2.00000
     68       1.8724      2.00000
     69       1.8738      2.00000
     70       1.9706      2.00000
     71       1.9710      2.00000
     72       1.9717      2.00000
     73       1.9724      2.00000
     74       1.9728      2.00000
     75       1.9733      2.00000
     76       1.9733      2.00000
     77       1.9738      2.00000
     78       1.9742      2.00000
     79       1.9749      2.00000
     80       1.9756      2.00000
     81       1.9760      2.00000
     82       2.2487      2.00000
     83       2.2505      2.00000
     84       2.2514      2.00000
     85       2.2514      2.00000
     86       2.2524      2.00000
     87       2.2542      2.00000
     88       2.9005      2.00000
     89       2.9016      2.00000
     90       2.9017      2.00000
     91       2.9017      2.00000
     92       2.9019      2.00000
     93       2.9030      2.00000
     94       3.8635      2.00000
     95       3.8636      2.00000
     96       3.8659      2.00000
     97       3.8659      2.00000
     98       3.8665      2.00000
     99       3.8665      2.00000
    100       3.8669      2.00000
    101       3.8669      2.00000
    102       3.8674      2.00000
    103       3.8674      2.00000
    104       3.8698      2.00000
    105       3.8698      2.00000
    106       4.4328      2.00000
    107       4.4340      2.00000
    108       4.4356      2.00000
    109       4.4360      2.00000
    110       4.4368      2.00000
    111       4.4370      2.00000
    112       4.4370      2.00000
    113       4.4372      2.00000
    114       4.4380      2.00000
    115       4.4384      2.00000
    116       4.4399      2.00000
    117       4.4411      2.00000
    118       4.5670      2.00000
    119       4.5675      2.00000
    120       4.5690      2.00000
    121       4.5697      2.00000
    122       4.5700      2.00000
    123       4.5707      2.00000
    124       4.5722      2.00000
    125       4.5729      2.00000
    126       5.7698      2.00000
    127       5.7720      2.00000
    128       5.7741      2.00000
    129       6.3634      0.00000
    130       6.3654      0.00000
    131       6.3657      0.00000
    132       6.3658      0.00000
    133       6.3662      0.00000
    134       6.3681      0.00000
    135       6.8060      0.00000
    136       6.8069      0.00000
    137       6.8081      0.00000
    138       6.8081      0.00000
    139       6.8092      0.00000
    140       6.8101      0.00000
    141       7.2316      0.00000
    142       7.2320      0.00000
    143       7.2320      0.00000
    144       7.2324      0.00000
    145       8.1350      0.00000
    146       8.1352      0.00000
    147       8.1361      0.00000
    148       8.1363      0.00000
    149       8.1377      0.00000
    150       8.1379      0.00000
    151       8.1379      0.00000
    152       8.1382      0.00000
    153       8.1396      0.00000
    154       8.1398      0.00000
    155       8.1405      0.00000
    156       8.1408      0.00000
    157       8.2877      0.00000
    158       8.2890      0.00000
    159       8.2902      0.00000
    160       8.7963      0.00000
    161       8.7974      0.00000
    162       8.7979      0.00000
    163       8.7979      0.00000
    164       8.7984      0.00000
    165       8.7996      0.00000
    166       9.0490      0.00000
    167       9.0508      0.00000
    168       9.0520      0.00000

 k-point     2 :       0.5000    0.0000    0.0000
  band No.  band energies     occupation 
      1      -5.9327      2.00000
      2      -5.9313      2.00000
      3      -4.8747      2.00000
      4      -4.8743      2.00000
      5      -4.8736      2.00000
      6      -4.8728      2.00000
      7      -4.8726      2.00000
      8      -4.8724      2.00000
      9      -4.8718      2.00000
     10      -4.8698      2.00000
     11      -4.0250      2.00000
     12      -4.0246      2.00000
     13      -4.0237      2.00000
     14      -4.0229      2.00000
     15      -4.0227      2.00000
     16      -4.0225      2.00000
     17      -4.0214      2.00000
     18      -4.0188      2.00000
     19      -3.8068      2.00000
     20      -3.8045      2.00000
     21      -3.0810      2.00000
     22      -3.0776      2.00000
     23      -3.0770      2.00000
     24      -3.0763      2.00000
     25      -3.0761      2.00000
     26      -3.0753      2.00000
     27      -3.0742      2.00000
     28      -3.0736      2.00000
     29      -1.9740      2.00000
     30      -1.9736      2.00000
     31      -1.9717      2.00000
     32      -1.9717      2.00000
     33      -1.9715      2.00000
     34      -1.9713      2.00000
     35      -1.9705      2.00000
     36      -1.9675      2.00000
     37      -0.8067      2.00000
     38      -0.8059      2.00000
     39      -0.8038      2.00000
     40      -0.8031      2.00000
     41      -0.8028      2.00000
     42      -0.8016      2.00000
     43      -0.8012      2.00000
     44      -0.7993      2.00000
     45      -0.6373      2.00000
     46      -0.6355      2.00000
     47      -0.6346      2.00000
     48      -0.6343      2.00000
     49      -0.6340      2.00000
     50      -0.6331      2.00000
     51      -0.6317      2.00000
     52      -0.6310      2.00000
     53       0.0225      2.00000
     54       0.0240      2.00000
     55       1.4713      2.00000
     56       1.4729      2.00000
     57       1.4735      2.00000
     58       1.4737      2.00000
     59       1.4744      2.00000
     60       1.4750      2.00000
     61       1.4757      2.00000
     62       1.4770      2.00000
     63       1.4917      2.00000
     64       1.4926      2.00000
     65       1.4929      2.00000
     66       1.4932      2.00000
     67       1.4934      2.00000
     68       1.4943      2.00000
     69       1.4945      2.00000
     70       1.4946      2.00000
     71       2.3169      2.00000
     72       2.3170      2.00000
     73       2.3176      2.00000
     74       2.3177      2.00000
     75       2.3181      2.00000
     76       2.3185      2.00000
     77       2.3191      2.00000
     78       2.3194      2.00000
     79       3.0224      2.00000
     80       3.0240      2.00000
     81       3.0244      2.00000
     82       3.0246      2.00000
     83       3.0249      2.00000
     84       3.0254      2.00000
     85       3.0256      2.00000
     86       3.0272      2.00000
     87       3.1465      2.00000
     88       3.1477      2.00000
     89       3.1484      2.00000
     90       3.1494      2.00000
     91       3.1565      2.00000
     92       3.1582      2.00000
     93       3.1586      2.00000
     94       3.1591      2.00000
     95       3.1598      2.00000
     96       3.1599      2.00000
     97       3.1607      2.00000
     98       3.1610      2.00000
     99       3.2835      2.00000
    100       3.2845      2.00000
    101       3.2850      2.00000
    102       3.2854      2.00000
    103       3.2859      2.00000
    104       3.2864      2.00000
    105       3.2872      2.00000
    106       3.2882      2.00000
    107       4.3285      2.00000
    108       4.3305      2.00000
    109       4.3311      2.00000
    110       4.3316      2.00000
    111       4.3319      2.00000
    112       4.3326      2.00000
    113       4.3334      2.00000
    114       4.3349      2.00000
    115       4.4329      2.00000
    116       4.4330      2.00000
    117       4.4966      2.00000
    118       4.4999      2.00000
    119       4.5002      2.00000
    120       4.5008      2.00000
    121       4.5009      2.00000
    122       4.5014      2.00000
    123       4.5021      2.00000
    124       4.5055      2.00000
    125       4.9528      2.00000
    126       4.9547      2.00000
    127       4.9557      2.00000
    128       4.9576      2.00000
    129       6.2790      0.00000
    130       6.2804      0.00000
    131       7.1933      0.00000
    132       7.1946      0.00000
    133       7.6431      0.00000
    134       7.6444      0.00000
    135       7.6449      0.00000
    136       7.6461      0.00000
    137       7.6463      0.00000
    138       7.6467      0.00000
    139       7.6468      0.00000
    140       7.6483      0.00000
    141       7.7139      0.00000
    142       7.7144      0.00000
    143       8.0572      0.00000
    144       8.0590      0.00000
    145       8.0593      0.00000
    146       8.0596      0.00000
    147       8.0597      0.00000
    148       8.0602      0.00000
    149       8.0603      0.00000
    150       8.0623      0.00000
    151       8.1429      0.00000
    152       8.1439      0.00000
    153       8.1452      0.00000
    154       8.1455      0.00000
    155       8.1459      0.00000
    156       8.1463      0.00000
    157       8.1471      0.00000
    158       8.1484      0.00000
    159       8.5511      0.00000
    160       8.5517      0.00000
    161       8.5520      0.00000
    162       8.5524      0.00000
    163       8.5531      0.00000
    164       8.5533      0.00000
    165       8.5539      0.00000
    166       8.5548      0.00000
    167       9.3189      0.00000
    168       9.3233      0.00000

 k-point     3 :      -0.0000    0.5000    0.0000
  band No.  band energies     occupation 
      1      -5.9320      2.00000
      2      -5.9320      2.00000
      3      -4.8747      2.00000
      4      -4.8747      2.00000
      5      -4.8729      2.00000
      6      -4.8729      2.00000
      7      -4.8725      2.00000
      8      -4.8725      2.00000
      9      -4.8708      2.00000
     10      -4.8708      2.00000
     11      -4.0267      2.00000
     12      -4.0230      2.00000
     13      -4.0227      2.00000
     14      -4.0227      2.00000
     15      -4.0227      2.00000
     16      -4.0227      2.00000
     17      -4.0224      2.00000
     18      -4.0187      2.00000
     19      -3.8057      2.00000
     20      -3.8057      2.00000
     21      -3.0784      2.00000
     22      -3.0783      2.00000
     23      -3.0766      2.00000
     24      -3.0766      2.00000
     25      -3.0762      2.00000
     26      -3.0762      2.00000
     27      -3.0744      2.00000
     28      -3.0744      2.00000
     29      -1.9758      2.00000
     30      -1.9718      2.00000
     31      -1.9715      2.00000
     32      -1.9715      2.00000
     33      -1.9715      2.00000
     34      -1.9714      2.00000
     35      -1.9711      2.00000
     36      -1.9672      2.00000
     37      -0.8060      2.00000
     38      -0.8060      2.00000
     39      -0.8030      2.00000
     40      -0.8030      2.00000
     41      -0.8030      2.00000
     42      -0.8030      2.00000
     43      -0.8001      2.00000
     44      -0.8001      2.00000
     45      -0.6374      2.00000
     46      -0.6350      2.00000
     47      -0.6340      2.00000
     48      -0.6340      2.00000
     49      -0.6340      2.00000
     50      -0.6339      2.00000
     51      -0.6329      2.00000
     52      -0.6304      2.00000
     53       0.0232      2.00000
     54       0.0232      2.00000
     55       1.4716      2.00000
     56       1.4716      2.00000
     57       1.4741      2.00000
     58       1.4741      2.00000
     59       1.4745      2.00000
     60       1.4745      2.00000
[...]
         0         1         2         3         4         5         6         7         8         9
 total charge-density along one line
 
 pseudopotential strength for first ion, spin component:           1
 18.404  25.676  -0.000  -0.000   0.000  -0.000  -0.000   0.000
 25.676  35.825  -0.000  -0.000   0.000  -0.000  -0.000   0.000
 -0.000  -0.000   4.177   0.000   0.000   7.782   0.000   0.000
 -0.000  -0.000   0.000   4.177   0.000   0.000   7.782   0.000
  0.000   0.000   0.000   0.000   4.177   0.000   0.000   7.782
 -0.000  -0.000   7.782   0.000   0.000  14.509   0.000   0.000
 -0.000  -0.000   0.000   7.782   0.000   0.000  14.509   0.000
  0.000   0.000   0.000   0.000   7.782   0.000   0.000  14.509
 total augmentation occupancy for first ion, spin component:           1
  5.948  -2.288  -0.000  -0.000   0.019   0.000   0.000  -0.006
 -2.288   0.989   0.000  -0.000  -0.009  -0.000  -0.000   0.003
 -0.000   0.000   3.001   0.022   0.000  -0.682  -0.006  -0.000
 -0.000  -0.000   0.022   3.001  -0.000  -0.006  -0.681   0.000
  0.019  -0.009   0.000  -0.000   3.000  -0.000   0.000  -0.681
  0.000  -0.000  -0.682  -0.006  -0.000   0.164   0.002   0.000
  0.000  -0.000  -0.006  -0.681   0.000   0.002   0.164  -0.000
 -0.006   0.003  -0.000   0.000  -0.681   0.000  -0.000   0.164


------------------------ aborting loop because EDIFF is reached ----------------------------------------


    CHARGE:  cpu time      0.0766: real time      0.0770
    FORLOC:  cpu time      0.0087: real time      0.0089
    FORNL :  cpu time      1.0546: real time      1.0586
    STRESS:  cpu time      2.1450: real time      2.1546
    FORCOR:  cpu time      0.0282: real time      0.0283
    FORHAR:  cpu time      0.0115: real time      0.0115
    MIXING:  cpu time      0.0009: real time      0.0009
    OFIELD:  cpu time      0.0000: real time      0.0000

  FORCE on cell =-STRESS in cart. coord.  units (eV):
  Direction    XX          YY          ZZ          XY          YZ          ZX
  --------------------------------------------------------------------------------------
  Alpha Z   107.38121   107.38121   107.38121
  Ewald   -2435.97724 -2435.96734 -2435.97723     0.78458     0.78458    -0.00066
  Hartree   156.26116   156.26293   156.26117     0.08694     0.08694    -0.00025
  E(xc)    -817.39781  -817.39794  -817.39781    -0.01015    -0.01015    -0.00000
  Local    -931.45623  -931.46743  -931.45625    -0.81826    -0.81827     0.00091
  n-local  2483.02427  2483.02631  2483.02427     0.16277     0.16275     0.00000
  augment  -368.16894  -368.16906  -368.16894    -0.00718    -0.00718     0.00000
  Kinetic  1806.30868  1806.30832  1806.30868    -0.09991    -0.09986    -0.00003
  Fock        0.00000     0.00000     0.00000     0.00000     0.00000     0.00000
  -------------------------------------------------------------------------------------
  Total      -0.02490    -0.02299    -0.02490     0.09879     0.09881    -0.00002
  in kB      -0.03107    -0.02869    -0.03106     0.12326     0.12329    -0.00003
  external pressure =       -0.03 kB  Pullay stress =        0.00 kB


 VOLUME and BASIS-vectors are now :
 -----------------------------------------------------------------------------
  energy-cutoff  :      318.00
  volume of cell :     1284.06
      direct lattice vectors                 reciprocal lattice vectors
    10.869145120 -0.000000000 -0.000000000     0.092003556  0.000000000 -0.000000000
    -0.000000000 10.869145120  0.000000000     0.000000000  0.092003556 -0.000000000
     0.000000000  0.000000000 10.869145120     0.000000000 -0.000000000  0.092003556

  length of vectors
    10.869145120 10.869145120 10.869145120     0.092003556  0.092003556  0.092003556


 FORCES acting on ions
    electron-ion (+dipol)            ewald-force                    non-local-force                 convergence-correction
 -----------------------------------------------------------------------------------------------
   0.465E+00 0.170E-02 -.296E-01   -.417E+00 -.118E-13 0.292E-01   -.178E+00 -.750E-03 0.222E-02   -.575E-05 -.302E-05 -.575E-06
   -.479E-02 -.171E-02 -.299E-01   0.476E-02 -.102E-13 0.296E-01   -.166E-02 0.758E-03 0.224E-02   0.338E-05 -.398E-05 0.522E-06
   0.147E-01 0.501E-03 -.592E-03   -.148E-01 -.107E-13 0.911E-03   -.463E-04 -.428E-03 0.874E-05   -.508E-05 0.340E-05 -.269E-06
   -.101E-01 -.507E-03 -.596E-03   0.106E-01 -.107E-13 0.911E-03   0.162E-03 0.425E-03 0.102E-04   0.668E-05 0.388E-05 0.271E-06
   0.765E-01 0.165E-02 -.301E-01   -.759E-01 -.622E-14 0.297E-01   -.202E-02 -.709E-03 0.222E-02   -.371E-05 -.243E-05 -.560E-06
   -.719E-01 -.165E-02 -.301E-01   0.717E-01 -.622E-14 0.297E-01   0.214E-02 0.710E-03 0.222E-02   0.554E-05 -.599E-05 -.471E-06
   0.356E-02 0.508E-03 -.670E-03   -.127E-01 -.622E-14 0.980E-03   0.582E-02 -.435E-03 0.180E-04   -.605E-05 0.277E-05 -.555E-06
   -.131E-01 -.512E-03 -.667E-03   0.122E-01 -.142E-13 0.980E-03   0.517E-03 0.431E-03 0.164E-04   0.575E-05 0.462E-05 -.138E-05
   0.218E-01 -.274E-03 0.216E-01   -.368E-01 0.212E-03 -.366E-01   0.117E-01 0.772E-04 0.117E-01   -.297E-05 -.497E-05 0.456E-05
   -.251E-01 -.485E-02 0.266E-01   0.208E-01 0.744E-04 -.368E-01   0.524E-02 0.581E-02 0.594E-02   0.610E-05 -.377E-05 0.170E-05
   0.315E-01 0.272E-03 0.312E-01   -.368E-01 -.212E-03 -.366E-01   0.816E-04 -.862E-04 0.209E-03   -.564E-05 0.523E-05 0.101E-05
   -.154E-01 -.465E-02 0.265E-01   0.208E-01 -.744E-04 -.368E-01   -.633E-02 0.574E-02 0.592E-02   0.463E-05 0.594E-05 0.449E-05
   0.266E-01 0.465E-02 -.248E-01   -.367E-01 0.744E-04 0.206E-01   0.591E-02 -.574E-02 0.517E-02   -.630E-05 -.559E-05 -.413E-06
   -.200E-01 0.642E-04 -.201E-01   0.206E-01 -.637E-04 0.207E-01   -.583E-03 0.518E-05 -.580E-03   0.513E-05 -.577E-05 -.193E-05
   0.264E-01 0.485E-02 -.152E-01   -.367E-01 -.744E-04 0.206E-01   0.594E-02 -.581E-02 -.638E-02   -.407E-05 0.439E-05 -.210E-05
   -.202E-01 -.647E-04 -.202E-01   0.206E-01 0.637E-04 0.207E-01   -.569E-03 -.342E-05 -.575E-03   0.575E-05 0.443E-05 -.192E-05
   -.304E-01 -.166E-02 0.465E+00   0.301E-01 -.111E-13 -.417E+00   0.223E-02 0.718E-03 -.178E+00   -.366E-05 -.420E-05 0.248E-05
   -.299E-01 -.171E-02 0.768E-01   0.296E-01 0.000E+00 -.762E-01   0.223E-02 0.760E-03 -.203E-02   0.372E-05 -.535E-05 0.304E-05
   -.668E-03 -.512E-03 0.147E-01   0.980E-03 -.577E-14 -.148E-01   0.179E-04 0.432E-03 -.437E-04   -.428E-05 0.320E-05 0.147E-05
   -.596E-03 -.505E-03 0.355E-02   0.911E-03 -.355E-14 -.127E-01   0.865E-05 0.424E-03 0.583E-02   0.292E-05 0.350E-05 0.186E-05
   -.301E-01 0.165E-02 -.513E-02   0.297E-01 -.755E-14 0.511E-02   0.222E-02 -.709E-03 -.165E-02   -.395E-05 -.334E-05 -.281E-05
   -.299E-01 0.171E-02 -.723E-01   0.296E-01 -.400E-14 0.720E-01   0.224E-02 -.760E-03 0.215E-02   0.364E-05 -.203E-05 -.165E-05
   -.665E-03 0.508E-03 -.101E-01   0.980E-03 -.131E-13 0.106E-01   0.172E-04 -.436E-03 0.160E-03   -.355E-05 0.419E-05 -.220E-06
   -.597E-03 0.500E-03 -.131E-01   0.911E-03 0.311E-14 0.122E-01   0.793E-05 -.428E-03 0.514E-03   0.408E-05 0.381E-05 -.829E-06
   -.318E-01 0.345E-03 -.316E-01   0.297E-01 -.352E-03 0.296E-01   0.298E-02 -.310E-05 0.294E-02   -.484E-05 -.515E-05 -.420E-06
   -.304E-01 0.621E-01 -.231E-02   0.296E-01 -.614E-01 0.911E-03   0.266E-02 -.198E-02 0.769E-03   0.349E-05 -.400E-05 -.168E-05
   -.283E-01 -.370E-03 -.283E-01   0.297E-01 0.352E-03 0.296E-01   0.146E-02 0.265E-04 0.154E-02   -.296E-05 0.444E-05 0.635E-06
   -.294E-01 -.621E-01 0.112E-02   0.296E-01 0.614E-01 0.911E-03   0.181E-02 0.198E-02 -.750E-03   0.419E-05 0.378E-05 0.537E-06
   -.232E-02 -.618E-01 -.306E-01   0.980E-03 0.610E-01 0.297E-01   0.727E-03 0.198E-02 0.265E-02   -.531E-05 -.609E-05 -.111E-05
   -.111E-02 0.426E-05 -.117E-02   0.911E-03 -.506E-05 0.980E-03   0.441E-03 0.375E-05 0.444E-03   0.503E-05 -.481E-05 -.312E-06
   0.985E-03 0.618E-01 -.296E-01   0.980E-03 -.610E-01 0.297E-01   -.693E-03 -.198E-02 0.179E-02   -.241E-05 0.667E-05 -.385E-06
   -.867E-04 -.209E-05 -.165E-03   0.911E-03 0.506E-05 0.980E-03   -.424E-03 -.668E-05 -.410E-03   0.212E-05 0.463E-05 -.109E-05
   -.174E-01 -.206E+00 -.218E+00   0.147E-01 0.180E+00 0.191E+00   0.353E-01 0.492E-01 0.500E-01   -.158E-05 0.519E-06 -.926E-06
   -.342E-01 -.172E-03 -.345E-01   0.354E-01 0.175E-03 0.356E-01   -.872E-03 -.125E-05 -.863E-03   0.425E-06 0.817E-06 -.108E-05
   0.110E-01 0.200E-01 -.128E-01   -.123E-01 -.194E-01 0.142E-01   0.109E-02 -.587E-03 -.114E-02   -.140E-05 -.132E-05 -.586E-06
   -.117E-01 0.701E-04 -.117E-01   0.114E-01 -.626E-04 0.114E-01   0.761E-03 -.937E-05 0.796E-03   0.113E-05 -.730E-06 -.851E-06
   0.310E-01 0.247E-04 0.308E-01   -.317E-01 -.254E-04 -.315E-01   0.495E-03 -.359E-05 0.505E-03   -.570E-06 0.800E-06 0.310E-05
   -.217E+00 0.205E+00 -.194E-01   0.190E+00 -.179E+00 0.164E-01   0.493E-01 -.485E-01 0.354E-01   0.206E-05 -.497E-07 0.300E-07
   0.146E-01 -.190E-05 0.145E-01   -.112E-01 0.174E-04 -.111E-01   -.108E-02 -.108E-04 -.110E-02   -.921E-06 -.163E-05 -.106E-07
   -.129E-01 -.201E-01 0.108E-01   0.142E-01 0.194E-01 -.122E-01   -.113E-02 0.594E-03 0.109E-02   0.131E-05 -.153E-05 0.177E-05
   -.264E-01 0.208E+00 0.216E+00   0.234E-01 -.183E+00 -.191E+00   0.352E-01 -.483E-01 -.481E-01   -.766E-06 -.407E-05 0.252E-06
   0.151E+00 0.185E+00 -.258E-01   -.124E+00 -.160E+00 0.233E-01   -.499E-01 -.490E-01 0.347E-01   -.149E-06 -.739E-05 0.141E-05
   0.123E-01 -.187E-01 0.189E-01   -.113E-01 0.203E-01 -.142E-01   -.174E-02 -.225E-02 -.305E-02   -.147E-05 0.505E-05 0.666E-06
   -.103E-01 -.908E-02 0.943E-02   0.838E-02 0.868E-02 -.113E-01   0.171E-02 -.161E-03 0.114E-02   0.134E-05 0.720E-05 0.111E-05
   0.219E-01 0.150E-02 -.333E-01   -.230E-01 -.307E-02 0.318E-01   0.345E-03 0.923E-03 0.143E-02   -.673E-08 -.630E-05 -.154E-05
   -.328E-01 -.210E-01 -.429E-01   0.317E-01 0.203E-01 0.442E-01   0.934E-03 0.146E-03 -.152E-02   0.665E-06 -.575E-05 -.106E-05
   0.159E-01 0.130E-02 -.847E-02   -.101E-01 0.100E-02 0.111E-01   -.392E-02 -.284E-02 -.310E-02   -.198E-05 0.668E-05 -.112E-05
   -.114E-01 0.109E-01 -.133E-01   0.111E-01 -.107E-01 0.124E-01   -.215E-03 -.747E-03 0.843E-03   0.180E-05 0.720E-05 -.180E-05
   -.213E+00 -.964E-03 -.210E+00   0.185E+00 0.875E-03 0.182E+00   0.837E-01 0.708E-03 0.830E-01   -.421E-05 0.107E-05 0.284E-05
   -.340E-01 -.227E-01 0.306E-01   0.356E-01 0.235E-01 -.318E-01   -.136E-02 -.778E-03 0.994E-03   0.545E-05 -.516E-06 0.157E-05
   0.779E-02 -.601E-04 0.791E-02   -.811E-02 0.587E-04 -.823E-02   0.223E-03 0.856E-05 0.219E-03   -.771E-05 -.104E-05 0.733E-06
   -.146E-01 0.968E-02 0.175E-01   0.114E-01 -.117E-01 -.112E-01   0.368E-02 0.208E-02 -.401E-02   0.681E-05 -.602E-06 0.185E-05
   0.303E-01 0.225E-01 -.338E-01   -.315E-01 -.234E-01 0.354E-01   0.999E-03 0.773E-03 -.137E-02   -.695E-05 0.128E-05 -.189E-05
   -.242E-01 -.562E-04 -.243E-01   0.231E-01 0.267E-04 0.232E-01   0.159E-02 0.267E-04 0.160E-02   0.556E-05 0.401E-06 -.294E-05
   0.174E-01 -.961E-02 -.146E-01   -.111E-01 0.117E-01 0.114E-01   -.398E-02 -.210E-02 0.369E-02   -.589E-05 -.247E-05 -.229E-05
   -.975E-02 0.228E-04 -.980E-02   0.101E-01 -.175E-04 0.102E-01   -.267E-03 -.279E-05 -.263E-03   0.674E-05 -.492E-06 -.969E-06
   -.281E-01 -.184E+00 0.150E+00   0.252E-01 0.159E+00 -.123E+00   0.347E-01 0.483E-01 -.492E-01   -.562E-05 -.452E-05 -.190E-05
   -.430E-01 0.212E-01 -.329E-01   0.442E-01 -.205E-01 0.319E-01   -.153E-02 -.171E-03 0.940E-03   0.835E-05 -.496E-05 -.121E-05
   0.922E-02 0.906E-02 -.102E-01   -.112E-01 -.868E-02 0.831E-02   0.117E-02 0.162E-03 0.171E-02   -.737E-05 0.578E-05 -.558E-06
   -.133E-01 -.110E-01 -.114E-01   0.124E-01 0.107E-01 0.111E-01   0.840E-03 0.756E-03 -.189E-03   0.583E-05 0.565E-05 -.147E-05
   0.215E+00 -.207E+00 -.285E-01   -.190E+00 0.182E+00 0.252E-01   -.473E-01 0.476E-01 0.352E-01   -.774E-05 -.535E-05 0.893E-06
   -.334E-01 -.145E-02 0.218E-01   0.318E-01 0.307E-02 -.229E-01   0.144E-02 -.945E-03 0.333E-03   0.464E-05 -.552E-05 0.205E-05
   0.189E-01 0.187E-01 0.121E-01   -.142E-01 -.204E-01 -.112E-01   -.307E-02 0.225E-02 -.176E-02   -.537E-05 0.657E-05 0.129E-05
   -.845E-02 -.133E-02 0.159E-01   0.111E-01 -.100E-02 -.101E-01   -.311E-02 0.284E-02 -.394E-02   0.704E-05 0.692E-05 0.126E-05
 -----------------------------------------------------------------------------------------------
   0.370E-04 0.231E-04 -.414E-04   0.184E-13 0.117E-13 0.193E-13   -.322E-04 -.234E-04 0.474E-04   0.107E-05 0.701E-07 0.515E-06
 
 
 POSITION                                       TOTAL-FORCE (eV/Angst)
 -----------------------------------------------------------------------------------
      2.72729      2.71729      2.71729        -0.130284      0.000946      0.001857
      8.15186      2.71729      2.71729        -0.001686     -0.000952      0.001878
      2.71729      8.15186      2.71729        -0.000120      0.000076      0.000327
      8.15186      8.15186      2.71729         0.000648     -0.000077      0.000325
      2.71729      2.71729      8.15186        -0.001372      0.000942      0.001861
      8.15186      2.71729      8.15186         0.001902     -0.000944      0.001861
      2.71729      8.15186      8.15186        -0.003322      0.000076      0.000327
      8.15186      8.15186      8.15186        -0.000378     -0.000077      0.000327
      2.71729     -0.00000     -0.00000        -0.003336      0.000011     -0.003314
      8.15186     -0.00000     -0.00000         0.000914      0.001030     -0.004200
      2.71729      5.43457      0.00000        -0.005222     -0.000022     -0.005215
      8.15186      5.43457     -0.00000        -0.000976      0.001019     -0.004343
      2.71729      0.00000      5.43457        -0.004190     -0.001018      0.000904
      8.15186     -0.00000      5.43457         0.000040     -0.000000      0.000037
      2.71729      5.43457      5.43457        -0.004354     -0.001029     -0.000994
      8.15186      5.43457      5.43457        -0.000117     -0.000000     -0.000113
     -0.00000      2.71729      0.01000         0.001880     -0.000948     -0.130271
      5.43457      2.71729     -0.00000         0.001877     -0.000953     -0.001386
     -0.00000      8.15186      0.00000         0.000325     -0.000077     -0.000122
      5.43457      8.15186      0.00000         0.000326     -0.000077     -0.003326
      0.00000      2.71729      5.43457         0.001860      0.000942     -0.001673
      5.43457      2.71729      5.43457         0.001876      0.000952      0.001914
     -0.00000      8.15186      5.43457         0.000328      0.000076      0.000651
      5.43457      8.15186      5.43457         0.000326      0.000076     -0.000377
      0.00000      0.00000      2.71729         0.000909     -0.000015      0.000934
      5.43457     -0.00000      2.71729         0.001800     -0.001267     -0.000627
     -0.00000      5.43457      2.71729         0.002819      0.000012      0.002813
      5.43457      5.43457      2.71729         0.001954      0.001264      0.001279
      0.00000      0.00000      8.15186        -0.000615      0.001250      0.001784
      5.43457      0.00000      8.15186         0.000250     -0.000002      0.000250
      0.00000      5.43457      8.15186         0.001269     -0.001251      0.001937
      5.43457      5.43457      8.15186         0.000403      0.000001      0.000403
      4.07593      4.07593      4.07593         0.032702      0.022754      0.023229
      9.51050      4.07593      4.07593         0.000252      0.000002      0.000254
      4.07593      9.51050      4.07593        -0.000245      0.000073      0.000228
      9.51050      9.51050      4.07593         0.000473     -0.000003      0.000474
      4.07593      4.07593      9.51050        -0.000177     -0.000003     -0.000169
      9.51050      4.07593      9.51050         0.022619     -0.022145      0.032397
      4.07593      9.51050      9.51050         0.002339      0.000003      0.002334
      9.51050      9.51050      9.51050         0.000231     -0.000066     -0.000239
      4.07593      1.35864      1.35864         0.032146     -0.023411     -0.023517
      9.51050      1.35864      1.35864        -0.023093     -0.023348      0.032146
      4.07593      6.79322      1.35864        -0.000769     -0.000596      0.001684
      9.51050      6.79322      1.35864        -0.000189     -0.000555     -0.000764
      4.07593      1.35864      6.79322        -0.000728     -0.000656     -0.000123
      9.51050      1.35864      6.79322        -0.000122     -0.000591     -0.000300
      4.07593      6.79322      6.79322         0.001818     -0.000525     -0.000431
      9.51050      6.79322      6.79322        -0.000429     -0.000484     -0.000052
      1.35864      4.07593      1.35864         0.055184      0.000621      0.054891
      6.79322      4.07593      1.35864         0.000255      0.000067     -0.000175
      1.35864      9.51050      1.35864        -0.000104      0.000006     -0.000106
      6.79322      9.51050      1.35864         0.000477      0.000039      0.002345
      1.35864      4.07593      6.79322        -0.000169     -0.000069      0.000250
      6.79322      4.07593      6.79322         0.000436     -0.000002      0.000435
      1.35864      9.51050      6.79322         0.002329     -0.000039      0.000470
      6.79322      9.51050      6.79322         0.000093      0.000002      0.000091
      1.35864      1.35864      4.07593         0.031842      0.022739     -0.022487
      6.79322      1.35864      4.07593        -0.000303      0.000595     -0.000117
      1.35864      6.79322      4.07593        -0.000767      0.000554     -0.000186
      6.79322      6.79322      4.07593        -0.000046      0.000485     -0.000433
      1.35864      1.35864      9.51050        -0.022913      0.022812      0.031843
      6.79322      1.35864      9.51050        -0.000114      0.000665     -0.000727
      1.35864      6.79322      9.51050         0.001669      0.000590     -0.000763
      6.79322      6.79322      9.51050        -0.000431      0.000522      0.001809
 -----------------------------------------------------------------------------------
    total drift:                                0.000006     -0.000000      0.000006


--------------------------------------------------------------------------------------------------------



  FREE ENERGIE OF THE ION-ELECTRON SYSTEM (eV)
  ---------------------------------------------------
  free  energy   TOTEN  =      -367.49988794 eV

  energy  without entropy=     -367.49988794  energy(sigma->0) =     -367.49988794
 


--------------------------------------------------------------------------------------------------------


    POTLOK:  cpu time      0.0425: real time      0.0427


--------------------------------------------------------------------------------------------------------


     LOOP+:  cpu time     44.0803: real time     44.3199
    4ORBIT:  cpu time      0.0000: real time      0.0000

 total amount of memory used by VASP MPI-rank0    65387. kBytes
=======================================================================

   base      :      30000. kBytes
   nonl-proj :       6402. kBytes
   fftplans  :      11573. kBytes
   grid      :       5816. kBytes
   one-center:         49. kBytes
   wavefun   :      11547. kBytes
 
  
  
 General timing and accounting informations for this job:
 ========================================================
  
                  Total CPU time used (sec):       46.075
                            User time (sec):       44.764
                          System time (sec):        1.311
                         Elapsed time (sec):       46.487
  
                   Maximum memory used (kb):      226996.
                   Average memory used (kb):          N/A
  
                          Minor page faults:        83523
                          Major page faults:            0
                 Voluntary context switches:          752
