<?xml version="1.0" encoding="ISO-8859-1"?>
<modeling>
 <generator>
  <i name="program" type="string">vasp </i>
  <i name="version" type="string">6.3.2  </i>
  <i name="subversion" type="string">27Jun22 (build Oct 14 2022 12:13:54) complex                          parallel </i>
  <i name="platform" type="string">LinuxIFC </i>
  <i name="date" type="string">2023 04 03 </i>
  <i name="time" type="string">14:48:54 </i>
 </generator>
 <incar>
  <i type="string" name="PREC">Accurate</i>
  <i type="int" name="IALGO">    38</i>
  <i type="logical" name="ADDGRID"> T  </i>
  <i type="int" name="NELMIN">     5</i>
  <i type="int" name="IBRION">    -1</i>
  <i name="EDIFF">      0.00000001</i>
  <i name="ENCUT">    318.00000000</i>
  <i type="logical" name="LREAL"> F  </i>
  <i type="int" name="ISMEAR">     0</i>
  <i name="SIGMA">      0.02000000</i>
  <i type="logical" name="LWAVE"> F  </i>
  <i type="logical" name="LCHARG"> F  </i>
  <i type="string" name="GGA">Ps</i>
 </incar>
 <primitive_cell>
  <structure name="primitive_cell" >
   <crystal>
    <varray name="basis" >
     <v>      10.86914512      -0.00000000      -0.00000000 </v>
     <v>      -0.00000000      10.86914512       0.00000000 </v>
     <v>       0.00000000       0.00000000      10.86914512 </v>
    </varray>
    <i name="volume">   1284.06249692 </i>
    <varray name="rec_basis" >
     <v>       0.09200356       0.00000000      -0.00000000 </v>
     <v>       0.00000000       0.09200356      -0.00000000 </v>
     <v>       0.00000000      -0.00000000       0.09200356 </v>
    </varray>
   </crystal>
   <varray name="positions" >
    <v>       0.25092004       0.25000000       0.25000000 </v>
    <v>       0.75000000       0.25000000       0.25000000 </v>
    <v>       0.25000000       0.75000000       0.25000000 </v>
    <v>       0.75000000       0.75000000       0.25000000 </v>
    <v>       0.25000000       0.25000000       0.75000000 </v>
    <v>       0.75000000       0.25000000       0.75000000 </v>
    <v>       0.25000000       0.75000000       0.75000000 </v>
    <v>       0.75000000       0.75000000       0.75000000 </v>
    <v>       0.25000000       1.00000000       1.00000000 </v>
    <v>       0.75000000       1.00000000       1.00000000 </v>
    <v>       0.25000000       0.50000000       0.00000000 </v>
    <v>       0.75000000       0.50000000       1.00000000 </v>
    <v>       0.25000000       0.00000000       0.50000000 </v>
    <v>       0.75000000       1.00000000       0.50000000 </v>
    <v>       0.25000000       0.50000000       0.50000000 </v>
    <v>       0.75000000       0.50000000       0.50000000 </v>
    <v>       1.00000000       0.25000000       0.00092004 </v>
    <v>       0.50000000       0.25000000       1.00000000 </v>
    <v>       1.00000000       0.75000000       0.00000000 </v>
    <v>       0.50000000       0.75000000       0.00000000 </v>
    <v>       0.00000000       0.25000000       0.50000000 </v>
    <v>       0.50000000       0.25000000       0.50000000 </v>
    <v>       1.00000000       0.75000000       0.50000000 </v>
    <v>       0.50000000       0.75000000       0.50000000 </v>
    <v>       0.00000000       0.00000000       0.25000000 </v>
    <v>       0.50000000       1.00000000       0.25000000 </v>
    <v>       1.00000000       0.50000000       0.25000000 </v>
    <v>       0.50000000       0.50000000       0.25000000 </v>
    <v>       0.00000000       0.00000000       0.75000000 </v>
    <v>       0.50000000       0.00000000       0.75000000 </v>
    <v>       0.00000000       0.50000000       0.75000000 </v>
    <v>       0.50000000       0.50000000       0.75000000 </v>
    <v>       0.37500000       0.37500000       0.37500000 </v>
    <v>       0.87500000       0.37500000       0.37500000 </v>
    <v>       0.37500000       0.87500000       0.37500000 </v>
    <v>       0.87500000       0.87500000       0.37500000 </v>
    <v>       0.37500000       0.37500000       0.87500000 </v>
    <v>       0.87500000       0.37500000       0.87500000 </v>
    <v>       0.37500000       0.87500000       0.87500000 </v>
    <v>       0.87500000       0.87500000       0.87500000 </v>
    <v>       0.37500000       0.12500000       0.12500000 </v>
    <v>       0.87500000       0.12500000       0.12500000 </v>
    <v>       0.37500000       0.62500000       0.12500000 </v>
    <v>       0.87500000       0.62500000       0.12500000 </v>
    <v>       0.37500000       0.12500000       0.62500000 </v>
    <v>       0.87500000       0.12500000       0.62500000 </v>
    <v>       0.37500000       0.62500000       0.62500000 </v>
    <v>       0.87500000       0.62500000       0.62500000 </v>
    <v>       0.12500000       0.37500000       0.12500000 </v>
    <v>       0.62500000       0.37500000       0.12500000 </v>
    <v>       0.12500000       0.87500000       0.12500000 </v>
    <v>       0.62500000       0.87500000       0.12500000 </v>
    <v>       0.12500000       0.37500000       0.62500000 </v>
    <v>       0.62500000       0.37500000       0.62500000 </v>
    <v>       0.12500000       0.87500000       0.62500000 </v>
    <v>       0.62500000       0.87500000       0.62500000 </v>
    <v>       0.12500000       0.12500000       0.37500000 </v>
    <v>       0.62500000       0.12500000       0.37500000 </v>
    <v>       0.12500000       0.62500000       0.37500000 </v>
    <v>       0.62500000       0.62500000       0.37500000 </v>
    <v>       0.12500000       0.12500000       0.87500000 </v>
    <v>       0.62500000       0.12500000       0.87500000 </v>
    <v>       0.12500000       0.62500000       0.87500000 </v>
    <v>       0.62500000       0.62500000       0.87500000 </v>
   </varray>
  </structure>
  <varray name="primitive_index" >
   <v type="int" >        1 </v>
   <v type="int" >        2 </v>
   <v type="int" >        3 </v>
   <v type="int" >        4 </v>
   <v type="int" >        5 </v>
   <v type="int" >        6 </v>
   <v type="int" >        7 </v>
   <v type="int" >        8 </v>
   <v type="int" >        9 </v>
   <v type="int" >       10 </v>
   <v type="int" >       11 </v>
   <v type="int" >       12 </v>
   <v type="int" >       13 </v>
   <v type="int" >       14 </v>
   <v type="int" >       15 </v>
   <v type="int" >       16 </v>
   <v type="int" >       17 </v>
   <v type="int" >       18 </v>
   <v type="int" >       19 </v>
   <v type="int" >       20 </v>
   <v type="int" >       21 </v>
   <v type="int" >       22 </v>
   <v type="int" >       23 </v>
   <v type="int" >       24 </v>
   <v type="int" >       25 </v>
   <v type="int" >       26 </v>
   <v type="int" >       27 </v>
   <v type="int" >       28 </v>
   <v type="int" >       29 </v>
   <v type="int" >       30 </v>
   <v type="int" >       31 </v>
   <v type="int" >       32 </v>
   <v type="int" >       33 </v>
   <v type="int" >       34 </v>
   <v type="int" >       35 </v>
   <v type="int" >       36 </v>
   <v type="int" >       37 </v>
   <v type="int" >       38 </v>
   <v type="int" >       39 </v>
   <v type="int" >       40 </v>
   <v type="int" >       41 </v>
   <v type="int" >       42 </v>
   <v type="int" >       43 </v>
   <v type="int" >       44 </v>
   <v type="int" >       45 </v>
   <v type="int" >       46 </v>
   <v type="int" >       47 </v>
   <v type="int" >       48 </v>
   <v type="int" >       49 </v>
   <v type="int" >       50 </v>
   <v type="int" >       51 </v>
   <v type="int" >       52 </v>
   <v type="int" >       53 </v>
   <v type="int" >       54 </v>
   <v type="int" >       55 </v>
   <v type="int" >       56 </v>
   <v type="int" >       57 </v>
   <v type="int" >       58 </v>
   <v type="int" >       59 </v>
   <v type="int" >       60 </v>
   <v type="int" >       61 </v>
   <v type="int" >       62 </v>
   <v type="int" >       63 </v>
   <v type="int" >       64 </v>
  </varray>
 </primitive_cell>
 <kpoints>
  <generation param="Gamma">
   <v type="int" name="divisions">       2        2        2 </v>
   <v name="usershift">      0.00000000       0.00000000       0.00000000 </v>
   <v name="genvec1">      0.50000000      -0.00000000       0.00000000 </v>
   <v name="genvec2">     -0.00000000       0.50000000       0.00000000 </v>
   <v name="genvec3">     -0.00000000       0.00000000       0.50000000 </v>
   <v name="shift">      0.00000000       0.00000000       0.00000000 </v>
  </generation>
  <varray name="kpointlist" >
   <v>       0.00000000       0.00000000       0.00000000 </v>
   <v>       0.50000000       0.00000000       0.00000000 </v>
   <v>      -0.00000000       0.50000000       0.00000000 </v>
   <v>       0.00000000      -0.00000000       0.50000000 </v>
   <v>       0.50000000       0.50000000       0.00000000 </v>
   <v>       0.00000000       0.50000000       0.50000000 </v>
   <v>       0.50000000      -0.00000000       0.50000000 </v>
   <v>       0.50000000       0.50000000       0.50000000 </v>
  </varray>
  <varray name="weights" >
   <v>       0.12500000 </v>
   <v>       0.12500000 </v>
   <v>       0.12500000 </v>
   <v>       0.12500000 </v>
   <v>       0.12500000 </v>
   <v>       0.12500000 </v>
   <v>       0.12500000 </v>
   <v>       0.12500000 </v>
  </varray>
 </kpoints>
 <parameters>
  <separator name="general" >
   <i type="string" name="SYSTEM">unknown system</i>
   <i type="logical" name="LCOMPAT"> F  </i>
  </separator>
  <separator name="electronic" >
   <i type="string" name="PREC">accura</i>
   <i name="ENMAX">    318.00000000</i>
   <i name="ENAUG">    322.06900000</i>
   <i name="EDIFF">      0.00000001</i>
   <i type="int" name="IALGO">    38</i>
   <i type="int" name="IWAVPR">    10</i>
   <i type="int" name="NBANDS">   168</i>
   <i type="int" name="NBANDSLOW">    -1</i>
   <i type="int" name="NBANDSHIGH">    -1</i>
   <i name="NELECT">    256.00000000</i>
   <i type="int" name="TURBO">     0</i>
   <i type="int" name="IRESTART">     0</i>
   <i type="int" name="NREBOOT">     0</i>
   <i type="int" name="NMIN">     0</i>
   <i name="EREF">      0.00000000</i>
   <separator name="electronic smearing" >
    <i type="int" name="ISMEAR">     0</i>
    <i name="SIGMA">      0.02000000</i>
    <i name="KSPACING">      0.50000000</i>
    <i type="logical" name="KGAMMA"> T  </i>
    <i type="logical" name="KBLOWUP"> T  </i>
   </separator>
   <separator name="electronic projectors" >
    <i type="logical" name="LREAL"> F  </i>
    <v name="ROPT">      0.00000000</v>
    <i type="int" name="LMAXPAW">  -100</i>
    <i type="int" name="LMAXMIX">     2</i>
    <i type="logical" name="NLSPLINE"> F  </i>
   </separator>
   <separator name="electronic startup" >
    <i type="int" name="ISTART">     0</i>
    <i type="int" name="ICHARG">     2</i>
    <i type="int" name="INIWAV">     1</i>
   </separator>
   <separator name="electronic spin" >
    <i type="int" name="ISPIN">     1</i>
    <i type="logical" name="LNONCOLLINEAR"> F  </i>
    <v name="MAGMOM">      1.00000000      1.00000000      1.00000000      1.00000000      1.00000000      1.00000000      1.00000000      1.00000000      1.00000000      1.00000000      1.00000000      1.00000000      1.00000000      1.00000000      1.00000000      1.00000000      1.00000000      1.00000000      1.00000000      1.00000000
      1.00000000      1.00000000      1.00000000      1.00000000      1.00000000      1.00000000      1.00000000      1.00000000      1.00000000      1.00000000      1.00000000      1.00000000      1.00000000      1.00000000      1.00000000      1.00000000      1.00000000      1.00000000      1.00000000      1.00000000
      1.00000000      1.00000000      1.00000000      1.00000000      1.00000000      1.00000000      1.00000000      1.00000000      1.00000000      1.00000000      1.00000000      1.00000000      1.00000000      1.00000000      1.00000000      1.00000000      1.00000000      1.00000000      1.00000000      1.00000000
      1.00000000      1.00000000      1.00000000      1.00000000</v>
    <i name="NUPDOWN">     -1.00000000</i>
    <i type="logical" name="LSORBIT"> F  </i>
    <v name="SAXIS">      0.00000000      0.00000000      1.00000000</v>
    <i type="logical" name="LSPIRAL"> F  </i>
    <v name="QSPIRAL">      0.00000000      0.00000000      0.00000000</v>
    <i type="logical" name="LZEROZ"> F  </i>
   </separator>
   <separator name="electronic exchange-correlation" >
    <i type="logical" name="LASPH"> F  </i>
    <i type="logical" name="LMETAGGA"> F  </i>
   </separator>
   <separator name="electronic convergence" >
    <i type="int" name="NELM">    60</i>
    <i type="int" name="NELMDL">    -5</i>
    <i type="int" name="NELMIN">     5</i>
    <i name="ENINI">    318.00000000</i>
    <separator name="electronic convergence detail" >
     <i type="logical" name="LDIAG"> T  </i>
     <i type="logical" name="LSUBROT"> F  </i>
     <i name="WEIMIN">      0.00000000</i>
     <i name="EBREAK">      0.00000000</i>
     <i name="DEPER">      0.30000000</i>
     <i type="int" name="NRMM">     4</i>
     <i name="TIME">      0.40000000</i>
    </separator>
   </separator>
   <separator name="electronic mixer" >
    <i name="AMIX">      0.40000000</i>
    <i name="BMIX">      1.00000000</i>
    <i name="AMIN">      0.10000000</i>
    <i name="AMIX_MAG">      1.60000000</i>
    <i name="BMIX_MAG">      1.00000000</i>
    <separator name="electronic mixer details" >
     <i type="int" name="IMIX">     4</i>
     <i type="logical" name="MIXFIRST"> F  </i>
     <i type="int" name="MAXMIX">   -45</i>
     <i name="WC">    100.00000000</i>
     <i type="int" name="INIMIX">     1</i>
     <i type="int" name="MIXPRE">     1</i>
     <i type="int" name="MREMOVE">     5</i>
    </separator>
   </separator>
   <separator name="electronic dipolcorrection" >
    <i type="logical" name="LDIPOL"> F  </i>
    <i type="logical" name="LMONO"> F  </i>
    <i type="int" name="IDIPOL">     0</i>
    <i name="EPSILON">      1.00000000</i>
    <v name="DIPOL">   -100.00000000   -100.00000000   -100.00000000</v>
    <i name="EFIELD">      0.00000000</i>
   </separator>
  </separator>
  <separator name="grids" >
   <i type="int" name="NGX">    64</i>
   <i type="int" name="NGY">    64</i>
   <i type="int" name="NGZ">    64</i>
   <i type="int" name="NGXF">   128</i>
   <i type="int" name="NGYF">   128</i>
   <i type="int" name="NGZF">   128</i>
   <i type="logical" name="ADDGRID"> T  </i>
  </separator>
  <separator name="ionic" >
   <i type="int" name="NSW">     0</i>
   <i type="int" name="IBRION">    -1</i>
   <i type="int" name="MDALGO">     0</i>
   <i type="int" name="ISIF">     2</i>
   <i name="PSTRESS">      0.00000000</i>
   <i name="EDIFFG">      0.00000010</i>
   <i type="int" name="NFREE">     0</i>
   <i name="POTIM">      0.50000000</i>
   <i name="SMASS">     -3.00000000</i>
   <i name="SCALEE">      1.00000000</i>
  </separator>
  <separator name="ionic md" >
   <i name="TEBEG">      0.00010000</i>
   <i name="TEEND">      0.00010000</i>
   <i type="int" name="NBLOCK">     1</i>
   <i type="int" name="KBLOCK">     1</i>
   <i type="int" name="NPACO">   256</i>
   <i name="APACO">     10.00000000</i>
  </separator>
  <separator name="symmetry" >
   <i type="int" name="ISYM">     2</i>
   <i name="SYMPREC">      0.00001000</i>
  </separator>
  <separator name="dos" >
   <i type="int" name="LORBIT">     0</i>
   <v name="RWIGS">     -1.00000000</v>
   <i type="int" name="NEDOS">   301</i>
   <i name="EMIN">     10.00000000</i>
   <i name="EMAX">    -10.00000000</i>
   <i name="EFERMI">      0.00000000</i>
  </separator>
  <separator name="writing" >
   <i type="int" name="NWRITE">     2</i>
   <i type="logical" name="LWAVE"> F  </i>
   <i type="logical" name="LDOWNSAMPLE"> F  </i>
   <i type="logical" name="LCHARG"> F  </i>
   <i type="logical" name="LPARD"> F  </i>
   <i type="logical" name="LVTOT"> F  </i>
   <i type="logical" name="LVHAR"> F  </i>
   <i type="logical" name="LELF"> F  </i>
   <i type="logical" name="LOPTICS"> F  </i>
   <v name="STM">      0.00000000      0.00000000      0.00000000      0.00000000      0.00000000      0.00000000      0.00000000</v>
  </separator>
  <separator name="performance" >
   <i type="int" name="NPAR">     8</i>
   <i type="int" name="NSIM">     4</i>
   <i type="int" name="NBLK">    -1</i>
   <i type="logical" name="LPLANE"> T  </i>
   <i type="logical" name="LSCALAPACK"> T  </i>
   <i type="logical" name="LSCAAWARE"> F  </i>
   <i type="logical" name="LSCALU"> F  </i>
   <i type="logical" name="LASYNC"> F  </i>
   <i type="logical" name="LORBITALREAL"> F  </i>
  </separator>
  <separator name="miscellaneous" >
   <i type="int" name="IDIOT">     3</i>
   <i type="int" name="PHON_NSTRUCT">    -1</i>
   <i type="logical" name="LMUSIC"> F  </i>
   <v name="POMASS">     28.08500000</v>
   <v name="DARWINR">      0.00000000</v>
   <v name="DARWINV">      1.00000000</v>
   <i type="logical" name="LCORR"> T  </i>
  </separator>
  <i type="logical" name="GGA_COMPAT"> T  </i>
  <i type="logical" name="LBERRY"> F  </i>
  <i type="int" name="ICORELEVEL">     0</i>
  <i type="logical" name="LDAU"> F  </i>
  <i type="int" name="I_CONSTRAINED_M">     0</i>
  <separator name="electronic exchange-correlation" >
   <i type="string" name="GGA">PS</i>
   <i type="int" name="VOSKOWN">     0</i>
   <i type="logical" name="LHFCALC"> F  </i>
   <i type="string" name="PRECFOCK"></i>
   <i type="logical" name="LSYMGRAD"> F  </i>
   <i type="logical" name="LHFONE"> F  </i>
   <i type="logical" name="LRHFCALC"> F  </i>
   <i type="logical" name="LTHOMAS"> F  </i>
   <i type="logical" name="LMODELHF"> F  </i>
   <i type="logical" name="LFOCKACE"> F  </i>
   <i name="ENCUT4O">     -1.00000000</i>
   <i type="int" name="EXXOEP">     0</i>
   <i type="int" name="FOURORBIT">     0</i>
   <i name="AEXX">      0.00000000</i>
   <i name="HFALPHA">      0.00000000</i>
   <i name="MCALPHA">      0.00000000</i>
   <i name="ALDAX">      1.00000000</i>
   <i name="AGGAX">      1.00000000</i>
   <i name="ALDAC">      1.00000000</i>
   <i name="AGGAC">      1.00000000</i>
   <i type="int" name="NKREDX">     1</i>
   <i type="int" name="NKREDY">     1</i>
   <i type="int" name="NKREDZ">     1</i>
   <i type="logical" name="SHIFTRED"> F  </i>
   <i type="logical" name="ODDONLY"> F  </i>
   <i type="logical" name="EVENONLY"> F  </i>
   <i type="int" name="LMAXFOCK">     0</i>
   <i type="int" name="NMAXFOCKAE">     0</i>
   <i type="logical" name="LFOCKAEDFT"> F  </i>
   <i name="HFSCREEN">      0.00000000</i>
   <i name="HFSCREENC">      0.00000000</i>
   <i type="int" name="NBANDSGWLOW">     0</i>
  </separator>
  <separator name="vdW DFT" >
   <i type="logical" name="LUSE_VDW"> F  </i>
   <i name="Zab_VDW">     -0.84910000</i>
   <i name="PARAM1">      0.12340000</i>
   <i name="PARAM2">      1.00000000</i>
   <i name="PARAM3">      0.00000000</i>
  </separator>
  <separator name="model GW" >
   <i type="int" name="MODEL_GW">     0</i>
   <i name="MODEL_EPS0">     12.03808591</i>
   <i name="MODEL_ALPHA">      1.00000000</i>
  </separator>
  <separator name="linear response parameters" >
   <i type="logical" name="LEPSILON"> F  </i>
   <i type="logical" name="LRPA"> F  </i>
   <i type="logical" name="LNABLA"> F  </i>
   <i type="logical" name="LVEL"> F  </i>
   <i name="CSHIFT">      0.10000000</i>
   <i name="OMEGAMAX">     -1.00000000</i>
   <i name="DEG_THRESHOLD">      0.00200000</i>
   <i name="RTIME">     -0.10000000</i>
   <i name="WPLASMAI">      0.00000000</i>
   <v name="DFIELD">      0.00000000      0.00000000      0.00000000</v>
   <v name="WPLASMA">      0.00000000      0.00000000      0.00000000      0.00000000      0.00000000      0.00000000      0.00000000      0.00000000      0.00000000</v>
  </separator>
  <separator name="orbital magnetization" >
   <i type="logical" name="NUCIND"> F  </i>
   <v name="MAGPOS">      0.00000000      0.00000000      0.00000000</v>
   <i type="logical" name="LNICSALL"> T  </i>
   <i type="logical" name="ORBITALMAG"> F  </i>
   <i type="logical" name="LMAGBLOCH"> F  </i>
   <i type="logical" name="LCHIMAG"> F  </i>
   <i type="logical" name="LGAUGE"> T  </i>
   <i type="int" name="MAGATOM">     0</i>
   <v name="MAGDIPOL">      0.00000000      0.00000000      0.00000000</v>
   <v name="AVECCONST">      0.00000000      0.00000000      0.00000000</v>
  </separator>
  <separator name="response functions" >
   <i type="logical" name="LFINITE_TEMPERATURE"> F  </i>
   <i type="logical" name="LADDER"> F  </i>
   <i type="logical" name="LRPAFORCE"> F  </i>
   <i type="logical" name="LFXC"> F  </i>
   <i type="logical" name="LHARTREE"> T  </i>
   <i type="int" name="IBSE">     0</i>
   <v type="int" name="KPOINT">    -1     0     0     0</v>
   <i type="logical" name="LTCTC"> F  </i>
   <i type="logical" name="LTCTE"> F  </i>
   <i type="logical" name="LTETE"> F  </i>
   <i type="logical" name="LTRIPLET"> F  </i>
   <i type="logical" name="LFXCEPS"> F  </i>
   <i type="logical" name="LFXHEG"> F  </i>
   <i type="int" name="NATURALO">     2</i>
   <i type="logical" name="LHOLEGF"> F  </i>
   <i type="logical" name="L2ORDER"> F  </i>
   <i type="logical" name="LDMP1"> F  </i>
   <i type="logical" name="LMP2LT"> F  </i>
   <i type="logical" name="LSMP2LT"> F  </i>
   <i type="logical" name="LGWLF"> F  </i>
   <i name="ENCUTGW">     -2.00000000</i>
   <i name="ENCUTGWSOFT">     -2.00000000</i>
   <i name="ENCUTLF">     -1.00000000</i>
   <i type="logical" name="LESF_SPLINES"> F  </i>
   <i type="int" name="LMAXMP2">    -1</i>
   <i name="SCISSOR">      0.00000000</i>
   <i type="int" name="NOMEGA">     0</i>
   <i type="int" name="NOMEGAR">     0</i>
   <i type="int" name="NBANDSGW">    -1</i>
   <i type="int" name="NBANDSO">    -1</i>
   <i type="int" name="NBANDSV">    -1</i>
   <i type="int" name="NELMGW">     1</i>
   <i type="int" name="NELMHF">     1</i>
   <i type="int" name="DIM">     3</i>
   <i type="int" name="IESPILON">     4</i>
   <i type="int" name="ANTIRES">     0</i>
   <i name="OMEGAMAX">    -30.00000000</i>
   <i name="OMEGAMIN">    -30.00000000</i>
   <i name="OMEGATL">   -200.00000000</i>
   <i type="int" name="OMEGAGRID">     0</i>
   <i name="CSHIFT">     -0.10000000</i>
   <i type="logical" name="LSELFENERGY"> F  </i>
   <i type="logical" name="LSPECTRAL"> F  </i>
   <i type="logical" name="LSPECTRALGW"> F  </i>
   <i type="logical" name="LSINGLES"> F  </i>
   <i type="logical" name="LFERMIGW"> F  </i>
   <i type="logical" name="ODDONLYGW"> F  </i>
   <i type="logical" name="EVENONLYGW"> F  </i>
   <i type="int" name="NKREDLFX">     1</i>
   <i type="int" name="NKREDLFY">     1</i>
   <i type="int" name="NKREDLFZ">     1</i>
   <i type="int" name="MAXMEM">  2800</i>
   <i type="int" name="TELESCOPE">     0</i>
   <i type="int" name="NTAUPAR">    -1</i>
   <i type="int" name="NOMEGAPAR">    -1</i>
   <i name="DAMP_NEWTON">      0.80000001</i>
   <i name="LAMBDA">      1.00000000</i>
  </separator>
  <separator name="External order field" >
   <i name="OFIELD_KAPPA">      0.00000000</i>
   <v name="OFIELD_K">      0.00000000      0.00000000      0.00000000</v>
   <i name="OFIELD_Q6_NEAR">      0.00000000</i>
   <i name="OFIELD_Q6_FAR">      0.00000000</i>
   <i name="OFIELD_A">      0.00000000</i>
  </separator>
  <separator name="optional k-points parameters" >
   <i type="int" name="KPOINTS_OPT_MODE">     1</i>
   <i type="logical" name="LKPOINTS_OPT"> F  </i>
  </separator>
 </parameters>
 <atominfo>
  <atoms>      64 </atoms>
  <types>       1 </types>
  <array name="atoms" >
   <dimension dim="1">ion</dimension>
   <field type="string">element</field>
   <field type="int">atomtype</field>
   <set>
    <rc><c>Si</c><c>   1</c></rc>
    <rc><c>Si</c><c>   1</c></rc>
    <rc><c>Si</c><c>   1</c></rc>
    <rc><c>Si</c><c>   1</c></rc>
    <rc><c>Si</c><c>   1</c></rc>
    <rc><c>Si</c><c>   1</c></rc>
    <rc><c>Si</c><c>   1</c></rc>
    <rc><c>Si</c><c>   1</c></rc>
    <rc><c>Si</c><c>   1</c></rc>
    <rc><c>Si</c><c>   1</c></rc>
    <rc><c>Si</c><c>   1</c></rc>
    <rc><c>Si</c><c>   1</c></rc>
    <rc><c>Si</c><c>   1</c></rc>
    <rc><c>Si</c><c>   1</c></rc>
    <rc><c>Si</c><c>   1</c></rc>
    <rc><c>Si</c><c>   1</c></rc>
    <rc><c>Si</c><c>   1</c></rc>
    <rc><c>Si</c><c>   1</c></rc>
    <rc><c>Si</c><c>   1</c></rc>
    <rc><c>Si</c><c>   1</c></rc>
    <rc><c>Si</c><c>   1</c></rc>
    <rc><c>Si</c><c>   1</c></rc>
    <rc><c>Si</c><c>   1</c></rc>
    <rc><c>Si</c><c>   1</c></rc>
    <rc><c>Si</c><c>   1</c></rc>
    <rc><c>Si</c><c>   1</c></rc>
    <rc><c>Si</c><c>   1</c></rc>
    <rc><c>Si</c><c>   1</c></rc>
    <rc><c>Si</c><c>   1</c></rc>
    <rc><c>Si</c><c>   1</c></rc>
    <rc><c>Si</c><c>   1</c></rc>
    <rc><c>Si</c><c>   1</c></rc>
    <rc><c>Si</c><c>   1</c></rc>
    <rc><c>Si</c><c>   1</c></rc>
    <rc><c>Si</c><c>   1</c></rc>
    <rc><c>Si</c><c>   1</c></rc>
    <rc><c>Si</c><c>   1</c></rc>
    <rc><c>Si</c><c>   1</c></rc>
    <rc><c>Si</c><c>   1</c></rc>
    <rc><c>Si</c><c>   1</c></rc>
    <rc><c>Si</c><c>   1</c></rc>
    <rc><c>Si</c><c>   1</c></rc>
    <rc><c>Si</c><c>   1</c></rc>
    <rc><c>Si</c><c>   1</c></rc>
    <rc><c>Si</c><c>   1</c></rc>
    <rc><c>Si</c><c>   1</c></rc>
    <rc><c>Si</c><c>   1</c></rc>
    <rc><c>Si</c><c>   1</c></rc>
    <rc><c>Si</c><c>   1</c></rc>
    <rc><c>Si</c><c>   1</c></rc>
    <rc><c>Si</c><c>   1</c></rc>
    <rc><c>Si</c><c>   1</c></rc>
    <rc><c>Si</c><c>   1</c></rc>
    <rc><c>Si</c><c>   1</c></rc>
    <rc><c>Si</c><c>   1</c></rc>
    <rc><c>Si</c><c>   1</c></rc>
    <rc><c>Si</c><c>   1</c></rc>
    <rc><c>Si</c><c>   1</c></rc>
    <rc><c>Si</c><c>   1</c></rc>
    <rc><c>Si</c><c>   1</c></rc>
    <rc><c>Si</c><c>   1</c></rc>
    <rc><c>Si</c><c>   1</c></rc>
    <rc><c>Si</c><c>   1</c></rc>
    <rc><c>Si</c><c>   1</c></rc>
   </set>
  </array>
  <array name="atomtypes" >
   <dimension dim="1">type</dimension>
   <field type="int">atomspertype</field>
   <field type="string">element</field>
   <field>mass</field>
   <field>valence</field>
   <field type="string">pseudopotential</field>
   <set>
    <rc><c>  64</c><c>Si</c><c>     28.08500000</c><c>      4.00000000</c><c>  PAW_PBE Si 05Jan2001                  </c></rc>
   </set>
  </array>
 </atominfo>
 <structure name="initialpos" >
  <crystal>
   <varray name="basis" >
    <v>      10.86914512      -0.00000000      -0.00000000 </v>
    <v>      -0.00000000      10.86914512       0.00000000 </v>
    <v>       0.00000000       0.00000000      10.86914512 </v>
   </varray>
   <i name="volume">   1284.06249692 </i>
   <varray name="rec_basis" >
    <v>       0.09200356       0.00000000      -0.00000000 </v>
    <v>       0.00000000       0.09200356      -0.00000000 </v>
    <v>       0.00000000      -0.00000000       0.09200356 </v>
   </varray>
  </crystal>
  <varray name="positions" >
   <v>       0.25092004       0.25000000       0.25000000 </v>
   <v>       0.75000000       0.25000000       0.25000000 </v>
   <v>       0.25000000       0.75000000       0.25000000 </v>
   <v>       0.75000000       0.75000000       0.25000000 </v>
   <v>       0.25000000       0.25000000       0.75000000 </v>
   <v>       0.75000000       0.25000000       0.75000000 </v>
   <v>       0.25000000       0.75000000       0.75000000 </v>
   <v>       0.75000000       0.75000000       0.75000000 </v>
   <v>       0.25000000       0.00000000       0.00000000 </v>
   <v>       0.75000000       0.00000000       0.00000000 </v>
   <v>       0.25000000       0.50000000       0.00000000 </v>
   <v>       0.75000000       0.50000000       0.00000000 </v>
   <v>       0.25000000       0.00000000       0.50000000 </v>
   <v>       0.75000000       0.00000000       0.50000000 </v>
   <v>       0.25000000       0.50000000       0.50000000 </v>
   <v>       0.75000000       0.50000000       0.50000000 </v>
   <v>       0.00000000       0.25000000       0.00092004 </v>
   <v>       0.50000000       0.25000000       0.00000000 </v>
   <v>       0.00000000       0.75000000       0.00000000 </v>
   <v>       0.50000000       0.75000000       0.00000000 </v>
   <v>       0.00000000       0.25000000       0.50000000 </v>
   <v>       0.50000000       0.25000000       0.50000000 </v>
   <v>       0.00000000       0.75000000       0.50000000 </v>
   <v>       0.50000000       0.75000000       0.50000000 </v>
   <v>       0.00000000       0.00000000       0.25000000 </v>
   <v>       0.50000000       0.00000000       0.25000000 </v>
   <v>       0.00000000       0.50000000       0.25000000 </v>
   <v>       0.50000000       0.50000000       0.25000000 </v>
   <v>       0.00000000       0.00000000       0.75000000 </v>
   <v>       0.50000000       0.00000000       0.75000000 </v>
   <v>       0.00000000       0.50000000       0.75000000 </v>
   <v>       0.50000000       0.50000000       0.75000000 </v>
   <v>       0.37500000       0.37500000       0.37500000 </v>
   <v>       0.87500000       0.37500000       0.37500000 </v>
   <v>       0.37500000       0.87500000       0.37500000 </v>
   <v>       0.87500000       0.87500000       0.37500000 </v>
   <v>       0.37500000       0.37500000       0.87500000 </v>
   <v>       0.87500000       0.37500000       0.87500000 </v>
   <v>       0.37500000       0.87500000       0.87500000 </v>
   <v>       0.87500000       0.87500000       0.87500000 </v>
   <v>       0.37500000       0.12500000       0.12500000 </v>
   <v>       0.87500000       0.12500000       0.12500000 </v>
   <v>       0.37500000       0.62500000       0.12500000 </v>
   <v>       0.87500000       0.62500000       0.12500000 </v>
   <v>       0.37500000       0.12500000       0.62500000 </v>
   <v>       0.87500000       0.12500000       0.62500000 </v>
   <v>       0.37500000       0.62500000       0.62500000 </v>
   <v>       0.87500000       0.62500000       0.62500000 </v>
   <v>       0.12500000       0.37500000       0.12500000 </v>
   <v>       0.62500000       0.37500000       0.12500000 </v>
   <v>       0.12500000       0.87500000       0.12500000 </v>
   <v>       0.62500000       0.87500000       0.12500000 </v>
   <v>       0.12500000       0.37500000       0.62500000 </v>
   <v>       0.62500000       0.37500000       0.62500000 </v>
   <v>       0.12500000       0.87500000       0.62500000 </v>
   <v>       0.62500000       0.87500000       0.62500000 </v>
   <v>       0.12500000       0.12500000       0.37500000 </v>
   <v>       0.62500000       0.12500000       0.37500000 </v>
   <v>       0.12500000       0.62500000       0.37500000 </v>
   <v>       0.62500000       0.62500000       0.37500000 </v>
   <v>       0.12500000       0.12500000       0.87500000 </v>
   <v>       0.62500000       0.12500000       0.87500000 </v>
   <v>       0.12500000       0.62500000       0.87500000 </v>
   <v>       0.62500000       0.62500000       0.87500000 </v>
  </varray>
 </structure>
 <calculation>
  <scstep>
   <time name="dav">    2.31    2.32</time>
   <time name="total">    2.35    2.36</time>
   <energy>
    <i name="alphaZ">    107.38120932 </i>
    <i name="ewald">  -7307.87593351 </i>
    <i name="hartreedc">   -353.25040901 </i>
    <i name="XCdc">   -558.85371335 </i>
    <i name="pawpsdc">   5598.62625415 </i>
    <i name="pawaedc">  -4492.17844134 </i>
    <i name="eentropy">     -0.00325805 </i>
    <i name="bandstr">    892.40087931 </i>
    <i name="atom">   6564.76702419 </i>
    <i name="e_fr_energy">    451.01361171 </i>
    <i name="e_wo_entrp">    451.01686976 </i>
    <i name="e_0_energy">    451.01524074 </i>
   </energy>
  </scstep>
  <scstep>
   <time name="dav">    2.84    2.86</time>
   <time name="total">    2.84    2.86</time>
   <energy>
    <i name="e_fr_energy">   -322.07157349 </i>
    <i name="e_wo_entrp">   -322.07157349 </i>
    <i name="e_0_energy">   -322.07157349 </i>
   </energy>
  </scstep>
  <scstep>
   <time name="dav">    2.69    2.70</time>
   <time name="total">    2.69    2.70</time>
   <energy>
    <i name="e_fr_energy">   -373.41444137 </i>
    <i name="e_wo_entrp">   -373.41444137 </i>
    <i name="e_0_energy">   -373.41444137 </i>
   </energy>
  </scstep>
  <scstep>
   <time name="dav">    2.63    2.65</time>
   <time name="total">    2.63    2.65</time>
   <energy>
    <i name="e_fr_energy">   -374.59791979 </i>
    <i name="e_wo_entrp">   -374.59791979 </i>
    <i name="e_0_energy">   -374.59791979 </i>
   </energy>
  </scstep>
  <scstep>
   <time name="dav">    2.61    2.62</time>
   <time name="total">    2.69    2.70</time>
   <energy>
    <i name="e_fr_energy">   -374.64054413 </i>
    <i name="e_wo_entrp">   -374.64054413 </i>
    <i name="e_0_energy">   -374.64054413 </i>
   </energy>
  </scstep>
  <scstep>
   <time name="dav">    2.54    2.55</time>
   <time name="total">    2.66    2.68</time>
   <energy>
    <i name="e_fr_energy">   -369.72161334 </i>
    <i name="e_wo_entrp">   -369.72161334 </i>
    <i name="e_0_energy">   -369.72161334 </i>
   </energy>
  </scstep>
  <scstep>
   <time name="dav">    2.53    2.54</time>
   <time name="total">    2.65    2.67</time>
   <energy>
    <i name="e_fr_energy">   -367.49038193 </i>
    <i name="e_wo_entrp">   -367.49038193 </i>
    <i name="e_0_energy">   -367.49038193 </i>
   </energy>
  </scstep>
  <scstep>
   <time name="dav">    2.53    2.55</time>
   <time name="total">    2.66    2.67</time>
   <energy>
    <i name="e_fr_energy">   -367.49750734 </i>
    <i name="e_wo_entrp">   -367.49750734 </i>
    <i name="e_0_energy">   -367.49750734 </i>
   </energy>
  </scstep>
  <scstep>
   <time name="dav">    2.66    2.68</time>
   <time name="total">    2.79    2.80</time>
   <energy>
    <i name="e_fr_energy">   -367.49899462 </i>
    <i name="e_wo_entrp">   -367.49899462 </i>
    <i name="e_0_energy">   -367.49899462 </i>
   </energy>
  </scstep>
  <scstep>
   <time name="dav">    2.50    2.51</time>
   <time name="total">    2.62    2.63</time>
   <energy>
    <i name="e_fr_energy">   -367.49984658 </i>
    <i name="e_wo_entrp">   -367.49984658 </i>
    <i name="e_0_energy">   -367.49984658 </i>
   </energy>
  </scstep>
  <scstep>
   <time name="dav">    2.58    2.60</time>
   <time name="total">    2.71    2.72</time>
   <energy>
    <i name="e_fr_energy">   -367.49988695 </i>
    <i name="e_wo_entrp">   -367.49988695 </i>
    <i name="e_0_energy">   -367.49988695 </i>
   </energy>
  </scstep>
  <scstep>
   <time name="dav">    2.62    2.63</time>
   <time name="total">    2.74    2.76</time>
   <energy>
    <i name="e_fr_energy">   -367.49988916 </i>
    <i name="e_wo_entrp">   -367.49988916 </i>
    <i name="e_0_energy">   -367.49988916 </i>
   </energy>
  </scstep>
  <scstep>
   <time name="dav">    2.67    2.69</time>
   <time name="total">    2.80    2.82</time>
   <energy>
    <i name="e_fr_energy">   -367.49988805 </i>
    <i name="e_wo_entrp">   -367.49988805 </i>
    <i name="e_0_energy">   -367.49988805 </i>
   </energy>
  </scstep>
  <scstep>
   <time name="dav">    2.04    2.05</time>
   <time name="total">    2.16    2.17</time>
   <energy>
    <i name="e_fr_energy">   -367.49988796 </i>
    <i name="e_wo_entrp">   -367.49988796 </i>
    <i name="e_0_energy">   -367.49988796 </i>
   </energy>
  </scstep>
  <scstep>
   <time name="dav">    1.79    1.80</time>
   <time name="total">    1.91    1.92</time>
   <energy>
    <i name="e_fr_energy">   -367.49988795 </i>
    <i name="e_wo_entrp">   -367.49988795 </i>
    <i name="e_0_energy">   -367.49988795 </i>
   </energy>
  </scstep>
  <scstep>
   <time name="dav">    1.74    1.75</time>
   <time name="total">    1.78    1.79</time>
   <energy>
    <i name="alphaZ">    107.38120932 </i>
    <i name="ewald">  -7307.87593351 </i>
    <i name="hartreedc">   -468.78545425 </i>
    <i name="XCdc">   -539.35382162 </i>
    <i name="pawpsdc">  28474.90059360 </i>
    <i name="pawaedc"> -27375.32733630 </i>
    <i name="eentropy">     -0.00000000 </i>
    <i name="bandstr">    176.79383065 </i>
    <i name="atom">   6564.76702419 </i>
    <i name="e_fr_energy">   -367.49988794 </i>
    <i name="e_wo_entrp">   -367.49988794 </i>
    <i name="e_0_energy">   -367.49988794 </i>
   </energy>
  </scstep>
  <structure>
   <crystal>
    <varray name="basis" >
     <v>      10.86914512      -0.00000000      -0.00000000 </v>
     <v>      -0.00000000      10.86914512       0.00000000 </v>
     <v>       0.00000000       0.00000000      10.86914512 </v>
    </varray>
    <i name="volume">   1284.06249692 </i>
    <varray name="rec_basis" >
     <v>       0.09200356       0.00000000      -0.00000000 </v>
     <v>       0.00000000       0.09200356      -0.00000000 </v>
     <v>       0.00000000      -0.00000000       0.09200356 </v>
    </varray>
   </crystal>
   <varray name="positions" >
    <v>       0.25092004       0.25000000       0.25000000 </v>
    <v>       0.75000000       0.25000000       0.25000000 </v>
    <v>       0.25000000       0.75000000       0.25000000 </v>
    <v>       0.75000000       0.75000000       0.25000000 </v>
    <v>       0.25000000       0.25000000       0.75000000 </v>
    <v>       0.75000000       0.25000000       0.75000000 </v>
    <v>       0.25000000       0.75000000       0.75000000 </v>
    <v>       0.75000000       0.75000000       0.75000000 </v>
    <v>       0.25000000       0.00000000       0.00000000 </v>
    <v>       0.75000000       0.00000000       0.00000000 </v>
    <v>       0.25000000       0.50000000       0.00000000 </v>
    <v>       0.75000000       0.50000000       0.00000000 </v>
    <v>       0.25000000       0.00000000       0.50000000 </v>
    <v>       0.75000000       0.00000000       0.50000000 </v>
    <v>       0.25000000       0.50000000       0.50000000 </v>
    <v>       0.75000000       0.50000000       0.50000000 </v>
    <v>       0.00000000       0.25000000       0.00092004 </v>
    <v>       0.50000000       0.25000000       0.00000000 </v>
    <v>       0.00000000       0.75000000       0.00000000 </v>
    <v>       0.50000000       0.75000000       0.00000000 </v>
    <v>       0.00000000       0.25000000       0.50000000 </v>
    <v>       0.50000000       0.25000000       0.50000000 </v>
    <v>       0.00000000       0.75000000       0.50000000 </v>
    <v>       0.50000000       0.75000000       0.50000000 </v>
    <v>       0.00000000       0.00000000       0.25000000 </v>
    <v>       0.50000000       0.00000000       0.25000000 </v>
    <v>       0.00000000       0.50000000       0.25000000 </v>
    <v>       0.50000000       0.50000000       0.25000000 </v>
    <v>       0.00000000       0.00000000       0.75000000 </v>
    <v>       0.50000000       0.00000000       0.75000000 </v>
    <v>       0.00000000       0.50000000       0.75000000 </v>
    <v>       0.50000000       0.50000000       0.75000000 </v>
    <v>       0.37500000       0.37500000       0.37500000 </v>
    <v>       0.87500000       0.37500000       0.37500000 </v>
    <v>       0.37500000       0.87500000       0.37500000 </v>
    <v>       0.87500000       0.87500000       0.37500000 </v>
    <v>       0.37500000       0.37500000       0.87500000 </v>
    <v>       0.87500000       0.37500000       0.87500000 </v>
    <v>       0.37500000       0.87500000       0.87500000 </v>
    <v>       0.87500000       0.87500000       0.87500000 </v>
    <v>       0.37500000       0.12500000       0.12500000 </v>
    <v>       0.87500000       0.12500000       0.12500000 </v>
    <v>       0.37500000       0.62500000       0.12500000 </v>
    <v>       0.87500000       0.62500000       0.12500000 </v>
    <v>       0.37500000       0.12500000       0.62500000 </v>
    <v>       0.87500000       0.12500000       0.62500000 </v>
    <v>       0.37500000       0.62500000       0.62500000 </v>
    <v>       0.87500000       0.62500000       0.62500000 </v>
    <v>       0.12500000       0.37500000       0.12500000 </v>
    <v>       0.62500000       0.37500000       0.12500000 </v>
    <v>       0.12500000       0.87500000       0.12500000 </v>
    <v>       0.62500000       0.87500000       0.12500000 </v>
    <v>       0.12500000       0.37500000       0.62500000 </v>
    <v>       0.62500000       0.37500000       0.62500000 </v>
    <v>       0.12500000       0.87500000       0.62500000 </v>
    <v>       0.62500000       0.87500000       0.62500000 </v>
    <v>       0.12500000       0.12500000       0.37500000 </v>
    <v>       0.62500000       0.12500000       0.37500000 </v>
    <v>       0.12500000       0.62500000       0.37500000 </v>
    <v>       0.62500000       0.62500000       0.37500000 </v>
    <v>       0.12500000       0.12500000       0.87500000 </v>
    <v>       0.62500000       0.12500000       0.87500000 </v>
    <v>       0.12500000       0.62500000       0.87500000 </v>
    <v>       0.62500000       0.62500000       0.87500000 </v>
   </varray>
  </structure>
  <varray name="forces" >
   <v>      -0.13028388       0.00094630       0.00185750 </v>
   <v>      -0.00168640      -0.00095222       0.00187849 </v>
   <v>      -0.00012007       0.00007648       0.00032735 </v>
   <v>       0.00064833      -0.00007745       0.00032510 </v>
   <v>      -0.00137208       0.00094167       0.00186118 </v>
   <v>       0.00190159      -0.00094386       0.00186077 </v>
   <v>      -0.00332203       0.00007584       0.00032703 </v>
   <v>      -0.00037760      -0.00007733       0.00032723 </v>
   <v>      -0.00333564       0.00001053      -0.00331371 </v>
   <v>       0.00091404       0.00102987      -0.00420004 </v>
   <v>      -0.00522215      -0.00002168      -0.00521540 </v>
   <v>      -0.00097601       0.00101886      -0.00434274 </v>
   <v>      -0.00419022      -0.00101750       0.00090397 </v>
   <v>       0.00004002      -0.00000006       0.00003697 </v>
   <v>      -0.00435361      -0.00102904      -0.00099386 </v>
   <v>      -0.00011664      -0.00000006      -0.00011300 </v>
   <v>       0.00188047      -0.00094791      -0.13027134 </v>
   <v>       0.00187651      -0.00095279      -0.00138611 </v>
   <v>       0.00032538      -0.00007664      -0.00012222 </v>
   <v>       0.00032609      -0.00007719      -0.00332591 </v>
   <v>       0.00185971       0.00094207      -0.00167340 </v>
   <v>       0.00187617       0.00095172       0.00191393 </v>
   <v>       0.00032828       0.00007588       0.00065078 </v>
   <v>       0.00032566       0.00007625      -0.00037739 </v>
   <v>       0.00090866      -0.00001521       0.00093435 </v>
   <v>       0.00179995      -0.00126717      -0.00062681 </v>
   <v>       0.00281905       0.00001225       0.00281348 </v>
   <v>       0.00195374       0.00126449       0.00127862 </v>
   <v>      -0.00061525       0.00124984       0.00178430 </v>
   <v>       0.00024982      -0.00000186       0.00024988 </v>
   <v>       0.00126929      -0.00125137       0.00193737 </v>
   <v>       0.00040274       0.00000092       0.00040313 </v>
   <v>       0.03270230       0.02275429       0.02322941 </v>
   <v>       0.00025162       0.00000210       0.00025360 </v>
   <v>      -0.00024523       0.00007349       0.00022762 </v>
   <v>       0.00047334      -0.00000260       0.00047447 </v>
   <v>      -0.00017737      -0.00000347      -0.00016889 </v>
   <v>       0.02261873      -0.02214543       0.03239655 </v>
   <v>       0.00233904       0.00000308       0.00233426 </v>
   <v>       0.00023125      -0.00006649      -0.00023929 </v>
   <v>       0.03214613      -0.02341072      -0.02351677 </v>
   <v>      -0.02309339      -0.02334756       0.03214628 </v>
   <v>      -0.00076884      -0.00059644       0.00168366 </v>
   <v>      -0.00018875      -0.00055492      -0.00076404 </v>
   <v>      -0.00072757      -0.00065615      -0.00012327 </v>
   <v>      -0.00012217      -0.00059097      -0.00030022 </v>
   <v>       0.00181821      -0.00052465      -0.00043091 </v>
   <v>      -0.00042921      -0.00048368      -0.00005218 </v>
   <v>       0.05518413       0.00062086       0.05489064 </v>
   <v>       0.00025485       0.00006716      -0.00017491 </v>
   <v>      -0.00010352       0.00000604      -0.00010565 </v>
   <v>       0.00047689       0.00003868       0.00234539 </v>
   <v>      -0.00016885      -0.00006874       0.00025035 </v>
   <v>       0.00043567      -0.00000236       0.00043461 </v>
   <v>       0.00232945      -0.00003950       0.00047030 </v>
   <v>       0.00009311       0.00000205       0.00009135 </v>
   <v>       0.03184243       0.02273929      -0.02248729 </v>
   <v>      -0.00030341       0.00059490      -0.00011689 </v>
   <v>      -0.00076700       0.00055430      -0.00018574 </v>
   <v>      -0.00004648       0.00048533      -0.00043312 </v>
   <v>      -0.02291319       0.02281179       0.03184278 </v>
   <v>      -0.00011446       0.00066471      -0.00072722 </v>
   <v>       0.00166912       0.00058994      -0.00076308 </v>
   <v>      -0.00043075       0.00052204       0.00180871 </v>
  </varray>
  <varray name="stress" >
   <v>      -0.03106578       0.12326290      -0.00002807 </v>
   <v>       0.12326291      -0.02868518       0.12328970 </v>
   <v>      -0.00002806       0.12328969      -0.03106325 </v>
  </varray>
  <energy>
   <i name="e_fr_energy">   -367.49988794 </i>
   <i name="e_wo_entrp">   -367.49988794 </i>
   <i name="e_0_energy">   -367.49988794 </i>
  </energy>
  <time name="totalsc">   44.08   44.32</time>
  <eigenvalues>
   <array>
    <dimension dim="1">band</dimension>
    <dimension dim="2">kpoint</dimension>
    <dimension dim="3">spin</dimension>
    <field>eigene</field>
    <field>occ</field>
    <set>
     <set comment="spin 1">
      <set comment="kpoint 1">
       <r>   -6.2055    1.0000 </r>
       <r>   -5.1231    1.0000 </r>
       <r>   -5.1225    1.0000 </r>
       <r>   -5.1213    1.0000 </r>
       <r>   -5.1213    1.0000 </r>
       <r>   -5.1200    1.0000 </r>
       <r>   -5.1195    1.0000 </r>
       <r>   -4.1597    1.0000 </r>
       <r>   -4.1576    1.0000 </r>
       <r>   -4.1563    1.0000 </r>
       <r>   -4.1555    1.0000 </r>
       <r>   -4.1551    1.0000 </r>
       <r>   -4.1550    1.0000 </r>
       <r>   -4.1550    1.0000 </r>
       <r>   -4.1549    1.0000 </r>
       <r>   -4.1546    1.0000 </r>
       <r>   -4.1538    1.0000 </r>
       <r>   -4.1525    1.0000 </r>
       <r>   -4.1504    1.0000 </r>
       <r>   -3.8624    1.0000 </r>
       <r>   -3.8607    1.0000 </r>
       <r>   -3.8606    1.0000 </r>
       <r>   -3.8588    1.0000 </r>
       <r>   -2.0542    1.0000 </r>
       <r>   -2.0542    1.0000 </r>
       <r>   -2.0520    1.0000 </r>
       <r>   -2.0519    1.0000 </r>
       <r>   -2.0498    1.0000 </r>
       <r>   -2.0497    1.0000 </r>
       <r>   -1.8874    1.0000 </r>
       <r>   -1.8860    1.0000 </r>
       <r>   -1.8847    1.0000 </r>
       <r>   -1.8831    1.0000 </r>
       <r>   -1.8828    1.0000 </r>
       <r>   -1.8827    1.0000 </r>
       <r>   -1.8827    1.0000 </r>
       <r>   -1.8827    1.0000 </r>
       <r>   -1.8823    1.0000 </r>
       <r>   -1.8808    1.0000 </r>
       <r>   -1.8793    1.0000 </r>
       <r>   -1.8780    1.0000 </r>
       <r>   -1.2365    1.0000 </r>
       <r>   -1.2347    1.0000 </r>
       <r>   -1.2347    1.0000 </r>
       <r>   -1.2328    1.0000 </r>
       <r>    0.2775    1.0000 </r>
       <r>    0.2784    1.0000 </r>
       <r>    0.2802    1.0000 </r>
       <r>    0.2817    1.0000 </r>
       <r>    0.2818    1.0000 </r>
       <r>    0.2819    1.0000 </r>
       <r>    0.2819    1.0000 </r>
       <r>    0.2821    1.0000 </r>
       <r>    0.2822    1.0000 </r>
       <r>    0.2837    1.0000 </r>
       <r>    0.2855    1.0000 </r>
       <r>    0.2864    1.0000 </r>
       <r>    1.8684    1.0000 </r>
       <r>    1.8700    1.0000 </r>
       <r>    1.8702    1.0000 </r>
       <r>    1.8708    1.0000 </r>
       <r>    1.8710    1.0000 </r>
       <r>    1.8711    1.0000 </r>
       <r>    1.8713    1.0000 </r>
       <r>    1.8714    1.0000 </r>
       <r>    1.8716    1.0000 </r>
       <r>    1.8721    1.0000 </r>
       <r>    1.8724    1.0000 </r>
       <r>    1.8738    1.0000 </r>
       <r>    1.9706    1.0000 </r>
       <r>    1.9710    1.0000 </r>
       <r>    1.9717    1.0000 </r>
       <r>    1.9724    1.0000 </r>
       <r>    1.9728    1.0000 </r>
       <r>    1.9733    1.0000 </r>
       <r>    1.9733    1.0000 </r>
       <r>    1.9738    1.0000 </r>
       <r>    1.9742    1.0000 </r>
       <r>    1.9749    1.0000 </r>
       <r>    1.9756    1.0000 </r>
       <r>    1.9760    1.0000 </r>
       <r>    2.2487    1.0000 </r>
       <r>    2.2505    1.0000 </r>
       <r>    2.2514    1.0000 </r>
       <r>    2.2514    1.0000 </r>
       <r>    2.2524    1.0000 </r>
       <r>    2.2542    1.0000 </r>
       <r>    2.9005    1.0000 </r>
       <r>    2.9016    1.0000 </r>
       <r>    2.9017    1.0000 </r>
       <r>    2.9017    1.0000 </r>
       <r>    2.9019    1.0000 </r>
       <r>    2.9030    1.0000 </r>
       <r>    3.8635    1.0000 </r>
       <r>    3.8636    1.0000 </r>
       <r>    3.8659    1.0000 </r>
       <r>    3.8659    1.0000 </r>
       <r>    3.8665    1.0000 </r>
       <r>    3.8665    1.0000 </r>
       <r>    3.8669    1.0000 </r>
       <r>    3.8669    1.0000 </r>
       <r>    3.8674    1.0000 </r>
       <r>    3.8674    1.0000 </r>
       <r>    3.8698    1.0000 </r>
       <r>    3.8698    1.0000 </r>
       <r>    4.4328    1.0000 </r>
       <r>    4.4340    1.0000 </r>
       <r>    4.4356    1.0000 </r>
       <r>    4.4360    1.0000 </r>
       <r>    4.4368    1.0000 </r>
       <r>    4.4370    1.0000 </r>
       <r>    4.4370    1.0000 </r>
       <r>    4.4372    1.0000 </r>
       <r>    4.4380    1.0000 </r>
       <r>    4.4384    1.0000 </r>
       <r>    4.4399    1.0000 </r>
       <r>    4.4411    1.0000 </r>
       <r>    4.5670    1.0000 </r>
       <r>    4.5675    1.0000 </r>
       <r>    4.5690    1.0000 </r>
       <r>    4.5697    1.0000 </r>
       <r>    4.5700    1.0000 </r>
       <r>    4.5707    1.0000 </r>
       <r>    4.5722    1.0000 </r>
       <r>    4.5729    1.0000 </r>
       <r>    5.7698    1.0000 </r>
       <r>    5.7720    1.0000 </r>
       <r>    5.7741    1.0000 </r>
       <r>    6.3634    0.0000 </r>
       <r>    6.3654    0.0000 </r>
       <r>    6.3657    0.0000 </r>
       <r>    6.3658    0.0000 </r>
       <r>    6.3662    0.0000 </r>
       <r>    6.3681    0.0000 </r>
       <r>    6.8060    0.0000 </r>
       <r>    6.8069    0.0000 </r>
       <r>    6.8081    0.0000 </r>
       <r>    6.8081    0.0000 </r>
       <r>    6.8092    0.0000 </r>
       <r>    6.8101    0.0000 </r>
       <r>    7.2316    0.0000 </r>
       <r>    7.2320    0.0000 </r>
       <r>    7.2320    0.0000 </r>
       <r>    7.2324    0.0000 </r>
       <r>    8.1350    0.0000 </r>
       <r>    8.1352    0.0000 </r>
       <r>    8.1361    0.0000 </r>
       <r>    8.1363    0.0000 </r>
       <r>    8.1377    0.0000 </r>
       <r>    8.1379    0.0000 </r>
       <r>    8.1379    0.0000 </r>
       <r>    8.1382    0.0000 </r>
       <r>    8.1396    0.0000 </r>
       <r>    8.1398    0.0000 </r>
       <r>    8.1405    0.0000 </r>
       <r>    8.1408    0.0000 </r>
       <r>    8.2877    0.0000 </r>
       <r>    8.2890    0.0000 </r>
       <r>    8.2902    0.0000 </r>
       <r>    8.7963    0.0000 </r>
       <r>    8.7974    0.0000 </r>
       <r>    8.7979    0.0000 </r>
       <r>    8.7979    0.0000 </r>
       <r>    8.7984    0.0000 </r>
       <r>    8.7996    0.0000 </r>
       <r>    9.0490    0.0000 </r>
       <r>    9.0508    0.0000 </r>
       <r>    9.0520    0.0000 </r>
      </set>
      <set comment="kpoint 2">
       <r>   -5.9327    1.0000 </r>
       <r>   -5.9313    1.0000 </r>
       <r>   -4.8747    1.0000 </r>
       <r>   -4.8743    1.0000 </r>
       <r>   -4.8736    1.0000 </r>
       <r>   -4.8728    1.0000 </r>
       <r>   -4.8726    1.0000 </r>
       <r>   -4.8724    1.0000 </r>
       <r>   -4.8718    1.0000 </r>
       <r>   -4.8698    1.0000 </r>
       <r>   -4.0250    1.0000 </r>
       <r>   -4.0246    1.0000 </r>
       <r>   -4.0237    1.0000 </r>
       <r>   -4.0229    1.0000 </r>
       <r>   -4.0227    1.0000 </r>
       <r>   -4.0225    1.0000 </r>
       <r>   -4.0214    1.0000 </r>
       <r>   -4.0188    1.0000 </r>
       <r>   -3.8068    1.0000 </r>
       <r>   -3.8045    1.0000 </r>
       <r>   -3.0810    1.0000 </r>
       <r>   -3.0776    1.0000 </r>
       <r>   -3.0770    1.0000 </r>
       <r>   -3.0763    1.0000 </r>
       <r>   -3.0761    1.0000 </r>
       <r>   -3.0753    1.0000 </r>
       <r>   -3.0742    1.0000 </r>
       <r>   -3.0736    1.0000 </r>
       <r>   -1.9740    1.0000 </r>
       <r>   -1.9736    1.0000 </r>
       <r>   -1.9717    1.0000 </r>
       <r>   -1.9717    1.0000 </r>
       <r>   -1.9715    1.0000 </r>
       <r>   -1.9713    1.0000 </r>
       <r>   -1.9705    1.0000 </r>
       <r>   -1.9675    1.0000 </r>
       <r>   -0.8067    1.0000 </r>
       <r>   -0.8059    1.0000 </r>
       <r>   -0.8038    1.0000 </r>
       <r>   -0.8031    1.0000 </r>
       <r>   -0.8028    1.0000 </r>
       <r>   -0.8016    1.0000 </r>
       <r>   -0.8012    1.0000 </r>
       <r>   -0.7993    1.0000 </r>
       <r>   -0.6373    1.0000 </r>
       <r>   -0.6355    1.0000 </r>
       <r>   -0.6346    1.0000 </r>
       <r>   -0.6343    1.0000 </r>
       <r>   -0.6340    1.0000 </r>
       <r>   -0.6331    1.0000 </r>
       <r>   -0.6317    1.0000 </r>
       <r>   -0.6310    1.0000 </r>
       <r>    0.0225    1.0000 </r>
       <r>    0.0240    1.0000 </r>
       <r>    1.4713    1.0000 </r>
       <r>    1.4729    1.0000 </r>
       <r>    1.4735    1.0000 </r>
       <r>    1.4737    1.0000 </r>
       <r>    1.4744    1.0000 </r>
       <r>    1.4750    1.0000 </r>
       <r>    1.4757    1.0000 </r>
       <r>    1.4770    1.0000 </r>
       <r>    1.4917    1.0000 </r>
       <r>    1.4926    1.0000 </r>
       <r>    1.4929    1.0000 </r>
       <r>    1.4932    1.0000 </r>
       <r>    1.4934    1.0000 </r>
       <r>    1.4943    1.0000 </r>
       <r>    1.4945    1.0000 </r>
       <r>    1.4946    1.0000 </r>
       <r>    2.3169    1.0000 </r>
       <r>    2.3170    1.0000 </r>
       <r>    2.3176    1.0000 </r>
       <r>    2.3177    1.0000 </r>
       <r>    2.3181    1.0000 </r>
       <r>    2.3185    1.0000 </r>
       <r>    2.3191    1.0000 </r>
       <r>    2.3194    1.0000 </r>
       <r>    3.0224    1.0000 </r>
       <r>    3.0240    1.0000 </r>
       <r>    3.0244    1.0000 </r>
       <r>    3.0246    1.0000 </r>
       <r>    3.0249    1.0000 </r>
       <r>    3.0254    1.0000 </r>
       <r>    3.0256    1.0000 </r>
       <r>    3.0272    1.0000 </r>
       <r>    3.1465    1.0000 </r>
       <r>    3.1477    1.0000 </r>
       <r>    3.1484    1.0000 </r>
       <r>    3.1494    1.0000 </r>
       <r>    3.1565    1.0000 </r>
       <r>    3.1582    1.0000 </r>
       <r>    3.1586    1.0000 </r>
       <r>    3.1591    1.0000 </r>
       <r>    3.1598    1.0000 </r>
       <r>    3.1599    1.0000 </r>
       <r>    3.1607    1.0000 </r>
       <r>    3.1610    1.0000 </r>
       <r>    3.2835    1.0000 </r>
       <r>    3.2845    1.0000 </r>
       <r>    3.2850    1.0000 </r>
       <r>    3.2854    1.0000 </r>
       <r>    3.2859    1.0000 </r>
       <r>    3.2864    1.0000 </r>
       <r>    3.2872    1.0000 </r>
       <r>    3.2882    1.0000 </r>
       <r>    4.3285    1.0000 </r>
       <r>    4.3305    1.0000 </r>
       <r>    4.3311    1.0000 </r>
       <r>    4.3316    1.0000 </r>
       <r>    4.3319    1.0000 </r>
       <r>    4.3326    1.0000 </r>
       <r>    4.3334    1.0000 </r>
       <r>    4.3349    1.0000 </r>
       <r>    4.4329    1.0000 </r>
       <r>    4.4330    1.0000 </r>
       <r>    4.4966    1.0000 </r>
       <r>    4.4999    1.0000 </r>
       <r>    4.5002    1.0000 </r>
       <r>    4.5008    1.0000 </r>
       <r>    4.5009    1.0000 </r>
       <r>    4.5014    1.0000 </r>
       <r>    4.5021    1.0000 </r>
       <r>    4.5055    1.0000 </r>
       <r>    4.9528    1.0000 </r>
       <r>    4.9547    1.0000 </r>
       <r>    4.9557    1.0000 </r>
       <r>    4.9576    1.0000 </r>
       <r>    6.2790    0.0000 </r>
       <r>    6.2804    0.0000 </r>
       <r>    7.1933    0.0000 </r>
       <r>    7.1946    0.0000 </r>
       <r>    7.6431    0.0000 </r>
       <r>    7.6444    0.0000 </r>
       <r>    7.6449    0.0000 </r>
       <r>    7.6461    0.0000 </r>
       <r>    7.6463    0.0000 </r>
       <r>    7.6467    0.0000 </r>
       <r>    7.6468    0.0000 </r>
       <r>    7.6483    0.0000 </r>
       <r>    7.7139    0.0000 </r>
       <r>    7.7144    0.0000 </r>
       <r>    8.0572    0.0000 </r>
       <r>    8.0590    0.0000 </r>
       <r>    8.0593    0.0000 </r>
       <r>    8.0596    0.0000 </r>
       <r>    8.0597    0.0000 </r>
       <r>    8.0602    0.0000 </r>
       <r>    8.0603    0.0000 </r>
       <r>    8.0623    0.0000 </r>
       <r>    8.1429    0.0000 </r>
       <r>    8.1439    0.0000 </r>
       <r>    8.1452    0.0000 </r>
       <r>    8.1455    0.0000 </r>
       <r>    8.1459    0.0000 </r>
       <r>    8.1463    0.0000 </r>
       <r>    8.1471    0.0000 </r>
       <r>    8.1484    0.0000 </r>
       <r>    8.5511    0.0000 </r>
       <r>    8.5517    0.0000 </r>
       <r>    8.5520    0.0000 </r>
       <r>    8.5524    0.0000 </r>
       <r>    8.5531    0.0000 </r>
       <r>    8.5533    0.0000 </r>
       <r>    8.5539    0.0000 </r>
       <r>    8.5548    0.0000 </r>
       <r>    9.3189    0.0000 </r>
       <r>    9.3233    0.0000 </r>
      </set>
      <set comment="kpoint 3">
       <r>   -5.9320    1.0000 </r>
       <r>   -5.9320    1.0000 </r>
       <r>   -4.8747    1.0000 </r>
       <r>   -4.8747    1.0000 </r>
       <r>   -4.8729    1.0000 </r>
       <r>   -4.8729    1.0000 </r>
       <r>   -4.8725    1.0000 </r>
       <r>   -4.8725    1.0000 </r>
       <r>   -4.8708    1.0000 </r>
       <r>   -4.8708    1.0000 </r>
       <r>   -4.0267    1.0000 </r>
       <r>   -4.0230    1.0000 </r>
       <r>   -4.0227    1.0000 </r>
       <r>   -4.0227    1.0000 </r>
       <r>   -4.0227    1.0000 </r>
       <r>   -4.0227    1.0000 </r>
       <r>   -4.0224    1.0000 </r>
       <r>   -4.0187    1.0000 </r>
       <r>   -3.8057    1.0000 </r>
       <r>   -3.8057    1.0000 </r>
       <r>   -3.0784    1.0000 </r>
       <r>   -3.0783    1.0000 </r>
       <r>   -3.0766    1.0000 </r>
       <r>   -3.0766    1.0000 </r>
       <r>   -3.0762    1.0000 </r>
       <r>   -3.0762    1.0000 </r>
       <r>   -3.0744    1.0000 </r>
       <r>   -3.0744    1.0000 </r>
       <r>   -1.9758    1.0000 </r>
       <r>   -1.9718    1.0000 </r>
       <r>   -1.9715    1.0000 </r>
       <r>   -1.9715    1.0000 </r>
       <r>   -1.9715    1.0000 </r>
       <r>   -1.9714    1.0000 </r>
       <r>   -1.9711    1.0000 </r>
       <r>   -1.9672    1.0000 </r>
       <r>   -0.8060    1.0000 </r>
       <r>   -0.8060    1.0000 </r>
       <r>   -0.8030    1.0000 </r>
       <r>   -0.8030    1.0000 </r>
       <r>   -0.8030    1.0000 </r>
       <r>   -0.8030    1.0000 </r>
       <r>   -0.8001    1.0000 </r>
       <r>   -0.8001    1.0000 </r>
       <r>   -0.6374    1.0000 </r>
       <r>   -0.6350    1.0000 </r>
       <r>   -0.6340    1.0000 </r>
       <r>   -0.6340    1.0000 </r>
       <r>   -0.6340    1.0000 </r>
       <r>   -0.6339    1.0000 </r>
       <r>   -0.6329    1.0000 </r>
       <r>   -0.6304    1.0000 </r>
       <r>    0.0232    1.0000 </r>
       <r>    0.0232    1.0000 </r>
       <r>    1.4716    1.0000 </r>
       <r>    1.4716    1.0000 </r>
       <r>    1.4741    1.0000 </r>
       <r>    1.4741    1.0000 </r>
       <r>    1.4745    1.0000 </r>
       <r>    1.4745    1.0000 </r>
       <r>    1.4767    1.0000 </r>
       <r>    1.4767    1.0000 </r>
       <r>    1.4921    1.0000 </r>
       <r>    1.4922    1.0000 </r>
       <r>    1.4931    1.0000 </r>
       <r>    1.4931    1.0000 </r>
       <r>    1.4936    1.0000 </r>
       <r>    1.4936    1.0000 </r>
       <r>    1.4947    1.0000 </r>
       <r>    1.4947    1.0000 </r>
       <r>    2.3165    1.0000 </r>
       <r>    2.3168    1.0000 </r>
       <r>    2.3177    1.0000 </r>
       <r>    2.3179    1.0000 </r>
       <r>    2.3182    1.0000 </r>
       <r>    2.3184    1.0000 </r>
       <r>    2.3193    1.0000 </r>
       <r>    2.3196    1.0000 </r>
       <r>    3.0232    1.0000 </r>
       <r>    3.0232    1.0000 </r>
       <r>    3.0248    1.0000 </r>
       <r>    3.0248    1.0000 </r>
       <r>    3.0248    1.0000 </r>
       <r>    3.0248    1.0000 </r>
       <r>    3.0264    1.0000 </r>
       <r>    3.0264    1.0000 </r>
       <r>    3.1480    1.0000 </r>
       <r>    3.1480    1.0000 </r>
       <r>    3.1481    1.0000 </r>
       <r>    3.1481    1.0000 </r>
       <r>    3.1577    1.0000 </r>
       <r>    3.1577    1.0000 </r>
       <r>    3.1589    1.0000 </r>
       <r>    3.1589    1.0000 </r>
       <r>    3.1595    1.0000 </r>
       <r>    3.1595    1.0000 </r>
       <r>    3.1607    1.0000 </r>
       <r>    3.1608    1.0000 </r>
       <r>    3.2826    1.0000 </r>
       <r>    3.2845    1.0000 </r>
       <r>    3.2857    1.0000 </r>
       <r>    3.2857    1.0000 </r>
       <r>    3.2857    1.0000 </r>
       <r>    3.2858    1.0000 </r>
       <r>    3.2870    1.0000 </r>
       <r>    3.2890    1.0000 </r>
       <r>    4.3295    1.0000 </r>
       <r>    4.3296    1.0000 </r>
       <r>    4.3316    1.0000 </r>
       <r>    4.3316    1.0000 </r>
       <r>    4.3321    1.0000 </r>
       <r>    4.3321    1.0000 </r>
       <r>    4.3339    1.0000 </r>
       <r>    4.3340    1.0000 </r>
       <r>    4.4326    1.0000 </r>
       <r>    4.4330    1.0000 </r>
       <r>    4.4986    1.0000 </r>
       <r>    4.5008    1.0000 </r>
       <r>    4.5009    1.0000 </r>
       <r>    4.5009    1.0000 </r>
       <r>    4.5009    1.0000 </r>
       <r>    4.5009    1.0000 </r>
       <r>    4.5015    1.0000 </r>
       <r>    4.5032    1.0000 </r>
       <r>    4.9552    1.0000 </r>
       <r>    4.9552    1.0000 </r>
       <r>    4.9552    1.0000 </r>
       <r>    4.9553    1.0000 </r>
       <r>    6.2797    0.0000 </r>
       <r>    6.2797    0.0000 </r>
       <r>    7.1939    0.0000 </r>
       <r>    7.1939    0.0000 </r>
       <r>    7.6439    0.0000 </r>
       <r>    7.6440    0.0000 </r>
       <r>    7.6452    0.0000 </r>
       <r>    7.6454    0.0000 </r>
       <r>    7.6463    0.0000 </r>
       <r>    7.6465    0.0000 </r>
       <r>    7.6477    0.0000 </r>
       <r>    7.6477    0.0000 </r>
       <r>    7.7141    0.0000 </r>
       <r>    7.7142    0.0000 </r>
       <r>    8.0587    0.0000 </r>
       <r>    8.0591    0.0000 </r>
       <r>    8.0595    0.0000 </r>
       <r>    8.0597    0.0000 </r>
       <r>    8.0597    0.0000 </r>
       <r>    8.0597    0.0000 </r>
       <r>    8.0603    0.0000 </r>
       <r>    8.0606    0.0000 </r>
       <r>    8.1438    0.0000 </r>
       <r>    8.1439    0.0000 </r>
       <r>    8.1455    0.0000 </r>
       <r>    8.1455    0.0000 </r>
       <r>    8.1458    0.0000 </r>
       <r>    8.1458    0.0000 </r>
       <r>    8.1475    0.0000 </r>
       <r>    8.1476    0.0000 </r>
       <r>    8.5516    0.0000 </r>
       <r>    8.5516    0.0000 </r>
       <r>    8.5522    0.0000 </r>
       <r>    8.5523    0.0000 </r>
       <r>    8.5533    0.0000 </r>
       <r>    8.5534    0.0000 </r>
       <r>    8.5540    0.0000 </r>
       <r>    8.5540    0.0000 </r>
       <r>    9.3201    0.0000 </r>
       <r>    9.3211    0.0000 </r>
      </set>
      <set comment="kpoint 4">
       <r>   -5.9327    1.0000 </r>
       <r>   -5.9313    1.0000 </r>
       <r>   -4.8757    1.0000 </r>
       <r>   -4.8737    1.0000 </r>
       <r>   -4.8731    1.0000 </r>
       <r>   -4.8729    1.0000 </r>
       <r>   -4.8727    1.0000 </r>
       <r>   -4.8719    1.0000 </r>
       <r>   -4.8712    1.0000 </r>
       <r>   -4.8708    1.0000 </r>
       <r>   -4.0266    1.0000 </r>
       <r>   -4.0240    1.0000 </r>
       <r>   -4.0229    1.0000 </r>
       <r>   -4.0227    1.0000 </r>
       <r>   -4.0224    1.0000 </r>
       <r>   -4.0217    1.0000 </r>
       <r>   -4.0208    1.0000 </r>
       <r>   -4.0205    1.0000 </r>
       <r>   -3.8068    1.0000 </r>
       <r>   -3.8045    1.0000 </r>
       <r>   -3.0792    1.0000 </r>
       <r>   -3.0786    1.0000 </r>
       <r>   -3.0775    1.0000 </r>
       <r>   -3.0766    1.0000 </r>
       <r>   -3.0764    1.0000 </r>
       <r>   -3.0758    1.0000 </r>
       <r>   -3.0752    1.0000 </r>
       <r>   -3.0718    1.0000 </r>
       <r>   -1.9755    1.0000 </r>
       <r>   -1.9725    1.0000 </r>
       <r>   -1.9717    1.0000 </r>
       <r>   -1.9714    1.0000 </r>
       <r>   -1.9713    1.0000 </r>
       <r>   -1.9712    1.0000 </r>
       <r>   -1.9693    1.0000 </r>
       <r>   -1.9689    1.0000 </r>
       <r>   -0.8068    1.0000 </r>
       <r>   -0.8049    1.0000 </r>
       <r>   -0.8044    1.0000 </r>
       <r>   -0.8032    1.0000 </r>
       <r>   -0.8029    1.0000 </r>
       <r>   -0.8023    1.0000 </r>
       <r>   -0.8002    1.0000 </r>
       <r>   -0.7994    1.0000 </r>
       <r>   -0.6368    1.0000 </r>
       <r>   -0.6362    1.0000 </r>
       <r>   -0.6349    1.0000 </r>
       <r>   -0.6339    1.0000 </r>
       <r>   -0.6336    1.0000 </r>
       <r>   -0.6333    1.0000 </r>
       <r>   -0.6325    1.0000 </r>
       <r>   -0.6305    1.0000 </r>
       <r>    0.0225    1.0000 </r>
       <r>    0.0240    1.0000 </r>
       <r>    1.4711    1.0000 </r>
       <r>    1.4727    1.0000 </r>
       <r>    1.4734    1.0000 </r>
       <r>    1.4742    1.0000 </r>
       <r>    1.4745    1.0000 </r>
       <r>    1.4749    1.0000 </r>
       <r>    1.4755    1.0000 </r>
       <r>    1.4771    1.0000 </r>
       <r>    1.4922    1.0000 </r>
       <r>    1.4924    1.0000 </r>
       <r>    1.4926    1.0000 </r>
       <r>    1.4932    1.0000 </r>
       <r>    1.4934    1.0000 </r>
       <r>    1.4940    1.0000 </r>
       <r>    1.4943    1.0000 </r>
       <r>    1.4951    1.0000 </r>
       <r>    2.3167    1.0000 </r>
       <r>    2.3170    1.0000 </r>
       <r>    2.3176    1.0000 </r>
       <r>    2.3180    1.0000 </r>
       <r>    2.3184    1.0000 </r>
       <r>    2.3185    1.0000 </r>
       <r>    2.3191    1.0000 </r>
       <r>    2.3192    1.0000 </r>
       <r>    3.0224    1.0000 </r>
       <r>    3.0240    1.0000 </r>
       <r>    3.0242    1.0000 </r>
       <r>    3.0247    1.0000 </r>
       <r>    3.0250    1.0000 </r>
       <r>    3.0252    1.0000 </r>
       <r>    3.0257    1.0000 </r>
       <r>    3.0272    1.0000 </r>
       <r>    3.1465    1.0000 </r>
       <r>    3.1477    1.0000 </r>
       <r>    3.1484    1.0000 </r>
       <r>    3.1495    1.0000 </r>
       <r>    3.1575    1.0000 </r>
       <r>    3.1578    1.0000 </r>
       <r>    3.1584    1.0000 </r>
       <r>    3.1586    1.0000 </r>
       <r>    3.1592    1.0000 </r>
       <r>    3.1598    1.0000 </r>
       <r>    3.1604    1.0000 </r>
       <r>    3.1619    1.0000 </r>
       <r>    3.2833    1.0000 </r>
       <r>    3.2843    1.0000 </r>
       <r>    3.2851    1.0000 </r>
       <r>    3.2856    1.0000 </r>
       <r>    3.2861    1.0000 </r>
       <r>    3.2865    1.0000 </r>
       <r>    3.2871    1.0000 </r>
       <r>    3.2880    1.0000 </r>
       <r>    4.3287    1.0000 </r>
       <r>    4.3303    1.0000 </r>
       <r>    4.3310    1.0000 </r>
       <r>    4.3317    1.0000 </r>
       <r>    4.3320    1.0000 </r>
       <r>    4.3326    1.0000 </r>
       <r>    4.3332    1.0000 </r>
       <r>    4.3350    1.0000 </r>
       <r>    4.4329    1.0000 </r>
       <r>    4.4330    1.0000 </r>
       <r>    4.4963    1.0000 </r>
       <r>    4.4997    1.0000 </r>
       <r>    4.5008    1.0000 </r>
       <r>    4.5009    1.0000 </r>
       <r>    4.5010    1.0000 </r>
       <r>    4.5016    1.0000 </r>
       <r>    4.5020    1.0000 </r>
       <r>    4.5052    1.0000 </r>
       <r>    4.9528    1.0000 </r>
       <r>    4.9547    1.0000 </r>
       <r>    4.9557    1.0000 </r>
       <r>    4.9576    1.0000 </r>
       <r>    6.2790    0.0000 </r>
       <r>    6.2804    0.0000 </r>
       <r>    7.1933    0.0000 </r>
       <r>    7.1946    0.0000 </r>
       <r>    7.6434    0.0000 </r>
       <r>    7.6449    0.0000 </r>
       <r>    7.6450    0.0000 </r>
       <r>    7.6454    0.0000 </r>
       <r>    7.6456    0.0000 </r>
       <r>    7.6467    0.0000 </r>
       <r>    7.6473    0.0000 </r>
       <r>    7.6485    0.0000 </r>
       <r>    7.7139    0.0000 </r>
       <r>    7.7144    0.0000 </r>
       <r>    8.0571    0.0000 </r>
       <r>    8.0590    0.0000 </r>
       <r>    8.0591    0.0000 </r>
       <r>    8.0597    0.0000 </r>
       <r>    8.0598    0.0000 </r>
       <r>    8.0601    0.0000 </r>
       <r>    8.0604    0.0000 </r>
       <r>    8.0622    0.0000 </r>
       <r>    8.1429    0.0000 </r>
       <r>    8.1441    0.0000 </r>
       <r>    8.1450    0.0000 </r>
       <r>    8.1454    0.0000 </r>
       <r>    8.1458    0.0000 </r>
       <r>    8.1461    0.0000 </r>
       <r>    8.1474    0.0000 </r>
       <r>    8.1484    0.0000 </r>
       <r>    8.5507    0.0000 </r>
       <r>    8.5517    0.0000 </r>
       <r>    8.5523    0.0000 </r>
       <r>    8.5525    0.0000 </r>
       <r>    8.5532    0.0000 </r>
       <r>    8.5536    0.0000 </r>
       <r>    8.5539    0.0000 </r>
       <r>    8.5545    0.0000 </r>
       <r>    9.3208    0.0000 </r>
       <r>    9.3233    0.0000 </r>
      </set>
      <set comment="kpoint 5">
       <r>   -5.6652    1.0000 </r>
       <r>   -5.6641    1.0000 </r>
       <r>   -5.6637    1.0000 </r>
       <r>   -5.6627    1.0000 </r>
       <r>   -4.6466    1.0000 </r>
       <r>   -4.6460    1.0000 </r>
       <r>   -4.6449    1.0000 </r>
       <r>   -4.6444    1.0000 </r>
       <r>   -4.6441    1.0000 </r>
       <r>   -4.6441    1.0000 </r>
       <r>   -4.6435    1.0000 </r>
       <r>   -4.6394    1.0000 </r>
       <r>   -3.6087    1.0000 </r>
       <r>   -3.6064    1.0000 </r>
       <r>   -3.6060    1.0000 </r>
       <r>   -3.6056    1.0000 </r>
       <r>   -3.6052    1.0000 </r>
       <r>   -3.6050    1.0000 </r>
       <r>   -3.6043    1.0000 </r>
       <r>   -3.6018    1.0000 </r>
       <r>   -3.3245    1.0000 </r>
       <r>   -3.3230    1.0000 </r>
       <r>   -3.3224    1.0000 </r>
       <r>   -3.3219    1.0000 </r>
       <r>   -3.3215    1.0000 </r>
       <r>   -3.3214    1.0000 </r>
       <r>   -3.3201    1.0000 </r>
       <r>   -3.3182    1.0000 </r>
       <r>   -2.4620    1.0000 </r>
       <r>   -2.4604    1.0000 </r>
       <r>   -2.4588    1.0000 </r>
       <r>   -2.4579    1.0000 </r>
       <r>   -1.4638    1.0000 </r>
       <r>   -1.4635    1.0000 </r>
       <r>   -1.4630    1.0000 </r>
       <r>   -1.4604    1.0000 </r>
       <r>   -1.0418    1.0000 </r>
       <r>   -1.0402    1.0000 </r>
       <r>   -1.0391    1.0000 </r>
       <r>   -1.0386    1.0000 </r>
       <r>   -1.0383    1.0000 </r>
       <r>   -1.0373    1.0000 </r>
       <r>   -1.0367    1.0000 </r>
       <r>   -1.0348    1.0000 </r>
       <r>   -0.1988    1.0000 </r>
       <r>   -0.1973    1.0000 </r>
       <r>   -0.1961    1.0000 </r>
       <r>   -0.1954    1.0000 </r>
       <r>   -0.1952    1.0000 </r>
       <r>   -0.1942    1.0000 </r>
       <r>   -0.1927    1.0000 </r>
       <r>   -0.1924    1.0000 </r>
       <r>    0.4619    1.0000 </r>
       <r>    0.4628    1.0000 </r>
       <r>    0.4648    1.0000 </r>
       <r>    0.4650    1.0000 </r>
       <r>    0.4651    1.0000 </r>
       <r>    0.4659    1.0000 </r>
       <r>    0.4670    1.0000 </r>
       <r>    0.4672    1.0000 </r>
       <r>    1.4164    1.0000 </r>
       <r>    1.4165    1.0000 </r>
       <r>    1.4169    1.0000 </r>
       <r>    1.4182    1.0000 </r>
       <r>    2.2850    1.0000 </r>
       <r>    2.2857    1.0000 </r>
       <r>    2.2864    1.0000 </r>
       <r>    2.2871    1.0000 </r>
       <r>    2.2876    1.0000 </r>
       <r>    2.2880    1.0000 </r>
       <r>    2.2890    1.0000 </r>
       <r>    2.2895    1.0000 </r>
       <r>    2.3709    1.0000 </r>
       <r>    2.3713    1.0000 </r>
       <r>    2.3716    1.0000 </r>
       <r>    2.3718    1.0000 </r>
       <r>    2.3720    1.0000 </r>
       <r>    2.3728    1.0000 </r>
       <r>    2.3733    1.0000 </r>
       <r>    2.3738    1.0000 </r>
       <r>    2.9810    1.0000 </r>
       <r>    2.9818    1.0000 </r>
       <r>    2.9825    1.0000 </r>
       <r>    2.9831    1.0000 </r>
       <r>    2.9837    1.0000 </r>
       <r>    2.9838    1.0000 </r>
       <r>    2.9845    1.0000 </r>
       <r>    2.9851    1.0000 </r>
       <r>    3.0755    1.0000 </r>
       <r>    3.0758    1.0000 </r>
       <r>    3.0769    1.0000 </r>
       <r>    3.0788    1.0000 </r>
       <r>    3.3303    1.0000 </r>
       <r>    3.3306    1.0000 </r>
       <r>    3.3314    1.0000 </r>
       <r>    3.3332    1.0000 </r>
       <r>    3.5889    1.0000 </r>
       <r>    3.5900    1.0000 </r>
       <r>    3.5906    1.0000 </r>
       <r>    3.5909    1.0000 </r>
       <r>    3.5914    1.0000 </r>
       <r>    3.5918    1.0000 </r>
       <r>    3.5922    1.0000 </r>
       <r>    3.5932    1.0000 </r>
       <r>    3.9157    1.0000 </r>
       <r>    3.9172    1.0000 </r>
       <r>    3.9173    1.0000 </r>
       <r>    3.9179    1.0000 </r>
       <r>    3.9185    1.0000 </r>
       <r>    3.9189    1.0000 </r>
       <r>    3.9192    1.0000 </r>
       <r>    3.9211    1.0000 </r>
       <r>    4.1179    1.0000 </r>
       <r>    4.1182    1.0000 </r>
       <r>    4.1187    1.0000 </r>
       <r>    4.1189    1.0000 </r>
       <r>    4.1701    1.0000 </r>
       <r>    4.1731    1.0000 </r>
       <r>    4.1736    1.0000 </r>
       <r>    4.1737    1.0000 </r>
       <r>    4.1742    1.0000 </r>
       <r>    4.1744    1.0000 </r>
       <r>    4.1751    1.0000 </r>
       <r>    4.1788    1.0000 </r>
       <r>    5.4772    1.0000 </r>
       <r>    5.4799    1.0000 </r>
       <r>    5.4808    1.0000 </r>
       <r>    5.4830    1.0000 </r>
       <r>    6.8645    0.0000 </r>
       <r>    6.8652    0.0000 </r>
       <r>    6.8657    0.0000 </r>
       <r>    6.8678    0.0000 </r>
       <r>    7.6287    0.0000 </r>
       <r>    7.6307    0.0000 </r>
       <r>    7.6311    0.0000 </r>
       <r>    7.6313    0.0000 </r>
       <r>    7.6317    0.0000 </r>
       <r>    7.6324    0.0000 </r>
       <r>    7.6333    0.0000 </r>
       <r>    7.6337    0.0000 </r>
       <r>    7.9368    0.0000 </r>
       <r>    7.9390    0.0000 </r>
       <r>    7.9396    0.0000 </r>
       <r>    7.9397    0.0000 </r>
       <r>    7.9405    0.0000 </r>
       <r>    7.9406    0.0000 </r>
       <r>    7.9406    0.0000 </r>
       <r>    7.9432    0.0000 </r>
       <r>    8.3134    0.0000 </r>
       <r>    8.3134    0.0000 </r>
       <r>    8.3146    0.0000 </r>
       <r>    8.3149    0.0000 </r>
       <r>    8.3154    0.0000 </r>
       <r>    8.3157    0.0000 </r>
       <r>    8.3163    0.0000 </r>
       <r>    8.3178    0.0000 </r>
       <r>    8.7640    0.0000 </r>
       <r>    8.7665    0.0000 </r>
       <r>    8.7674    0.0000 </r>
       <r>    8.7694    0.0000 </r>
       <r>    8.7707    0.0000 </r>
       <r>    8.7718    0.0000 </r>
       <r>    8.7740    0.0000 </r>
       <r>    8.7786    0.0000 </r>
       <r>    8.7831    0.0000 </r>
       <r>    8.7906    0.0000 </r>
       <r>    8.7999    0.0000 </r>
       <r>    8.8146    0.0000 </r>
      </set>
      <set comment="kpoint 6">
       <r>   -5.6652    1.0000 </r>
       <r>   -5.6641    1.0000 </r>
       <r>   -5.6637    1.0000 </r>
       <r>   -5.6627    1.0000 </r>
       <r>   -4.6489    1.0000 </r>
       <r>   -4.6447    1.0000 </r>
       <r>   -4.6442    1.0000 </r>
       <r>   -4.6441    1.0000 </r>
       <r>   -4.6438    1.0000 </r>
       <r>   -4.6434    1.0000 </r>
       <r>   -4.6423    1.0000 </r>
       <r>   -4.6417    1.0000 </r>
       <r>   -3.6090    1.0000 </r>
       <r>   -3.6065    1.0000 </r>
       <r>   -3.6057    1.0000 </r>
       <r>   -3.6055    1.0000 </r>
       <r>   -3.6051    1.0000 </r>
       <r>   -3.6047    1.0000 </r>
       <r>   -3.6043    1.0000 </r>
       <r>   -3.6021    1.0000 </r>
       <r>   -3.3251    1.0000 </r>
       <r>   -3.3232    1.0000 </r>
       <r>   -3.3219    1.0000 </r>
       <r>   -3.3218    1.0000 </r>
       <r>   -3.3214    1.0000 </r>
       <r>   -3.3209    1.0000 </r>
       <r>   -3.3203    1.0000 </r>
       <r>   -3.3187    1.0000 </r>
       <r>   -2.4617    1.0000 </r>
       <r>   -2.4608    1.0000 </r>
       <r>   -2.4591    1.0000 </r>
       <r>   -2.4575    1.0000 </r>
       <r>   -1.4650    1.0000 </r>
       <r>   -1.4623    1.0000 </r>
       <r>   -1.4619    1.0000 </r>
       <r>   -1.4615    1.0000 </r>
       <r>   -1.0419    1.0000 </r>
       <r>   -1.0400    1.0000 </r>
       <r>   -1.0394    1.0000 </r>
       <r>   -1.0384    1.0000 </r>
       <r>   -1.0380    1.0000 </r>
       <r>   -1.0376    1.0000 </r>
       <r>   -1.0365    1.0000 </r>
       <r>   -1.0349    1.0000 </r>
       <r>   -0.1981    1.0000 </r>
       <r>   -0.1978    1.0000 </r>
       <r>   -0.1963    1.0000 </r>
       <r>   -0.1953    1.0000 </r>
       <r>   -0.1951    1.0000 </r>
       <r>   -0.1944    1.0000 </r>
       <r>   -0.1933    1.0000 </r>
       <r>   -0.1917    1.0000 </r>
       <r>    0.4627    1.0000 </r>
       <r>    0.4630    1.0000 </r>
       <r>    0.4641    1.0000 </r>
       <r>    0.4648    1.0000 </r>
       <r>    0.4649    1.0000 </r>
       <r>    0.4652    1.0000 </r>
       <r>    0.4671    1.0000 </r>
       <r>    0.4681    1.0000 </r>
       <r>    1.4158    1.0000 </r>
       <r>    1.4171    1.0000 </r>
       <r>    1.4175    1.0000 </r>
       <r>    1.4176    1.0000 </r>
       <r>    2.2851    1.0000 </r>
       <r>    2.2855    1.0000 </r>
       <r>    2.2866    1.0000 </r>
       <r>    2.2870    1.0000 </r>
       <r>    2.2874    1.0000 </r>
       <r>    2.2882    1.0000 </r>
       <r>    2.2888    1.0000 </r>
       <r>    2.2896    1.0000 </r>
       <r>    2.3706    1.0000 </r>
       <r>    2.3711    1.0000 </r>
       <r>    2.3716    1.0000 </r>
       <r>    2.3723    1.0000 </r>
       <r>    2.3725    1.0000 </r>
       <r>    2.3728    1.0000 </r>
       <r>    2.3731    1.0000 </r>
       <r>    2.3735    1.0000 </r>
       <r>    2.9813    1.0000 </r>
       <r>    2.9818    1.0000 </r>
       <r>    2.9826    1.0000 </r>
       <r>    2.9827    1.0000 </r>
       <r>    2.9833    1.0000 </r>
       <r>    2.9839    1.0000 </r>
       <r>    2.9846    1.0000 </r>
       <r>    2.9854    1.0000 </r>
       <r>    3.0747    1.0000 </r>
       <r>    3.0766    1.0000 </r>
       <r>    3.0777    1.0000 </r>
       <r>    3.0779    1.0000 </r>
       <r>    3.3296    1.0000 </r>
       <r>    3.3314    1.0000 </r>
       <r>    3.3322    1.0000 </r>
       <r>    3.3325    1.0000 </r>
       <r>    3.5890    1.0000 </r>
       <r>    3.5901    1.0000 </r>
       <r>    3.5904    1.0000 </r>
       <r>    3.5909    1.0000 </r>
       <r>    3.5913    1.0000 </r>
       <r>    3.5916    1.0000 </r>
       <r>    3.5922    1.0000 </r>
       <r>    3.5933    1.0000 </r>
       <r>    3.9153    1.0000 </r>
       <r>    3.9173    1.0000 </r>
[...]
      </set>
     </set>
    </set>
   </array>
  </eigenvalues>
  <separator name="orbital magnetization" >
   <v name="MAGDIPOLOUT">      0.00000000      0.00000000      0.00000000</v>
  </separator>
  <dos>
   <i name="efermi">      5.89335819 </i>
   <total>
    <array>
     <dimension dim="1">gridpoints</dimension>
     <dimension dim="2">spin</dimension>
     <field>energy</field>
     <field>total</field>
     <field>integrated</field>
     <set>
      <set comment="spin 1">
       <r>    -6.9820     0.0000     0.0000 </r>
       <r>    -6.9250     0.0000     0.0000 </r>
       <r>    -6.8681     0.0000     0.0000 </r>
       <r>    -6.8111     0.0000     0.0000 </r>
       <r>    -6.7542     0.0000     0.0000 </r>
       <r>    -6.6973     0.0000     0.0000 </r>
       <r>    -6.6403     0.0000     0.0000 </r>
       <r>    -6.5834     0.0000     0.0000 </r>
       <r>    -6.5264     0.0000     0.0000 </r>
       <r>    -6.4695     0.0000     0.0000 </r>
       <r>    -6.4126     0.0000     0.0000 </r>
       <r>    -6.3556     0.0000     0.0000 </r>
       <r>    -6.2987     0.0000     0.0000 </r>
       <r>    -6.2417     0.0228     0.0013 </r>
       <r>    -6.1848     4.0535     0.2321 </r>
       <r>    -6.1279     0.3143     0.2500 </r>
       <r>    -6.0709     0.0000     0.2500 </r>
       <r>    -6.0140     0.0000     0.2500 </r>
       <r>    -5.9571     1.0138     0.3077 </r>
       <r>    -5.9001    25.0119     1.7319 </r>
       <r>    -5.8432     0.3183     1.7500 </r>
       <r>    -5.7862     0.0000     1.7500 </r>
       <r>    -5.7293     0.0001     1.7500 </r>
       <r>    -5.6724    14.5239     2.5770 </r>
       <r>    -5.6154    38.1476     4.7491 </r>
       <r>    -5.5585     0.0164     4.7500 </r>
       <r>    -5.5015     0.0000     4.7500 </r>
       <r>    -5.4446     0.0702     4.7540 </r>
       <r>    -5.3877    30.5310     6.4924 </r>
       <r>    -5.3307     4.5241     6.7500 </r>
       <r>    -5.2738     0.0000     6.7500 </r>
       <r>    -5.2168     0.0000     6.7500 </r>
       <r>    -5.1599     0.0857     6.7549 </r>
       <r>    -5.1030    23.6558     8.1018 </r>
       <r>    -5.0460     2.6026     8.2500 </r>
       <r>    -4.9891     0.0000     8.2500 </r>
       <r>    -4.9322     0.0015     8.2501 </r>
       <r>    -4.8752    45.3937    10.8348 </r>
       <r>    -4.8183    59.9741    14.2496 </r>
       <r>    -4.7613     0.0067    14.2500 </r>
       <r>    -4.7044     0.0013    14.2501 </r>
       <r>    -4.6475    42.9802    16.6973 </r>
       <r>    -4.5905    62.3857    20.2495 </r>
       <r>    -4.5336     0.0089    20.2500 </r>
       <r>    -4.4766     0.0000    20.2500 </r>
       <r>    -4.4197     0.0000    20.2500 </r>
       <r>    -4.3628     0.0000    20.2500 </r>
       <r>    -4.3058     0.0000    20.2500 </r>
       <r>    -4.2489     0.0000    20.2500 </r>
       <r>    -4.1919     0.2624    20.2649 </r>
       <r>    -4.1350    48.1680    23.0076 </r>
       <r>    -4.0781     4.2631    23.2503 </r>
       <r>    -4.0211    57.3125    26.5136 </r>
       <r>    -3.9642    48.0559    29.2499 </r>
       <r>    -3.9073     0.0112    29.2505 </r>
       <r>    -3.8503    13.4716    30.0176 </r>
       <r>    -3.7934    25.3459    31.4607 </r>
       <r>    -3.7364     5.0801    31.7500 </r>
       <r>    -3.6795     0.0000    31.7500 </r>
       <r>    -3.6226    12.0496    32.4361 </r>
       <r>    -3.5656    93.0439    37.7339 </r>
       <r>    -3.5087     2.0287    37.8494 </r>
       <r>    -3.4517    99.8048    43.5322 </r>
       <r>    -3.3948     3.8252    43.7500 </r>
       <r>    -3.3379    13.4150    44.5138 </r>
       <r>    -3.2809    91.7344    49.7371 </r>
       <r>    -3.2240     0.2266    49.7500 </r>
       <r>    -3.1670     0.0000    49.7500 </r>
       <r>    -3.1101     0.9568    49.8045 </r>
       <r>    -3.0532    98.9578    55.4390 </r>
       <r>    -2.9962     5.4615    55.7500 </r>
       <r>    -2.9393     0.0000    55.7500 </r>
       <r>    -2.8824     0.0000    55.7500 </r>
       <r>    -2.8254     0.0000    55.7500 </r>
       <r>    -2.7685     0.0000    55.7500 </r>
       <r>    -2.7115     0.0000    55.7500 </r>
       <r>    -2.6546     0.0000    55.7500 </r>
       <r>    -2.5977     0.0000    55.7500 </r>
       <r>    -2.5407     0.0000    55.7500 </r>
       <r>    -2.4838     2.3994    55.8866 </r>
       <r>    -2.4268    49.7471    58.7192 </r>
       <r>    -2.3699     0.5415    58.7500 </r>
       <r>    -2.3130     0.0000    58.7500 </r>
       <r>    -2.2560     0.0000    58.7500 </r>
       <r>    -2.1991     0.0000    58.7500 </r>
       <r>    -2.1421     0.0000    58.7500 </r>
       <r>    -2.0852     0.2600    58.7648 </r>
       <r>    -2.0283    24.8166    60.1778 </r>
       <r>    -1.9713    54.3697    63.2736 </r>
       <r>    -1.9144    52.9899    66.2908 </r>
       <r>    -1.8575    49.8981    69.1319 </r>
       <r>    -1.8005     2.0738    69.2500 </r>
       <r>    -1.7436     0.0000    69.2500 </r>
       <r>    -1.6866     0.0000    69.2500 </r>
       <r>    -1.6297     0.0000    69.2500 </r>
       <r>    -1.5728     0.0000    69.2500 </r>
       <r>    -1.5158     0.0047    69.2503 </r>
       <r>    -1.4589    31.9029    71.0668 </r>
       <r>    -1.4019    20.7799    72.2500 </r>
       <r>    -1.3450     0.0005    72.2500 </r>
       <r>    -1.2881     0.0015    72.2501 </r>
       <r>    -1.2311    10.5199    72.8491 </r>
       <r>    -1.1742     7.0411    73.2500 </r>
       <r>    -1.1172     0.0002    73.2500 </r>
       <r>    -1.0603     6.5525    73.6231 </r>
       <r>    -1.0034    98.0631    79.2067 </r>
       <r>    -0.9464     0.7604    79.2500 </r>
       <r>    -0.8895     0.0000    79.2500 </r>
       <r>    -0.8326     2.0612    79.3674 </r>
       <r>    -0.7756   100.3909    85.0835 </r>
       <r>    -0.7187     2.9240    85.2500 </r>
       <r>    -0.6617     3.2885    85.4372 </r>
       <r>    -0.6048   196.0942    96.6026 </r>
       <r>    -0.5479    11.3694    97.2500 </r>
       <r>    -0.4909     0.0000    97.2500 </r>
       <r>    -0.4340     0.0000    97.2500 </r>
       <r>    -0.3770     0.0000    97.2500 </r>
       <r>    -0.3201     0.0000    97.2500 </r>
       <r>    -0.2632     0.0001    97.2500 </r>
       <r>    -0.2062    23.3168    98.5776 </r>
       <r>    -0.1493    81.9909   103.2461 </r>
       <r>    -0.0923     0.0683   103.2500 </r>
       <r>    -0.0354     0.0005   103.2500 </r>
       <r>     0.0215    11.9076   103.9280 </r>
       <r>     0.0785    14.4347   104.7499 </r>
       <r>     0.1354     0.0013   104.7500 </r>
       <r>     0.1923     0.0000   104.7500 </r>
       <r>     0.2493     0.6020   104.7843 </r>
       <r>     0.3062    49.6976   107.6140 </r>
       <r>     0.3632     2.3885   107.7500 </r>
       <r>     0.4201     0.0858   107.7549 </r>
       <r>     0.4770    84.3681   112.5587 </r>
       <r>     0.5340    20.9221   113.7500 </r>
       <r>     0.5909     0.0001   113.7500 </r>
       <r>     0.6479     0.0000   113.7500 </r>
       <r>     0.7048     0.0000   113.7500 </r>
       <r>     0.7617     0.0000   113.7500 </r>
       <r>     0.8187     0.0000   113.7500 </r>
       <r>     0.8756     0.0000   113.7500 </r>
       <r>     0.9326     0.0000   113.7500 </r>
       <r>     0.9895     0.0000   113.7500 </r>
       <r>     1.0464     0.0000   113.7500 </r>
       <r>     1.1034     0.0000   113.7500 </r>
       <r>     1.1603     0.0000   113.7500 </r>
       <r>     1.2172     0.0000   113.7500 </r>
       <r>     1.2742     0.0000   113.7500 </r>
       <r>     1.3311     0.0000   113.7500 </r>
       <r>     1.3881     1.0765   113.8113 </r>
       <r>     1.4450    52.5120   116.8013 </r>
       <r>     1.5019   178.3632   126.9571 </r>
       <r>     1.5589    31.4883   128.7500 </r>
       <r>     1.6158     0.0002   128.7500 </r>
       <r>     1.6728     0.0000   128.7500 </r>
       <r>     1.7297     0.0000   128.7500 </r>
       <r>     1.7866     0.1986   128.7613 </r>
       <r>     1.8436    33.8065   130.6862 </r>
       <r>     1.9005    52.7855   133.6918 </r>
       <r>     1.9575     8.0174   134.1483 </r>
       <r>     2.0144    45.5906   136.7441 </r>
       <r>     2.0713     0.1028   136.7500 </r>
       <r>     2.1283     0.0001   136.7500 </r>
       <r>     2.1852    18.8815   137.8251 </r>
       <r>     2.2422    93.2388   143.1340 </r>
       <r>     2.2991   113.0889   149.5732 </r>
       <r>     2.3560   130.2593   156.9900 </r>
       <r>     2.4130    92.1686   162.2380 </r>
       <r>     2.4699     0.2111   162.2500 </r>
       <r>     2.5268     0.0000   162.2500 </r>
       <r>     2.5838     0.0000   162.2500 </r>
       <r>     2.6407     0.0000   162.2500 </r>
       <r>     2.6977     0.0000   162.2500 </r>
       <r>     2.7546     0.0000   162.2500 </r>
       <r>     2.8115     0.0000   162.2500 </r>
       <r>     2.8685     0.2490   162.2642 </r>
       <r>     2.9254    24.8562   163.6795 </r>
       <r>     2.9824    51.5893   166.6169 </r>
       <r>     3.0393   144.4192   174.8400 </r>
       <r>     3.0962    64.2229   178.4968 </r>
       <r>     3.1532    73.5686   182.6857 </r>
       <r>     3.2101    88.9248   187.7490 </r>
       <r>     3.2671     9.9356   188.3147 </r>
       <r>     3.3240   110.9106   194.6298 </r>
       <r>     3.3809    37.2236   196.7493 </r>
       <r>     3.4379     0.0126   196.7500 </r>
       <r>     3.4948     0.0030   196.7502 </r>
       <r>     3.5517    50.8592   199.6460 </r>
       <r>     3.6087   148.5123   208.1022 </r>
       <r>     3.6656    11.3777   208.7500 </r>
       <r>     3.7226     0.0000   208.7500 </r>
       <r>     3.7795     0.0000   208.7500 </r>
       <r>     3.8364     0.8969   208.8011 </r>
       <r>     3.8934    54.4324   211.9004 </r>
       <r>     3.9503   101.4658   217.6777 </r>
       <r>     4.0073     1.2690   217.7500 </r>
       <r>     4.0642     0.0033   217.7502 </r>
       <r>     4.1211    30.3620   219.4790 </r>
       <r>     4.1781    86.4286   224.4001 </r>
       <r>     4.2350    41.2692   226.7499 </r>
       <r>     4.2920     0.2726   226.7655 </r>
       <r>     4.3489    92.9656   232.0588 </r>
       <r>     4.4058    13.6466   232.8358 </r>
       <r>     4.4628    75.5751   237.1390 </r>
       <r>     4.5197    97.3923   242.6844 </r>
       <r>     4.5766    33.9142   244.6155 </r>
       <r>     4.6336    11.1441   245.2500 </r>
       <r>     4.6905     0.0001   245.2500 </r>
       <r>     4.7475     0.0000   245.2500 </r>
       <r>     4.8044     0.0000   245.2500 </r>
       <r>     4.8613     0.0000   245.2500 </r>
       <r>     4.9183     0.2463   245.2640 </r>
       <r>     4.9752    49.1392   248.0620 </r>
       <r>     5.0322    70.3504   252.0676 </r>
       <r>     5.0891     3.2028   252.2500 </r>
       <r>     5.1460     0.0000   252.2500 </r>
       <r>     5.2030     0.0000   252.2500 </r>
       <r>     5.2599     0.0000   252.2500 </r>
       <r>     5.3169     0.0000   252.2500 </r>
       <r>     5.3738     0.0000   252.2500 </r>
       <r>     5.4307     0.0135   252.2508 </r>
       <r>     5.4877    36.8149   254.3470 </r>
       <r>     5.5446    15.8595   255.2500 </r>
       <r>     5.6015     0.0002   255.2500 </r>
       <r>     5.6585     0.0000   255.2500 </r>
       <r>     5.7154     0.0005   255.2500 </r>
       <r>     5.7724     6.7333   255.6334 </r>
       <r>     5.8293     6.4378   256.0000 </r>
       <r>     5.8862     0.0004   256.0000 </r>
       <r>     5.9432     0.0000   256.0000 </r>
       <r>     6.0001     0.0000   256.0000 </r>
       <r>     6.0571     0.0000   256.0000 </r>
       <r>     6.1140     0.0000   256.0000 </r>
       <r>     6.1709     0.0000   256.0000 </r>
       <r>     6.2279     0.0033   256.0002 </r>
       <r>     6.2848    16.8692   256.9607 </r>
       <r>     6.3418    10.6700   257.5682 </r>
       <r>     6.3987    24.8757   258.9846 </r>
       <r>     6.4556     0.2698   259.0000 </r>
       <r>     6.5126     0.0000   259.0000 </r>
       <r>     6.5695     0.0000   259.0000 </r>
       <r>     6.6264     0.0000   259.0000 </r>
       <r>     6.6834     0.0000   259.0000 </r>
       <r>     6.7403     0.0000   259.0000 </r>
       <r>     6.7973     5.8888   259.3353 </r>
       <r>     6.8542    31.3288   261.1191 </r>
       <r>     6.9111    41.7780   263.4979 </r>
       <r>     6.9681     0.0365   263.5000 </r>
       <r>     7.0250     0.0000   263.5000 </r>
       <r>     7.0820     0.0000   263.5000 </r>
       <r>     7.1389     0.0297   263.5017 </r>
       <r>     7.1958    87.2479   268.4695 </r>
       <r>     7.2528    60.7612   271.9292 </r>
       <r>     7.3097     1.2439   272.0000 </r>
       <r>     7.3667     0.0000   272.0000 </r>
       <r>     7.4236     0.0000   272.0000 </r>
       <r>     7.4805     0.0000   272.0000 </r>
       <r>     7.5375     0.0000   272.0000 </r>
       <r>     7.5944     0.4838   272.0275 </r>
       <r>     7.6513   164.7460   281.4080 </r>
       <r>     7.7083    58.0580   284.7138 </r>
       <r>     7.7652    48.8268   287.4939 </r>
       <r>     7.8222     0.1069   287.5000 </r>
       <r>     7.8791     0.0010   287.5001 </r>
       <r>     7.9360    41.1409   289.8426 </r>
       <r>     7.9930    64.2242   293.4994 </r>
       <r>     8.0499    25.8913   294.9736 </r>
       <r>     8.1069    80.5623   299.5608 </r>
       <r>     8.1638   144.5043   307.7887 </r>
       <r>     8.2207    12.4924   308.5000 </r>
       <r>     8.2777     3.2438   308.6847 </r>
       <r>     8.3346   106.2980   314.7372 </r>
       <r>     8.3916     9.0063   315.2500 </r>
       <r>     8.4485     0.0000   315.2500 </r>
       <r>     8.5054     0.0443   315.2525 </r>
       <r>     8.5624    79.0082   319.7512 </r>
       <r>     8.6193    26.3235   321.2500 </r>
       <r>     8.6762     0.0001   321.2500 </r>
       <r>     8.7332     0.6488   321.2869 </r>
       <r>     8.7901   121.3712   328.1977 </r>
       <r>     8.8471    62.2242   331.7407 </r>
       <r>     8.9040     0.1639   331.7500 </r>
       <r>     8.9609     0.0000   331.7500 </r>
       <r>     9.0179     0.1395   331.7579 </r>
       <r>     9.0748    12.4535   332.4670 </r>
       <r>     9.1318     0.5791   332.5000 </r>
       <r>     9.1887     0.0621   332.5035 </r>
       <r>     9.2456    30.0690   334.2156 </r>
       <r>     9.3026     7.4905   334.6421 </r>
       <r>     9.3595    23.7534   335.9946 </r>
       <r>     9.4165     0.0945   336.0000 </r>
       <r>     9.4734     0.0000   336.0000 </r>
       <r>     9.5303     0.0000   336.0000 </r>
       <r>     9.5873     0.0000   336.0000 </r>
       <r>     9.6442     0.0000   336.0000 </r>
       <r>     9.7011     0.0000   336.0000 </r>
       <r>     9.7581     0.0000   336.0000 </r>
       <r>     9.8150     0.0000   336.0000 </r>
       <r>     9.8720     0.0000   336.0000 </r>
       <r>     9.9289     0.0000   336.0000 </r>
       <r>     9.9858     0.0000   336.0000 </r>
       <r>    10.0428     0.0000   336.0000 </r>
       <r>    10.0997     0.0000   336.0000 </r>
      </set>
     </set>
    </array>
   </total>
  </dos>
 </calculation>
 <structure name="finalpos" >
  <crystal>
   <varray name="basis" >
    <v>      10.86914512      -0.00000000      -0.00000000 </v>
    <v>      -0.00000000      10.86914512       0.00000000 </v>
    <v>       0.00000000       0.00000000      10.86914512 </v>
   </varray>
   <i name="volume">   1284.06249692 </i>
   <varray name="rec_basis" >
    <v>       0.09200356       0.00000000      -0.00000000 </v>
    <v>       0.00000000       0.09200356      -0.00000000 </v>
    <v>       0.00000000      -0.00000000       0.09200356 </v>
   </varray>
  </crystal>
  <varray name="positions" >
   <v>       0.25092004       0.25000000       0.25000000 </v>
   <v>       0.75000000       0.25000000       0.25000000 </v>
   <v>       0.25000000       0.75000000       0.25000000 </v>
   <v>       0.75000000       0.75000000       0.25000000 </v>
   <v>       0.25000000       0.25000000       0.75000000 </v>
   <v>       0.75000000       0.25000000       0.75000000 </v>
   <v>       0.25000000       0.75000000       0.75000000 </v>
   <v>       0.75000000       0.75000000       0.75000000 </v>
   <v>       0.25000000       0.00000000       0.00000000 </v>
   <v>       0.75000000       0.00000000       0.00000000 </v>
   <v>       0.25000000       0.50000000       0.00000000 </v>
   <v>       0.75000000       0.50000000       0.00000000 </v>
   <v>       0.25000000       0.00000000       0.50000000 </v>
   <v>       0.75000000       0.00000000       0.50000000 </v>
   <v>       0.25000000       0.50000000       0.50000000 </v>
   <v>       0.75000000       0.50000000       0.50000000 </v>
   <v>       0.00000000       0.25000000       0.00092004 </v>
   <v>       0.50000000       0.25000000       0.00000000 </v>
   <v>       0.00000000       0.75000000       0.00000000 </v>
   <v>       0.50000000       0.75000000       0.00000000 </v>
   <v>       0.00000000       0.25000000       0.50000000 </v>
   <v>       0.50000000       0.25000000       0.50000000 </v>
   <v>       0.00000000       0.75000000       0.50000000 </v>
   <v>       0.50000000       0.75000000       0.50000000 </v>
   <v>       0.00000000       0.00000000       0.25000000 </v>
   <v>       0.50000000       0.00000000       0.25000000 </v>
   <v>       0.00000000       0.50000000       0.25000000 </v>
   <v>       0.50000000       0.50000000       0.25000000 </v>
   <v>       0.00000000       0.00000000       0.75000000 </v>
   <v>       0.50000000       0.00000000       0.75000000 </v>
   <v>       0.00000000       0.50000000       0.75000000 </v>
   <v>       0.50000000       0.50000000       0.75000000 </v>
   <v>       0.37500000       0.37500000       0.37500000 </v>
   <v>       0.87500000       0.37500000       0.37500000 </v>
   <v>       0.37500000       0.87500000       0.37500000 </v>
   <v>       0.87500000       0.87500000       0.37500000 </v>
   <v>       0.37500000       0.37500000       0.87500000 </v>
   <v>       0.87500000       0.37500000       0.87500000 </v>
   <v>       0.37500000       0.87500000       0.87500000 </v>
   <v>       0.87500000       0.87500000       0.87500000 </v>
   <v>       0.37500000       0.12500000       0.12500000 </v>
   <v>       0.87500000       0.12500000       0.12500000 </v>
   <v>       0.37500000       0.62500000       0.12500000 </v>
   <v>       0.87500000       0.62500000       0.12500000 </v>
   <v>       0.37500000       0.12500000       0.62500000 </v>
   <v>       0.87500000       0.12500000       0.62500000 </v>
   <v>       0.37500000       0.62500000       0.62500000 </v>
   <v>       0.87500000       0.62500000       0.62500000 </v>
   <v>       0.12500000       0.37500000       0.12500000 </v>
   <v>       0.62500000       0.37500000       0.12500000 </v>
   <v>       0.12500000       0.87500000       0.12500000 </v>
   <v>       0.62500000       0.87500000       0.12500000 </v>
   <v>       0.12500000       0.37500000       0.62500000 </v>
   <v>       0.62500000       0.37500000       0.62500000 </v>
   <v>       0.12500000       0.87500000       0.62500000 </v>
   <v>       0.62500000       0.87500000       0.62500000 </v>
   <v>       0.12500000       0.12500000       0.37500000 </v>
   <v>       0.62500000       0.12500000       0.37500000 </v>
   <v>       0.12500000       0.62500000       0.37500000 </v>
   <v>       0.62500000       0.62500000       0.37500000 </v>
   <v>       0.12500000       0.12500000       0.87500000 </v>
   <v>       0.62500000       0.12500000       0.87500000 </v>
   <v>       0.12500000       0.62500000       0.87500000 </v>
   <v>       0.62500000       0.62500000       0.87500000 </v>
  </varray>
 </structure>
</modeling>
