  64  64   0   0
  0.2197554E+02  0.1120400E-08  0.1120400E-08  0.1120400E-08  0.5000000E-15
  1.000000000000000E-004
  CAR 
 unknown system                          
     11.05903510    -22.85320731  301     -0.55590792      1.00000000
    -22.853  0.0000E+00  0.0000E+00
    -22.740  0.0000E+00  0.0000E+00
    -22.627  0.0000E+00  0.0000E+00
    -22.514  0.0000E+00  0.0000E+00
    -22.401  0.0000E+00  0.0000E+00
    -22.288  0.0000E+00  0.0000E+00
    -22.175  0.0000E+00  0.0000E+00
    -22.062  0.0000E+00  0.0000E+00
    -21.949  0.0000E+00  0.0000E+00
    -21.836  0.0000E+00  0.0000E+00
    -21.723  0.0000E+00  0.0000E+00
    -21.610  0.0000E+00  0.0000E+00
    -21.497  0.0000E+00  0.0000E+00
    -21.384  0.5599E-05  0.6329E-06
    -21.271  0.1212E+04  0.1370E+03
    -21.158  0.4864E+03  0.1920E+03
    -21.045  0.0000E+00  0.1920E+03
    -20.932  0.0000E+00  0.1920E+03
    -20.818  0.0000E+00  0.1920E+03
    -20.705  0.0000E+00  0.1920E+03
    -20.592  0.0000E+00  0.1920E+03
    -20.479  0.0000E+00  0.1920E+03
    -20.366  0.0000E+00  0.1920E+03
    -20.253  0.0000E+00  0.1920E+03
    -20.140  0.0000E+00  0.1920E+03
    -20.027  0.0000E+00  0.1920E+03
    -19.914  0.0000E+00  0.1920E+03
    -19.801  0.0000E+00  0.1920E+03
    -19.688  0.0000E+00  0.1920E+03
    -19.575  0.0000E+00  0.1920E+03
    -19.462  0.0000E+00  0.1920E+03
    -19.349  0.0000E+00  0.1920E+03
    -19.236  0.0000E+00  0.1920E+03
    -19.123  0.0000E+00  0.1920E+03
    -19.010  0.0000E+00  0.1920E+03
    -18.897  0.0000E+00  0.1920E+03
    -18.784  0.0000E+00  0.1920E+03
    -18.671  0.0000E+00  0.1920E+03
    -18.558  0.0000E+00  0.1920E+03
    -18.445  0.0000E+00  0.1920E+03
    -18.332  0.0000E+00  0.1920E+03
    -18.219  0.0000E+00  0.1920E+03
    -18.105  0.0000E+00  0.1920E+03
    -17.992  0.0000E+00  0.1920E+03
    -17.879  0.0000E+00  0.1920E+03
    -17.766  0.0000E+00  0.1920E+03
    -17.653  0.0000E+00  0.1920E+03
    -17.540  0.0000E+00  0.1920E+03
    -17.427  0.0000E+00  0.1920E+03
    -17.314  0.0000E+00  0.1920E+03
    -17.201  0.0000E+00  0.1920E+03
    -17.088  0.0000E+00  0.1920E+03
    -16.975  0.0000E+00  0.1920E+03
    -16.862  0.0000E+00  0.1920E+03
    -16.749  0.0000E+00  0.1920E+03
    -16.636  0.0000E+00  0.1920E+03
    -16.523  0.0000E+00  0.1920E+03
    -16.410  0.0000E+00  0.1920E+03
    -16.297  0.0000E+00  0.1920E+03
    -16.184  0.0000E+00  0.1920E+03
    -16.071  0.0000E+00  0.1920E+03
    -15.958  0.0000E+00  0.1920E+03
    -15.845  0.0000E+00  0.1920E+03
    -15.732  0.0000E+00  0.1920E+03
    -15.619  0.0000E+00  0.1920E+03
    -15.506  0.0000E+00  0.1920E+03
    -15.393  0.0000E+00  0.1920E+03
    -15.279  0.0000E+00  0.1920E+03
    -15.166  0.0000E+00  0.1920E+03
    -15.053  0.0000E+00  0.1920E+03
    -14.940  0.0000E+00  0.1920E+03
    -14.827  0.0000E+00  0.1920E+03
    -14.714  0.0000E+00  0.1920E+03
    -14.601  0.0000E+00  0.1920E+03
    -14.488  0.0000E+00  0.1920E+03
    -14.375  0.0000E+00  0.1920E+03
    -14.262  0.0000E+00  0.1920E+03
    -14.149  0.0000E+00  0.1920E+03
    -14.036  0.0000E+00  0.1920E+03
    -13.923  0.0000E+00  0.1920E+03
    -13.810  0.0000E+00  0.1920E+03
    -13.697  0.0000E+00  0.1920E+03
    -13.584  0.0000E+00  0.1920E+03
    -13.471  0.1596E-14  0.1920E+03
    -13.358  0.1118E+01  0.1921E+03
    -13.245  0.1915E+02  0.1943E+03
    -13.132  0.4855E+02  0.1998E+03
    -13.019  0.1251E+03  0.2139E+03
    -12.906  0.3678E+03  0.2555E+03
    -12.793  0.4430E+01  0.2560E+03
    -12.680  0.0000E+00  0.2560E+03
    -12.566  0.0000E+00  0.2560E+03
    -12.453  0.0000E+00  0.2560E+03
    -12.340  0.0000E+00  0.2560E+03
    -12.227  0.0000E+00  0.2560E+03
    -12.114  0.0000E+00  0.2560E+03
    -12.001  0.0000E+00  0.2560E+03
    -11.888  0.0000E+00  0.2560E+03
    -11.775  0.0000E+00  0.2560E+03
    -11.662  0.0000E+00  0.2560E+03
    -11.549  0.0000E+00  0.2560E+03
    -11.436  0.0000E+00  0.2560E+03
    -11.323  0.0000E+00  0.2560E+03
    -11.210  0.0000E+00  0.2560E+03
    -11.097  0.0000E+00  0.2560E+03
    -10.984  0.0000E+00  0.2560E+03
    -10.871  0.0000E+00  0.2560E+03
    -10.758  0.0000E+00  0.2560E+03
    -10.645  0.0000E+00  0.2560E+03
    -10.532  0.0000E+00  0.2560E+03
    -10.419  0.0000E+00  0.2560E+03
    -10.306  0.0000E+00  0.2560E+03
    -10.193  0.0000E+00  0.2560E+03
    -10.080  0.0000E+00  0.2560E+03
     -9.967  0.0000E+00  0.2560E+03
     -9.854  0.0000E+00  0.2560E+03
     -9.740  0.0000E+00  0.2560E+03
     -9.627  0.0000E+00  0.2560E+03
     -9.514  0.0000E+00  0.2560E+03
     -9.401  0.0000E+00  0.2560E+03
     -9.288  0.0000E+00  0.2560E+03
     -9.175  0.0000E+00  0.2560E+03
     -9.062  0.0000E+00  0.2560E+03
     -8.949  0.0000E+00  0.2560E+03
     -8.836  0.0000E+00  0.2560E+03
     -8.723  0.0000E+00  0.2560E+03
     -8.610  0.0000E+00  0.2560E+03
     -8.497  0.0000E+00  0.2560E+03
     -8.384  0.0000E+00  0.2560E+03
     -8.271  0.0000E+00  0.2560E+03
     -8.158  0.0000E+00  0.2560E+03
     -8.045  0.0000E+00  0.2560E+03
     -7.932  0.0000E+00  0.2560E+03
     -7.819  0.0000E+00  0.2560E+03
     -7.706  0.0000E+00  0.2560E+03
     -7.593  0.0000E+00  0.2560E+03
     -7.480  0.0000E+00  0.2560E+03
     -7.367  0.0000E+00  0.2560E+03
     -7.254  0.0000E+00  0.2560E+03
     -7.141  0.0000E+00  0.2560E+03
     -7.027  0.0000E+00  0.2560E+03
     -6.914  0.0000E+00  0.2560E+03
     -6.801  0.0000E+00  0.2560E+03
     -6.688  0.0000E+00  0.2560E+03
     -6.575  0.0000E+00  0.2560E+03
     -6.462  0.0000E+00  0.2560E+03
     -6.349  0.0000E+00  0.2560E+03
     -6.236  0.0000E+00  0.2560E+03
     -6.123  0.0000E+00  0.2560E+03
     -6.010  0.0000E+00  0.2560E+03
     -5.897  0.0000E+00  0.2560E+03
     -5.784  0.0000E+00  0.2560E+03
     -5.671  0.0000E+00  0.2560E+03
     -5.558  0.0000E+00  0.2560E+03
     -5.445  0.0000E+00  0.2560E+03
     -5.332  0.0000E+00  0.2560E+03
     -5.219  0.0000E+00  0.2560E+03
     -5.106  0.0000E+00  0.2560E+03
     -4.993  0.0000E+00  0.2560E+03
     -4.880  0.0000E+00  0.2560E+03
     -4.767  0.0000E+00  0.2560E+03
     -4.654  0.0000E+00  0.2560E+03
     -4.541  0.0000E+00  0.2560E+03
     -4.428  0.0000E+00  0.2560E+03
     -4.315  0.0000E+00  0.2560E+03
     -4.201  0.0000E+00  0.2560E+03
     -4.088  0.0000E+00  0.2560E+03
     -3.975  0.0000E+00  0.2560E+03
     -3.862  0.0000E+00  0.2560E+03
     -3.749  0.0000E+00  0.2560E+03
     -3.636  0.0000E+00  0.2560E+03
     -3.523  0.0000E+00  0.2560E+03
     -3.410  0.0000E+00  0.2560E+03
     -3.297  0.0000E+00  0.2560E+03
     -3.184  0.0000E+00  0.2560E+03
     -3.071  0.0000E+00  0.2560E+03
     -2.958  0.0000E+00  0.2560E+03
     -2.845  0.0000E+00  0.2560E+03
     -2.732  0.1048E+00  0.2560E+03
     -2.619  0.8742E+01  0.2570E+03
     -2.506  0.2425E+02  0.2597E+03
     -2.393  0.8429E+02  0.2693E+03
     -2.280  0.8206E+02  0.2785E+03
     -2.167  0.1547E+03  0.2960E+03
     -2.054  0.7266E+02  0.3043E+03
     -1.941  0.5653E+02  0.3106E+03
     -1.828  0.6196E+02  0.3176E+03
     -1.715  0.7171E+02  0.3257E+03
     -1.602  0.3494E-09  0.3258E+03
     -1.488  0.7050E+02  0.3337E+03
     -1.375  0.1970E+03  0.3560E+03
     -1.262  0.2466E+02  0.3588E+03
     -1.149  0.2530E+03  0.3874E+03
     -1.036  0.1371E+03  0.4029E+03
     -0.923  0.2587E+03  0.4321E+03
     -0.810  0.6279E+02  0.4392E+03
     -0.697  0.7114E+02  0.4473E+03
     -0.584  0.6605E+01  0.4480E+03
     -0.471  0.0000E+00  0.4480E+03
     -0.358  0.0000E+00  0.4480E+03
     -0.245  0.0000E+00  0.4480E+03
     -0.132  0.0000E+00  0.4480E+03
     -0.019  0.0000E+00  0.4480E+03
      0.094  0.0000E+00  0.4480E+03
      0.207  0.0000E+00  0.4480E+03
      0.320  0.0000E+00  0.4480E+03
      0.433  0.0000E+00  0.4480E+03
      0.546  0.0000E+00  0.4480E+03
      0.659  0.0000E+00  0.4480E+03
      0.772  0.0000E+00  0.4480E+03
      0.885  0.0000E+00  0.4480E+03
      0.998  0.0000E+00  0.4480E+03
      1.111  0.0000E+00  0.4480E+03
      1.224  0.0000E+00  0.4480E+03
      1.338  0.0000E+00  0.4480E+03
      1.451  0.0000E+00  0.4480E+03
      1.564  0.0000E+00  0.4480E+03
      1.677  0.0000E+00  0.4480E+03
      1.790  0.0000E+00  0.4480E+03
      1.903  0.0000E+00  0.4480E+03
      2.016  0.0000E+00  0.4480E+03
      2.129  0.0000E+00  0.4480E+03
      2.242  0.0000E+00  0.4480E+03
      2.355  0.0000E+00  0.4480E+03
      2.468  0.0000E+00  0.4480E+03
      2.581  0.0000E+00  0.4480E+03
      2.694  0.0000E+00  0.4480E+03
      2.807  0.0000E+00  0.4480E+03
      2.920  0.0000E+00  0.4480E+03
      3.033  0.0000E+00  0.4480E+03
      3.146  0.0000E+00  0.4480E+03
      3.259  0.0000E+00  0.4480E+03
      3.372  0.0000E+00  0.4480E+03
      3.485  0.0000E+00  0.4480E+03
      3.598  0.0000E+00  0.4480E+03
      3.711  0.0000E+00  0.4480E+03
      3.824  0.0000E+00  0.4480E+03
      3.937  0.0000E+00  0.4480E+03
      4.051  0.0000E+00  0.4480E+03
      4.164  0.0000E+00  0.4480E+03
      4.277  0.7492E-05  0.4480E+03
      4.390  0.2211E+01  0.4482E+03
      4.503  0.0000E+00  0.4482E+03
      4.616  0.0000E+00  0.4482E+03
      4.729  0.0000E+00  0.4482E+03
      4.842  0.0000E+00  0.4482E+03
      4.955  0.1960E-04  0.4483E+03
      5.068  0.1326E+02  0.4497E+03
      5.181  0.1007E-01  0.4498E+03
      5.294  0.0000E+00  0.4498E+03
      5.407  0.0000E+00  0.4498E+03
      5.520  0.2613E+01  0.4500E+03
      5.633  0.2393E+02  0.4527E+03
      5.746  0.1908E-06  0.4528E+03
      5.859  0.1705E+02  0.4547E+03
      5.972  0.6471E+00  0.4548E+03
      6.085  0.0000E+00  0.4548E+03
      6.198  0.0000E+00  0.4548E+03
      6.311  0.1082E-02  0.4548E+03
      6.424  0.1392E+02  0.4563E+03
      6.537  0.8191E+01  0.4572E+03
      6.650  0.4124E+02  0.4619E+03
      6.763  0.6483E+02  0.4692E+03
      6.877  0.5907E+02  0.4759E+03
      6.990  0.1265E+02  0.4773E+03
      7.103  0.1338E+01  0.4775E+03
      7.216  0.4871E+01  0.4781E+03
      7.329  0.2034E+01  0.4783E+03
      7.442  0.8187E+02  0.4875E+03
      7.555  0.1667E+03  0.5064E+03
      7.668  0.3291E+01  0.5068E+03
      7.781  0.2652E+02  0.5097E+03
      7.894  0.1770E+00  0.5098E+03
      8.007  0.5290E+02  0.5157E+03
      8.120  0.7267E-02  0.5158E+03
      8.233  0.1416E+02  0.5174E+03
      8.346  0.9198E+02  0.5277E+03
      8.459  0.8847E-02  0.5278E+03
      8.572  0.1466E+03  0.5443E+03
      8.685  0.1260E+02  0.5457E+03
      8.798  0.1429E-05  0.5458E+03
      8.911  0.8151E+02  0.5550E+03
      9.024  0.1238E+03  0.5690E+03
      9.137  0.4807E+01  0.5695E+03
      9.250  0.2137E+02  0.5719E+03
      9.363  0.2284E+02  0.5745E+03
      9.476  0.9077E+00  0.5746E+03
      9.590  0.1239E+02  0.5760E+03
      9.703  0.0000E+00  0.5760E+03
      9.816  0.0000E+00  0.5760E+03
      9.929  0.0000E+00  0.5760E+03
     10.042  0.0000E+00  0.5760E+03
     10.155  0.0000E+00  0.5760E+03
     10.268  0.0000E+00  0.5760E+03
     10.381  0.0000E+00  0.5760E+03
     10.494  0.0000E+00  0.5760E+03
     10.607  0.0000E+00  0.5760E+03
     10.720  0.0000E+00  0.5760E+03
     10.833  0.0000E+00  0.5760E+03
     10.946  0.0000E+00  0.5760E+03
     11.059  0.0000E+00  0.5760E+03
