       N       E                     dE             d eps       ncg     rms          rms(c)
DAV:   1     0.439865960166E+04    0.43987E+04   -0.17102E+05  4864   0.125E+03
DAV:   2     0.370461833058E+03   -0.40282E+04   -0.38269E+04  5120   0.367E+02
DAV:   3    -0.205440590454E+03   -0.57590E+03   -0.57152E+03  5600   0.156E+02
DAV:   4    -0.228164430818E+03   -0.22724E+02   -0.22619E+02  5536   0.331E+01
DAV:   5    -0.229003959006E+03   -0.83953E+00   -0.83817E+00  5888   0.624E+00    0.106E+01
DAV:   6    -0.224139414132E+03    0.48645E+01   -0.94562E+00  5664   0.534E+00    0.776E+00
DAV:   7    -0.223777072424E+03    0.36234E+00   -0.20662E+00  6272   0.233E+00    0.533E+00
DAV:   8    -0.223902275181E+03   -0.12520E+00   -0.26703E-01  5344   0.125E+00    0.141E+00
DAV:   9    -0.223896732660E+03    0.55425E-02   -0.11445E-02  5632   0.262E-01    0.597E-01
DAV:  10    -0.223900986961E+03   -0.42543E-02   -0.17490E-02  5344   0.232E-01    0.274E-01
DAV:  11    -0.223900341072E+03    0.64589E-03   -0.13960E-03  5920   0.821E-02    0.888E-02
DAV:  12    -0.223900299846E+03    0.41226E-04   -0.15393E-04  5984   0.242E-02    0.153E-02
DAV:  13    -0.223900299753E+03    0.93372E-07   -0.23682E-05  5696   0.865E-03    0.498E-03
DAV:  14    -0.223900301692E+03   -0.19396E-05   -0.20614E-06  5504   0.366E-03    0.788E-03
DAV:  15    -0.223900302919E+03   -0.12265E-05   -0.44288E-07  5504   0.197E-03    0.300E-03
DAV:  16    -0.223900303381E+03   -0.46176E-06   -0.14958E-07  5728   0.966E-04    0.594E-04
DAV:  17    -0.223900303373E+03    0.77125E-08   -0.76340E-09  3648   0.747E-04
   1 F= -.22390030E+03 E0= -.22390030E+03  d E =-.553578E-15
