<?xml version="1.0" encoding="ISO-8859-1"?>
<modeling>
 <generator>
  <i name="program" type="string">vasp </i>
  <i name="version" type="string">6.3.2  </i>
  <i name="subversion" type="string">27Jun22 (build Oct 14 2022 12:13:54) complex                          parallel </i>
  <i name="platform" type="string">LinuxIFC </i>
  <i name="date" type="string">2025 08 28 </i>
  <i name="time" type="string">22:10:32 </i>
 </generator>
 <incar>
  <i type="string" name="PREC">Accurate</i>
  <i type="int" name="IALGO">    38</i>
  <i type="logical" name="ADDGRID"> T  </i>
  <i type="int" name="NELMIN">     5</i>
  <i type="int" name="IBRION">    -1</i>
  <i name="EDIFF">      0.00000001</i>
  <i name="ENCUT">    341.21360000</i>
  <i type="logical" name="LREAL"> F  </i>
  <i type="int" name="ISMEAR">     0</i>
  <i name="SIGMA">      0.02000000</i>
  <i type="logical" name="LWAVE"> F  </i>
  <i type="logical" name="LCHARG"> F  </i>
  <i type="string" name="GGA">PS</i>
 </incar>
 <primitive_cell>
  <structure name="primitive_cell" >
   <crystal>
    <varray name="basis" >
     <v>      11.20400236       0.00000000       0.00000000 </v>
     <v>       0.00000000      11.20400236       0.00000000 </v>
     <v>       0.00000000       0.00000000      11.20400236 </v>
    </varray>
    <i name="volume">   1406.43470641 </i>
    <varray name="rec_basis" >
     <v>       0.08925382       0.00000000       0.00000000 </v>
     <v>       0.00000000       0.08925382       0.00000000 </v>
     <v>       0.00000000       0.00000000       0.08925382 </v>
    </varray>
   </crystal>
   <varray name="positions" >
    <v>       0.00000000       0.00000000       0.00000000 </v>
    <v>       0.25000000       0.25000000       0.00000000 </v>
    <v>       0.25000000       0.00000000       0.25000000 </v>
    <v>       0.00000000       0.25000000       0.25000000 </v>
    <v>       0.00000000       0.00000000       0.50000000 </v>
    <v>       0.25000000       0.25000000       0.50000000 </v>
    <v>       0.25000000       0.00000000       0.75000000 </v>
    <v>       0.00000000       0.25000000       0.75000000 </v>
    <v>       0.00000000       0.50000000       0.00000000 </v>
    <v>       0.25000000       0.75000000       0.00000000 </v>
    <v>       0.25000000       0.50000000       0.25000000 </v>
    <v>       0.00000000       0.75000000       0.25000000 </v>
    <v>       0.00000000       0.50000000       0.50000000 </v>
    <v>       0.25000000       0.75000000       0.50000000 </v>
    <v>       0.25000000       0.50000000       0.75000000 </v>
    <v>       0.00000000       0.75000000       0.75000000 </v>
    <v>       0.50000000       0.00000000       0.00000000 </v>
    <v>       0.75000000       0.25000000       0.00000000 </v>
    <v>       0.75000000       0.00000000       0.25000000 </v>
    <v>       0.50000000       0.25000000       0.25000000 </v>
    <v>       0.50000000       0.00000000       0.50000000 </v>
    <v>       0.75000000       0.25000000       0.50000000 </v>
    <v>       0.75000000       0.00000000       0.75000000 </v>
    <v>       0.50000000       0.25000000       0.75000000 </v>
    <v>       0.50000000       0.50000000       0.00000000 </v>
    <v>       0.75000000       0.75000000       0.00000000 </v>
    <v>       0.75000000       0.50000000       0.25000000 </v>
    <v>       0.50000000       0.75000000       0.25000000 </v>
    <v>       0.50000000       0.50000000       0.50000000 </v>
    <v>       0.75000000       0.75000000       0.50000000 </v>
    <v>       0.75000000       0.50000000       0.75000000 </v>
    <v>       0.50000000       0.75000000       0.75000000 </v>
    <v>       0.24732239       0.25000000       0.25000000 </v>
    <v>       0.00267761       0.00000000       0.25000000 </v>
    <v>       0.00000000       0.25000000       0.00000000 </v>
    <v>       0.25000000       0.00000000       0.00000000 </v>
    <v>       0.25000000       0.25000000       0.75000000 </v>
    <v>       0.00000000       0.00000000       0.75000000 </v>
    <v>       0.00000000       0.25000000       0.50000000 </v>
    <v>       0.25000000       0.00000000       0.50000000 </v>
    <v>       0.25000000       0.75000000       0.25000000 </v>
    <v>       0.00000000       0.50000000       0.25000000 </v>
    <v>       0.00000000       0.75000000       0.00000000 </v>
    <v>       0.25000000       0.50000000       0.00000000 </v>
    <v>       0.25000000       0.75000000       0.75000000 </v>
    <v>       0.00000000       0.50000000       0.75000000 </v>
    <v>       0.00000000       0.75000000       0.50000000 </v>
    <v>       0.25000000       0.50000000       0.50000000 </v>
    <v>       0.75000000       0.25000000       0.25000000 </v>
    <v>       0.50000000       0.00000000       0.25000000 </v>
    <v>       0.50000000       0.25000000       0.00000000 </v>
    <v>       0.75000000       0.00000000       0.00000000 </v>
    <v>       0.75000000       0.25000000       0.75000000 </v>
    <v>       0.50000000       0.00000000       0.75000000 </v>
    <v>       0.50000000       0.25000000       0.50000000 </v>
    <v>       0.75000000       0.00000000       0.50000000 </v>
    <v>       0.75000000       0.75000000       0.25000000 </v>
    <v>       0.50000000       0.50000000       0.25000000 </v>
    <v>       0.50000000       0.75000000       0.00000000 </v>
    <v>       0.75000000       0.50000000       0.00000000 </v>
    <v>       0.75000000       0.75000000       0.75000000 </v>
    <v>       0.50000000       0.50000000       0.75000000 </v>
    <v>       0.50000000       0.75000000       0.50000000 </v>
    <v>       0.75000000       0.50000000       0.50000000 </v>
   </varray>
  </structure>
  <varray name="primitive_index" >
   <v type="int" >        1 </v>
   <v type="int" >        2 </v>
   <v type="int" >        3 </v>
   <v type="int" >        4 </v>
   <v type="int" >        5 </v>
   <v type="int" >        6 </v>
   <v type="int" >        7 </v>
   <v type="int" >        8 </v>
   <v type="int" >        9 </v>
   <v type="int" >       10 </v>
   <v type="int" >       11 </v>
   <v type="int" >       12 </v>
   <v type="int" >       13 </v>
   <v type="int" >       14 </v>
   <v type="int" >       15 </v>
   <v type="int" >       16 </v>
   <v type="int" >       17 </v>
   <v type="int" >       18 </v>
   <v type="int" >       19 </v>
   <v type="int" >       20 </v>
   <v type="int" >       21 </v>
   <v type="int" >       22 </v>
   <v type="int" >       23 </v>
   <v type="int" >       24 </v>
   <v type="int" >       25 </v>
   <v type="int" >       26 </v>
   <v type="int" >       27 </v>
   <v type="int" >       28 </v>
   <v type="int" >       29 </v>
   <v type="int" >       30 </v>
   <v type="int" >       31 </v>
   <v type="int" >       32 </v>
   <v type="int" >       33 </v>
   <v type="int" >       34 </v>
   <v type="int" >       35 </v>
   <v type="int" >       36 </v>
   <v type="int" >       37 </v>
   <v type="int" >       38 </v>
   <v type="int" >       39 </v>
   <v type="int" >       40 </v>
   <v type="int" >       41 </v>
   <v type="int" >       42 </v>
   <v type="int" >       43 </v>
   <v type="int" >       44 </v>
   <v type="int" >       45 </v>
   <v type="int" >       46 </v>
   <v type="int" >       47 </v>
   <v type="int" >       48 </v>
   <v type="int" >       49 </v>
   <v type="int" >       50 </v>
   <v type="int" >       51 </v>
   <v type="int" >       52 </v>
   <v type="int" >       53 </v>
   <v type="int" >       54 </v>
   <v type="int" >       55 </v>
   <v type="int" >       56 </v>
   <v type="int" >       57 </v>
   <v type="int" >       58 </v>
   <v type="int" >       59 </v>
   <v type="int" >       60 </v>
   <v type="int" >       61 </v>
   <v type="int" >       62 </v>
   <v type="int" >       63 </v>
   <v type="int" >       64 </v>
  </varray>
 </primitive_cell>
 <kpoints>
  <generation param="Gamma">
   <v type="int" name="divisions">       2        2        2 </v>
   <v name="usershift">      0.00000000       0.00000000       0.00000000 </v>
   <v name="genvec1">      0.50000000       0.00000000       0.00000000 </v>
   <v name="genvec2">      0.00000000       0.50000000       0.00000000 </v>
   <v name="genvec3">      0.00000000       0.00000000       0.50000000 </v>
   <v name="shift">      0.00000000       0.00000000       0.00000000 </v>
  </generation>
  <varray name="kpointlist" >
   <v>       0.00000000       0.00000000       0.00000000 </v>
   <v>       0.50000000       0.00000000       0.00000000 </v>
   <v>       0.00000000       0.50000000       0.00000000 </v>
   <v>       0.00000000       0.00000000       0.50000000 </v>
   <v>       0.50000000       0.50000000       0.00000000 </v>
   <v>       0.00000000       0.50000000       0.50000000 </v>
   <v>       0.50000000       0.00000000       0.50000000 </v>
   <v>       0.50000000       0.50000000       0.50000000 </v>
  </varray>
  <varray name="weights" >
   <v>       0.12500000 </v>
   <v>       0.12500000 </v>
   <v>       0.12500000 </v>
   <v>       0.12500000 </v>
   <v>       0.12500000 </v>
   <v>       0.12500000 </v>
   <v>       0.12500000 </v>
   <v>       0.12500000 </v>
  </varray>
 </kpoints>
 <parameters>
  <separator name="general" >
   <i type="string" name="SYSTEM">unknown system</i>
   <i type="logical" name="LCOMPAT"> F  </i>
  </separator>
  <separator name="electronic" >
   <i type="string" name="PREC">accura</i>
   <i name="ENMAX">    341.21360000</i>
   <i name="ENAUG">    368.05600000</i>
   <i name="EDIFF">      0.00000001</i>
   <i type="int" name="IALGO">    38</i>
   <i type="int" name="IWAVPR">    10</i>
   <i type="int" name="NBANDS">   288</i>
   <i type="int" name="NBANDSLOW">    -1</i>
   <i type="int" name="NBANDSHIGH">    -1</i>
   <i name="NELECT">    448.00000000</i>
   <i type="int" name="TURBO">     0</i>
   <i type="int" name="IRESTART">     0</i>
   <i type="int" name="NREBOOT">     0</i>
   <i type="int" name="NMIN">     0</i>
   <i name="EREF">      0.00000000</i>
   <separator name="electronic smearing" >
    <i type="int" name="ISMEAR">     0</i>
    <i name="SIGMA">      0.02000000</i>
    <i name="KSPACING">      0.50000000</i>
    <i type="logical" name="KGAMMA"> T  </i>
    <i type="logical" name="KBLOWUP"> T  </i>
   </separator>
   <separator name="electronic projectors" >
    <i type="logical" name="LREAL"> F  </i>
    <v name="ROPT">      0.00000000      0.00000000</v>
    <i type="int" name="LMAXPAW">  -100</i>
    <i type="int" name="LMAXMIX">     2</i>
    <i type="logical" name="NLSPLINE"> F  </i>
   </separator>
   <separator name="electronic startup" >
    <i type="int" name="ISTART">     0</i>
    <i type="int" name="ICHARG">     2</i>
    <i type="int" name="INIWAV">     1</i>
   </separator>
   <separator name="electronic spin" >
    <i type="int" name="ISPIN">     1</i>
    <i type="logical" name="LNONCOLLINEAR"> F  </i>
    <v name="MAGMOM">      1.00000000      1.00000000      1.00000000      1.00000000      1.00000000      1.00000000      1.00000000      1.00000000      1.00000000      1.00000000      1.00000000      1.00000000      1.00000000      1.00000000      1.00000000      1.00000000      1.00000000      1.00000000      1.00000000      1.00000000
      1.00000000      1.00000000      1.00000000      1.00000000      1.00000000      1.00000000      1.00000000      1.00000000      1.00000000      1.00000000      1.00000000      1.00000000      1.00000000      1.00000000      1.00000000      1.00000000      1.00000000      1.00000000      1.00000000      1.00000000
      1.00000000      1.00000000      1.00000000      1.00000000      1.00000000      1.00000000      1.00000000      1.00000000      1.00000000      1.00000000      1.00000000      1.00000000      1.00000000      1.00000000      1.00000000      1.00000000      1.00000000      1.00000000      1.00000000      1.00000000
      1.00000000      1.00000000      1.00000000      1.00000000</v>
    <i name="NUPDOWN">     -1.00000000</i>
    <i type="logical" name="LSORBIT"> F  </i>
    <v name="SAXIS">      0.00000000      0.00000000      1.00000000</v>
    <i type="logical" name="LSPIRAL"> F  </i>
    <v name="QSPIRAL">      0.00000000      0.00000000      0.00000000</v>
    <i type="logical" name="LZEROZ"> F  </i>
   </separator>
   <separator name="electronic exchange-correlation" >
    <i type="logical" name="LASPH"> F  </i>
    <i type="logical" name="LMETAGGA"> F  </i>
   </separator>
   <separator name="electronic convergence" >
    <i type="int" name="NELM">    60</i>
    <i type="int" name="NELMDL">    -5</i>
    <i type="int" name="NELMIN">     5</i>
    <i name="ENINI">    341.21360000</i>
    <separator name="electronic convergence detail" >
     <i type="logical" name="LDIAG"> T  </i>
     <i type="logical" name="LSUBROT"> F  </i>
     <i name="WEIMIN">      0.00000000</i>
     <i name="EBREAK">      0.00000000</i>
     <i name="DEPER">      0.30000000</i>
     <i type="int" name="NRMM">     4</i>
     <i name="TIME">      0.40000000</i>
    </separator>
   </separator>
   <separator name="electronic mixer" >
    <i name="AMIX">      0.40000000</i>
    <i name="BMIX">      1.00000000</i>
    <i name="AMIN">      0.10000000</i>
    <i name="AMIX_MAG">      1.60000000</i>
    <i name="BMIX_MAG">      1.00000000</i>
    <separator name="electronic mixer details" >
     <i type="int" name="IMIX">     4</i>
     <i type="logical" name="MIXFIRST"> F  </i>
     <i type="int" name="MAXMIX">   -45</i>
     <i name="WC">    100.00000000</i>
     <i type="int" name="INIMIX">     1</i>
     <i type="int" name="MIXPRE">     1</i>
     <i type="int" name="MREMOVE">     5</i>
    </separator>
   </separator>
   <separator name="electronic dipolcorrection" >
    <i type="logical" name="LDIPOL"> F  </i>
    <i type="logical" name="LMONO"> F  </i>
    <i type="int" name="IDIPOL">     0</i>
    <i name="EPSILON">      1.00000000</i>
    <v name="DIPOL">   -100.00000000   -100.00000000   -100.00000000</v>
    <i name="EFIELD">      0.00000000</i>
   </separator>
  </separator>
  <separator name="grids" >
   <i type="int" name="NGX">    70</i>
   <i type="int" name="NGY">    70</i>
   <i type="int" name="NGZ">    70</i>
   <i type="int" name="NGXF">   140</i>
   <i type="int" name="NGYF">   140</i>
   <i type="int" name="NGZF">   140</i>
   <i type="logical" name="ADDGRID"> T  </i>
  </separator>
  <separator name="ionic" >
   <i type="int" name="NSW">     0</i>
   <i type="int" name="IBRION">    -1</i>
   <i type="int" name="MDALGO">     0</i>
   <i type="int" name="ISIF">     2</i>
   <i name="PSTRESS">      0.00000000</i>
   <i name="EDIFFG">      0.00000010</i>
   <i type="int" name="NFREE">     0</i>
   <i name="POTIM">      0.50000000</i>
   <i name="SMASS">     -3.00000000</i>
   <i name="SCALEE">      1.00000000</i>
  </separator>
  <separator name="ionic md" >
   <i name="TEBEG">      0.00010000</i>
   <i name="TEEND">      0.00010000</i>
   <i type="int" name="NBLOCK">     1</i>
   <i type="int" name="KBLOCK">     1</i>
   <i type="int" name="NPACO">   256</i>
   <i name="APACO">     10.00000000</i>
  </separator>
  <separator name="symmetry" >
   <i type="int" name="ISYM">     2</i>
   <i name="SYMPREC">      0.00001000</i>
  </separator>
  <separator name="dos" >
   <i type="int" name="LORBIT">     0</i>
   <v name="RWIGS">     -1.00000000     -1.00000000</v>
   <i type="int" name="NEDOS">   301</i>
   <i name="EMIN">     10.00000000</i>
   <i name="EMAX">    -10.00000000</i>
   <i name="EFERMI">      0.00000000</i>
  </separator>
  <separator name="writing" >
   <i type="int" name="NWRITE">     2</i>
   <i type="logical" name="LWAVE"> F  </i>
   <i type="logical" name="LDOWNSAMPLE"> F  </i>
   <i type="logical" name="LCHARG"> F  </i>
   <i type="logical" name="LPARD"> F  </i>
   <i type="logical" name="LVTOT"> F  </i>
   <i type="logical" name="LVHAR"> F  </i>
   <i type="logical" name="LELF"> F  </i>
   <i type="logical" name="LOPTICS"> F  </i>
   <v name="STM">      0.00000000      0.00000000      0.00000000      0.00000000      0.00000000      0.00000000      0.00000000</v>
  </separator>
  <separator name="performance" >
   <i type="int" name="NPAR">    32</i>
   <i type="int" name="NSIM">     4</i>
   <i type="int" name="NBLK">    -1</i>
   <i type="logical" name="LPLANE"> T  </i>
   <i type="logical" name="LSCALAPACK"> T  </i>
   <i type="logical" name="LSCAAWARE"> F  </i>
   <i type="logical" name="LSCALU"> F  </i>
   <i type="logical" name="LASYNC"> F  </i>
   <i type="logical" name="LORBITALREAL"> F  </i>
  </separator>
  <separator name="miscellaneous" >
   <i type="int" name="IDIOT">     3</i>
   <i type="int" name="PHON_NSTRUCT">    -1</i>
   <i type="logical" name="LMUSIC"> F  </i>
   <v name="POMASS">     22.99000000     35.45300000</v>
   <v name="DARWINR">      0.00000000      0.00000000</v>
   <v name="DARWINV">      1.00000000      1.00000000</v>
   <i type="logical" name="LCORR"> T  </i>
  </separator>
  <i type="logical" name="GGA_COMPAT"> T  </i>
  <i type="logical" name="LBERRY"> F  </i>
  <i type="int" name="ICORELEVEL">     0</i>
  <i type="logical" name="LDAU"> F  </i>
  <i type="int" name="I_CONSTRAINED_M">     0</i>
  <separator name="electronic exchange-correlation" >
   <i type="string" name="GGA">PS</i>
   <i type="int" name="VOSKOWN">     0</i>
   <i type="logical" name="LHFCALC"> F  </i>
   <i type="string" name="PRECFOCK"></i>
   <i type="logical" name="LSYMGRAD"> F  </i>
   <i type="logical" name="LHFONE"> F  </i>
   <i type="logical" name="LRHFCALC"> F  </i>
   <i type="logical" name="LTHOMAS"> F  </i>
   <i type="logical" name="LMODELHF"> F  </i>
   <i type="logical" name="LFOCKACE"> F  </i>
   <i name="ENCUT4O">     -1.00000000</i>
   <i type="int" name="EXXOEP">     0</i>
   <i type="int" name="FOURORBIT">     0</i>
   <i name="AEXX">      0.00000000</i>
   <i name="HFALPHA">      0.00000000</i>
   <i name="MCALPHA">      0.00000000</i>
   <i name="ALDAX">      1.00000000</i>
   <i name="AGGAX">      1.00000000</i>
   <i name="ALDAC">      1.00000000</i>
   <i name="AGGAC">      1.00000000</i>
   <i type="int" name="NKREDX">     1</i>
   <i type="int" name="NKREDY">     1</i>
   <i type="int" name="NKREDZ">     1</i>
   <i type="logical" name="SHIFTRED"> F  </i>
   <i type="logical" name="ODDONLY"> F  </i>
   <i type="logical" name="EVENONLY"> F  </i>
   <i type="int" name="LMAXFOCK">     0</i>
   <i type="int" name="NMAXFOCKAE">     0</i>
   <i type="logical" name="LFOCKAEDFT"> F  </i>
   <i name="HFSCREEN">      0.00000000</i>
   <i name="HFSCREENC">      0.00000000</i>
   <i type="int" name="NBANDSGWLOW">     0</i>
  </separator>
  <separator name="vdW DFT" >
   <i type="logical" name="LUSE_VDW"> F  </i>
   <i name="Zab_VDW">     -0.84910000</i>
   <i name="PARAM1">      0.12340000</i>
   <i name="PARAM2">      1.00000000</i>
   <i name="PARAM3">      0.00000000</i>
  </separator>
  <separator name="model GW" >
   <i type="int" name="MODEL_GW">     0</i>
   <i name="MODEL_EPS0">     13.18532537</i>
   <i name="MODEL_ALPHA">      1.00000000</i>
  </separator>
  <separator name="linear response parameters" >
   <i type="logical" name="LEPSILON"> F  </i>
   <i type="logical" name="LRPA"> F  </i>
   <i type="logical" name="LNABLA"> F  </i>
   <i type="logical" name="LVEL"> F  </i>
   <i name="CSHIFT">      0.10000000</i>
   <i name="OMEGAMAX">     -1.00000000</i>
   <i name="DEG_THRESHOLD">      0.00200000</i>
   <i name="RTIME">     -0.10000000</i>
   <i name="WPLASMAI">      0.00000000</i>
   <v name="DFIELD">      0.00000000      0.00000000      0.00000000</v>
   <v name="WPLASMA">      0.00000000      0.00000000      0.00000000      0.00000000      0.00000000      0.00000000      0.00000000      0.00000000      0.00000000</v>
  </separator>
  <separator name="orbital magnetization" >
   <i type="logical" name="NUCIND"> F  </i>
   <v name="MAGPOS">      0.00000000      0.00000000      0.00000000</v>
   <i type="logical" name="LNICSALL"> T  </i>
   <i type="logical" name="ORBITALMAG"> F  </i>
   <i type="logical" name="LMAGBLOCH"> F  </i>
   <i type="logical" name="LCHIMAG"> F  </i>
   <i type="logical" name="LGAUGE"> T  </i>
   <i type="int" name="MAGATOM">     0</i>
   <v name="MAGDIPOL">      0.00000000      0.00000000      0.00000000</v>
   <v name="AVECCONST">      0.00000000      0.00000000      0.00000000</v>
  </separator>
  <separator name="response functions" >
   <i type="logical" name="LFINITE_TEMPERATURE"> F  </i>
   <i type="logical" name="LADDER"> F  </i>
   <i type="logical" name="LRPAFORCE"> F  </i>
   <i type="logical" name="LFXC"> F  </i>
   <i type="logical" name="LHARTREE"> T  </i>
   <i type="int" name="IBSE">     0</i>
   <v type="int" name="KPOINT">    -1     0     0     0</v>
   <i type="logical" name="LTCTC"> F  </i>
   <i type="logical" name="LTCTE"> F  </i>
   <i type="logical" name="LTETE"> F  </i>
   <i type="logical" name="LTRIPLET"> F  </i>
   <i type="logical" name="LFXCEPS"> F  </i>
   <i type="logical" name="LFXHEG"> F  </i>
   <i type="int" name="NATURALO">     2</i>
   <i type="logical" name="LHOLEGF"> F  </i>
   <i type="logical" name="L2ORDER"> F  </i>
   <i type="logical" name="LDMP1"> F  </i>
   <i type="logical" name="LMP2LT"> F  </i>
   <i type="logical" name="LSMP2LT"> F  </i>
   <i type="logical" name="LGWLF"> F  </i>
   <i name="ENCUTGW">     -2.00000000</i>
   <i name="ENCUTGWSOFT">     -2.00000000</i>
   <i name="ENCUTLF">     -1.00000000</i>
   <i type="logical" name="LESF_SPLINES"> F  </i>
   <i type="int" name="LMAXMP2">    -1</i>
   <i name="SCISSOR">      0.00000000</i>
   <i type="int" name="NOMEGA">     0</i>
   <i type="int" name="NOMEGAR">     0</i>
   <i type="int" name="NBANDSGW">    -1</i>
   <i type="int" name="NBANDSO">    -1</i>
   <i type="int" name="NBANDSV">    -1</i>
   <i type="int" name="NELMGW">     1</i>
   <i type="int" name="NELMHF">     1</i>
   <i type="int" name="DIM">     3</i>
   <i type="int" name="IESPILON">     4</i>
   <i type="int" name="ANTIRES">     0</i>
   <i name="OMEGAMAX">    -30.00000000</i>
   <i name="OMEGAMIN">    -30.00000000</i>
   <i name="OMEGATL">   -200.00000000</i>
   <i type="int" name="OMEGAGRID">     0</i>
   <i name="CSHIFT">     -0.10000000</i>
   <i type="logical" name="LSELFENERGY"> F  </i>
   <i type="logical" name="LSPECTRAL"> F  </i>
   <i type="logical" name="LSPECTRALGW"> F  </i>
   <i type="logical" name="LSINGLES"> F  </i>
   <i type="logical" name="LFERMIGW"> F  </i>
   <i type="logical" name="ODDONLYGW"> F  </i>
   <i type="logical" name="EVENONLYGW"> F  </i>
   <i type="int" name="NKREDLFX">     1</i>
   <i type="int" name="NKREDLFY">     1</i>
   <i type="int" name="NKREDLFZ">     1</i>
   <i type="int" name="MAXMEM">  2800</i>
   <i type="int" name="TELESCOPE">     0</i>
   <i type="int" name="NTAUPAR">    -1</i>
   <i type="int" name="NOMEGAPAR">    -1</i>
   <i name="DAMP_NEWTON">      0.80000001</i>
   <i name="LAMBDA">      1.00000000</i>
  </separator>
  <separator name="External order field" >
   <i name="OFIELD_KAPPA">      0.00000000</i>
   <v name="OFIELD_K">      0.00000000      0.00000000      0.00000000</v>
   <i name="OFIELD_Q6_NEAR">      0.00000000</i>
   <i name="OFIELD_Q6_FAR">      0.00000000</i>
   <i name="OFIELD_A">      0.00000000</i>
  </separator>
  <separator name="optional k-points parameters" >
   <i type="int" name="KPOINTS_OPT_MODE">     1</i>
   <i type="logical" name="LKPOINTS_OPT"> F  </i>
  </separator>
 </parameters>
 <atominfo>
  <atoms>      64 </atoms>
  <types>       2 </types>
  <array name="atoms" >
   <dimension dim="1">ion</dimension>
   <field type="string">element</field>
   <field type="int">atomtype</field>
   <set>
    <rc><c>Na</c><c>   1</c></rc>
    <rc><c>Na</c><c>   1</c></rc>
    <rc><c>Na</c><c>   1</c></rc>
    <rc><c>Na</c><c>   1</c></rc>
    <rc><c>Na</c><c>   1</c></rc>
    <rc><c>Na</c><c>   1</c></rc>
    <rc><c>Na</c><c>   1</c></rc>
    <rc><c>Na</c><c>   1</c></rc>
    <rc><c>Na</c><c>   1</c></rc>
    <rc><c>Na</c><c>   1</c></rc>
    <rc><c>Na</c><c>   1</c></rc>
    <rc><c>Na</c><c>   1</c></rc>
    <rc><c>Na</c><c>   1</c></rc>
    <rc><c>Na</c><c>   1</c></rc>
    <rc><c>Na</c><c>   1</c></rc>
    <rc><c>Na</c><c>   1</c></rc>
    <rc><c>Na</c><c>   1</c></rc>
    <rc><c>Na</c><c>   1</c></rc>
    <rc><c>Na</c><c>   1</c></rc>
    <rc><c>Na</c><c>   1</c></rc>
    <rc><c>Na</c><c>   1</c></rc>
    <rc><c>Na</c><c>   1</c></rc>
    <rc><c>Na</c><c>   1</c></rc>
    <rc><c>Na</c><c>   1</c></rc>
    <rc><c>Na</c><c>   1</c></rc>
    <rc><c>Na</c><c>   1</c></rc>
    <rc><c>Na</c><c>   1</c></rc>
    <rc><c>Na</c><c>   1</c></rc>
    <rc><c>Na</c><c>   1</c></rc>
    <rc><c>Na</c><c>   1</c></rc>
    <rc><c>Na</c><c>   1</c></rc>
    <rc><c>Na</c><c>   1</c></rc>
    <rc><c>Cl</c><c>   2</c></rc>
    <rc><c>Cl</c><c>   2</c></rc>
    <rc><c>Cl</c><c>   2</c></rc>
    <rc><c>Cl</c><c>   2</c></rc>
    <rc><c>Cl</c><c>   2</c></rc>
    <rc><c>Cl</c><c>   2</c></rc>
    <rc><c>Cl</c><c>   2</c></rc>
    <rc><c>Cl</c><c>   2</c></rc>
    <rc><c>Cl</c><c>   2</c></rc>
    <rc><c>Cl</c><c>   2</c></rc>
    <rc><c>Cl</c><c>   2</c></rc>
    <rc><c>Cl</c><c>   2</c></rc>
    <rc><c>Cl</c><c>   2</c></rc>
    <rc><c>Cl</c><c>   2</c></rc>
    <rc><c>Cl</c><c>   2</c></rc>
    <rc><c>Cl</c><c>   2</c></rc>
    <rc><c>Cl</c><c>   2</c></rc>
    <rc><c>Cl</c><c>   2</c></rc>
    <rc><c>Cl</c><c>   2</c></rc>
    <rc><c>Cl</c><c>   2</c></rc>
    <rc><c>Cl</c><c>   2</c></rc>
    <rc><c>Cl</c><c>   2</c></rc>
    <rc><c>Cl</c><c>   2</c></rc>
    <rc><c>Cl</c><c>   2</c></rc>
    <rc><c>Cl</c><c>   2</c></rc>
    <rc><c>Cl</c><c>   2</c></rc>
    <rc><c>Cl</c><c>   2</c></rc>
    <rc><c>Cl</c><c>   2</c></rc>
    <rc><c>Cl</c><c>   2</c></rc>
    <rc><c>Cl</c><c>   2</c></rc>
    <rc><c>Cl</c><c>   2</c></rc>
    <rc><c>Cl</c><c>   2</c></rc>
   </set>
  </array>
  <array name="atomtypes" >
   <dimension dim="1">type</dimension>
   <field type="int">atomspertype</field>
   <field type="string">element</field>
   <field>mass</field>
   <field>valence</field>
   <field type="string">pseudopotential</field>
   <set>
    <rc><c>  32</c><c>Na</c><c>     22.99000000</c><c>      7.00000000</c><c>  PAW_PBE Na_pv 19Sep2006               </c></rc>
    <rc><c>  32</c><c>Cl</c><c>     35.45300000</c><c>      7.00000000</c><c>  PAW_PBE Cl 06Sep2000                  </c></rc>
   </set>
  </array>
 </atominfo>
 <structure name="initialpos" >
  <crystal>
   <varray name="basis" >
    <v>      11.20400236       0.00000000       0.00000000 </v>
    <v>       0.00000000      11.20400236       0.00000000 </v>
    <v>       0.00000000       0.00000000      11.20400236 </v>
   </varray>
   <i name="volume">   1406.43470641 </i>
   <varray name="rec_basis" >
    <v>       0.08925382       0.00000000       0.00000000 </v>
    <v>       0.00000000       0.08925382       0.00000000 </v>
    <v>       0.00000000       0.00000000       0.08925382 </v>
   </varray>
  </crystal>
  <varray name="positions" >
   <v>       0.00000000       0.00000000       0.00000000 </v>
   <v>       0.25000000       0.25000000       0.00000000 </v>
   <v>       0.25000000       0.00000000       0.25000000 </v>
   <v>       0.00000000       0.25000000       0.25000000 </v>
   <v>       0.00000000       0.00000000       0.50000000 </v>
   <v>       0.25000000       0.25000000       0.50000000 </v>
   <v>       0.25000000       0.00000000       0.75000000 </v>
   <v>       0.00000000       0.25000000       0.75000000 </v>
   <v>       0.00000000       0.50000000       0.00000000 </v>
   <v>       0.25000000       0.75000000       0.00000000 </v>
   <v>       0.25000000       0.50000000       0.25000000 </v>
   <v>       0.00000000       0.75000000       0.25000000 </v>
   <v>       0.00000000       0.50000000       0.50000000 </v>
   <v>       0.25000000       0.75000000       0.50000000 </v>
   <v>       0.25000000       0.50000000       0.75000000 </v>
   <v>       0.00000000       0.75000000       0.75000000 </v>
   <v>       0.50000000       0.00000000       0.00000000 </v>
   <v>       0.75000000       0.25000000       0.00000000 </v>
   <v>       0.75000000       0.00000000       0.25000000 </v>
   <v>       0.50000000       0.25000000       0.25000000 </v>
   <v>       0.50000000       0.00000000       0.50000000 </v>
   <v>       0.75000000       0.25000000       0.50000000 </v>
   <v>       0.75000000       0.00000000       0.75000000 </v>
   <v>       0.50000000       0.25000000       0.75000000 </v>
   <v>       0.50000000       0.50000000       0.00000000 </v>
   <v>       0.75000000       0.75000000       0.00000000 </v>
   <v>       0.75000000       0.50000000       0.25000000 </v>
   <v>       0.50000000       0.75000000       0.25000000 </v>
   <v>       0.50000000       0.50000000       0.50000000 </v>
   <v>       0.75000000       0.75000000       0.50000000 </v>
   <v>       0.75000000       0.50000000       0.75000000 </v>
   <v>       0.50000000       0.75000000       0.75000000 </v>
   <v>       0.24732239       0.25000000       0.25000000 </v>
   <v>       0.00267761       0.00000000       0.25000000 </v>
   <v>       0.00000000       0.25000000       0.00000000 </v>
   <v>       0.25000000       0.00000000       0.00000000 </v>
   <v>       0.25000000       0.25000000       0.75000000 </v>
   <v>       0.00000000       0.00000000       0.75000000 </v>
   <v>       0.00000000       0.25000000       0.50000000 </v>
   <v>       0.25000000       0.00000000       0.50000000 </v>
   <v>       0.25000000       0.75000000       0.25000000 </v>
   <v>       0.00000000       0.50000000       0.25000000 </v>
   <v>       0.00000000       0.75000000       0.00000000 </v>
   <v>       0.25000000       0.50000000       0.00000000 </v>
   <v>       0.25000000       0.75000000       0.75000000 </v>
   <v>       0.00000000       0.50000000       0.75000000 </v>
   <v>       0.00000000       0.75000000       0.50000000 </v>
   <v>       0.25000000       0.50000000       0.50000000 </v>
   <v>       0.75000000       0.25000000       0.25000000 </v>
   <v>       0.50000000       0.00000000       0.25000000 </v>
   <v>       0.50000000       0.25000000       0.00000000 </v>
   <v>       0.75000000       0.00000000       0.00000000 </v>
   <v>       0.75000000       0.25000000       0.75000000 </v>
   <v>       0.50000000       0.00000000       0.75000000 </v>
   <v>       0.50000000       0.25000000       0.50000000 </v>
   <v>       0.75000000       0.00000000       0.50000000 </v>
   <v>       0.75000000       0.75000000       0.25000000 </v>
   <v>       0.50000000       0.50000000       0.25000000 </v>
   <v>       0.50000000       0.75000000       0.00000000 </v>
   <v>       0.75000000       0.50000000       0.00000000 </v>
   <v>       0.75000000       0.75000000       0.75000000 </v>
   <v>       0.50000000       0.50000000       0.75000000 </v>
   <v>       0.50000000       0.75000000       0.50000000 </v>
   <v>       0.75000000       0.50000000       0.50000000 </v>
  </varray>
 </structure>
 <calculation>
  <scstep>
   <time name="dav">   10.05   10.11</time>
   <time name="total">   10.13   10.19</time>
   <energy>
    <i name="alphaZ">    751.52672365 </i>
    <i name="ewald"> -22871.33288585 </i>
    <i name="hartreedc">  -8992.25540829 </i>
    <i name="XCdc">   1456.53431279 </i>
    <i name="pawpsdc">  26466.43774078 </i>
    <i name="pawaedc"> -29286.08056155 </i>
    <i name="eentropy">     -0.00472803 </i>
    <i name="bandstr">   -658.34506177 </i>
    <i name="atom">  37532.17946992 </i>
    <i name="e_fr_energy">   4398.65960166 </i>
    <i name="e_wo_entrp">   4398.66432968 </i>
    <i name="e_0_energy">   4398.66196567 </i>
   </energy>
  </scstep>
  <scstep>
   <time name="dav">   10.47   10.53</time>
   <time name="total">   10.47   10.53</time>
   <energy>
    <i name="e_fr_energy">    370.46183306 </i>
    <i name="e_wo_entrp">    370.46183306 </i>
    <i name="e_0_energy">    370.46183306 </i>
   </energy>
  </scstep>
  <scstep>
   <time name="dav">   11.28   11.34</time>
   <time name="total">   11.28   11.34</time>
   <energy>
    <i name="e_fr_energy">   -205.44059045 </i>
    <i name="e_wo_entrp">   -205.44059045 </i>
    <i name="e_0_energy">   -205.44059045 </i>
   </energy>
  </scstep>
  <scstep>
   <time name="dav">   11.18   11.24</time>
   <time name="total">   11.18   11.24</time>
   <energy>
    <i name="e_fr_energy">   -228.16443082 </i>
    <i name="e_wo_entrp">   -228.16443082 </i>
    <i name="e_0_energy">   -228.16443082 </i>
   </energy>
  </scstep>
  <scstep>
   <time name="dav">   11.73   11.80</time>
   <time name="total">   12.08   12.15</time>
   <energy>
    <i name="e_fr_energy">   -229.00395901 </i>
    <i name="e_wo_entrp">   -229.00395901 </i>
    <i name="e_0_energy">   -229.00395901 </i>
   </energy>
  </scstep>
  <scstep>
   <time name="dav">   11.39   11.45</time>
   <time name="total">   11.80   11.86</time>
   <energy>
    <i name="e_fr_energy">   -224.13941413 </i>
    <i name="e_wo_entrp">   -224.13941413 </i>
    <i name="e_0_energy">   -224.13941413 </i>
   </energy>
  </scstep>
  <scstep>
   <time name="dav">   12.37   12.44</time>
   <time name="total">   12.78   12.85</time>
   <energy>
    <i name="e_fr_energy">   -223.77707242 </i>
    <i name="e_wo_entrp">   -223.77707242 </i>
    <i name="e_0_energy">   -223.77707242 </i>
   </energy>
  </scstep>
  <scstep>
   <time name="dav">   10.88   10.93</time>
   <time name="total">   11.30   11.36</time>
   <energy>
    <i name="e_fr_energy">   -223.90227518 </i>
    <i name="e_wo_entrp">   -223.90227518 </i>
    <i name="e_0_energy">   -223.90227518 </i>
   </energy>
  </scstep>
  <scstep>
   <time name="dav">   11.33   11.39</time>
   <time name="total">   11.74   11.80</time>
   <energy>
    <i name="e_fr_energy">   -223.89673266 </i>
    <i name="e_wo_entrp">   -223.89673266 </i>
    <i name="e_0_energy">   -223.89673266 </i>
   </energy>
  </scstep>
  <scstep>
   <time name="dav">   10.88   10.94</time>
   <time name="total">   11.29   11.35</time>
   <energy>
    <i name="e_fr_energy">   -223.90098696 </i>
    <i name="e_wo_entrp">   -223.90098696 </i>
    <i name="e_0_energy">   -223.90098696 </i>
   </energy>
  </scstep>
  <scstep>
   <time name="dav">   11.81   11.88</time>
   <time name="total">   12.22   12.29</time>
   <energy>
    <i name="e_fr_energy">   -223.90034107 </i>
    <i name="e_wo_entrp">   -223.90034107 </i>
    <i name="e_0_energy">   -223.90034107 </i>
   </energy>
  </scstep>
  <scstep>
   <time name="dav">   11.92   11.98</time>
   <time name="total">   12.33   12.39</time>
   <energy>
    <i name="e_fr_energy">   -223.90029985 </i>
    <i name="e_wo_entrp">   -223.90029985 </i>
    <i name="e_0_energy">   -223.90029985 </i>
   </energy>
  </scstep>
  <scstep>
   <time name="dav">   11.46   11.52</time>
   <time name="total">   11.86   11.93</time>
   <energy>
    <i name="e_fr_energy">   -223.90029975 </i>
    <i name="e_wo_entrp">   -223.90029975 </i>
    <i name="e_0_energy">   -223.90029975 </i>
   </energy>
  </scstep>
  <scstep>
   <time name="dav">   11.13   11.19</time>
   <time name="total">   11.55   11.61</time>
   <energy>
    <i name="e_fr_energy">   -223.90030169 </i>
    <i name="e_wo_entrp">   -223.90030169 </i>
    <i name="e_0_energy">   -223.90030169 </i>
   </energy>
  </scstep>
  <scstep>
   <time name="dav">   11.13   11.19</time>
   <time name="total">   11.54   11.60</time>
   <energy>
    <i name="e_fr_energy">   -223.90030292 </i>
    <i name="e_wo_entrp">   -223.90030292 </i>
    <i name="e_0_energy">   -223.90030292 </i>
   </energy>
  </scstep>
  <scstep>
   <time name="dav">   11.49   11.55</time>
   <time name="total">   11.91   11.97</time>
   <energy>
    <i name="e_fr_energy">   -223.90030338 </i>
    <i name="e_wo_entrp">   -223.90030338 </i>
    <i name="e_0_energy">   -223.90030338 </i>
   </energy>
  </scstep>
  <scstep>
   <time name="dav">    8.22    8.26</time>
   <time name="total">    8.29    8.33</time>
   <energy>
    <i name="alphaZ">    751.52672365 </i>
    <i name="ewald"> -22871.33288585 </i>
    <i name="hartreedc">  -9078.17649464 </i>
    <i name="XCdc">   1472.51356173 </i>
    <i name="pawpsdc">  29498.34468142 </i>
    <i name="pawaedc"> -32317.70945773 </i>
    <i name="eentropy">     -0.00000000 </i>
    <i name="bandstr">  -5211.24590188 </i>
    <i name="atom">  37532.17946992 </i>
    <i name="e_fr_energy">   -223.90030337 </i>
    <i name="e_wo_entrp">   -223.90030337 </i>
    <i name="e_0_energy">   -223.90030337 </i>
   </energy>
  </scstep>
  <structure>
   <crystal>
    <varray name="basis" >
     <v>      11.20400236       0.00000000       0.00000000 </v>
     <v>       0.00000000      11.20400236       0.00000000 </v>
     <v>       0.00000000       0.00000000      11.20400236 </v>
    </varray>
    <i name="volume">   1406.43470641 </i>
    <varray name="rec_basis" >
     <v>       0.08925382       0.00000000       0.00000000 </v>
     <v>       0.00000000       0.08925382       0.00000000 </v>
     <v>       0.00000000       0.00000000       0.08925382 </v>
    </varray>
   </crystal>
   <varray name="positions" >
    <v>       0.00000000       0.00000000       0.00000000 </v>
    <v>       0.25000000       0.25000000       0.00000000 </v>
    <v>       0.25000000       0.00000000       0.25000000 </v>
    <v>       0.00000000       0.25000000       0.25000000 </v>
    <v>       0.00000000       0.00000000       0.50000000 </v>
    <v>       0.25000000       0.25000000       0.50000000 </v>
    <v>       0.25000000       0.00000000       0.75000000 </v>
    <v>       0.00000000       0.25000000       0.75000000 </v>
    <v>       0.00000000       0.50000000       0.00000000 </v>
    <v>       0.25000000       0.75000000       0.00000000 </v>
    <v>       0.25000000       0.50000000       0.25000000 </v>
    <v>       0.00000000       0.75000000       0.25000000 </v>
    <v>       0.00000000       0.50000000       0.50000000 </v>
    <v>       0.25000000       0.75000000       0.50000000 </v>
    <v>       0.25000000       0.50000000       0.75000000 </v>
    <v>       0.00000000       0.75000000       0.75000000 </v>
    <v>       0.50000000       0.00000000       0.00000000 </v>
    <v>       0.75000000       0.25000000       0.00000000 </v>
    <v>       0.75000000       0.00000000       0.25000000 </v>
    <v>       0.50000000       0.25000000       0.25000000 </v>
    <v>       0.50000000       0.00000000       0.50000000 </v>
    <v>       0.75000000       0.25000000       0.50000000 </v>
    <v>       0.75000000       0.00000000       0.75000000 </v>
    <v>       0.50000000       0.25000000       0.75000000 </v>
    <v>       0.50000000       0.50000000       0.00000000 </v>
    <v>       0.75000000       0.75000000       0.00000000 </v>
    <v>       0.75000000       0.50000000       0.25000000 </v>
    <v>       0.50000000       0.75000000       0.25000000 </v>
    <v>       0.50000000       0.50000000       0.50000000 </v>
    <v>       0.75000000       0.75000000       0.50000000 </v>
    <v>       0.75000000       0.50000000       0.75000000 </v>
    <v>       0.50000000       0.75000000       0.75000000 </v>
    <v>       0.24732239       0.25000000       0.25000000 </v>
    <v>       0.00267761       0.00000000       0.25000000 </v>
    <v>       0.00000000       0.25000000       0.00000000 </v>
    <v>       0.25000000       0.00000000       0.00000000 </v>
    <v>       0.25000000       0.25000000       0.75000000 </v>
    <v>       0.00000000       0.00000000       0.75000000 </v>
    <v>       0.00000000       0.25000000       0.50000000 </v>
    <v>       0.25000000       0.00000000       0.50000000 </v>
    <v>       0.25000000       0.75000000       0.25000000 </v>
    <v>       0.00000000       0.50000000       0.25000000 </v>
    <v>       0.00000000       0.75000000       0.00000000 </v>
    <v>       0.25000000       0.50000000       0.00000000 </v>
    <v>       0.25000000       0.75000000       0.75000000 </v>
    <v>       0.00000000       0.50000000       0.75000000 </v>
    <v>       0.00000000       0.75000000       0.50000000 </v>
    <v>       0.25000000       0.50000000       0.50000000 </v>
    <v>       0.75000000       0.25000000       0.25000000 </v>
    <v>       0.50000000       0.00000000       0.25000000 </v>
    <v>       0.50000000       0.25000000       0.00000000 </v>
    <v>       0.75000000       0.00000000       0.00000000 </v>
    <v>       0.75000000       0.25000000       0.75000000 </v>
    <v>       0.50000000       0.00000000       0.75000000 </v>
    <v>       0.50000000       0.25000000       0.50000000 </v>
    <v>       0.75000000       0.00000000       0.50000000 </v>
    <v>       0.75000000       0.75000000       0.25000000 </v>
    <v>       0.50000000       0.50000000       0.25000000 </v>
    <v>       0.50000000       0.75000000       0.00000000 </v>
    <v>       0.75000000       0.50000000       0.00000000 </v>
    <v>       0.75000000       0.75000000       0.75000000 </v>
    <v>       0.50000000       0.50000000       0.75000000 </v>
    <v>       0.50000000       0.75000000       0.50000000 </v>
    <v>       0.75000000       0.50000000       0.50000000 </v>
   </varray>
  </structure>
  <varray name="forces" >
   <v>       0.00522076       0.00128993       0.00139469 </v>
   <v>      -0.00522076      -0.00128993       0.00139469 </v>
   <v>       0.01527774       0.00006871       0.00000000 </v>
   <v>      -0.01527774      -0.00006871       0.00000000 </v>
   <v>       0.00522076       0.00128993      -0.00139469 </v>
   <v>      -0.00522076      -0.00128993      -0.00139469 </v>
   <v>      -0.00043590       0.00000159       0.00000000 </v>
   <v>       0.00043590      -0.00000159       0.00000000 </v>
   <v>       0.00081758      -0.00129553       0.00130257 </v>
   <v>      -0.00081758       0.00129553       0.00130257 </v>
   <v>      -0.00484790      -0.00010790       0.00000000 </v>
   <v>       0.00484790       0.00010790       0.00000000 </v>
   <v>       0.00081758      -0.00129553      -0.00130257 </v>
   <v>      -0.00081758       0.00129553      -0.00130257 </v>
   <v>      -0.00059537      -0.00000120       0.00000000 </v>
   <v>       0.00059537       0.00000120       0.00000000 </v>
   <v>      -0.00258988      -0.00129012      -0.00128636 </v>
   <v>       0.00258988       0.00129012      -0.00128636 </v>
   <v>       0.01903783       0.00000416       0.00000000 </v>
   <v>      -0.01903783      -0.00000416       0.00000000 </v>
   <v>      -0.00258988      -0.00129012       0.00128636 </v>
   <v>       0.00258988       0.00129012       0.00128636 </v>
   <v>       0.00081692       0.00000219       0.00000000 </v>
   <v>      -0.00081692      -0.00000219       0.00000000 </v>
   <v>      -0.00043046       0.00129065      -0.00128691 </v>
   <v>       0.00043046      -0.00129065      -0.00128691 </v>
   <v>       0.00298167      -0.00000153       0.00000000 </v>
   <v>      -0.00298167       0.00000153       0.00000000 </v>
   <v>      -0.00043046       0.00129065       0.00128691 </v>
   <v>       0.00043046      -0.00129065       0.00128691 </v>
   <v>       0.00065661      -0.00000153       0.00000000 </v>
   <v>      -0.00065661       0.00000153       0.00000000 </v>
   <v>       0.08000912       0.00607316       0.00000000 </v>
   <v>      -0.08000912      -0.00607316       0.00000000 </v>
   <v>      -0.00623431      -0.00003845      -0.00584244 </v>
   <v>       0.00623431       0.00003845      -0.00584244 </v>
   <v>       0.00147877       0.00057593       0.00000000 </v>
   <v>      -0.00147877      -0.00057593       0.00000000 </v>
   <v>      -0.00623431      -0.00003845       0.00584244 </v>
   <v>       0.00623431       0.00003845       0.00584244 </v>
   <v>       0.00545852      -0.00588443       0.00000000 </v>
   <v>      -0.00545852       0.00588443       0.00000000 </v>
   <v>      -0.00227104       0.00002865      -0.00055222 </v>
   <v>       0.00227104      -0.00002865      -0.00055222 </v>
   <v>       0.00045151      -0.00057282       0.00000000 </v>
   <v>      -0.00045151       0.00057282       0.00000000 </v>
   <v>      -0.00227104       0.00002865       0.00055222 </v>
   <v>       0.00227104      -0.00002865       0.00055222 </v>
   <v>       0.00003365      -0.00573481       0.00000000 </v>
   <v>      -0.00003365       0.00573481       0.00000000 </v>
   <v>      -0.00233388       0.00000362       0.00573403 </v>
   <v>       0.00233388      -0.00000362       0.00573403 </v>
   <v>      -0.00197653      -0.00056915       0.00000000 </v>
   <v>       0.00197653       0.00056915       0.00000000 </v>
   <v>      -0.00233388       0.00000362      -0.00573403 </v>
   <v>       0.00233388      -0.00000362      -0.00573403 </v>
   <v>       0.00191994       0.00574006       0.00000000 </v>
   <v>      -0.00191994      -0.00574006       0.00000000 </v>
   <v>       0.00156586      -0.00000323       0.00056401 </v>
   <v>      -0.00156586       0.00000323       0.00056401 </v>
   <v>      -0.00054604       0.00056690       0.00000000 </v>
   <v>       0.00054604      -0.00056690       0.00000000 </v>
   <v>       0.00156586      -0.00000323      -0.00056401 </v>
   <v>      -0.00156586       0.00000323      -0.00056401 </v>
  </varray>
  <varray name="stress" >
   <v>      -0.35367274       0.00009977       0.00000000 </v>
   <v>       0.00009978      -0.37603128       0.00000000 </v>
   <v>       0.00000000       0.00000000      -0.37714894 </v>
  </varray>
  <energy>
   <i name="e_fr_energy">   -223.90030337 </i>
   <i name="e_wo_entrp">   -223.90030337 </i>
   <i name="e_0_energy">   -223.90030337 </i>
  </energy>
  <time name="totalsc">  208.96  210.09</time>
  <eigenvalues>
   <array>
    <dimension dim="1">band</dimension>
    <dimension dim="2">kpoint</dimension>
    <dimension dim="3">spin</dimension>
    <field>eigene</field>
    <field>occ</field>
    <set>
     <set comment="spin 1">
      <set comment="kpoint 1">
       <r>  -21.3117    1.0000 </r>
       <r>  -21.3103    1.0000 </r>
       <r>  -21.3093    1.0000 </r>
       <r>  -21.3087    1.0000 </r>
       <r>  -21.3048    1.0000 </r>
       <r>  -21.3019    1.0000 </r>
       <r>  -21.3004    1.0000 </r>
       <r>  -21.3001    1.0000 </r>
       <r>  -21.2995    1.0000 </r>
       <r>  -21.2991    1.0000 </r>
       <r>  -21.2937    1.0000 </r>
       <r>  -21.2936    1.0000 </r>
       <r>  -21.2934    1.0000 </r>
       <r>  -21.2934    1.0000 </r>
       <r>  -21.2929    1.0000 </r>
       <r>  -21.2926    1.0000 </r>
       <r>  -21.2921    1.0000 </r>
       <r>  -21.2918    1.0000 </r>
       <r>  -21.2916    1.0000 </r>
       <r>  -21.2908    1.0000 </r>
       <r>  -21.2906    1.0000 </r>
       <r>  -21.2901    1.0000 </r>
       <r>  -21.2892    1.0000 </r>
       <r>  -21.2878    1.0000 </r>
       <r>  -21.2877    1.0000 </r>
       <r>  -21.2868    1.0000 </r>
       <r>  -21.2861    1.0000 </r>
       <r>  -21.2860    1.0000 </r>
       <r>  -21.2857    1.0000 </r>
       <r>  -21.2849    1.0000 </r>
       <r>  -21.2847    1.0000 </r>
       <r>  -21.2846    1.0000 </r>
       <r>  -21.2842    1.0000 </r>
       <r>  -21.2837    1.0000 </r>
       <r>  -21.2835    1.0000 </r>
       <r>  -21.2835    1.0000 </r>
       <r>  -21.2834    1.0000 </r>
       <r>  -21.2831    1.0000 </r>
       <r>  -21.2830    1.0000 </r>
       <r>  -21.2827    1.0000 </r>
       <r>  -21.2823    1.0000 </r>
       <r>  -21.2818    1.0000 </r>
       <r>  -21.2816    1.0000 </r>
       <r>  -21.2812    1.0000 </r>
       <r>  -21.2811    1.0000 </r>
       <r>  -21.2810    1.0000 </r>
       <r>  -21.2810    1.0000 </r>
       <r>  -21.2805    1.0000 </r>
       <r>  -21.2803    1.0000 </r>
       <r>  -21.2803    1.0000 </r>
       <r>  -21.2800    1.0000 </r>
       <r>  -21.2797    1.0000 </r>
       <r>  -21.2796    1.0000 </r>
       <r>  -21.2787    1.0000 </r>
       <r>  -21.2787    1.0000 </r>
       <r>  -21.2774    1.0000 </r>
       <r>  -21.2772    1.0000 </r>
       <r>  -21.2766    1.0000 </r>
       <r>  -21.2765    1.0000 </r>
       <r>  -21.2765    1.0000 </r>
       <r>  -21.2764    1.0000 </r>
       <r>  -21.2763    1.0000 </r>
       <r>  -21.2758    1.0000 </r>
       <r>  -21.2756    1.0000 </r>
       <r>  -21.2754    1.0000 </r>
       <r>  -21.2754    1.0000 </r>
       <r>  -21.2751    1.0000 </r>
       <r>  -21.2751    1.0000 </r>
       <r>  -21.2748    1.0000 </r>
       <r>  -21.2746    1.0000 </r>
       <r>  -21.2746    1.0000 </r>
       <r>  -21.2734    1.0000 </r>
       <r>  -21.2729    1.0000 </r>
       <r>  -21.2725    1.0000 </r>
       <r>  -21.2718    1.0000 </r>
       <r>  -21.2715    1.0000 </r>
       <r>  -21.2714    1.0000 </r>
       <r>  -21.2714    1.0000 </r>
       <r>  -21.2713    1.0000 </r>
       <r>  -21.2713    1.0000 </r>
       <r>  -21.2709    1.0000 </r>
       <r>  -21.2708    1.0000 </r>
       <r>  -21.2708    1.0000 </r>
       <r>  -21.2708    1.0000 </r>
       <r>  -21.2704    1.0000 </r>
       <r>  -21.2703    1.0000 </r>
       <r>  -21.2698    1.0000 </r>
       <r>  -21.2695    1.0000 </r>
       <r>  -21.2683    1.0000 </r>
       <r>  -21.2683    1.0000 </r>
       <r>  -21.2590    1.0000 </r>
       <r>  -21.2567    1.0000 </r>
       <r>  -21.2559    1.0000 </r>
       <r>  -21.2557    1.0000 </r>
       <r>  -21.2556    1.0000 </r>
       <r>  -21.2526    1.0000 </r>
       <r>  -13.3580    1.0000 </r>
       <r>  -13.1396    1.0000 </r>
       <r>  -13.1380    1.0000 </r>
       <r>  -13.1375    1.0000 </r>
       <r>  -13.1375    1.0000 </r>
       <r>  -13.1362    1.0000 </r>
       <r>  -13.1358    1.0000 </r>
       <r>  -13.0146    1.0000 </r>
       <r>  -13.0145    1.0000 </r>
       <r>  -13.0145    1.0000 </r>
       <r>  -13.0144    1.0000 </r>
       <r>  -13.0127    1.0000 </r>
       <r>  -13.0116    1.0000 </r>
       <r>  -13.0111    1.0000 </r>
       <r>  -13.0106    1.0000 </r>
       <r>  -13.0088    1.0000 </r>
       <r>  -13.0086    1.0000 </r>
       <r>  -13.0084    1.0000 </r>
       <r>  -13.0082    1.0000 </r>
       <r>  -12.9893    1.0000 </r>
       <r>  -12.9891    1.0000 </r>
       <r>  -12.9891    1.0000 </r>
       <r>  -12.9890    1.0000 </r>
       <r>  -12.9416    1.0000 </r>
       <r>  -12.9416    1.0000 </r>
       <r>  -12.9404    1.0000 </r>
       <r>  -12.9234    1.0000 </r>
       <r>  -12.9223    1.0000 </r>
       <r>  -12.9212    1.0000 </r>
       <r>  -12.9210    1.0000 </r>
       <r>  -12.9192    1.0000 </r>
       <r>  -12.9182    1.0000 </r>
       <r>   -2.7000    1.0000 </r>
       <r>   -2.7000    1.0000 </r>
       <r>   -2.7000    1.0000 </r>
       <r>   -2.6999    1.0000 </r>
       <r>   -2.4240    1.0000 </r>
       <r>   -2.4240    1.0000 </r>
       <r>   -2.4239    1.0000 </r>
       <r>   -2.2057    1.0000 </r>
       <r>   -2.2055    1.0000 </r>
       <r>   -2.2049    1.0000 </r>
       <r>   -2.2046    1.0000 </r>
       <r>   -2.2044    1.0000 </r>
       <r>   -2.2043    1.0000 </r>
       <r>   -2.2042    1.0000 </r>
       <r>   -2.2041    1.0000 </r>
       <r>   -2.2037    1.0000 </r>
       <r>   -2.2035    1.0000 </r>
       <r>   -2.2030    1.0000 </r>
       <r>   -2.2030    1.0000 </r>
       <r>   -1.9282    1.0000 </r>
       <r>   -1.9278    1.0000 </r>
       <r>   -1.9261    1.0000 </r>
       <r>   -1.9259    1.0000 </r>
       <r>   -1.9251    1.0000 </r>
       <r>   -1.9247    1.0000 </r>
       <r>   -1.9247    1.0000 </r>
       <r>   -1.9245    1.0000 </r>
       <r>   -1.9227    1.0000 </r>
       <r>   -1.9226    1.0000 </r>
       <r>   -1.9221    1.0000 </r>
       <r>   -1.9217    1.0000 </r>
       <r>   -1.7972    1.0000 </r>
       <r>   -1.7966    1.0000 </r>
       <r>   -1.7966    1.0000 </r>
       <r>   -1.7966    1.0000 </r>
       <r>   -1.7966    1.0000 </r>
       <r>   -1.7960    1.0000 </r>
       <r>   -1.5109    1.0000 </r>
       <r>   -1.5085    1.0000 </r>
       <r>   -1.5083    1.0000 </r>
       <r>   -1.5065    1.0000 </r>
       <r>   -1.5056    1.0000 </r>
       <r>   -1.5056    1.0000 </r>
       <r>   -1.5052    1.0000 </r>
       <r>   -1.5051    1.0000 </r>
       <r>   -1.5045    1.0000 </r>
       <r>   -1.5022    1.0000 </r>
       <r>   -1.5020    1.0000 </r>
       <r>   -1.5002    1.0000 </r>
       <r>   -1.4651    1.0000 </r>
       <r>   -1.4641    1.0000 </r>
       <r>   -1.4628    1.0000 </r>
       <r>   -1.4625    1.0000 </r>
       <r>   -1.4614    1.0000 </r>
       <r>   -1.4605    1.0000 </r>
       <r>   -1.2948    1.0000 </r>
       <r>   -1.2948    1.0000 </r>
       <r>   -1.2946    1.0000 </r>
       <r>   -1.2946    1.0000 </r>
       <r>   -1.2945    1.0000 </r>
       <r>   -1.2945    1.0000 </r>
       <r>   -1.0048    1.0000 </r>
       <r>   -1.0035    1.0000 </r>
       <r>   -1.0028    1.0000 </r>
       <r>   -1.0024    1.0000 </r>
       <r>   -1.0013    1.0000 </r>
       <r>   -1.0009    1.0000 </r>
       <r>   -1.0008    1.0000 </r>
       <r>   -1.0007    1.0000 </r>
       <r>   -1.0004    1.0000 </r>
       <r>   -0.9989    1.0000 </r>
       <r>   -0.9973    1.0000 </r>
       <r>   -0.9957    1.0000 </r>
       <r>   -0.9523    1.0000 </r>
       <r>   -0.9523    1.0000 </r>
       <r>   -0.9512    1.0000 </r>
       <r>   -0.9511    1.0000 </r>
       <r>   -0.9508    1.0000 </r>
       <r>   -0.9488    1.0000 </r>
       <r>   -0.9477    1.0000 </r>
       <r>   -0.9476    1.0000 </r>
       <r>   -0.9475    1.0000 </r>
       <r>   -0.9474    1.0000 </r>
       <r>   -0.9471    1.0000 </r>
       <r>   -0.9466    1.0000 </r>
       <r>   -0.9457    1.0000 </r>
       <r>   -0.9455    1.0000 </r>
       <r>   -0.9447    1.0000 </r>
       <r>   -0.9431    1.0000 </r>
       <r>   -0.9424    1.0000 </r>
       <r>   -0.9423    1.0000 </r>
       <r>   -0.9416    1.0000 </r>
       <r>   -0.9415    1.0000 </r>
       <r>   -0.6649    1.0000 </r>
       <r>   -0.6648    1.0000 </r>
       <r>   -0.6648    1.0000 </r>
       <r>    4.3402    0.0000 </r>
       <r>    6.3607    0.0000 </r>
       <r>    6.3619    0.0000 </r>
       <r>    6.3677    0.0000 </r>
       <r>    6.3680    0.0000 </r>
       <r>    6.3716    0.0000 </r>
       <r>    6.3771    0.0000 </r>
       <r>    6.4446    0.0000 </r>
       <r>    6.4448    0.0000 </r>
       <r>    6.4448    0.0000 </r>
       <r>    6.4450    0.0000 </r>
       <r>    6.8279    0.0000 </r>
       <r>    6.8279    0.0000 </r>
       <r>    6.8282    0.0000 </r>
       <r>    7.2067    0.0000 </r>
       <r>    7.2068    0.0000 </r>
       <r>    7.2069    0.0000 </r>
       <r>    7.4500    0.0000 </r>
       <r>    7.4555    0.0000 </r>
       <r>    7.4569    0.0000 </r>
       <r>    7.4596    0.0000 </r>
       <r>    7.4608    0.0000 </r>
       <r>    7.4625    0.0000 </r>
       <r>    7.4642    0.0000 </r>
       <r>    7.4660    0.0000 </r>
       <r>    7.4664    0.0000 </r>
       <r>    7.4730    0.0000 </r>
       <r>    7.4748    0.0000 </r>
       <r>    7.4798    0.0000 </r>
       <r>    8.1617    0.0000 </r>
       <r>    8.1642    0.0000 </r>
       <r>    8.1679    0.0000 </r>
       <r>    8.1684    0.0000 </r>
       <r>    8.1722    0.0000 </r>
       <r>    8.1753    0.0000 </r>
       <r>    8.2761    0.0000 </r>
       <r>    8.2795    0.0000 </r>
       <r>    8.2795    0.0000 </r>
       <r>    8.2797    0.0000 </r>
       <r>    8.2804    0.0000 </r>
       <r>    8.2825    0.0000 </r>
       <r>    8.8855    0.0000 </r>
       <r>    8.8914    0.0000 </r>
       <r>    8.8930    0.0000 </r>
       <r>    8.8980    0.0000 </r>
       <r>    8.8982    0.0000 </r>
       <r>    8.9007    0.0000 </r>
       <r>    8.9015    0.0000 </r>
       <r>    8.9029    0.0000 </r>
       <r>    8.9033    0.0000 </r>
       <r>    8.9038    0.0000 </r>
       <r>    8.9047    0.0000 </r>
       <r>    8.9076    0.0000 </r>
       <r>    8.9124    0.0000 </r>
       <r>    8.9126    0.0000 </r>
       <r>    8.9130    0.0000 </r>
       <r>    8.9141    0.0000 </r>
       <r>    8.9154    0.0000 </r>
       <r>    8.9158    0.0000 </r>
       <r>    8.9171    0.0000 </r>
       <r>    8.9181    0.0000 </r>
       <r>    8.9210    0.0000 </r>
       <r>    8.9302    0.0000 </r>
       <r>    8.9352    0.0000 </r>
      </set>
      <set comment="kpoint 2">
       <r>  -21.3111    1.0000 </r>
       <r>  -21.3096    1.0000 </r>
       <r>  -21.3086    1.0000 </r>
       <r>  -21.3080    1.0000 </r>
       <r>  -21.3051    1.0000 </r>
       <r>  -21.3026    1.0000 </r>
       <r>  -21.2982    1.0000 </r>
       <r>  -21.2980    1.0000 </r>
       <r>  -21.2974    1.0000 </r>
       <r>  -21.2966    1.0000 </r>
       <r>  -21.2963    1.0000 </r>
       <r>  -21.2960    1.0000 </r>
       <r>  -21.2959    1.0000 </r>
       <r>  -21.2951    1.0000 </r>
       <r>  -21.2926    1.0000 </r>
       <r>  -21.2923    1.0000 </r>
       <r>  -21.2922    1.0000 </r>
       <r>  -21.2920    1.0000 </r>
       <r>  -21.2917    1.0000 </r>
       <r>  -21.2913    1.0000 </r>
       <r>  -21.2902    1.0000 </r>
       <r>  -21.2901    1.0000 </r>
       <r>  -21.2898    1.0000 </r>
       <r>  -21.2895    1.0000 </r>
       <r>  -21.2882    1.0000 </r>
       <r>  -21.2881    1.0000 </r>
       <r>  -21.2879    1.0000 </r>
       <r>  -21.2877    1.0000 </r>
       <r>  -21.2873    1.0000 </r>
       <r>  -21.2871    1.0000 </r>
       <r>  -21.2867    1.0000 </r>
       <r>  -21.2864    1.0000 </r>
       <r>  -21.2864    1.0000 </r>
       <r>  -21.2853    1.0000 </r>
       <r>  -21.2849    1.0000 </r>
       <r>  -21.2844    1.0000 </r>
       <r>  -21.2839    1.0000 </r>
       <r>  -21.2836    1.0000 </r>
       <r>  -21.2829    1.0000 </r>
       <r>  -21.2828    1.0000 </r>
       <r>  -21.2810    1.0000 </r>
       <r>  -21.2810    1.0000 </r>
       <r>  -21.2807    1.0000 </r>
       <r>  -21.2805    1.0000 </r>
       <r>  -21.2805    1.0000 </r>
       <r>  -21.2793    1.0000 </r>
       <r>  -21.2791    1.0000 </r>
       <r>  -21.2784    1.0000 </r>
       <r>  -21.2783    1.0000 </r>
       <r>  -21.2780    1.0000 </r>
       <r>  -21.2780    1.0000 </r>
       <r>  -21.2772    1.0000 </r>
       <r>  -21.2771    1.0000 </r>
       <r>  -21.2770    1.0000 </r>
       <r>  -21.2770    1.0000 </r>
       <r>  -21.2769    1.0000 </r>
       <r>  -21.2769    1.0000 </r>
       <r>  -21.2766    1.0000 </r>
       <r>  -21.2763    1.0000 </r>
       <r>  -21.2763    1.0000 </r>
       <r>  -21.2762    1.0000 </r>
       <r>  -21.2759    1.0000 </r>
       <r>  -21.2755    1.0000 </r>
       <r>  -21.2754    1.0000 </r>
       <r>  -21.2752    1.0000 </r>
       <r>  -21.2750    1.0000 </r>
       <r>  -21.2750    1.0000 </r>
       <r>  -21.2748    1.0000 </r>
       <r>  -21.2746    1.0000 </r>
       <r>  -21.2745    1.0000 </r>
       <r>  -21.2738    1.0000 </r>
       <r>  -21.2735    1.0000 </r>
       <r>  -21.2734    1.0000 </r>
       <r>  -21.2732    1.0000 </r>
       <r>  -21.2728    1.0000 </r>
       <r>  -21.2726    1.0000 </r>
       <r>  -21.2725    1.0000 </r>
       <r>  -21.2723    1.0000 </r>
       <r>  -21.2723    1.0000 </r>
       <r>  -21.2717    1.0000 </r>
       <r>  -21.2717    1.0000 </r>
       <r>  -21.2714    1.0000 </r>
       <r>  -21.2712    1.0000 </r>
       <r>  -21.2710    1.0000 </r>
       <r>  -21.2707    1.0000 </r>
       <r>  -21.2704    1.0000 </r>
       <r>  -21.2702    1.0000 </r>
       <r>  -21.2699    1.0000 </r>
       <r>  -21.2685    1.0000 </r>
       <r>  -21.2685    1.0000 </r>
       <r>  -21.2590    1.0000 </r>
       <r>  -21.2568    1.0000 </r>
       <r>  -21.2559    1.0000 </r>
       <r>  -21.2557    1.0000 </r>
       <r>  -21.2556    1.0000 </r>
       <r>  -21.2527    1.0000 </r>
       <r>  -13.2937    1.0000 </r>
       <r>  -13.2886    1.0000 </r>
       <r>  -13.1001    1.0000 </r>
       <r>  -13.1001    1.0000 </r>
       <r>  -13.0998    1.0000 </r>
       <r>  -13.0992    1.0000 </r>
       <r>  -13.0947    1.0000 </r>
       <r>  -13.0941    1.0000 </r>
       <r>  -13.0939    1.0000 </r>
       <r>  -13.0938    1.0000 </r>
       <r>  -13.0051    1.0000 </r>
       <r>  -13.0050    1.0000 </r>
       <r>  -13.0050    1.0000 </r>
       <r>  -13.0049    1.0000 </r>
       <r>  -12.9995    1.0000 </r>
       <r>  -12.9963    1.0000 </r>
       <r>  -12.9962    1.0000 </r>
       <r>  -12.9962    1.0000 </r>
       <r>  -12.9959    1.0000 </r>
       <r>  -12.9918    1.0000 </r>
       <r>  -12.9475    1.0000 </r>
       <r>  -12.9472    1.0000 </r>
       <r>  -12.9471    1.0000 </r>
       <r>  -12.9467    1.0000 </r>
       <r>  -12.9411    1.0000 </r>
       <r>  -12.9404    1.0000 </r>
       <r>  -12.9404    1.0000 </r>
       <r>  -12.9395    1.0000 </r>
       <r>  -12.9352    1.0000 </r>
       <r>  -12.9350    1.0000 </r>
       <r>  -12.9264    1.0000 </r>
       <r>  -12.9262    1.0000 </r>
       <r>   -2.5074    1.0000 </r>
       <r>   -2.5074    1.0000 </r>
       <r>   -2.5067    1.0000 </r>
       <r>   -2.5067    1.0000 </r>
       <r>   -2.5020    1.0000 </r>
       <r>   -2.5019    1.0000 </r>
       <r>   -2.5012    1.0000 </r>
       <r>   -2.5012    1.0000 </r>
       <r>   -2.2896    1.0000 </r>
       <r>   -2.2896    1.0000 </r>
       <r>   -2.2857    1.0000 </r>
       <r>   -2.2857    1.0000 </r>
       <r>   -2.2770    1.0000 </r>
       <r>   -2.2712    1.0000 </r>
       <r>   -2.1398    1.0000 </r>
       <r>   -2.1382    1.0000 </r>
       <r>   -2.1371    1.0000 </r>
       <r>   -2.1369    1.0000 </r>
       <r>   -2.1360    1.0000 </r>
       <r>   -2.1358    1.0000 </r>
       <r>   -2.1347    1.0000 </r>
       <r>   -2.1329    1.0000 </r>
       <r>   -1.9871    1.0000 </r>
       <r>   -1.9870    1.0000 </r>
       <r>   -1.9870    1.0000 </r>
       <r>   -1.9870    1.0000 </r>
       <r>   -1.9839    1.0000 </r>
       <r>   -1.9839    1.0000 </r>
       <r>   -1.9838    1.0000 </r>
       <r>   -1.9837    1.0000 </r>
       <r>   -1.8117    1.0000 </r>
       <r>   -1.8111    1.0000 </r>
       <r>   -1.8110    1.0000 </r>
       <r>   -1.8101    1.0000 </r>
       <r>   -1.8076    1.0000 </r>
       <r>   -1.8065    1.0000 </r>
       <r>   -1.8065    1.0000 </r>
       <r>   -1.8058    1.0000 </r>
       <r>   -1.5023    1.0000 </r>
       <r>   -1.5023    1.0000 </r>
       <r>   -1.4930    1.0000 </r>
       <r>   -1.4930    1.0000 </r>
       <r>   -1.3844    1.0000 </r>
       <r>   -1.3844    1.0000 </r>
       <r>   -1.3764    1.0000 </r>
       <r>   -1.3764    1.0000 </r>
       <r>   -1.2148    1.0000 </r>
       <r>   -1.2147    1.0000 </r>
       <r>   -1.2101    1.0000 </r>
       <r>   -1.2101    1.0000 </r>
       <r>   -1.1959    1.0000 </r>
       <r>   -1.1938    1.0000 </r>
       <r>   -1.1919    1.0000 </r>
       <r>   -1.1919    1.0000 </r>
       <r>   -1.1912    1.0000 </r>
       <r>   -1.1901    1.0000 </r>
       <r>   -1.1896    1.0000 </r>
       <r>   -1.1885    1.0000 </r>
       <r>   -1.1786    1.0000 </r>
       <r>   -1.1785    1.0000 </r>
       <r>   -1.1782    1.0000 </r>
       <r>   -1.1776    1.0000 </r>
       <r>   -1.1704    1.0000 </r>
       <r>   -1.1703    1.0000 </r>
       <r>   -1.1687    1.0000 </r>
       <r>   -1.1679    1.0000 </r>
       <r>   -1.1649    1.0000 </r>
       <r>   -1.1642    1.0000 </r>
       <r>   -1.1641    1.0000 </r>
       <r>   -1.1625    1.0000 </r>
       <r>   -1.1568    1.0000 </r>
       <r>   -1.1545    1.0000 </r>
       <r>   -1.1544    1.0000 </r>
       <r>   -1.1528    1.0000 </r>
       <r>   -1.0868    1.0000 </r>
       <r>   -1.0796    1.0000 </r>
       <r>   -0.9516    1.0000 </r>
       <r>   -0.9515    1.0000 </r>
       <r>   -0.9510    1.0000 </r>
       <r>   -0.9510    1.0000 </r>
       <r>   -0.9427    1.0000 </r>
       <r>   -0.9426    1.0000 </r>
       <r>   -0.9424    1.0000 </r>
       <r>   -0.9422    1.0000 </r>
       <r>   -0.9349    1.0000 </r>
       <r>   -0.9346    1.0000 </r>
       <r>   -0.9346    1.0000 </r>
       <r>   -0.9339    1.0000 </r>
       <r>   -0.9306    1.0000 </r>
       <r>   -0.9300    1.0000 </r>
       <r>   -0.9299    1.0000 </r>
       <r>   -0.9295    1.0000 </r>
       <r>   -0.7724    1.0000 </r>
       <r>   -0.7724    1.0000 </r>
       <r>   -0.7642    1.0000 </r>
       <r>   -0.7641    1.0000 </r>
       <r>    5.0173    0.0000 </r>
       <r>    5.0272    0.0000 </r>
       <r>    6.7078    0.0000 </r>
       <r>    6.7113    0.0000 </r>
       <r>    6.7130    0.0000 </r>
       <r>    6.7151    0.0000 </r>
       <r>    6.7214    0.0000 </r>
       <r>    6.7229    0.0000 </r>
       <r>    6.7244    0.0000 </r>
       <r>    6.7273    0.0000 </r>
       <r>    6.8377    0.0000 </r>
       <r>    6.8377    0.0000 </r>
       <r>    6.8386    0.0000 </r>
       <r>    6.8386    0.0000 </r>
       <r>    6.8480    0.0000 </r>
       <r>    6.8483    0.0000 </r>
       <r>    6.8488    0.0000 </r>
       <r>    6.8491    0.0000 </r>
       <r>    6.9674    0.0000 </r>
       <r>    6.9754    0.0000 </r>
       <r>    7.3562    0.0000 </r>
       <r>    7.3562    0.0000 </r>
       <r>    7.3689    0.0000 </r>
       <r>    7.3690    0.0000 </r>
       <r>    7.4783    0.0000 </r>
       <r>    7.4822    0.0000 </r>
       <r>    7.7095    0.0000 </r>
       <r>    7.7095    0.0000 </r>
       <r>    7.7197    0.0000 </r>
       <r>    7.7198    0.0000 </r>
       <r>    8.2533    0.0000 </r>
       <r>    8.2591    0.0000 </r>
       <r>    8.2628    0.0000 </r>
       <r>    8.2640    0.0000 </r>
       <r>    8.2677    0.0000 </r>
       <r>    8.2688    0.0000 </r>
       <r>    8.2719    0.0000 </r>
       <r>    8.2771    0.0000 </r>
       <r>    8.5277    0.0000 </r>
       <r>    8.5293    0.0000 </r>
       <r>    8.5296    0.0000 </r>
       <r>    8.5308    0.0000 </r>
       <r>    8.5330    0.0000 </r>
       <r>    8.5336    0.0000 </r>
       <r>    8.5368    0.0000 </r>
       <r>    8.5373    0.0000 </r>
       <r>    8.5375    0.0000 </r>
       <r>    8.5391    0.0000 </r>
       <r>    8.5396    0.0000 </r>
       <r>    8.5416    0.0000 </r>
       <r>    8.5455    0.0000 </r>
       <r>    8.5486    0.0000 </r>
       <r>    8.5516    0.0000 </r>
       <r>    8.5555    0.0000 </r>
       <r>    8.9449    0.0000 </r>
       <r>    8.9465    0.0000 </r>
       <r>    8.9465    0.0000 </r>
       <r>    8.9494    0.0000 </r>
       <r>    8.9524    0.0000 </r>
       <r>    8.9556    0.0000 </r>
       <r>    8.9556    0.0000 </r>
       <r>    8.9578    0.0000 </r>
       <r>    9.5000    0.0000 </r>
       <r>    9.5121    0.0000 </r>
      </set>
      <set comment="kpoint 3">
       <r>  -21.3108    1.0000 </r>
       <r>  -21.3089    1.0000 </r>
       <r>  -21.3084    1.0000 </r>
       <r>  -21.3077    1.0000 </r>
       <r>  -21.3058    1.0000 </r>
       <r>  -21.3032    1.0000 </r>
       <r>  -21.2997    1.0000 </r>
       <r>  -21.2997    1.0000 </r>
       <r>  -21.2978    1.0000 </r>
       <r>  -21.2973    1.0000 </r>
       <r>  -21.2963    1.0000 </r>
       <r>  -21.2957    1.0000 </r>
       <r>  -21.2951    1.0000 </r>
       <r>  -21.2940    1.0000 </r>
       <r>  -21.2925    1.0000 </r>
       <r>  -21.2917    1.0000 </r>
       <r>  -21.2915    1.0000 </r>
       <r>  -21.2912    1.0000 </r>
       <r>  -21.2910    1.0000 </r>
       <r>  -21.2909    1.0000 </r>
       <r>  -21.2907    1.0000 </r>
       <r>  -21.2894    1.0000 </r>
       <r>  -21.2892    1.0000 </r>
       <r>  -21.2891    1.0000 </r>
       <r>  -21.2890    1.0000 </r>
       <r>  -21.2890    1.0000 </r>
       <r>  -21.2888    1.0000 </r>
       <r>  -21.2878    1.0000 </r>
       <r>  -21.2873    1.0000 </r>
       <r>  -21.2873    1.0000 </r>
       <r>  -21.2870    1.0000 </r>
       <r>  -21.2854    1.0000 </r>
       <r>  -21.2850    1.0000 </r>
       <r>  -21.2844    1.0000 </r>
       <r>  -21.2842    1.0000 </r>
       <r>  -21.2842    1.0000 </r>
       <r>  -21.2836    1.0000 </r>
       <r>  -21.2834    1.0000 </r>
       <r>  -21.2827    1.0000 </r>
       <r>  -21.2823    1.0000 </r>
       <r>  -21.2820    1.0000 </r>
       <r>  -21.2810    1.0000 </r>
       <r>  -21.2807    1.0000 </r>
       <r>  -21.2807    1.0000 </r>
       <r>  -21.2804    1.0000 </r>
       <r>  -21.2802    1.0000 </r>
       <r>  -21.2796    1.0000 </r>
       <r>  -21.2795    1.0000 </r>
       <r>  -21.2792    1.0000 </r>
       <r>  -21.2791    1.0000 </r>
       <r>  -21.2787    1.0000 </r>
       <r>  -21.2779    1.0000 </r>
       <r>  -21.2777    1.0000 </r>
       <r>  -21.2775    1.0000 </r>
       <r>  -21.2772    1.0000 </r>
       <r>  -21.2771    1.0000 </r>
       <r>  -21.2768    1.0000 </r>
       <r>  -21.2768    1.0000 </r>
       <r>  -21.2766    1.0000 </r>
       <r>  -21.2765    1.0000 </r>
       <r>  -21.2762    1.0000 </r>
       <r>  -21.2760    1.0000 </r>
       <r>  -21.2759    1.0000 </r>
       <r>  -21.2758    1.0000 </r>
       <r>  -21.2755    1.0000 </r>
       <r>  -21.2752    1.0000 </r>
       <r>  -21.2748    1.0000 </r>
       <r>  -21.2746    1.0000 </r>
       <r>  -21.2744    1.0000 </r>
       <r>  -21.2736    1.0000 </r>
       <r>  -21.2734    1.0000 </r>
       <r>  -21.2733    1.0000 </r>
       <r>  -21.2729    1.0000 </r>
       <r>  -21.2727    1.0000 </r>
       <r>  -21.2726    1.0000 </r>
       <r>  -21.2723    1.0000 </r>
       <r>  -21.2722    1.0000 </r>
       <r>  -21.2720    1.0000 </r>
       <r>  -21.2716    1.0000 </r>
       <r>  -21.2716    1.0000 </r>
       <r>  -21.2712    1.0000 </r>
       <r>  -21.2710    1.0000 </r>
       <r>  -21.2706    1.0000 </r>
       <r>  -21.2704    1.0000 </r>
       <r>  -21.2703    1.0000 </r>
       <r>  -21.2701    1.0000 </r>
       <r>  -21.2701    1.0000 </r>
       <r>  -21.2700    1.0000 </r>
       <r>  -21.2697    1.0000 </r>
       <r>  -21.2697    1.0000 </r>
       <r>  -21.2590    1.0000 </r>
       <r>  -21.2568    1.0000 </r>
       <r>  -21.2560    1.0000 </r>
       <r>  -21.2558    1.0000 </r>
       <r>  -21.2556    1.0000 </r>
       <r>  -21.2527    1.0000 </r>
       <r>  -13.2913    1.0000 </r>
       <r>  -13.2912    1.0000 </r>
       <r>  -13.0990    1.0000 </r>
       <r>  -13.0990    1.0000 </r>
       <r>  -13.0973    1.0000 </r>
       <r>  -13.0970    1.0000 </r>
       <r>  -13.0969    1.0000 </r>
       <r>  -13.0961    1.0000 </r>
       <r>  -13.0957    1.0000 </r>
       <r>  -13.0949    1.0000 </r>
       <r>  -13.0019    1.0000 </r>
       <r>  -13.0015    1.0000 </r>
       <r>  -13.0013    1.0000 </r>
       <r>  -13.0010    1.0000 </r>
       <r>  -13.0007    1.0000 </r>
       <r>  -13.0006    1.0000 </r>
       <r>  -13.0006    1.0000 </r>
       <r>  -13.0002    1.0000 </r>
       <r>  -12.9949    1.0000 </r>
       <r>  -12.9947    1.0000 </r>
       <r>  -12.9458    1.0000 </r>
       <r>  -12.9455    1.0000 </r>
       <r>  -12.9454    1.0000 </r>
       <r>  -12.9446    1.0000 </r>
       <r>  -12.9436    1.0000 </r>
       <r>  -12.9430    1.0000 </r>
       <r>  -12.9415    1.0000 </r>
       <r>  -12.9413    1.0000 </r>
       <r>  -12.9309    1.0000 </r>
       <r>  -12.9308    1.0000 </r>
       <r>  -12.9298    1.0000 </r>
       <r>  -12.9287    1.0000 </r>
       <r>   -2.5055    1.0000 </r>
       <r>   -2.5055    1.0000 </r>
       <r>   -2.5052    1.0000 </r>
       <r>   -2.5045    1.0000 </r>
       <r>   -2.5041    1.0000 </r>
       <r>   -2.5034    1.0000 </r>
       <r>   -2.5032    1.0000 </r>
       <r>   -2.5031    1.0000 </r>
       <r>   -2.2877    1.0000 </r>
       <r>   -2.2877    1.0000 </r>
       <r>   -2.2876    1.0000 </r>
       <r>   -2.2876    1.0000 </r>
       <r>   -2.2742    1.0000 </r>
       <r>   -2.2741    1.0000 </r>
       <r>   -2.1388    1.0000 </r>
       <r>   -2.1365    1.0000 </r>
       <r>   -2.1365    1.0000 </r>
       <r>   -2.1364    1.0000 </r>
       <r>   -2.1363    1.0000 </r>
       <r>   -2.1363    1.0000 </r>
       <r>   -2.1361    1.0000 </r>
       <r>   -2.1340    1.0000 </r>
       <r>   -1.9862    1.0000 </r>
       <r>   -1.9859    1.0000 </r>
       <r>   -1.9856    1.0000 </r>
       <r>   -1.9855    1.0000 </r>
       <r>   -1.9854    1.0000 </r>
       <r>   -1.9852    1.0000 </r>
       <r>   -1.9849    1.0000 </r>
       <r>   -1.9847    1.0000 </r>
       <r>   -1.8146    1.0000 </r>
       <r>   -1.8097    1.0000 </r>
       <r>   -1.8089    1.0000 </r>
       <r>   -1.8088    1.0000 </r>
       <r>   -1.8088    1.0000 </r>
       <r>   -1.8086    1.0000 </r>
       <r>   -1.8065    1.0000 </r>
       <r>   -1.8041    1.0000 </r>
       <r>   -1.4979    1.0000 </r>
       <r>   -1.4978    1.0000 </r>
       <r>   -1.4978    1.0000 </r>
       <r>   -1.4977    1.0000 </r>
       <r>   -1.3805    1.0000 </r>
       <r>   -1.3805    1.0000 </r>
       <r>   -1.3804    1.0000 </r>
       <r>   -1.3803    1.0000 </r>
       <r>   -1.2132    1.0000 </r>
       <r>   -1.2128    1.0000 </r>
       <r>   -1.2124    1.0000 </r>
       <r>   -1.2123    1.0000 </r>
       <r>   -1.1926    1.0000 </r>
       <r>   -1.1924    1.0000 </r>
       <r>   -1.1920    1.0000 </r>
       <r>   -1.1916    1.0000 </r>
       <r>   -1.1913    1.0000 </r>
       <r>   -1.1910    1.0000 </r>
       <r>   -1.1894    1.0000 </r>
       <r>   -1.1890    1.0000 </r>
       <r>   -1.1791    1.0000 </r>
       <r>   -1.1749    1.0000 </r>
       <r>   -1.1744    1.0000 </r>
       <r>   -1.1744    1.0000 </r>
       <r>   -1.1737    1.0000 </r>
       <r>   -1.1732    1.0000 </r>
       <r>   -1.1731    1.0000 </r>
       <r>   -1.1694    1.0000 </r>
       <r>   -1.1639    1.0000 </r>
       <r>   -1.1604    1.0000 </r>
       <r>   -1.1598    1.0000 </r>
       <r>   -1.1597    1.0000 </r>
       <r>   -1.1592    1.0000 </r>
       <r>   -1.1586    1.0000 </r>
       <r>   -1.1578    1.0000 </r>
       <r>   -1.1562    1.0000 </r>
       <r>   -1.0833    1.0000 </r>
       <r>   -1.0832    1.0000 </r>
       <r>   -0.9493    1.0000 </r>
       <r>   -0.9472    1.0000 </r>
       <r>   -0.9470    1.0000 </r>
       <r>   -0.9469    1.0000 </r>
       <r>   -0.9467    1.0000 </r>
       <r>   -0.9464    1.0000 </r>
       <r>   -0.9464    1.0000 </r>
       <r>   -0.9447    1.0000 </r>
       <r>   -0.9352    1.0000 </r>
       <r>   -0.9346    1.0000 </r>
       <r>   -0.9340    1.0000 </r>
       <r>   -0.9323    1.0000 </r>
       <r>   -0.9322    1.0000 </r>
       <r>   -0.9311    1.0000 </r>
       <r>   -0.9302    1.0000 </r>
       <r>   -0.9279    1.0000 </r>
       <r>   -0.7683    1.0000 </r>
       <r>   -0.7683    1.0000 </r>
       <r>   -0.7682    1.0000 </r>
       <r>   -0.7681    1.0000 </r>
       <r>    5.0222    0.0000 </r>
       <r>    5.0223    0.0000 </r>
       <r>    6.7093    0.0000 </r>
       <r>    6.7103    0.0000 </r>
       <r>    6.7164    0.0000 </r>
       <r>    6.7172    0.0000 </r>
       <r>    6.7173    0.0000 </r>
       <r>    6.7182    0.0000 </r>
       <r>    6.7234    0.0000 </r>
       <r>    6.7302    0.0000 </r>
       <r>    6.8373    0.0000 </r>
       <r>    6.8373    0.0000 </r>
       <r>    6.8419    0.0000 </r>
       <r>    6.8422    0.0000 </r>
       <r>    6.8444    0.0000 </r>
       <r>    6.8447    0.0000 </r>
       <r>    6.8498    0.0000 </r>
       <r>    6.8499    0.0000 </r>
       <r>    6.9711    0.0000 </r>
       <r>    6.9713    0.0000 </r>
       <r>    7.3624    0.0000 </r>
       <r>    7.3625    0.0000 </r>
       <r>    7.3625    0.0000 </r>
       <r>    7.3628    0.0000 </r>
       <r>    7.4802    0.0000 </r>
       <r>    7.4804    0.0000 </r>
       <r>    7.7146    0.0000 </r>
       <r>    7.7146    0.0000 </r>
       <r>    7.7146    0.0000 </r>
       <r>    7.7146    0.0000 </r>
       <r>    8.2575    0.0000 </r>
       <r>    8.2601    0.0000 </r>
       <r>    8.2644    0.0000 </r>
       <r>    8.2660    0.0000 </r>
       <r>    8.2660    0.0000 </r>
       <r>    8.2662    0.0000 </r>
       <r>    8.2696    0.0000 </r>
       <r>    8.2768    0.0000 </r>
       <r>    8.5244    0.0000 </r>
       <r>    8.5279    0.0000 </r>
       <r>    8.5335    0.0000 </r>
       <r>    8.5337    0.0000 </r>
       <r>    8.5348    0.0000 </r>
       <r>    8.5359    0.0000 </r>
       <r>    8.5360    0.0000 </r>
       <r>    8.5380    0.0000 </r>
       <r>    8.5386    0.0000 </r>
       <r>    8.5387    0.0000 </r>
       <r>    8.5389    0.0000 </r>
       <r>    8.5404    0.0000 </r>
       <r>    8.5427    0.0000 </r>
       <r>    8.5451    0.0000 </r>
       <r>    8.5525    0.0000 </r>
       <r>    8.5559    0.0000 </r>
       <r>    8.9398    0.0000 </r>
       <r>    8.9445    0.0000 </r>
       <r>    8.9501    0.0000 </r>
       <r>    8.9505    0.0000 </r>
       <r>    8.9510    0.0000 </r>
       <r>    8.9511    0.0000 </r>
       <r>    8.9539    0.0000 </r>
       <r>    8.9661    0.0000 </r>
       <r>    9.4930    0.0000 </r>
       <r>    9.5141    0.0000 </r>
      </set>
      <set comment="kpoint 4">
       <r>  -21.3112    1.0000 </r>
       <r>  -21.3095    1.0000 </r>
       <r>  -21.3082    1.0000 </r>
       <r>  -21.3073    1.0000 </r>
       <r>  -21.3047    1.0000 </r>
       <r>  -21.3017    1.0000 </r>
       <r>  -21.2997    1.0000 </r>
       <r>  -21.2997    1.0000 </r>
       <r>  -21.2996    1.0000 </r>
       <r>  -21.2996    1.0000 </r>
       <r>  -21.2972    1.0000 </r>
       <r>  -21.2963    1.0000 </r>
       <r>  -21.2944    1.0000 </r>
       <r>  -21.2927    1.0000 </r>
       <r>  -21.2924    1.0000 </r>
       <r>  -21.2919    1.0000 </r>
       <r>  -21.2915    1.0000 </r>
       <r>  -21.2908    1.0000 </r>
       <r>  -21.2906    1.0000 </r>
       <r>  -21.2905    1.0000 </r>
       <r>  -21.2902    1.0000 </r>
       <r>  -21.2899    1.0000 </r>
       <r>  -21.2898    1.0000 </r>
       <r>  -21.2896    1.0000 </r>
       <r>  -21.2888    1.0000 </r>
       <r>  -21.2888    1.0000 </r>
       <r>  -21.2884    1.0000 </r>
       <r>  -21.2875    1.0000 </r>
       <r>  -21.2868    1.0000 </r>
       <r>  -21.2863    1.0000 </r>
       <r>  -21.2858    1.0000 </r>
       <r>  -21.2848    1.0000 </r>
       <r>  -21.2848    1.0000 </r>
       <r>  -21.2845    1.0000 </r>
       <r>  -21.2840    1.0000 </r>
       <r>  -21.2839    1.0000 </r>
       <r>  -21.2838    1.0000 </r>
       <r>  -21.2833    1.0000 </r>
       <r>  -21.2832    1.0000 </r>
       <r>  -21.2823    1.0000 </r>
       <r>  -21.2821    1.0000 </r>
       <r>  -21.2818    1.0000 </r>
       <r>  -21.2817    1.0000 </r>
       <r>  -21.2811    1.0000 </r>
       <r>  -21.2807    1.0000 </r>
       <r>  -21.2805    1.0000 </r>
       <r>  -21.2805    1.0000 </r>
       <r>  -21.2802    1.0000 </r>
       <r>  -21.2791    1.0000 </r>
       <r>  -21.2791    1.0000 </r>
       <r>  -21.2786    1.0000 </r>
       <r>  -21.2781    1.0000 </r>
       <r>  -21.2776    1.0000 </r>
       <r>  -21.2775    1.0000 </r>
       <r>  -21.2774    1.0000 </r>
       <r>  -21.2771    1.0000 </r>
       <r>  -21.2770    1.0000 </r>
       <r>  -21.2768    1.0000 </r>
       <r>  -21.2765    1.0000 </r>
       <r>  -21.2764    1.0000 </r>
       <r>  -21.2763    1.0000 </r>
       <r>  -21.2762    1.0000 </r>
       <r>  -21.2760    1.0000 </r>
       <r>  -21.2759    1.0000 </r>
       <r>  -21.2749    1.0000 </r>
       <r>  -21.2748    1.0000 </r>
       <r>  -21.2747    1.0000 </r>
       <r>  -21.2747    1.0000 </r>
       <r>  -21.2740    1.0000 </r>
       <r>  -21.2737    1.0000 </r>
[...]
      </set>
     </set>
    </set>
   </array>
  </eigenvalues>
  <separator name="orbital magnetization" >
   <v name="MAGDIPOLOUT">      0.00000000      0.00000000      0.00000000</v>
  </separator>
  <dos>
   <i name="efermi">     -0.55590792 </i>
   <total>
    <array>
     <dimension dim="1">gridpoints</dimension>
     <dimension dim="2">spin</dimension>
     <field>energy</field>
     <field>total</field>
     <field>integrated</field>
     <set>
      <set comment="spin 1">
       <r>   -22.8532     0.0000     0.0000 </r>
       <r>   -22.7402     0.0000     0.0000 </r>
       <r>   -22.6271     0.0000     0.0000 </r>
       <r>   -22.5141     0.0000     0.0000 </r>
       <r>   -22.4010     0.0000     0.0000 </r>
       <r>   -22.2880     0.0000     0.0000 </r>
       <r>   -22.1750     0.0000     0.0000 </r>
       <r>   -22.0619     0.0000     0.0000 </r>
       <r>   -21.9489     0.0000     0.0000 </r>
       <r>   -21.8358     0.0000     0.0000 </r>
       <r>   -21.7228     0.0000     0.0000 </r>
       <r>   -21.6098     0.0000     0.0000 </r>
       <r>   -21.4967     0.0000     0.0000 </r>
       <r>   -21.3837     0.0000     0.0000 </r>
       <r>   -21.2706  1212.1077   137.0176 </r>
       <r>   -21.1576   486.3940   192.0000 </r>
       <r>   -21.0446     0.0000   192.0000 </r>
       <r>   -20.9315     0.0000   192.0000 </r>
       <r>   -20.8185     0.0000   192.0000 </r>
       <r>   -20.7054     0.0000   192.0000 </r>
       <r>   -20.5924     0.0000   192.0000 </r>
       <r>   -20.4794     0.0000   192.0000 </r>
       <r>   -20.3663     0.0000   192.0000 </r>
       <r>   -20.2533     0.0000   192.0000 </r>
       <r>   -20.1402     0.0000   192.0000 </r>
       <r>   -20.0272     0.0000   192.0000 </r>
       <r>   -19.9141     0.0000   192.0000 </r>
       <r>   -19.8011     0.0000   192.0000 </r>
       <r>   -19.6881     0.0000   192.0000 </r>
       <r>   -19.5750     0.0000   192.0000 </r>
       <r>   -19.4620     0.0000   192.0000 </r>
       <r>   -19.3489     0.0000   192.0000 </r>
       <r>   -19.2359     0.0000   192.0000 </r>
       <r>   -19.1229     0.0000   192.0000 </r>
       <r>   -19.0098     0.0000   192.0000 </r>
       <r>   -18.8968     0.0000   192.0000 </r>
       <r>   -18.7837     0.0000   192.0000 </r>
       <r>   -18.6707     0.0000   192.0000 </r>
       <r>   -18.5577     0.0000   192.0000 </r>
       <r>   -18.4446     0.0000   192.0000 </r>
       <r>   -18.3316     0.0000   192.0000 </r>
       <r>   -18.2185     0.0000   192.0000 </r>
       <r>   -18.1055     0.0000   192.0000 </r>
       <r>   -17.9925     0.0000   192.0000 </r>
       <r>   -17.8794     0.0000   192.0000 </r>
       <r>   -17.7664     0.0000   192.0000 </r>
       <r>   -17.6533     0.0000   192.0000 </r>
       <r>   -17.5403     0.0000   192.0000 </r>
       <r>   -17.4272     0.0000   192.0000 </r>
       <r>   -17.3142     0.0000   192.0000 </r>
       <r>   -17.2012     0.0000   192.0000 </r>
       <r>   -17.0881     0.0000   192.0000 </r>
       <r>   -16.9751     0.0000   192.0000 </r>
       <r>   -16.8620     0.0000   192.0000 </r>
       <r>   -16.7490     0.0000   192.0000 </r>
       <r>   -16.6360     0.0000   192.0000 </r>
       <r>   -16.5229     0.0000   192.0000 </r>
       <r>   -16.4099     0.0000   192.0000 </r>
       <r>   -16.2968     0.0000   192.0000 </r>
       <r>   -16.1838     0.0000   192.0000 </r>
       <r>   -16.0708     0.0000   192.0000 </r>
       <r>   -15.9577     0.0000   192.0000 </r>
       <r>   -15.8447     0.0000   192.0000 </r>
       <r>   -15.7316     0.0000   192.0000 </r>
       <r>   -15.6186     0.0000   192.0000 </r>
       <r>   -15.5056     0.0000   192.0000 </r>
       <r>   -15.3925     0.0000   192.0000 </r>
       <r>   -15.2795     0.0000   192.0000 </r>
       <r>   -15.1664     0.0000   192.0000 </r>
       <r>   -15.0534     0.0000   192.0000 </r>
       <r>   -14.9404     0.0000   192.0000 </r>
       <r>   -14.8273     0.0000   192.0000 </r>
       <r>   -14.7143     0.0000   192.0000 </r>
       <r>   -14.6012     0.0000   192.0000 </r>
       <r>   -14.4882     0.0000   192.0000 </r>
       <r>   -14.3751     0.0000   192.0000 </r>
       <r>   -14.2621     0.0000   192.0000 </r>
       <r>   -14.1491     0.0000   192.0000 </r>
       <r>   -14.0360     0.0000   192.0000 </r>
       <r>   -13.9230     0.0000   192.0000 </r>
       <r>   -13.8099     0.0000   192.0000 </r>
       <r>   -13.6969     0.0000   192.0000 </r>
       <r>   -13.5839     0.0000   192.0000 </r>
       <r>   -13.4708     0.0000   192.0000 </r>
       <r>   -13.3578     1.1179   192.1264 </r>
       <r>   -13.2447    19.1481   194.2909 </r>
       <r>   -13.1317    48.5527   199.7794 </r>
       <r>   -13.0187   125.1489   213.9265 </r>
       <r>   -12.9056   367.7526   255.4981 </r>
       <r>   -12.7926     4.4299   256.0000 </r>
       <r>   -12.6795     0.0000   256.0000 </r>
       <r>   -12.5665     0.0000   256.0000 </r>
       <r>   -12.4535     0.0000   256.0000 </r>
       <r>   -12.3404     0.0000   256.0000 </r>
       <r>   -12.2274     0.0000   256.0000 </r>
       <r>   -12.1143     0.0000   256.0000 </r>
       <r>   -12.0013     0.0000   256.0000 </r>
       <r>   -11.8882     0.0000   256.0000 </r>
       <r>   -11.7752     0.0000   256.0000 </r>
       <r>   -11.6622     0.0000   256.0000 </r>
       <r>   -11.5491     0.0000   256.0000 </r>
       <r>   -11.4361     0.0000   256.0000 </r>
       <r>   -11.3230     0.0000   256.0000 </r>
       <r>   -11.2100     0.0000   256.0000 </r>
       <r>   -11.0970     0.0000   256.0000 </r>
       <r>   -10.9839     0.0000   256.0000 </r>
       <r>   -10.8709     0.0000   256.0000 </r>
       <r>   -10.7578     0.0000   256.0000 </r>
       <r>   -10.6448     0.0000   256.0000 </r>
       <r>   -10.5318     0.0000   256.0000 </r>
       <r>   -10.4187     0.0000   256.0000 </r>
       <r>   -10.3057     0.0000   256.0000 </r>
       <r>   -10.1926     0.0000   256.0000 </r>
       <r>   -10.0796     0.0000   256.0000 </r>
       <r>    -9.9666     0.0000   256.0000 </r>
       <r>    -9.8535     0.0000   256.0000 </r>
       <r>    -9.7405     0.0000   256.0000 </r>
       <r>    -9.6274     0.0000   256.0000 </r>
       <r>    -9.5144     0.0000   256.0000 </r>
       <r>    -9.4014     0.0000   256.0000 </r>
       <r>    -9.2883     0.0000   256.0000 </r>
       <r>    -9.1753     0.0000   256.0000 </r>
       <r>    -9.0622     0.0000   256.0000 </r>
       <r>    -8.9492     0.0000   256.0000 </r>
       <r>    -8.8361     0.0000   256.0000 </r>
       <r>    -8.7231     0.0000   256.0000 </r>
       <r>    -8.6101     0.0000   256.0000 </r>
       <r>    -8.4970     0.0000   256.0000 </r>
       <r>    -8.3840     0.0000   256.0000 </r>
       <r>    -8.2709     0.0000   256.0000 </r>
       <r>    -8.1579     0.0000   256.0000 </r>
       <r>    -8.0449     0.0000   256.0000 </r>
       <r>    -7.9318     0.0000   256.0000 </r>
       <r>    -7.8188     0.0000   256.0000 </r>
       <r>    -7.7057     0.0000   256.0000 </r>
       <r>    -7.5927     0.0000   256.0000 </r>
       <r>    -7.4797     0.0000   256.0000 </r>
       <r>    -7.3666     0.0000   256.0000 </r>
       <r>    -7.2536     0.0000   256.0000 </r>
       <r>    -7.1405     0.0000   256.0000 </r>
       <r>    -7.0275     0.0000   256.0000 </r>
       <r>    -6.9145     0.0000   256.0000 </r>
       <r>    -6.8014     0.0000   256.0000 </r>
       <r>    -6.6884     0.0000   256.0000 </r>
       <r>    -6.5753     0.0000   256.0000 </r>
       <r>    -6.4623     0.0000   256.0000 </r>
       <r>    -6.3492     0.0000   256.0000 </r>
       <r>    -6.2362     0.0000   256.0000 </r>
       <r>    -6.1232     0.0000   256.0000 </r>
       <r>    -6.0101     0.0000   256.0000 </r>
       <r>    -5.8971     0.0000   256.0000 </r>
       <r>    -5.7840     0.0000   256.0000 </r>
       <r>    -5.6710     0.0000   256.0000 </r>
       <r>    -5.5580     0.0000   256.0000 </r>
       <r>    -5.4449     0.0000   256.0000 </r>
       <r>    -5.3319     0.0000   256.0000 </r>
       <r>    -5.2188     0.0000   256.0000 </r>
       <r>    -5.1058     0.0000   256.0000 </r>
       <r>    -4.9928     0.0000   256.0000 </r>
       <r>    -4.8797     0.0000   256.0000 </r>
       <r>    -4.7667     0.0000   256.0000 </r>
       <r>    -4.6536     0.0000   256.0000 </r>
       <r>    -4.5406     0.0000   256.0000 </r>
       <r>    -4.4276     0.0000   256.0000 </r>
       <r>    -4.3145     0.0000   256.0000 </r>
       <r>    -4.2015     0.0000   256.0000 </r>
       <r>    -4.0884     0.0000   256.0000 </r>
       <r>    -3.9754     0.0000   256.0000 </r>
       <r>    -3.8624     0.0000   256.0000 </r>
       <r>    -3.7493     0.0000   256.0000 </r>
       <r>    -3.6363     0.0000   256.0000 </r>
       <r>    -3.5232     0.0000   256.0000 </r>
       <r>    -3.4102     0.0000   256.0000 </r>
       <r>    -3.2971     0.0000   256.0000 </r>
       <r>    -3.1841     0.0000   256.0000 </r>
       <r>    -3.0711     0.0000   256.0000 </r>
       <r>    -2.9580     0.0000   256.0000 </r>
       <r>    -2.8450     0.0000   256.0000 </r>
       <r>    -2.7319     0.1048   256.0118 </r>
       <r>    -2.6189     8.7416   257.0000 </r>
       <r>    -2.5059    24.2473   259.7409 </r>
       <r>    -2.3928    84.2870   269.2688 </r>
       <r>    -2.2798    82.0607   278.5450 </r>
       <r>    -2.1667   154.7335   296.0370 </r>
       <r>    -2.0537    72.6552   304.2500 </r>
       <r>    -1.9407    56.5288   310.6401 </r>
       <r>    -1.8276    61.9613   317.6442 </r>
       <r>    -1.7146    71.7066   325.7500 </r>
       <r>    -1.6015     0.0000   325.7500 </r>
       <r>    -1.4885    70.5013   333.7195 </r>
       <r>    -1.3755   196.9679   355.9849 </r>
       <r>    -1.2624    24.6580   358.7723 </r>
       <r>    -1.1494   253.0182   387.3737 </r>
       <r>    -1.0363   137.1007   402.8717 </r>
       <r>    -0.9233   258.6662   432.1117 </r>
       <r>    -0.8102    62.7941   439.2113 </r>
       <r>    -0.6972    71.1429   447.2533 </r>
       <r>    -0.5842     6.6052   448.0000 </r>
       <r>    -0.4711     0.0000   448.0000 </r>
       <r>    -0.3581     0.0000   448.0000 </r>
       <r>    -0.2450     0.0000   448.0000 </r>
       <r>    -0.1320     0.0000   448.0000 </r>
       <r>    -0.0190     0.0000   448.0000 </r>
       <r>     0.0941     0.0000   448.0000 </r>
       <r>     0.2071     0.0000   448.0000 </r>
       <r>     0.3202     0.0000   448.0000 </r>
       <r>     0.4332     0.0000   448.0000 </r>
       <r>     0.5462     0.0000   448.0000 </r>
       <r>     0.6593     0.0000   448.0000 </r>
       <r>     0.7723     0.0000   448.0000 </r>
       <r>     0.8854     0.0000   448.0000 </r>
       <r>     0.9984     0.0000   448.0000 </r>
       <r>     1.1114     0.0000   448.0000 </r>
       <r>     1.2245     0.0000   448.0000 </r>
       <r>     1.3375     0.0000   448.0000 </r>
       <r>     1.4506     0.0000   448.0000 </r>
       <r>     1.5636     0.0000   448.0000 </r>
       <r>     1.6766     0.0000   448.0000 </r>
       <r>     1.7897     0.0000   448.0000 </r>
       <r>     1.9027     0.0000   448.0000 </r>
       <r>     2.0158     0.0000   448.0000 </r>
       <r>     2.1288     0.0000   448.0000 </r>
       <r>     2.2419     0.0000   448.0000 </r>
       <r>     2.3549     0.0000   448.0000 </r>
       <r>     2.4679     0.0000   448.0000 </r>
       <r>     2.5810     0.0000   448.0000 </r>
       <r>     2.6940     0.0000   448.0000 </r>
       <r>     2.8071     0.0000   448.0000 </r>
       <r>     2.9201     0.0000   448.0000 </r>
       <r>     3.0331     0.0000   448.0000 </r>
       <r>     3.1462     0.0000   448.0000 </r>
       <r>     3.2592     0.0000   448.0000 </r>
       <r>     3.3723     0.0000   448.0000 </r>
       <r>     3.4853     0.0000   448.0000 </r>
       <r>     3.5983     0.0000   448.0000 </r>
       <r>     3.7114     0.0000   448.0000 </r>
       <r>     3.8244     0.0000   448.0000 </r>
       <r>     3.9375     0.0000   448.0000 </r>
       <r>     4.0505     0.0000   448.0000 </r>
       <r>     4.1635     0.0000   448.0000 </r>
       <r>     4.2766     0.0000   448.0000 </r>
       <r>     4.3896     2.2111   448.2499 </r>
       <r>     4.5027     0.0000   448.2500 </r>
       <r>     4.6157     0.0000   448.2500 </r>
       <r>     4.7287     0.0000   448.2500 </r>
       <r>     4.8418     0.0000   448.2500 </r>
       <r>     4.9548     0.0000   448.2500 </r>
       <r>     5.0679    13.2591   449.7488 </r>
       <r>     5.1809     0.0101   449.7500 </r>
       <r>     5.2940     0.0000   449.7500 </r>
       <r>     5.4070     0.0000   449.7500 </r>
       <r>     5.5200     2.6130   450.0454 </r>
       <r>     5.6331    23.9261   452.7500 </r>
       <r>     5.7461     0.0000   452.7500 </r>
       <r>     5.8592    17.0456   454.6768 </r>
       <r>     5.9722     0.6471   454.7500 </r>
       <r>     6.0852     0.0000   454.7500 </r>
       <r>     6.1983     0.0000   454.7500 </r>
       <r>     6.3113     0.0011   454.7501 </r>
       <r>     6.4244    13.9228   456.3240 </r>
       <r>     6.5374     8.1908   457.2500 </r>
       <r>     6.6504    41.2439   461.9122 </r>
       <r>     6.7635    64.8281   469.2405 </r>
       <r>     6.8765    59.0681   475.9180 </r>
       <r>     6.9896    12.6548   477.3487 </r>
       <r>     7.1026     1.3381   477.5000 </r>
       <r>     7.2156     4.8708   478.0506 </r>
       <r>     7.3287     2.0339   478.2805 </r>
       <r>     7.4417    81.8697   487.5351 </r>
       <r>     7.5548   166.7041   506.3797 </r>
       <r>     7.6678     3.2913   506.7518 </r>
       <r>     7.7809    26.5232   509.7500 </r>
       <r>     7.8939     0.1770   509.7700 </r>
       <r>     8.0069    52.9011   515.7500 </r>
       <r>     8.1200     0.0073   515.7508 </r>
       <r>     8.2330    14.1584   517.3513 </r>
       <r>     8.3461    91.9767   527.7484 </r>
       <r>     8.4591     0.0088   527.7500 </r>
       <r>     8.5721   146.6348   544.3257 </r>
       <r>     8.6852    12.5979   545.7500 </r>
       <r>     8.7982     0.0000   545.7500 </r>
       <r>     8.9113    81.5089   554.9638 </r>
       <r>     9.0243   123.7847   568.9565 </r>
       <r>     9.1373     4.8075   569.5000 </r>
       <r>     9.2504    21.3662   571.9153 </r>
       <r>     9.3634    22.8387   574.4970 </r>
       <r>     9.4765     0.9077   574.5996 </r>
       <r>     9.5895    12.3887   576.0000 </r>
       <r>     9.7025     0.0000   576.0000 </r>
       <r>     9.8156     0.0000   576.0000 </r>
       <r>     9.9286     0.0000   576.0000 </r>
       <r>    10.0417     0.0000   576.0000 </r>
       <r>    10.1547     0.0000   576.0000 </r>
       <r>    10.2677     0.0000   576.0000 </r>
       <r>    10.3808     0.0000   576.0000 </r>
       <r>    10.4938     0.0000   576.0000 </r>
       <r>    10.6069     0.0000   576.0000 </r>
       <r>    10.7199     0.0000   576.0000 </r>
       <r>    10.8330     0.0000   576.0000 </r>
       <r>    10.9460     0.0000   576.0000 </r>
       <r>    11.0590     0.0000   576.0000 </r>
      </set>
     </set>
    </array>
   </total>
  </dos>
 </calculation>
 <structure name="finalpos" >
  <crystal>
   <varray name="basis" >
    <v>      11.20400236       0.00000000       0.00000000 </v>
    <v>       0.00000000      11.20400236       0.00000000 </v>
    <v>       0.00000000       0.00000000      11.20400236 </v>
   </varray>
   <i name="volume">   1406.43470641 </i>
   <varray name="rec_basis" >
    <v>       0.08925382       0.00000000       0.00000000 </v>
    <v>       0.00000000       0.08925382       0.00000000 </v>
    <v>       0.00000000       0.00000000       0.08925382 </v>
   </varray>
  </crystal>
  <varray name="positions" >
   <v>       0.00000000       0.00000000       0.00000000 </v>
   <v>       0.25000000       0.25000000       0.00000000 </v>
   <v>       0.25000000       0.00000000       0.25000000 </v>
   <v>       0.00000000       0.25000000       0.25000000 </v>
   <v>       0.00000000       0.00000000       0.50000000 </v>
   <v>       0.25000000       0.25000000       0.50000000 </v>
   <v>       0.25000000       0.00000000       0.75000000 </v>
   <v>       0.00000000       0.25000000       0.75000000 </v>
   <v>       0.00000000       0.50000000       0.00000000 </v>
   <v>       0.25000000       0.75000000       0.00000000 </v>
   <v>       0.25000000       0.50000000       0.25000000 </v>
   <v>       0.00000000       0.75000000       0.25000000 </v>
   <v>       0.00000000       0.50000000       0.50000000 </v>
   <v>       0.25000000       0.75000000       0.50000000 </v>
   <v>       0.25000000       0.50000000       0.75000000 </v>
   <v>       0.00000000       0.75000000       0.75000000 </v>
   <v>       0.50000000       0.00000000       0.00000000 </v>
   <v>       0.75000000       0.25000000       0.00000000 </v>
   <v>       0.75000000       0.00000000       0.25000000 </v>
   <v>       0.50000000       0.25000000       0.25000000 </v>
   <v>       0.50000000       0.00000000       0.50000000 </v>
   <v>       0.75000000       0.25000000       0.50000000 </v>
   <v>       0.75000000       0.00000000       0.75000000 </v>
   <v>       0.50000000       0.25000000       0.75000000 </v>
   <v>       0.50000000       0.50000000       0.00000000 </v>
   <v>       0.75000000       0.75000000       0.00000000 </v>
   <v>       0.75000000       0.50000000       0.25000000 </v>
   <v>       0.50000000       0.75000000       0.25000000 </v>
   <v>       0.50000000       0.50000000       0.50000000 </v>
   <v>       0.75000000       0.75000000       0.50000000 </v>
   <v>       0.75000000       0.50000000       0.75000000 </v>
   <v>       0.50000000       0.75000000       0.75000000 </v>
   <v>       0.24732239       0.25000000       0.25000000 </v>
   <v>       0.00267761       0.00000000       0.25000000 </v>
   <v>       0.00000000       0.25000000       0.00000000 </v>
   <v>       0.25000000       0.00000000       0.00000000 </v>
   <v>       0.25000000       0.25000000       0.75000000 </v>
   <v>       0.00000000       0.00000000       0.75000000 </v>
   <v>       0.00000000       0.25000000       0.50000000 </v>
   <v>       0.25000000       0.00000000       0.50000000 </v>
   <v>       0.25000000       0.75000000       0.25000000 </v>
   <v>       0.00000000       0.50000000       0.25000000 </v>
   <v>       0.00000000       0.75000000       0.00000000 </v>
   <v>       0.25000000       0.50000000       0.00000000 </v>
   <v>       0.25000000       0.75000000       0.75000000 </v>
   <v>       0.00000000       0.50000000       0.75000000 </v>
   <v>       0.00000000       0.75000000       0.50000000 </v>
   <v>       0.25000000       0.50000000       0.50000000 </v>
   <v>       0.75000000       0.25000000       0.25000000 </v>
   <v>       0.50000000       0.00000000       0.25000000 </v>
   <v>       0.50000000       0.25000000       0.00000000 </v>
   <v>       0.75000000       0.00000000       0.00000000 </v>
   <v>       0.75000000       0.25000000       0.75000000 </v>
   <v>       0.50000000       0.00000000       0.75000000 </v>
   <v>       0.50000000       0.25000000       0.50000000 </v>
   <v>       0.75000000       0.00000000       0.50000000 </v>
   <v>       0.75000000       0.75000000       0.25000000 </v>
   <v>       0.50000000       0.50000000       0.25000000 </v>
   <v>       0.50000000       0.75000000       0.00000000 </v>
   <v>       0.75000000       0.50000000       0.00000000 </v>
   <v>       0.75000000       0.75000000       0.75000000 </v>
   <v>       0.50000000       0.50000000       0.75000000 </v>
   <v>       0.50000000       0.75000000       0.50000000 </v>
   <v>       0.75000000       0.50000000       0.50000000 </v>
  </varray>
 </structure>
</modeling>
