  64  64   0   0
  0.2197554E+02  0.1120400E-08  0.1120400E-08  0.1120400E-08  0.5000000E-15
  1.000000000000000E-004
  CAR 
 unknown system                          
     11.05814250    -22.87042267  301     -0.56239107      1.00000000
    -22.870  0.0000E+00  0.0000E+00
    -22.757  0.0000E+00  0.0000E+00
    -22.644  0.0000E+00  0.0000E+00
    -22.531  0.0000E+00  0.0000E+00
    -22.418  0.0000E+00  0.0000E+00
    -22.305  0.0000E+00  0.0000E+00
    -22.192  0.0000E+00  0.0000E+00
    -22.079  0.0000E+00  0.0000E+00
    -21.966  0.0000E+00  0.0000E+00
    -21.853  0.0000E+00  0.0000E+00
    -21.739  0.0000E+00  0.0000E+00
    -21.626  0.0000E+00  0.0000E+00
    -21.513  0.0000E+00  0.0000E+00
    -21.400  0.9066E-05  0.1025E-05
    -21.287  0.6027E+03  0.6816E+02
    -21.174  0.1095E+04  0.1920E+03
    -21.061  0.0000E+00  0.1920E+03
    -20.948  0.0000E+00  0.1920E+03
    -20.835  0.0000E+00  0.1920E+03
    -20.722  0.0000E+00  0.1920E+03
    -20.609  0.0000E+00  0.1920E+03
    -20.495  0.0000E+00  0.1920E+03
    -20.382  0.0000E+00  0.1920E+03
    -20.269  0.0000E+00  0.1920E+03
    -20.156  0.0000E+00  0.1920E+03
    -20.043  0.0000E+00  0.1920E+03
    -19.930  0.0000E+00  0.1920E+03
    -19.817  0.0000E+00  0.1920E+03
    -19.704  0.0000E+00  0.1920E+03
    -19.591  0.0000E+00  0.1920E+03
    -19.478  0.0000E+00  0.1920E+03
    -19.364  0.0000E+00  0.1920E+03
    -19.251  0.0000E+00  0.1920E+03
    -19.138  0.0000E+00  0.1920E+03
    -19.025  0.0000E+00  0.1920E+03
    -18.912  0.0000E+00  0.1920E+03
    -18.799  0.0000E+00  0.1920E+03
    -18.686  0.0000E+00  0.1920E+03
    -18.573  0.0000E+00  0.1920E+03
    -18.460  0.0000E+00  0.1920E+03
    -18.347  0.0000E+00  0.1920E+03
    -18.234  0.0000E+00  0.1920E+03
    -18.120  0.0000E+00  0.1920E+03
    -18.007  0.0000E+00  0.1920E+03
    -17.894  0.0000E+00  0.1920E+03
    -17.781  0.0000E+00  0.1920E+03
    -17.668  0.0000E+00  0.1920E+03
    -17.555  0.0000E+00  0.1920E+03
    -17.442  0.0000E+00  0.1920E+03
    -17.329  0.0000E+00  0.1920E+03
    -17.216  0.0000E+00  0.1920E+03
    -17.103  0.0000E+00  0.1920E+03
    -16.989  0.0000E+00  0.1920E+03
    -16.876  0.0000E+00  0.1920E+03
    -16.763  0.0000E+00  0.1920E+03
    -16.650  0.0000E+00  0.1920E+03
    -16.537  0.0000E+00  0.1920E+03
    -16.424  0.0000E+00  0.1920E+03
    -16.311  0.0000E+00  0.1920E+03
    -16.198  0.0000E+00  0.1920E+03
    -16.085  0.0000E+00  0.1920E+03
    -15.972  0.0000E+00  0.1920E+03
    -15.859  0.0000E+00  0.1920E+03
    -15.745  0.0000E+00  0.1920E+03
    -15.632  0.0000E+00  0.1920E+03
    -15.519  0.0000E+00  0.1920E+03
    -15.406  0.0000E+00  0.1920E+03
    -15.293  0.0000E+00  0.1920E+03
    -15.180  0.0000E+00  0.1920E+03
    -15.067  0.0000E+00  0.1920E+03
    -14.954  0.0000E+00  0.1920E+03
    -14.841  0.0000E+00  0.1920E+03
    -14.728  0.0000E+00  0.1920E+03
    -14.614  0.0000E+00  0.1920E+03
    -14.501  0.0000E+00  0.1920E+03
    -14.388  0.0000E+00  0.1920E+03
    -14.275  0.0000E+00  0.1920E+03
    -14.162  0.0000E+00  0.1920E+03
    -14.049  0.0000E+00  0.1920E+03
    -13.936  0.0000E+00  0.1920E+03
    -13.823  0.0000E+00  0.1920E+03
    -13.710  0.0000E+00  0.1920E+03
    -13.597  0.0000E+00  0.1920E+03
    -13.484  0.0000E+00  0.1920E+03
    -13.370  0.4183E+00  0.1920E+03
    -13.257  0.1591E+02  0.1938E+03
    -13.144  0.4745E+02  0.1992E+03
    -13.031  0.1181E+03  0.2126E+03
    -12.918  0.3653E+03  0.2539E+03
    -12.805  0.1864E+02  0.2560E+03
    -12.692  0.0000E+00  0.2560E+03
    -12.579  0.0000E+00  0.2560E+03
    -12.466  0.0000E+00  0.2560E+03
    -12.353  0.0000E+00  0.2560E+03
    -12.239  0.0000E+00  0.2560E+03
    -12.126  0.0000E+00  0.2560E+03
    -12.013  0.0000E+00  0.2560E+03
    -11.900  0.0000E+00  0.2560E+03
    -11.787  0.0000E+00  0.2560E+03
    -11.674  0.0000E+00  0.2560E+03
    -11.561  0.0000E+00  0.2560E+03
    -11.448  0.0000E+00  0.2560E+03
    -11.335  0.0000E+00  0.2560E+03
    -11.222  0.0000E+00  0.2560E+03
    -11.109  0.0000E+00  0.2560E+03
    -10.995  0.0000E+00  0.2560E+03
    -10.882  0.0000E+00  0.2560E+03
    -10.769  0.0000E+00  0.2560E+03
    -10.656  0.0000E+00  0.2560E+03
    -10.543  0.0000E+00  0.2560E+03
    -10.430  0.0000E+00  0.2560E+03
    -10.317  0.0000E+00  0.2560E+03
    -10.204  0.0000E+00  0.2560E+03
    -10.091  0.0000E+00  0.2560E+03
     -9.978  0.0000E+00  0.2560E+03
     -9.864  0.0000E+00  0.2560E+03
     -9.751  0.0000E+00  0.2560E+03
     -9.638  0.0000E+00  0.2560E+03
     -9.525  0.0000E+00  0.2560E+03
     -9.412  0.0000E+00  0.2560E+03
     -9.299  0.0000E+00  0.2560E+03
     -9.186  0.0000E+00  0.2560E+03
     -9.073  0.0000E+00  0.2560E+03
     -8.960  0.0000E+00  0.2560E+03
     -8.847  0.0000E+00  0.2560E+03
     -8.734  0.0000E+00  0.2560E+03
     -8.620  0.0000E+00  0.2560E+03
     -8.507  0.0000E+00  0.2560E+03
     -8.394  0.0000E+00  0.2560E+03
     -8.281  0.0000E+00  0.2560E+03
     -8.168  0.0000E+00  0.2560E+03
     -8.055  0.0000E+00  0.2560E+03
     -7.942  0.0000E+00  0.2560E+03
     -7.829  0.0000E+00  0.2560E+03
     -7.716  0.0000E+00  0.2560E+03
     -7.603  0.0000E+00  0.2560E+03
     -7.489  0.0000E+00  0.2560E+03
     -7.376  0.0000E+00  0.2560E+03
     -7.263  0.0000E+00  0.2560E+03
     -7.150  0.0000E+00  0.2560E+03
     -7.037  0.0000E+00  0.2560E+03
     -6.924  0.0000E+00  0.2560E+03
     -6.811  0.0000E+00  0.2560E+03
     -6.698  0.0000E+00  0.2560E+03
     -6.585  0.0000E+00  0.2560E+03
     -6.472  0.0000E+00  0.2560E+03
     -6.359  0.0000E+00  0.2560E+03
     -6.245  0.0000E+00  0.2560E+03
     -6.132  0.0000E+00  0.2560E+03
     -6.019  0.0000E+00  0.2560E+03
     -5.906  0.0000E+00  0.2560E+03
     -5.793  0.0000E+00  0.2560E+03
     -5.680  0.0000E+00  0.2560E+03
     -5.567  0.0000E+00  0.2560E+03
     -5.454  0.0000E+00  0.2560E+03
     -5.341  0.0000E+00  0.2560E+03
     -5.228  0.0000E+00  0.2560E+03
     -5.114  0.0000E+00  0.2560E+03
     -5.001  0.0000E+00  0.2560E+03
     -4.888  0.0000E+00  0.2560E+03
     -4.775  0.0000E+00  0.2560E+03
     -4.662  0.0000E+00  0.2560E+03
     -4.549  0.0000E+00  0.2560E+03
     -4.436  0.0000E+00  0.2560E+03
     -4.323  0.0000E+00  0.2560E+03
     -4.210  0.0000E+00  0.2560E+03
     -4.097  0.0000E+00  0.2560E+03
     -3.984  0.0000E+00  0.2560E+03
     -3.870  0.0000E+00  0.2560E+03
     -3.757  0.0000E+00  0.2560E+03
     -3.644  0.0000E+00  0.2560E+03
     -3.531  0.0000E+00  0.2560E+03
     -3.418  0.0000E+00  0.2560E+03
     -3.305  0.0000E+00  0.2560E+03
     -3.192  0.0000E+00  0.2560E+03
     -3.079  0.0000E+00  0.2560E+03
     -2.966  0.0000E+00  0.2560E+03
     -2.853  0.0000E+00  0.2560E+03
     -2.739  0.2295E-01  0.2560E+03
     -2.626  0.8819E+01  0.2570E+03
     -2.513  0.1403E+02  0.2586E+03
     -2.400  0.8859E+02  0.2686E+03
     -2.287  0.7943E+02  0.2776E+03
     -2.174  0.1588E+03  0.2955E+03
     -2.061  0.7694E+02  0.3042E+03
     -1.948  0.5423E+02  0.3104E+03
     -1.835  0.5460E+02  0.3166E+03
     -1.722  0.8127E+02  0.3257E+03
     -1.609  0.1156E-10  0.3258E+03
     -1.495  0.4818E+02  0.3312E+03
     -1.382  0.2117E+03  0.3551E+03
     -1.269  0.3156E+02  0.3587E+03
     -1.156  0.2386E+03  0.3857E+03
     -1.043  0.1486E+03  0.4025E+03
     -0.930  0.2458E+03  0.4303E+03
     -0.817  0.7265E+02  0.4385E+03
     -0.704  0.7714E+02  0.4472E+03
     -0.591  0.6790E+01  0.4480E+03
     -0.478  0.0000E+00  0.4480E+03
     -0.364  0.0000E+00  0.4480E+03
     -0.251  0.0000E+00  0.4480E+03
     -0.138  0.0000E+00  0.4480E+03
     -0.025  0.0000E+00  0.4480E+03
      0.088  0.0000E+00  0.4480E+03
      0.201  0.0000E+00  0.4480E+03
      0.314  0.0000E+00  0.4480E+03
      0.427  0.0000E+00  0.4480E+03
      0.540  0.0000E+00  0.4480E+03
      0.653  0.0000E+00  0.4480E+03
      0.766  0.0000E+00  0.4480E+03
      0.880  0.0000E+00  0.4480E+03
      0.993  0.0000E+00  0.4480E+03
      1.106  0.0000E+00  0.4480E+03
      1.219  0.0000E+00  0.4480E+03
      1.332  0.0000E+00  0.4480E+03
      1.445  0.0000E+00  0.4480E+03
      1.558  0.0000E+00  0.4480E+03
      1.671  0.0000E+00  0.4480E+03
      1.784  0.0000E+00  0.4480E+03
      1.897  0.0000E+00  0.4480E+03
      2.011  0.0000E+00  0.4480E+03
      2.124  0.0000E+00  0.4480E+03
      2.237  0.0000E+00  0.4480E+03
      2.350  0.0000E+00  0.4480E+03
      2.463  0.0000E+00  0.4480E+03
      2.576  0.0000E+00  0.4480E+03
      2.689  0.0000E+00  0.4480E+03
      2.802  0.0000E+00  0.4480E+03
      2.915  0.0000E+00  0.4480E+03
      3.028  0.0000E+00  0.4480E+03
      3.141  0.0000E+00  0.4480E+03
      3.255  0.0000E+00  0.4480E+03
      3.368  0.0000E+00  0.4480E+03
      3.481  0.0000E+00  0.4480E+03
      3.594  0.0000E+00  0.4480E+03
      3.707  0.0000E+00  0.4480E+03
      3.820  0.0000E+00  0.4480E+03
      3.933  0.0000E+00  0.4480E+03
      4.046  0.0000E+00  0.4480E+03
      4.159  0.0000E+00  0.4480E+03
      4.272  0.1810E-05  0.4480E+03
      4.386  0.2209E+01  0.4482E+03
      4.499  0.1501E-02  0.4482E+03
      4.612  0.0000E+00  0.4482E+03
      4.725  0.0000E+00  0.4482E+03
      4.838  0.0000E+00  0.4482E+03
      4.951  0.5177E-05  0.4483E+03
      5.064  0.1324E+02  0.4497E+03
      5.177  0.2496E-01  0.4498E+03
      5.290  0.0000E+00  0.4498E+03
      5.403  0.0000E+00  0.4498E+03
      5.516  0.1757E+01  0.4499E+03
      5.630  0.2477E+02  0.4527E+03
      5.743  0.3847E-06  0.4528E+03
      5.856  0.1667E+02  0.4546E+03
      5.969  0.1019E+01  0.4548E+03
      6.082  0.0000E+00  0.4548E+03
      6.195  0.0000E+00  0.4548E+03
      6.308  0.1395E-02  0.4548E+03
      6.421  0.1367E+02  0.4563E+03
      6.534  0.8429E+01  0.4572E+03
      6.647  0.3775E+02  0.4615E+03
      6.761  0.6817E+02  0.4692E+03
      6.874  0.5880E+02  0.4759E+03
      6.987  0.1244E+02  0.4773E+03
      7.100  0.1889E+01  0.4775E+03
      7.213  0.4434E+01  0.4780E+03
      7.326  0.2360E+01  0.4783E+03
      7.439  0.8119E+02  0.4875E+03
      7.552  0.1661E+03  0.5062E+03
      7.665  0.4564E+01  0.5068E+03
      7.778  0.2652E+02  0.5097E+03
      7.891  0.1153E+00  0.5098E+03
      8.005  0.5294E+02  0.5157E+03
      8.118  0.6404E-02  0.5158E+03
      8.231  0.1402E+02  0.5173E+03
      8.344  0.9205E+02  0.5277E+03
      8.457  0.2378E-01  0.5278E+03
      8.570  0.1437E+03  0.5440E+03
      8.683  0.1549E+02  0.5458E+03
      8.796  0.1463E-05  0.5458E+03
      8.909  0.7864E+02  0.5546E+03
      9.022  0.1252E+03  0.5688E+03
      9.136  0.6150E+01  0.5695E+03
      9.249  0.1976E+02  0.5717E+03
      9.362  0.2280E+02  0.5743E+03
      9.475  0.2608E+01  0.5746E+03
      9.588  0.1231E+02  0.5760E+03
      9.701  0.0000E+00  0.5760E+03
      9.814  0.0000E+00  0.5760E+03
      9.927  0.0000E+00  0.5760E+03
     10.040  0.0000E+00  0.5760E+03
     10.153  0.0000E+00  0.5760E+03
     10.266  0.0000E+00  0.5760E+03
     10.380  0.0000E+00  0.5760E+03
     10.493  0.0000E+00  0.5760E+03
     10.606  0.0000E+00  0.5760E+03
     10.719  0.0000E+00  0.5760E+03
     10.832  0.0000E+00  0.5760E+03
     10.945  0.0000E+00  0.5760E+03
     11.058  0.0000E+00  0.5760E+03
