       N       E                     dE             d eps       ncg     rms          rms(c)
DAV:   1     0.438685105321E+04    0.43869E+04   -0.17132E+05  3648   0.125E+03
DAV:   2     0.364333085262E+03   -0.40225E+04   -0.38239E+04  3872   0.366E+02
DAV:   3    -0.205084226871E+03   -0.56942E+03   -0.56499E+03  4160   0.155E+02
DAV:   4    -0.228136560397E+03   -0.23052E+02   -0.22937E+02  4160   0.334E+01
DAV:   5    -0.229003599176E+03   -0.86704E+00   -0.86554E+00  4384   0.631E+00    0.106E+01
DAV:   6    -0.224138016681E+03    0.48656E+01   -0.94770E+00  4256   0.532E+00    0.775E+00
DAV:   7    -0.223777235934E+03    0.36078E+00   -0.20733E+00  4736   0.235E+00    0.534E+00
DAV:   8    -0.223902658605E+03   -0.12542E+00   -0.26903E-01  4128   0.125E+00    0.145E+00
DAV:   9    -0.223896894840E+03    0.57638E-02   -0.11143E-02  4288   0.258E-01    0.633E-01
DAV:  10    -0.223901029576E+03   -0.41347E-02   -0.18925E-02  4096   0.233E-01    0.289E-01
DAV:  11    -0.223900292984E+03    0.73659E-03   -0.16708E-03  4384   0.853E-02    0.926E-02
DAV:  12    -0.223900258067E+03    0.34917E-04   -0.12485E-04  4576   0.228E-02    0.288E-02
DAV:  13    -0.223900248203E+03    0.98637E-05   -0.39189E-05  4128   0.104E-02    0.396E-03
DAV:  14    -0.223900250315E+03   -0.21123E-05   -0.35934E-06  4160   0.426E-03    0.774E-03
DAV:  15    -0.223900251347E+03   -0.10320E-05   -0.40583E-07  4288   0.188E-03    0.398E-03
DAV:  16    -0.223900251785E+03   -0.43766E-06   -0.14363E-07  4320   0.958E-04    0.155E-03
DAV:  17    -0.223900251836E+03   -0.50495E-07   -0.93159E-09  2784   0.527E-04    0.920E-04
DAV:  18    -0.223900252101E+03   -0.26514E-06   -0.45470E-08  3584   0.849E-04    0.642E-04
DAV:  19    -0.223900252104E+03   -0.36307E-08   -0.96659E-09  2496   0.296E-04
   1 F= -.22390025E+03 E0= -.22390025E+03  d E =-.172023E-13
