 vasp.6.3.2 27Jun22 (build Oct 14 2022 12:13:54) complex                        
  
 executed on             LinuxIFC date 2025.08.28  22:10:59
 running on   32 total cores
 distrk:  each k-point on   32 cores,    1 groups
 distr:  one band on NCORE=   1 cores,   32 groups


--------------------------------------------------------------------------------------------------------


 INCAR:
   ENCUT = 341.213600
   SIGMA = 0.020000
   EDIFF = 1.00e-08
   GGA = PS
   PREC = Accurate
   IALGO = 38
   IBRION = -1
   ISMEAR = 0
   NELMIN = 5
   ADDGRID = .TRUE.
   LCHARG = .FALSE.
   LWAVE = .FALSE.
   LREAL = .FALSE.

 POTCAR:    PAW_PBE Na_pv 19Sep2006               
 POTCAR:    PAW_PBE Cl 06Sep2000                  
 -----------------------------------------------------------------------------
|                                                                             |
|           W    W    AA    RRRRR   N    N  II  N    N   GGGG   !!!           |
|           W    W   A  A   R    R  NN   N  II  NN   N  G    G  !!!           |
|           W    W  A    A  R    R  N N  N  II  N N  N  G       !!!           |
|           W WW W  AAAAAA  RRRRR   N  N N  II  N  N N  G  GGG   !            |
|           WW  WW  A    A  R   R   N   NN  II  N   NN  G    G                |
|           W    W  A    A  R    R  N    N  II  N    N   GGGG   !!!           |
|                                                                             |
|     For optimal performance we recommend to set                             |
|       NCORE = 2 up to number-of-cores-per-socket                            |
|     NCORE specifies how many cores store one orbital (NPAR=cpu/NCORE).      |
|     This setting can greatly improve the performance of VASP for DFT.       |
|     The default, NCORE=1 might be grossly inefficient on modern             |
|     multi-core architectures or massively parallel machines. Do your        |
|     own testing! More info at https://www.vasp.at/wiki/index.php/NCORE      |
|     Unfortunately you need to use the default for GW and RPA                |
|     calculations (for HF NCORE is supported but not extensively tested      |
|     yet).                                                                   |
|                                                                             |
 -----------------------------------------------------------------------------

 POTCAR:    PAW_PBE Na_pv 19Sep2006               
   SHA256 =  6a2f546d9e11350984debacf3dc457d8cffc0868e817d445faca461816a32b94 Na_pv/POTCAR          
   COPYR  = (c) Copyright 19Sep2006 Georg Kresse                                                    
   COPYR  = This file is part of the software VASP. Any use, copying, and all other rights are regul
   COPYR  = If you do not have a valid VASP license, you may not use, copy or distribute this file. 
   VRHFIN =Na: p6s1                                                                                 
   LEXCH  = PE                                                                                      
   EATOM  =   766.0439 eV,   56.3026 Ry                                                             
                                                                                                    
   TITEL  = PAW_PBE Na_pv 19Sep2006                                                                 
   LULTRA =        F    use ultrasoft PP ?                                                          
   IUNSCR =        1    unscreen: 0-lin 1-nonlin 2-no                                               
   RPACOR =    1.800    partial core radius                                                         
   POMASS =   22.990; ZVAL   =    7.000    mass and valenz                                          
   RCORE  =    2.200    outmost cutoff radius                                                       
   RWIGS  =    2.200; RWIGS  =    1.164    wigner-seitz radius (au A)                               
   ENMAX  =  259.561; ENMIN  =  194.671 eV                                                          
   ICORE  =        2    local potential                                                             
   LCOR   =        T    correct aug charges                                                         
   LPAW   =        T    paw PP                                                                      
   EAUG   =  368.056                                                                                
   DEXC   =    0.000                                                                                
   RMAX   =    2.245    core radius for proj-oper                                                   
   RAUG   =    1.300    factor for augmentation sphere                                              
   RDEP   =    2.259    radius for radial grids                                                     
   RDEPT  =    1.738    core radius for aug-charge                                                  
                                                                                                    
   Atomic configuration                                                                             
    5 entries                                                                                       
     n  l   j            E        occ.                                                              
     1  0  0.50     -1033.6933   2.0000                                                             
     2  0  0.50       -56.7526   2.0000                                                             
     2  1  1.50       -28.6721   6.0000                                                             
     3  0  0.50        -2.7440   1.0000                                                             
     3  2  1.50        -1.3606   0.0000                                                             
   Description                                                                                      
     l       E           TYP  RCUT    TYP  RCUT                                                     
     1    -28.6720912     23  2.000                                                                 
     1      6.8029130     23  2.000                                                                 
     0     -2.7439560     23  2.200                                                                 
     0     34.0145650     23  2.200                                                                 
     2     -1.3605826     23  2.200                                                                 
  local pseudopotential read in
  partial core-charges read in
  partial kinetic energy density read in
  atomic valenz-charges read in
  non local Contribution for L=           1  read in
    real space projection operators read in
  non local Contribution for L=           1  read in
    real space projection operators read in
  non local Contribution for L=           0  read in
    real space projection operators read in
  non local Contribution for L=           0  read in
    real space projection operators read in
    PAW grid and wavefunctions read in
 
   number of l-projection  operators is LMAX  =           4
   number of lm-projection operators is LMMAX =           8
 
 POTCAR:    PAW_PBE Cl 06Sep2000                  
   SHA256 =  9f1b6e6ed4247ac726a768b330d26d7667cc3c95a39ff49c1d064c2d9dcce931 Cl/POTCAR             
   COPYR  = (c) Copyright 06Sep2000 Georg Kresse                                                    
   COPYR  = This file is part of the software VASP. Any use, copying, and all other rights are regul
   COPYR  = If you do not have a valid VASP license, you may not use, copy or distribute this file. 
   VRHFIN =Cl: s2p5                                                                                 
   LEXCH  = PE                                                                                      
   EATOM  =   409.7259 eV,   30.1140 Ry                                                             
                                                                                                    
   TITEL  = PAW_PBE Cl 06Sep2000                                                                    
   LULTRA =        F    use ultrasoft PP ?                                                          
   IUNSCR =        1    unscreen: 0-lin 1-nonlin 2-no                                               
   RPACOR =    1.500    partial core radius                                                         
   POMASS =   35.453; ZVAL   =    7.000    mass and valenz                                          
   RCORE  =    1.900    outmost cutoff radius                                                       
   RWIGS  =    2.100; RWIGS  =    1.111    wigner-seitz radius (au A)                               
   ENMAX  =  262.472; ENMIN  =  196.854 eV                                                          
   ICORE  =        2    local potential                                                             
   LCOR   =        T    correct aug charges                                                         
   LPAW   =        T    paw PP                                                                      
   EAUG   =  356.192                                                                                
   DEXC   =    0.000                                                                                
   RMAX   =    1.945    core radius for proj-oper                                                   
   RAUG   =    1.300    factor for augmentation sphere                                              
   RDEP   =    2.020    radius for radial grids                                                     
   RDEPT  =    1.678    core radius for aug-charge                                                  
                                                                                                    
   Atomic configuration                                                                             
    6 entries                                                                                       
     n  l   j            E        occ.                                                              
     1  0  0.50     -2751.1850   2.0000                                                             
     2  0  0.50      -252.6861   2.0000                                                             
     2  1  1.50      -191.6157   6.0000                                                             
     3  0  0.50       -20.6916   2.0000                                                             
     3  1  0.50        -8.5949   5.0000                                                             
     3  2  1.50        -8.1635   0.0000                                                             
   Description                                                                                      
     l       E           TYP  RCUT    TYP  RCUT                                                     
     0    -20.6915656     23  1.900                                                                 
     0    -22.0521482     23  1.900                                                                 
     1     -8.5948577     23  1.900                                                                 
     1     -5.3847331     23  1.900                                                                 
     2     -8.1634956     23  1.900                                                                 
  local pseudopotential read in
  partial core-charges read in
  partial kinetic energy density read in
  atomic valenz-charges read in
  non local Contribution for L=           0  read in
    real space projection operators read in
  non local Contribution for L=           0  read in
    real space projection operators read in
  non local Contribution for L=           1  read in
    real space projection operators read in
  non local Contribution for L=           1  read in
    real space projection operators read in
    PAW grid and wavefunctions read in
 
   number of l-projection  operators is LMAX  =           4
   number of lm-projection operators is LMMAX =           8
 
 -----------------------------------------------------------------------------
|                                                                             |
|               ----> ADVICE to this user running VASP <----                  |
|                                                                             |
|     You have a (more or less) 'large supercell' and for larger cells it     |
|     might be more efficient to use real-space projection operators.         |
|     Therefore, try LREAL= Auto in the INCAR file.                           |
|     Mind: For very accurate calculation, you might also keep the            |
|     reciprocal projection scheme (i.e. LREAL=.FALSE.).                      |
|                                                                             |
 -----------------------------------------------------------------------------

 -----------------------------------------------------------------------------
|                                                                             |
|               ----> ADVICE to this user running VASP <----                  |
|                                                                             |
|     You enforced a specific xc type in the INCAR file but a different       |
|     type was found in the POTCAR file.                                      |
|     I HOPE YOU KNOW WHAT YOU ARE DOING!                                     |
|                                                                             |
 -----------------------------------------------------------------------------

  PAW_PBE Na_pv 19Sep2006               :
 energy of atom  1       EATOM= -766.0439
 kinetic energy error for atom=    0.0189 (will be added to EATOM!!)
  PAW_PBE Cl 06Sep2000                  :
 energy of atom  2       EATOM= -409.7259
 kinetic energy error for atom=    0.0106 (will be added to EATOM!!)
 
 
 POSCAR: Na Cl
  positions in cartesian coordinates
  No initial velocities read in
 exchange correlation table for  LEXCH =       14
   RHO(1)=    0.500       N(1)  =     2000
   RHO(2)=  100.500       N(2)  =     4000
 


--------------------------------------------------------------------------------------------------------


 ion  position               nearest neighbor table
   1  0.000  0.000  0.000-
   2  0.250  0.250  0.000-
   3  0.250  0.000  0.250-
   4  0.000  0.250  0.250-
   5  0.000  0.000  0.500-
   6  0.250  0.250  0.500-
   7  0.250  0.000  0.750-
   8  0.000  0.250  0.750-
   9  0.000  0.500  0.000-
  10  0.250  0.750  0.000-
  11  0.250  0.500  0.250-
  12  0.000  0.750  0.250-
  13  0.000  0.500  0.500-
  14  0.250  0.750  0.500-
  15  0.250  0.500  0.750-
  16  0.000  0.750  0.750-
  17  0.500  0.000  0.000-
  18  0.750  0.250  0.000-
  19  0.750  0.000  0.250-
  20  0.500  0.250  0.250-
  21  0.500  0.000  0.500-
  22  0.750  0.250  0.500-
  23  0.750  0.000  0.750-
  24  0.500  0.250  0.750-
  25  0.500  0.500  0.000-
  26  0.750  0.750  0.000-
  27  0.750  0.500  0.250-
  28  0.500  0.750  0.250-
  29  0.500  0.500  0.500-
  30  0.750  0.750  0.500-
  31  0.750  0.500  0.750-
  32  0.500  0.750  0.750-
  33  0.253  0.250  0.250-
  34  0.000  0.997  0.250-
  35  0.000  0.250  0.000-
  36  0.250  0.000  0.000-
  37  0.250  0.250  0.750-
  38  0.000  0.000  0.750-
  39  0.000  0.250  0.500-
  40  0.250  0.000  0.500-
  41  0.250  0.750  0.250-
  42  0.000  0.500  0.250-
  43  0.000  0.750  0.000-
  44  0.250  0.500  0.000-
  45  0.250  0.750  0.750-
  46  0.000  0.500  0.750-
  47  0.000  0.750  0.500-
  48  0.250  0.500  0.500-
  49  0.750  0.250  0.250-
  50  0.500  0.000  0.250-
  51  0.500  0.250  0.000-
  52  0.750  0.000  0.000-
  53  0.750  0.250  0.750-
  54  0.500  0.000  0.750-
  55  0.500  0.250  0.500-
  56  0.750  0.000  0.500-
  57  0.750  0.750  0.250-
  58  0.500  0.500  0.250-
  59  0.500  0.750  0.000-
  60  0.750  0.500  0.000-
  61  0.750  0.750  0.750-
  62  0.500  0.500  0.750-
  63  0.500  0.750  0.500-
  64  0.750  0.500  0.500-
 
  LATTYP: Found a simple cubic cell.
 ALAT       =    11.2040023600
  
  Lattice vectors:
  
 A1 = (  11.2040023600,   0.0000000000,   0.0000000000)
 A2 = (   0.0000000000,  11.2040023600,   0.0000000000)
 A3 = (   0.0000000000,   0.0000000000,  11.2040023600)


Analysis of symmetry for initial positions (statically):
=====================================================================
 Subroutine PRICEL returns:
 Original cell was already a primitive cell.
 

 Routine SETGRP: Setting up the symmetry group for a 
 simple cubic supercell.


 Subroutine GETGRP returns: Found  4 space group operations
 (whereof  1 operations were pure point group operations)
 out of a pool of 48 trial point group operations.


The static configuration has the point symmetry C_1 .
 The point group associated with its full space group is C_2v.


Analysis of symmetry for dynamics (positions and initial velocities):
=====================================================================
 Subroutine PRICEL returns:
 Original cell was already a primitive cell.
 

 Routine SETGRP: Setting up the symmetry group for a 
 simple cubic supercell.


 Subroutine GETGRP returns: Found  4 space group operations
 (whereof  1 operations were pure point group operations)
 out of a pool of 48 trial point group operations.


The dynamic configuration has the point symmetry C_1 .
 The point group associated with its full space group is C_2v.


 Subroutine INISYM returns: Found  4 space group operations
 (whereof  1 operations are pure point group operations),
 and found     1 'primitive' translations


----------------------------------------------------------------------------------------

                                     Primitive cell                                     

  volume of cell :    1406.4347

  direct lattice vectors                    reciprocal lattice vectors
    11.204002360  0.000000000  0.000000000     0.089253819  0.000000000  0.000000000
     0.000000000 11.204002360  0.000000000     0.000000000  0.089253819  0.000000000
     0.000000000  0.000000000 11.204002360     0.000000000  0.000000000  0.089253819

  length of vectors
    11.204002360 11.204002360 11.204002360     0.089253819  0.089253819  0.089253819

  position of ions in fractional coordinates (direct lattice)
     0.000000000  0.000000000  0.000000000
     0.250000000  0.250000000  0.000000000
     0.250000000  0.000000000  0.250000000
     0.000000000  0.250000000  0.250000000
     0.000000000  0.000000000  0.500000000
     0.250000000  0.250000000  0.500000000
     0.250000000  0.000000000  0.750000000
     0.000000000  0.250000000  0.750000000
     0.000000000  0.500000000  0.000000000
     0.250000000  0.750000000  0.000000000
     0.250000000  0.500000000  0.250000000
     0.000000000  0.750000000  0.250000000
     0.000000000  0.500000000  0.500000000
     0.250000000  0.750000000  0.500000000
     0.250000000  0.500000000  0.750000000
     0.000000000  0.750000000  0.750000000
     0.500000000  0.000000000  0.000000000
     0.750000000  0.250000000  0.000000000
     0.750000000  0.000000000  0.250000000
     0.500000000  0.250000000  0.250000000
     0.500000000  0.000000000  0.500000000
     0.750000000  0.250000000  0.500000000
     0.750000000  0.000000000  0.750000000
     0.500000000  0.250000000  0.750000000
     0.500000000  0.500000000  0.000000000
     0.750000000  0.750000000  0.000000000
     0.750000000  0.500000000  0.250000000
     0.500000000  0.750000000  0.250000000
     0.500000000  0.500000000  0.500000000
     0.750000000  0.750000000  0.500000000
     0.750000000  0.500000000  0.750000000
     0.500000000  0.750000000  0.750000000
     0.252677615  0.250000000  0.250000000
     0.000000000  0.997322385  0.250000000
     0.000000000  0.250000000  0.000000000
     0.250000000  0.000000000  0.000000000
     0.250000000  0.250000000  0.750000000
     0.000000000  0.000000000  0.750000000
     0.000000000  0.250000000  0.500000000
     0.250000000  0.000000000  0.500000000
     0.250000000  0.750000000  0.250000000
     0.000000000  0.500000000  0.250000000
     0.000000000  0.750000000  0.000000000
     0.250000000  0.500000000  0.000000000
     0.250000000  0.750000000  0.750000000
     0.000000000  0.500000000  0.750000000
     0.000000000  0.750000000  0.500000000
     0.250000000  0.500000000  0.500000000
     0.750000000  0.250000000  0.250000000
     0.500000000  0.000000000  0.250000000
     0.500000000  0.250000000  0.000000000
     0.750000000  0.000000000  0.000000000
     0.750000000  0.250000000  0.750000000
     0.500000000  0.000000000  0.750000000
     0.500000000  0.250000000  0.500000000
     0.750000000  0.000000000  0.500000000
     0.750000000  0.750000000  0.250000000
     0.500000000  0.500000000  0.250000000
     0.500000000  0.750000000  0.000000000
     0.750000000  0.500000000  0.000000000
     0.750000000  0.750000000  0.750000000
     0.500000000  0.500000000  0.750000000
     0.500000000  0.750000000  0.500000000
     0.750000000  0.500000000  0.500000000

  ion indices of the primitive-cell ions
   primitive index   ion index
                 1           1
                 2           2
                 3           3
                 4           4
                 5           5
                 6           6
                 7           7
                 8           8
                 9           9
                10          10
                11          11
                12          12
                13          13
                14          14
                15          15
                16          16
                17          17
                18          18
                19          19
                20          20
                21          21
                22          22
                23          23
                24          24
                25          25
                26          26
                27          27
                28          28
                29          29
                30          30
                31          31
                32          32
                33          33
                34          34
                35          35
                36          36
                37          37
                38          38
                39          39
                40          40
                41          41
                42          42
                43          43
                44          44
                45          45
                46          46
                47          47
                48          48
                49          49
                50          50
                51          51
                52          52
                53          53
                54          54
                55          55
                56          56
                57          57
                58          58
                59          59
                60          60
                61          61
                62          62
                63          63
                64          64

----------------------------------------------------------------------------------------

 
 
 KPOINTS: KPOINTS created by Atomic Simulation Env

Automatic generation of k-mesh.
 Grid dimensions read from file:
 generate k-points for:    2    2    2

 Generating k-lattice:

  Cartesian coordinates                     Fractional coordinates (reciprocal lattice)
     0.044626910  0.000000000  0.000000000     0.500000000  0.000000000  0.000000000
     0.000000000  0.044626910  0.000000000     0.000000000  0.500000000  0.000000000
     0.000000000  0.000000000  0.044626910     0.000000000  0.000000000  0.500000000

  Length of vectors
     0.044626910  0.044626910  0.044626910

  Shift w.r.t. Gamma in fractional coordinates (k-lattice)
     0.000000000  0.000000000  0.000000000

 
 Subroutine IBZKPT returns following result:
 ===========================================
 
 Found      6 irreducible k-points:
 
 Following reciprocal coordinates:
            Coordinates               Weight
  0.000000  0.000000  0.000000      1.000000
  0.500000  0.000000  0.000000      2.000000
  0.000000  0.000000  0.500000      1.000000
  0.500000  0.500000  0.000000      1.000000
  0.000000  0.500000  0.500000      2.000000
  0.500000  0.500000  0.500000      1.000000
 
 Following cartesian coordinates:
            Coordinates               Weight
  0.000000  0.000000  0.000000      1.000000
  0.044627  0.000000  0.000000      2.000000
  0.000000  0.000000  0.044627      1.000000
  0.044627  0.044627  0.000000      1.000000
  0.000000  0.044627  0.044627      2.000000
  0.044627  0.044627  0.044627      1.000000
 


--------------------------------------------------------------------------------------------------------




 Dimension of arrays:
   k-points           NKPTS =      6   k-points in BZ     NKDIM =      6   number of bands    NBANDS=    288
   number of dos      NEDOS =    301   number of ions     NIONS =     64
   non local maximal  LDIM  =      4   non local SUM 2l+1 LMDIM =      8
   total plane-waves  NPLWV = 343000
   max r-space proj   IRMAX =      1   max aug-charges    IRDMAX=  56280
   dimension x,y,z NGX =    70 NGY =   70 NGZ =   70
   dimension x,y,z NGXF=   140 NGYF=  140 NGZF=  140
   support grid    NGXF=   280 NGYF=  280 NGZF=  280
   ions per type =              32  32
   NGX,Y,Z   is equivalent  to a cutoff of  10.39, 10.39, 10.39 a.u.
   NGXF,Y,Z  is equivalent  to a cutoff of  20.77, 20.77, 20.77 a.u.

 SYSTEM =  unknown system                          
 POSCAR =  Na Cl                                   

 Startparameter for this run:
   NWRITE =      2    write-flag & timer
   PREC   = accura    normal or accurate (medium, high low for compatibility)
   ISTART =      0    job   : 0-new  1-cont  2-samecut
   ICHARG =      2    charge: 1-file 2-atom 10-const
   ISPIN  =      1    spin polarized calculation?
   LNONCOLLINEAR =      F non collinear calculations
   LSORBIT =      F    spin-orbit coupling
   INIWAV =      1    electr: 0-lowe 1-rand  2-diag
   LASPH  =      F    aspherical Exc in radial PAW
 Electronic Relaxation 1
   ENCUT  =  341.2 eV  25.08 Ry    5.01 a.u.  16.87 16.87 16.87*2*pi/ulx,y,z
   ENINI  =  341.2     initial cutoff
   ENAUG  =  368.1 eV  augmentation charge cutoff
   NELM   =     60;   NELMIN=  5; NELMDL= -5     # of ELM steps 
   EDIFF  = 0.1E-07   stopping-criterion for ELM
   LREAL  =      F    real-space projection
   NLSPLINE    = F    spline interpolate recip. space projectors
   LCOMPAT=      F    compatible to vasp.4.4
   GGA_COMPAT  = T    GGA compatible to vasp.4.4-vasp.4.6
   LMAXPAW     = -100 max onsite density
   LMAXMIX     =    2 max onsite mixed and CHGCAR
   VOSKOWN=      0    Vosko Wilk Nusair interpolation
   ROPT   =    0.00000   0.00000
 Ionic relaxation
   EDIFFG = 0.1E-06   stopping-criterion for IOM
   NSW    =      0    number of steps for IOM
   NBLOCK =      1;   KBLOCK =      1    inner block; outer block 
   IBRION =     -1    ionic relax: 0-MD 1-quasi-New 2-CG
   NFREE  =      0    steps in history (QN), initial steepest desc. (CG)
   ISIF   =      2    stress and relaxation
   IWAVPR =     10    prediction:  0-non 1-charg 2-wave 3-comb
   ISYM   =      2    0-nonsym 1-usesym 2-fastsym
   LCORR  =      T    Harris-Foulkes like correction to forces

   POTIM  = 0.5000    time-step for ionic-motion
   TEIN   =    0.0    initial temperature
   TEBEG  =    0.0;   TEEND  =   0.0 temperature during run
   SMASS  =  -3.00    Nose mass-parameter (am)
   estimated Nose-frequenzy (Omega)   =  0.10E-29 period in steps = 0.13E+47 mass=  -0.287E-26a.u.
   SCALEE = 1.0000    scale energy and forces
   NPACO  =    256;   APACO  = 10.0  distance and # of slots for P.C.
   PSTRESS=    0.0 pullay stress

  Mass of Ions in am
   POMASS =  22.99 35.45
  Ionic Valenz
   ZVAL   =   7.00  7.00
  Atomic Wigner-Seitz radii
   RWIGS  =  -1.00 -1.00
  virtual crystal weights 
   VCA    =   1.00  1.00
   NELECT =     448.0000    total number of electrons
   NUPDOWN=      -1.0000    fix difference up-down

 DOS related values:
   EMIN   =  10.00;   EMAX   =-10.00  energy-range for DOS
   EFERMI =   0.00
   ISMEAR =     0;   SIGMA  =   0.02  broadening in eV -4-tet -1-fermi 0-gaus

 Electronic relaxation 2 (details)
   IALGO  =     38    algorithm
   LDIAG  =      T    sub-space diagonalisation (order eigenvalues)
   LSUBROT=      F    optimize rotation matrix (better conditioning)
   TURBO    =      0    0=normal 1=particle mesh
   IRESTART =      0    0=no restart 2=restart with 2 vectors
   NREBOOT  =      0    no. of reboots
   NMIN     =      0    reboot dimension
   EREF     =   0.00    reference energy to select bands
   IMIX   =      4    mixing-type and parameters
     AMIX     =   0.40;   BMIX     =  1.00
     AMIX_MAG =   1.60;   BMIX_MAG =  1.00
     AMIN     =   0.10
     WC   =   100.;   INIMIX=   1;  MIXPRE=   1;  MAXMIX= -45

 Intra band minimization:
   WEIMIN = 0.0000     energy-eigenvalue tresh-hold
   EBREAK =  0.87E-11  absolut break condition
   DEPER  =   0.30     relativ break condition  

   TIME   =   0.40     timestep for ELM

  volume/ion in A,a.u.               =      21.98       148.30
  Fermi-wavevector in a.u.,A,eV,Ry     =   1.118049  2.112807 17.007750  1.250034
  Thomas-Fermi vector in A             =   2.254677
 
 Write flags
   LWAVE        =      F    write WAVECAR
   LDOWNSAMPLE  =      F    k-point downsampling of WAVECAR
   LCHARG       =      F    write CHGCAR
   LVTOT        =      F    write LOCPOT, total local potential
   LVHAR        =      F    write LOCPOT, Hartree potential only
   LELF         =      F    write electronic localiz. function (ELF)
   LORBIT       =      0    0 simple, 1 ext, 2 COOP (PROOUT), +10 PAW based schemes


 Dipole corrections
   LMONO  =      F    monopole corrections only (constant potential shift)
   LDIPOL =      F    correct potential (dipole corrections)
   IDIPOL =      0    1-x, 2-y, 3-z, 4-all directions 
   EPSILON=  1.0000000 bulk dielectric constant

 Exchange correlation treatment:
   GGA     =    PS    GGA type
   LEXCH   =    14    internal setting for exchange type
   LIBXC   =     F    Libxc                    
   VOSKOWN =     0    Vosko Wilk Nusair interpolation
   LHFCALC =     F    Hartree Fock is set to
   LHFONE  =     F    Hartree Fock one center treatment
   AEXX    =    0.0000 exact exchange contribution

 Linear response parameters
   LEPSILON=     F    determine dielectric tensor
   LRPA    =     F    only Hartree local field effects (RPA)
   LNABLA  =     F    use nabla operator in PAW spheres
   LVEL    =     F    velocity operator in full k-point grid
   CSHIFT  =0.1000    complex shift for real part using Kramers Kronig
   OMEGAMAX=  -1.0    maximum frequency
   DEG_THRESHOLD= 0.2000000E-02 threshold for treating states as degnerate
   RTIME   =   -0.100 relaxation time in fs
  (WPLASMAI=    0.000 imaginary part of plasma frequency in eV, 0.658/RTIME)
   DFIELD  = 0.0000000 0.0000000 0.0000000 field for delta impulse in time
 
  Optional k-point grid parameters
   LKPOINTS_OPT  =     F    use optional k-point grid
   KPOINTS_OPT_MODE=     1    mode for optional k-point grid
 
 Orbital magnetization related:
   ORBITALMAG=     F  switch on orbital magnetization
   LCHIMAG   =     F  perturbation theory with respect to B field
   DQ        =  0.001000  dq finite difference perturbation B field
   LLRAUG    =     F  two centre corrections for induced B field



--------------------------------------------------------------------------------------------------------


 Static calculation
 charge density and potential will be updated during run
 non-spin polarized calculation
 Variant of blocked Davidson
 Davidson routine will perform the subspace rotation
 perform sub-space diagonalisation
    after iterative eigenvector-optimisation
 modified Broyden-mixing scheme, WC =      100.0
 initial mixing is a Kerker type mixing with AMIX =  0.4000 and BMIX =      1.0000
 Hartree-type preconditioning will be used
 using additional bands           64
 reciprocal scheme for non local part
 use partial core corrections
 calculate Harris-corrections to forces 
   (improved forces if not selfconsistent)
 use gradient corrections 
 use of overlap-Matrix (Vanderbilt PP)
 Gauss-broadening in eV      SIGMA  =   0.02


--------------------------------------------------------------------------------------------------------


  energy-cutoff  :      341.21
  volume of cell :     1406.43
      direct lattice vectors                 reciprocal lattice vectors
    11.204002360  0.000000000  0.000000000     0.089253819  0.000000000  0.000000000
     0.000000000 11.204002360  0.000000000     0.000000000  0.089253819  0.000000000
     0.000000000  0.000000000 11.204002360     0.000000000  0.000000000  0.089253819

  length of vectors
    11.204002360 11.204002360 11.204002360     0.089253819  0.089253819  0.089253819


 
 k-points in units of 2pi/SCALE and weight: KPOINTS created by Atomic Simulation Env
   0.00000000  0.00000000  0.00000000       0.125
   0.04462691  0.00000000  0.00000000       0.250
   0.00000000  0.00000000  0.04462691       0.125
   0.04462691  0.04462691  0.00000000       0.125
   0.00000000  0.04462691  0.04462691       0.250
   0.04462691  0.04462691  0.04462691       0.125
 
 k-points in reciprocal lattice and weights: KPOINTS created by Atomic Simulation Env
   0.00000000  0.00000000  0.00000000       0.125
   0.50000000  0.00000000  0.00000000       0.250
   0.00000000  0.00000000  0.50000000       0.125
   0.50000000  0.50000000  0.00000000       0.125
   0.00000000  0.50000000  0.50000000       0.250
   0.50000000  0.50000000  0.50000000       0.125
 
 position of ions in fractional coordinates (direct lattice) 
   0.00000000  0.00000000  0.00000000
   0.25000000  0.25000000  0.00000000
   0.25000000  0.00000000  0.25000000
   0.00000000  0.25000000  0.25000000
   0.00000000  0.00000000  0.50000000
   0.25000000  0.25000000  0.50000000
   0.25000000  0.00000000  0.75000000
   0.00000000  0.25000000  0.75000000
   0.00000000  0.50000000  0.00000000
   0.25000000  0.75000000  0.00000000
   0.25000000  0.50000000  0.25000000
   0.00000000  0.75000000  0.25000000
   0.00000000  0.50000000  0.50000000
   0.25000000  0.75000000  0.50000000
   0.25000000  0.50000000  0.75000000
   0.00000000  0.75000000  0.75000000
   0.50000000  0.00000000  0.00000000
   0.75000000  0.25000000  0.00000000
   0.75000000  0.00000000  0.25000000
   0.50000000  0.25000000  0.25000000
   0.50000000  0.00000000  0.50000000
   0.75000000  0.25000000  0.50000000
   0.75000000  0.00000000  0.75000000
   0.50000000  0.25000000  0.75000000
   0.50000000  0.50000000  0.00000000
   0.75000000  0.75000000  0.00000000
   0.75000000  0.50000000  0.25000000
   0.50000000  0.75000000  0.25000000
   0.50000000  0.50000000  0.50000000
   0.75000000  0.75000000  0.50000000
   0.75000000  0.50000000  0.75000000
   0.50000000  0.75000000  0.75000000
   0.25267761  0.25000000  0.25000000
   0.00000000  0.99732239  0.25000000
   0.00000000  0.25000000  0.00000000
   0.25000000  0.00000000  0.00000000
   0.25000000  0.25000000  0.75000000
   0.00000000  0.00000000  0.75000000
   0.00000000  0.25000000  0.50000000
   0.25000000  0.00000000  0.50000000
   0.25000000  0.75000000  0.25000000
   0.00000000  0.50000000  0.25000000
   0.00000000  0.75000000  0.00000000
   0.25000000  0.50000000  0.00000000
   0.25000000  0.75000000  0.75000000
   0.00000000  0.50000000  0.75000000
   0.00000000  0.75000000  0.50000000
   0.25000000  0.50000000  0.50000000
   0.75000000  0.25000000  0.25000000
   0.50000000  0.00000000  0.25000000
   0.50000000  0.25000000  0.00000000
   0.75000000  0.00000000  0.00000000
   0.75000000  0.25000000  0.75000000
   0.50000000  0.00000000  0.75000000
   0.50000000  0.25000000  0.50000000
   0.75000000  0.00000000  0.50000000
   0.75000000  0.75000000  0.25000000
   0.50000000  0.50000000  0.25000000
   0.50000000  0.75000000  0.00000000
   0.75000000  0.50000000  0.00000000
   0.75000000  0.75000000  0.75000000
   0.50000000  0.50000000  0.75000000
   0.50000000  0.75000000  0.50000000
   0.75000000  0.50000000  0.50000000
 
 position of ions in cartesian coordinates  (Angst):
   0.00000000  0.00000000  0.00000000
   2.80100059  2.80100059  0.00000000
   2.80100059  0.00000000  2.80100059
   0.00000000  2.80100059  2.80100059
   0.00000000  0.00000000  5.60200118
   2.80100059  2.80100059  5.60200118
   2.80100059  0.00000000  8.40300177
   0.00000000  2.80100059  8.40300177
   0.00000000  5.60200118  0.00000000
   2.80100059  8.40300177  0.00000000
   2.80100059  5.60200118  2.80100059
   0.00000000  8.40300177  2.80100059
   0.00000000  5.60200118  5.60200118
   2.80100059  8.40300177  5.60200118
   2.80100059  5.60200118  8.40300177
   0.00000000  8.40300177  8.40300177
   5.60200118  0.00000000  0.00000000
   8.40300177  2.80100059  0.00000000
   8.40300177  0.00000000  2.80100059
   5.60200118  2.80100059  2.80100059
   5.60200118  0.00000000  5.60200118
   8.40300177  2.80100059  5.60200118
   8.40300177  0.00000000  8.40300177
   5.60200118  2.80100059  8.40300177
   5.60200118  5.60200118  0.00000000
   8.40300177  8.40300177  0.00000000
   8.40300177  5.60200118  2.80100059
   5.60200118  8.40300177  2.80100059
   5.60200118  5.60200118  5.60200118
   8.40300177  8.40300177  5.60200118
   8.40300177  5.60200118  8.40300177
   5.60200118  8.40300177  8.40300177
   2.83100059  2.80100059  2.80100059
   0.00000000 11.17400236  2.80100059
   0.00000000  2.80100059  0.00000000
   2.80100059  0.00000000  0.00000000
   2.80100059  2.80100059  8.40300177
   0.00000000  0.00000000  8.40300177
   0.00000000  2.80100059  5.60200118
   2.80100059  0.00000000  5.60200118
   2.80100059  8.40300177  2.80100059
   0.00000000  5.60200118  2.80100059
   0.00000000  8.40300177  0.00000000
   2.80100059  5.60200118  0.00000000
   2.80100059  8.40300177  8.40300177
   0.00000000  5.60200118  8.40300177
   0.00000000  8.40300177  5.60200118
   2.80100059  5.60200118  5.60200118
   8.40300177  2.80100059  2.80100059
   5.60200118  0.00000000  2.80100059
   5.60200118  2.80100059  0.00000000
   8.40300177  0.00000000  0.00000000
   8.40300177  2.80100059  8.40300177
   5.60200118  0.00000000  8.40300177
   5.60200118  2.80100059  5.60200118
   8.40300177  0.00000000  5.60200118
   8.40300177  8.40300177  2.80100059
   5.60200118  5.60200118  2.80100059
   5.60200118  8.40300177  0.00000000
   8.40300177  5.60200118  0.00000000
   8.40300177  8.40300177  8.40300177
   5.60200118  5.60200118  8.40300177
   5.60200118  8.40300177  5.60200118
   8.40300177  5.60200118  5.60200118
 


--------------------------------------------------------------------------------------------------------


 k-point   1 :   0.0000 0.0000 0.0000  plane waves:   20005
 k-point   2 :   0.5000 0.0000 0.0000  plane waves:   20138
 k-point   3 :   0.0000 0.0000 0.5000  plane waves:   20138
 k-point   4 :   0.5000 0.5000 0.0000  plane waves:   20160
 k-point   5 :   0.0000 0.5000 0.5000  plane waves:   20160
 k-point   6 :   0.5000 0.5000 0.5000  plane waves:   20336

 maximum and minimum number of plane-waves per node :     20336    20005

 maximum number of plane-waves:     20336
 maximum index in each direction: 
   IXMAX=   16   IYMAX=   16   IZMAX=   16
   IXMIN=  -17   IYMIN=  -17   IZMIN=  -17


 serial   3D FFT for wavefunctions
 parallel 3D FFT for charge:
    minimum data exchange during FFTs selected (reduces bandwidth)


 total amount of memory used by VASP MPI-rank0   118439. kBytes
=======================================================================

   base      :      30000. kBytes
   nonl-proj :      36470. kBytes
   fftplans  :      14405. kBytes
   grid      :      19342. kBytes
   one-center:        196. kBytes
   wavefun   :      18026. kBytes
 
     INWAV:  cpu time      0.0000: real time      0.0000
 Broyden mixing: mesh for mixing (old mesh)
   NGX = 33   NGY = 33   NGZ = 33
  (NGX  =140   NGY  =140   NGZ  =140)
  gives a total of  35937 points

 initial charge density was supplied:
 charge density of overlapping atoms calculated
 number of electron     448.0000000 magnetization 
 keeping initial charge density in first step


--------------------------------------------------------------------------------------------------------


 Maximum index for augmentation-charges         1834 (set IRDMAX)


--------------------------------------------------------------------------------------------------------


 First call to EWALD:  gamma=   0.158
 Maximum number of real-space cells 3x 3x 3
 Maximum number of reciprocal cells 3x 3x 3

    FEWALD:  cpu time      0.0015: real time      0.0015


--------------------------------------- Iteration      1(   1)  ---------------------------------------


    POTLOK:  cpu time      0.0422: real time      0.0428
    SETDIJ:  cpu time      0.0321: real time      0.0322
     EDDAV:  cpu time      7.7941: real time      7.8365
       DOS:  cpu time      0.0011: real time      0.0011
    --------------------------------------------
      LOOP:  cpu time      7.8695: real time      7.9126

 eigenvalue-minimisations  :  3648
 total energy-change (2. order) : 0.4386851E+04  (-0.1713197E+05)
 number of electron     448.0000000 magnetization 
 augmentation part      448.0000000 magnetization 

 Free energy of the ion-electron system (eV)
  ---------------------------------------------------
  alpha Z        PSCENC =       751.52672365
  Ewald energy   TEWEN  =    -22871.32626174
  -Hartree energ DENC   =     -8992.26203105
  -exchange      EXHF   =         0.00000000
  -V(xc)+E(xc)   XCENC  =      1456.53431391
  PAW double counting   =     26466.43774078   -29286.08056155
  entropy T*S    EENTRO =        -0.00016025
  eigenvalues    EBANDS =      -670.15818047
  atomic energy  EATOM  =     37532.17946992
  Solvation  Ediel_sol  =         0.00000000
  ---------------------------------------------------
  free energy    TOTEN  =      4386.85105321 eV

  energy without entropy =     4386.85121346  energy(sigma->0) =     4386.85113333


--------------------------------------------------------------------------------------------------------




--------------------------------------- Iteration      1(   2)  ---------------------------------------


     EDDAV:  cpu time      8.2047: real time      8.2489
       DOS:  cpu time      0.0004: real time      0.0004
    --------------------------------------------
      LOOP:  cpu time      8.2051: real time      8.2494

 eigenvalue-minimisations  :  3872
 total energy-change (2. order) :-0.4022518E+04  (-0.3823930E+04)
 number of electron     448.0000000 magnetization 
 augmentation part      448.0000000 magnetization 

 Free energy of the ion-electron system (eV)
  ---------------------------------------------------
  alpha Z        PSCENC =       751.52672365
  Ewald energy   TEWEN  =    -22871.32626174
  -Hartree energ DENC   =     -8992.26203105
  -exchange      EXHF   =         0.00000000
  -V(xc)+E(xc)   XCENC  =      1456.53431391
  PAW double counting   =     26466.43774078   -29286.08056155
  entropy T*S    EENTRO =        -0.00000000
  eigenvalues    EBANDS =     -4692.67630867
  atomic energy  EATOM  =     37532.17946992
  Solvation  Ediel_sol  =         0.00000000
  ---------------------------------------------------
  free energy    TOTEN  =       364.33308526 eV

  energy without entropy =      364.33308526  energy(sigma->0) =      364.33308526


--------------------------------------------------------------------------------------------------------




--------------------------------------- Iteration      1(   3)  ---------------------------------------


     EDDAV:  cpu time      8.7096: real time      8.7622
       DOS:  cpu time      0.0006: real time      0.0006
    --------------------------------------------
      LOOP:  cpu time      8.7101: real time      8.7628

 eigenvalue-minimisations  :  4160
 total energy-change (2. order) :-0.5694173E+03  (-0.5649879E+03)
 number of electron     448.0000000 magnetization 
 augmentation part      448.0000000 magnetization 

 Free energy of the ion-electron system (eV)
  ---------------------------------------------------
  alpha Z        PSCENC =       751.52672365
  Ewald energy   TEWEN  =    -22871.32626174
  -Hartree energ DENC   =     -8992.26203105
  -exchange      EXHF   =         0.00000000
  -V(xc)+E(xc)   XCENC  =      1456.53431391
  PAW double counting   =     26466.43774078   -29286.08056155
  entropy T*S    EENTRO =        -0.00000000
  eigenvalues    EBANDS =     -5262.09362080
  atomic energy  EATOM  =     37532.17946992
  Solvation  Ediel_sol  =         0.00000000
  ---------------------------------------------------
  free energy    TOTEN  =      -205.08422687 eV

  energy without entropy =     -205.08422687  energy(sigma->0) =     -205.08422687


--------------------------------------------------------------------------------------------------------




--------------------------------------- Iteration      1(   4)  ---------------------------------------


     EDDAV:  cpu time      8.7021: real time      8.7513
       DOS:  cpu time      0.0006: real time      0.0006
    --------------------------------------------
      LOOP:  cpu time      8.7027: real time      8.7520

 eigenvalue-minimisations  :  4160
 total energy-change (2. order) :-0.2305233E+02  (-0.2293693E+02)
 number of electron     448.0000000 magnetization 
 augmentation part      448.0000000 magnetization 

 Free energy of the ion-electron system (eV)
  ---------------------------------------------------
  alpha Z        PSCENC =       751.52672365
  Ewald energy   TEWEN  =    -22871.32626174
  -Hartree energ DENC   =     -8992.26203105
  -exchange      EXHF   =         0.00000000
  -V(xc)+E(xc)   XCENC  =      1456.53431391
  PAW double counting   =     26466.43774078   -29286.08056155
  entropy T*S    EENTRO =        -0.00000000
  eigenvalues    EBANDS =     -5285.14595432
  atomic energy  EATOM  =     37532.17946992
  Solvation  Ediel_sol  =         0.00000000
  ---------------------------------------------------
  free energy    TOTEN  =      -228.13656040 eV

  energy without entropy =     -228.13656040  energy(sigma->0) =     -228.13656040


--------------------------------------------------------------------------------------------------------




--------------------------------------- Iteration      1(   5)  ---------------------------------------


     EDDAV:  cpu time      9.0799: real time      9.1333
       DOS:  cpu time      0.0004: real time      0.0004
    CHARGE:  cpu time      0.2720: real time      0.2734
    MIXING:  cpu time      0.0014: real time      0.0014
    --------------------------------------------
      LOOP:  cpu time      9.3538: real time      9.4085

 eigenvalue-minimisations  :  4384
 total energy-change (2. order) :-0.8670388E+00  (-0.8655446E+00)
 number of electron     448.0000022 magnetization 
 augmentation part      111.6433381 magnetization 

 Broyden mixing:
  rms(total) = 0.10606E+01    rms(broyden)= 0.10602E+01
  rms(prec ) = 0.14936E+01
  weight for this iteration     100.00

 Free energy of the ion-electron system (eV)
  ---------------------------------------------------
  alpha Z        PSCENC =       751.52672365
  Ewald energy   TEWEN  =    -22871.32626174
  -Hartree energ DENC   =     -8992.26203105
  -exchange      EXHF   =         0.00000000
  -V(xc)+E(xc)   XCENC  =      1456.53431391
  PAW double counting   =     26466.43774078   -29286.08056155
  entropy T*S    EENTRO =        -0.00000000
  eigenvalues    EBANDS =     -5286.01299310
  atomic energy  EATOM  =     37532.17946992
  Solvation  Ediel_sol  =         0.00000000
  ---------------------------------------------------
  free energy    TOTEN  =      -229.00359918 eV

  energy without entropy =     -229.00359918  energy(sigma->0) =     -229.00359918


--------------------------------------------------------------------------------------------------------




--------------------------------------- Iteration      1(   6)  ---------------------------------------


    POTLOK:  cpu time      0.0367: real time      0.0374
    SETDIJ:  cpu time      0.0295: real time      0.0296
     EDDAV:  cpu time      8.8662: real time      8.9166
       DOS:  cpu time      0.0004: real time      0.0004
    CHARGE:  cpu time      0.2730: real time      0.2744
    MIXING:  cpu time      0.0012: real time      0.0012
    --------------------------------------------
      LOOP:  cpu time      9.2070: real time      9.2597

 eigenvalue-minimisations  :  4256
 total energy-change (2. order) : 0.4865582E+01  (-0.9476990E+00)
 number of electron     448.0000022 magnetization 
 augmentation part      112.4576098 magnetization 

 Broyden mixing:
  rms(total) = 0.77511E+00    rms(broyden)= 0.77506E+00
  rms(prec ) = 0.89131E+00
  weight for this iteration     100.00

 eigenvalues of (default mixing * dielectric matrix)
  average eigenvalue GAMMA=   1.0768
  1.0768

 Free energy of the ion-electron system (eV)
  ---------------------------------------------------
  alpha Z        PSCENC =       751.52672365
  Ewald energy   TEWEN  =    -22871.32626174
  -Hartree energ DENC   =     -9061.78034214
  -exchange      EXHF   =         0.00000000
  -V(xc)+E(xc)   XCENC  =      1465.42940420
  PAW double counting   =     27290.57282819   -30102.53586860
  entropy T*S    EENTRO =        -0.00000000
  eigenvalues    EBANDS =     -5228.20397016
  atomic energy  EATOM  =     37532.17946992
  Solvation  Ediel_sol  =         0.00000000
  ---------------------------------------------------
  free energy    TOTEN  =      -224.13801668 eV

  energy without entropy =     -224.13801668  energy(sigma->0) =     -224.13801668


--------------------------------------------------------------------------------------------------------




--------------------------------------- Iteration      1(   7)  ---------------------------------------


    POTLOK:  cpu time      0.0357: real time      0.0360
    SETDIJ:  cpu time      0.0295: real time      0.0297
     EDDAV:  cpu time      9.6831: real time      9.7376
       DOS:  cpu time      0.0004: real time      0.0004
    CHARGE:  cpu time      0.2734: real time      0.2748
    MIXING:  cpu time      0.0014: real time      0.0014
    --------------------------------------------
      LOOP:  cpu time     10.0235: real time     10.0798

 eigenvalue-minimisations  :  4736
 total energy-change (2. order) : 0.3607807E+00  (-0.2073323E+00)
 number of electron     448.0000022 magnetization 
 augmentation part      112.8280191 magnetization 

 Broyden mixing:
  rms(total) = 0.53380E+00    rms(broyden)= 0.53378E+00
  rms(prec ) = 0.56373E+00
  weight for this iteration     100.00

 eigenvalues of (default mixing * dielectric matrix)
  average eigenvalue GAMMA=   2.1629
  1.4406  2.8852

 Free energy of the ion-electron system (eV)
  ---------------------------------------------------
  alpha Z        PSCENC =       751.52672365
  Ewald energy   TEWEN  =    -22871.32626174
  -Hartree energ DENC   =     -9085.87005123
  -exchange      EXHF   =         0.00000000
  -V(xc)+E(xc)   XCENC  =      1470.12932177
  PAW double counting   =     28328.53853786   -31141.25539965
  entropy T*S    EENTRO =        -0.00000000
  eigenvalues    EBANDS =     -5207.69957653
  atomic energy  EATOM  =     37532.17946992
  Solvation  Ediel_sol  =         0.00000000
  ---------------------------------------------------
  free energy    TOTEN  =      -223.77723593 eV

  energy without entropy =     -223.77723593  energy(sigma->0) =     -223.77723593


--------------------------------------------------------------------------------------------------------




--------------------------------------- Iteration      1(   8)  ---------------------------------------


    POTLOK:  cpu time      0.0366: real time      0.0377
    SETDIJ:  cpu time      0.0293: real time      0.0294
     EDDAV:  cpu time      8.6556: real time      8.7066
       DOS:  cpu time      0.0004: real time      0.0004
    CHARGE:  cpu time      0.2714: real time      0.2728
    MIXING:  cpu time      0.0012: real time      0.0012
    --------------------------------------------
      LOOP:  cpu time      8.9945: real time      9.0481

 eigenvalue-minimisations  :  4128
 total energy-change (2. order) :-0.1254227E+00  (-0.2690349E-01)
 number of electron     448.0000022 magnetization 
 augmentation part      112.8089107 magnetization 

 Broyden mixing:
  rms(total) = 0.14532E+00    rms(broyden)= 0.14532E+00
  rms(prec ) = 0.14827E+00
  weight for this iteration     100.00

 eigenvalues of (default mixing * dielectric matrix)
  average eigenvalue GAMMA=   1.5544
  2.5381  1.3901  0.7349

 Free energy of the ion-electron system (eV)
  ---------------------------------------------------
  alpha Z        PSCENC =       751.52672365
  Ewald energy   TEWEN  =    -22871.32626174
  -Hartree energ DENC   =     -9075.12106684
  -exchange      EXHF   =         0.00000000
  -V(xc)+E(xc)   XCENC  =      1472.34225751
  PAW double counting   =     29816.80241583   -32636.70924010
  entropy T*S    EENTRO =        -0.00000000
  eigenvalues    EBANDS =     -5213.59695684
  atomic energy  EATOM  =     37532.17946992
  Solvation  Ediel_sol  =         0.00000000
  ---------------------------------------------------
  free energy    TOTEN  =      -223.90265861 eV

  energy without entropy =     -223.90265861  energy(sigma->0) =     -223.90265861


--------------------------------------------------------------------------------------------------------




--------------------------------------- Iteration      1(   9)  ---------------------------------------


    POTLOK:  cpu time      0.0362: real time      0.0364
    SETDIJ:  cpu time      0.0296: real time      0.0299
     EDDAV:  cpu time      8.9398: real time      8.9919
       DOS:  cpu time      0.0003: real time      0.0003
    CHARGE:  cpu time      0.2701: real time      0.2720
    MIXING:  cpu time      0.0018: real time      0.0018
    --------------------------------------------
      LOOP:  cpu time      9.2779: real time      9.3323

 eigenvalue-minimisations  :  4288
 total energy-change (2. order) : 0.5763765E-02  (-0.1114263E-02)
 number of electron     448.0000022 magnetization 
 augmentation part      112.8302947 magnetization 

 Broyden mixing:
  rms(total) = 0.63292E-01    rms(broyden)= 0.63292E-01
  rms(prec ) = 0.65305E-01
  weight for this iteration     100.00

 eigenvalues of (default mixing * dielectric matrix)
  average eigenvalue GAMMA=   1.9903
  2.7822  2.7822  1.0016  1.3953

 Free energy of the ion-electron system (eV)
  ---------------------------------------------------
  alpha Z        PSCENC =       751.52672365
  Ewald energy   TEWEN  =    -22871.32626174
  -Hartree energ DENC   =     -9077.86474829
  -exchange      EXHF   =         0.00000000
  -V(xc)+E(xc)   XCENC  =      1472.35795981
  PAW double counting   =     29636.88101009   -32455.93378379
  entropy T*S    EENTRO =        -0.00000000
  eigenvalues    EBANDS =     -5211.71726449
  atomic energy  EATOM  =     37532.17946992
  Solvation  Ediel_sol  =         0.00000000
  ---------------------------------------------------
  free energy    TOTEN  =      -223.89689484 eV

  energy without entropy =     -223.89689484  energy(sigma->0) =     -223.89689484


--------------------------------------------------------------------------------------------------------




--------------------------------------- Iteration      1(  10)  ---------------------------------------


    POTLOK:  cpu time      0.0364: real time      0.0412
    SETDIJ:  cpu time      0.0300: real time      0.0302
     EDDAV:  cpu time      8.6070: real time      8.6549
       DOS:  cpu time      0.0004: real time      0.0004
    CHARGE:  cpu time      0.2667: real time      0.2684
    MIXING:  cpu time      0.0022: real time      0.0022
    --------------------------------------------
      LOOP:  cpu time      8.9428: real time      8.9974

 eigenvalue-minimisations  :  4096
 total energy-change (2. order) :-0.4134736E-02  (-0.1892500E-02)
 number of electron     448.0000022 magnetization 
 augmentation part      112.8613963 magnetization 

 Broyden mixing:
  rms(total) = 0.28880E-01    rms(broyden)= 0.28878E-01
  rms(prec ) = 0.31042E-01
  weight for this iteration     100.00

 eigenvalues of (default mixing * dielectric matrix)
  average eigenvalue GAMMA=   1.7091
  2.9342  2.5119  1.2916  1.0247  0.7829

 Free energy of the ion-electron system (eV)
  ---------------------------------------------------
  alpha Z        PSCENC =       751.52672365
  Ewald energy   TEWEN  =    -22871.32626174
  -Hartree energ DENC   =     -9079.49581829
  -exchange      EXHF   =         0.00000000
  -V(xc)+E(xc)   XCENC  =      1472.60560139
  PAW double counting   =     29457.34641619   -32276.54538845
  entropy T*S    EENTRO =        -0.00000000
  eigenvalues    EBANDS =     -5210.19177225
  atomic energy  EATOM  =     37532.17946992
  Solvation  Ediel_sol  =         0.00000000
  ---------------------------------------------------
  free energy    TOTEN  =      -223.90102958 eV

  energy without entropy =     -223.90102958  energy(sigma->0) =     -223.90102958


--------------------------------------------------------------------------------------------------------




--------------------------------------- Iteration      1(  11)  ---------------------------------------


    POTLOK:  cpu time      0.0359: real time      0.0363
    SETDIJ:  cpu time      0.0299: real time      0.0301
     EDDAV:  cpu time      9.0752: real time      9.1263
       DOS:  cpu time      0.0005: real time      0.0005
    CHARGE:  cpu time      0.2732: real time      0.2746
    MIXING:  cpu time      0.0014: real time      0.0014
    --------------------------------------------
      LOOP:  cpu time      9.4161: real time      9.4691

 eigenvalue-minimisations  :  4384
 total energy-change (2. order) : 0.7365921E-03  (-0.1670758E-03)
 number of electron     448.0000022 magnetization 
 augmentation part      112.8519042 magnetization 

 Broyden mixing:
  rms(total) = 0.92637E-02    rms(broyden)= 0.92636E-02
  rms(prec ) = 0.97318E-02
  weight for this iteration     100.00

 eigenvalues of (default mixing * dielectric matrix)
  average eigenvalue GAMMA=   1.5473
  2.9201  2.4646  1.3185  1.0096  0.7855  0.7855

 Free energy of the ion-electron system (eV)
  ---------------------------------------------------
  alpha Z        PSCENC =       751.52672365
  Ewald energy   TEWEN  =    -22871.32626174
  -Hartree energ DENC   =     -9078.38036476
  -exchange      EXHF   =         0.00000000
  -V(xc)+E(xc)   XCENC  =      1472.53036879
  PAW double counting   =     29486.72848819   -32306.09371720
  entropy T*S    EENTRO =        -0.00000000
  eigenvalues    EBANDS =     -5211.06499984
  atomic energy  EATOM  =     37532.17946992
  Solvation  Ediel_sol  =         0.00000000
  ---------------------------------------------------
  free energy    TOTEN  =      -223.90029298 eV

  energy without entropy =     -223.90029298  energy(sigma->0) =     -223.90029298


--------------------------------------------------------------------------------------------------------




--------------------------------------- Iteration      1(  12)  ---------------------------------------


    POTLOK:  cpu time      0.0361: real time      0.0365
    SETDIJ:  cpu time      0.0298: real time      0.0300
     EDDAV:  cpu time      9.3865: real time      9.4398
       DOS:  cpu time      0.0004: real time      0.0004
    CHARGE:  cpu time      0.2688: real time      0.2702
    MIXING:  cpu time      0.0012: real time      0.0012
    --------------------------------------------
      LOOP:  cpu time      9.7230: real time      9.7781

 eigenvalue-minimisations  :  4576
 total energy-change (2. order) : 0.3491735E-04  (-0.1248532E-04)
 number of electron     448.0000022 magnetization 
 augmentation part      112.8495130 magnetization 

 Broyden mixing:
  rms(total) = 0.28798E-02    rms(broyden)= 0.28794E-02
  rms(prec ) = 0.32028E-02
  weight for this iteration     100.00

 eigenvalues of (default mixing * dielectric matrix)
  average eigenvalue GAMMA=   1.5429
  2.8914  2.4157  1.3440  1.1783  1.1783  1.0452  0.7475

 Free energy of the ion-electron system (eV)
  ---------------------------------------------------
  alpha Z        PSCENC =       751.52672365
  Ewald energy   TEWEN  =    -22871.32626174
  -Hartree energ DENC   =     -9078.25944582
  -exchange      EXHF   =         0.00000000
  -V(xc)+E(xc)   XCENC  =      1472.52242594
  PAW double counting   =     29496.09730148   -32315.46482552
  entropy T*S    EENTRO =        -0.00000000
  eigenvalues    EBANDS =     -5211.17564598
  atomic energy  EATOM  =     37532.17946992
  Solvation  Ediel_sol  =         0.00000000
  ---------------------------------------------------
  free energy    TOTEN  =      -223.90025807 eV

  energy without entropy =     -223.90025807  energy(sigma->0) =     -223.90025807


--------------------------------------------------------------------------------------------------------




--------------------------------------- Iteration      1(  13)  ---------------------------------------


    POTLOK:  cpu time      0.0365: real time      0.0372
    SETDIJ:  cpu time      0.0301: real time      0.0303
     EDDAV:  cpu time      8.6359: real time      8.6850
       DOS:  cpu time      0.0006: real time      0.0006
    CHARGE:  cpu time      0.2710: real time      0.2723
    MIXING:  cpu time      0.0013: real time      0.0013
    --------------------------------------------
      LOOP:  cpu time      8.9754: real time      9.0266

 eigenvalue-minimisations  :  4128
 total energy-change (2. order) : 0.9863717E-05  (-0.3918864E-05)
 number of electron     448.0000022 magnetization 
 augmentation part      112.8478947 magnetization 

 Broyden mixing:
  rms(total) = 0.39577E-03    rms(broyden)= 0.39492E-03
  rms(prec ) = 0.48080E-03
  weight for this iteration     100.00

 eigenvalues of (default mixing * dielectric matrix)
  average eigenvalue GAMMA=   1.5977
  2.9809  2.3016  2.3016  1.1447  1.1447  0.9650  0.9716  0.9716

 Free energy of the ion-electron system (eV)
  ---------------------------------------------------
  alpha Z        PSCENC =       751.52672365
  Ewald energy   TEWEN  =    -22871.32626174
  -Hartree energ DENC   =     -9078.14041379
  -exchange      EXHF   =         0.00000000
  -V(xc)+E(xc)   XCENC  =      1472.51161686
  PAW double counting   =     29498.80709513   -32318.18119615
  entropy T*S    EENTRO =        -0.00000000
  eigenvalues    EBANDS =     -5211.27728209
  atomic energy  EATOM  =     37532.17946992
  Solvation  Ediel_sol  =         0.00000000
  ---------------------------------------------------
  free energy    TOTEN  =      -223.90024820 eV

  energy without entropy =     -223.90024820  energy(sigma->0) =     -223.90024820


--------------------------------------------------------------------------------------------------------




--------------------------------------- Iteration      1(  14)  ---------------------------------------


    POTLOK:  cpu time      0.0359: real time      0.0362
    SETDIJ:  cpu time      0.0303: real time      0.0304
     EDDAV:  cpu time      8.7101: real time      8.7588
       DOS:  cpu time      0.0005: real time      0.0005
    CHARGE:  cpu time      0.2717: real time      0.2730
    MIXING:  cpu time      0.0015: real time      0.0015
    --------------------------------------------
      LOOP:  cpu time      9.0500: real time      9.1005

 eigenvalue-minimisations  :  4160
 total energy-change (2. order) :-0.2112334E-05  (-0.3593388E-06)
 number of electron     448.0000022 magnetization 
 augmentation part      112.8477408 magnetization 

 Broyden mixing:
  rms(total) = 0.77438E-03    rms(broyden)= 0.77433E-03
  rms(prec ) = 0.79611E-03
  weight for this iteration     100.00

 eigenvalues of (default mixing * dielectric matrix)
  average eigenvalue GAMMA=   1.6395
  3.0528  2.6140  2.6140  1.3541  1.1963  1.1963  0.9465  0.9465  0.8351

 Free energy of the ion-electron system (eV)
  ---------------------------------------------------
  alpha Z        PSCENC =       751.52672365
  Ewald energy   TEWEN  =    -22871.32626174
  -Hartree energ DENC   =     -9078.14731901
  -exchange      EXHF   =         0.00000000
  -V(xc)+E(xc)   XCENC  =      1472.51260176
  PAW double counting   =     29499.89565320   -32319.26524154
  entropy T*S    EENTRO =        -0.00000000
  eigenvalues    EBANDS =     -5211.27587657
  atomic energy  EATOM  =     37532.17946992
  Solvation  Ediel_sol  =         0.00000000
  ---------------------------------------------------
  free energy    TOTEN  =      -223.90025032 eV

  energy without entropy =     -223.90025032  energy(sigma->0) =     -223.90025032


--------------------------------------------------------------------------------------------------------




--------------------------------------- Iteration      1(  15)  ---------------------------------------


    POTLOK:  cpu time      0.0359: real time      0.0373
    SETDIJ:  cpu time      0.0297: real time      0.0299
     EDDAV:  cpu time      8.8996: real time      8.9499
       DOS:  cpu time      0.0004: real time      0.0004
    CHARGE:  cpu time      0.2698: real time      0.2712
    MIXING:  cpu time      0.0012: real time      0.0012
    --------------------------------------------
      LOOP:  cpu time      9.2367: real time      9.2898

 eigenvalue-minimisations  :  4288
 total energy-change (2. order) :-0.1031978E-05  (-0.4058336E-07)
 number of electron     448.0000022 magnetization 
 augmentation part      112.8477294 magnetization 

 Broyden mixing:
  rms(total) = 0.39796E-03    rms(broyden)= 0.39796E-03
  rms(prec ) = 0.41273E-03
  weight for this iteration     100.00

 eigenvalues of (default mixing * dielectric matrix)
  average eigenvalue GAMMA=   1.5803
  3.0762  2.6051  2.6051  1.4440  1.2673  1.2673  0.9279  0.8767  0.8665  0.8665

 Free energy of the ion-electron system (eV)
  ---------------------------------------------------
  alpha Z        PSCENC =       751.52672365
  Ewald energy   TEWEN  =    -22871.32626174
  -Hartree energ DENC   =     -9078.16976653
  -exchange      EXHF   =         0.00000000
  -V(xc)+E(xc)   XCENC  =      1472.51291579
  PAW double counting   =     29499.05004650   -32318.41586714
  entropy T*S    EENTRO =        -0.00000000
  eigenvalues    EBANDS =     -5211.25751181
  atomic energy  EATOM  =     37532.17946992
  Solvation  Ediel_sol  =         0.00000000
  ---------------------------------------------------
  free energy    TOTEN  =      -223.90025135 eV

  energy without entropy =     -223.90025135  energy(sigma->0) =     -223.90025135


--------------------------------------------------------------------------------------------------------




--------------------------------------- Iteration      1(  16)  ---------------------------------------


    POTLOK:  cpu time      0.0360: real time      0.0363
    SETDIJ:  cpu time      0.0299: real time      0.0300
     EDDAV:  cpu time      8.9839: real time      9.0352
       DOS:  cpu time      0.0003: real time      0.0003
    CHARGE:  cpu time      0.2685: real time      0.2700
    MIXING:  cpu time      0.0016: real time      0.0016
    --------------------------------------------
      LOOP:  cpu time      9.3202: real time      9.3735

 eigenvalue-minimisations  :  4320
 total energy-change (2. order) :-0.4376634E-06  (-0.1436319E-07)
 number of electron     448.0000022 magnetization 
 augmentation part      112.8478142 magnetization 

 Broyden mixing:
  rms(total) = 0.15529E-03    rms(broyden)= 0.15529E-03
  rms(prec ) = 0.16259E-03
  weight for this iteration     100.00

 eigenvalues of (default mixing * dielectric matrix)
  average eigenvalue GAMMA=   1.5562
  3.1010  2.5956  2.5956  1.2502  1.2502  1.3608  1.1410  1.1410  0.8757  0.9033
  0.9033

 Free energy of the ion-electron system (eV)
  ---------------------------------------------------
  alpha Z        PSCENC =       751.52672365
  Ewald energy   TEWEN  =    -22871.32626174
  -Hartree energ DENC   =     -9078.17915901
  -exchange      EXHF   =         0.00000000
  -V(xc)+E(xc)   XCENC  =      1472.51336355
  PAW double counting   =     29498.60607084   -32317.97104513
  entropy T*S    EENTRO =        -0.00000000
  eigenvalues    EBANDS =     -5211.24941387
  atomic energy  EATOM  =     37532.17946992
  Solvation  Ediel_sol  =         0.00000000
  ---------------------------------------------------
  free energy    TOTEN  =      -223.90025179 eV

  energy without entropy =     -223.90025179  energy(sigma->0) =     -223.90025179


--------------------------------------------------------------------------------------------------------




--------------------------------------- Iteration      1(  17)  ---------------------------------------


    POTLOK:  cpu time      0.0365: real time      0.0410
    SETDIJ:  cpu time      0.0296: real time      0.0297
     EDDAV:  cpu time      6.4573: real time      6.4916
       DOS:  cpu time      0.0004: real time      0.0004
    CHARGE:  cpu time      0.2720: real time      0.2736
    MIXING:  cpu time      0.0015: real time      0.0015
    --------------------------------------------
      LOOP:  cpu time      6.7973: real time      6.8377

 eigenvalue-minimisations  :  2784
 total energy-change (2. order) :-0.5049515E-07  (-0.9315928E-09)
 number of electron     448.0000022 magnetization 
 augmentation part      112.8478242 magnetization 

 Broyden mixing:
  rms(total) = 0.91977E-04    rms(broyden)= 0.91971E-04
  rms(prec ) = 0.98997E-04
  weight for this iteration     100.00

 eigenvalues of (default mixing * dielectric matrix)
  average eigenvalue GAMMA=   1.6071
  3.1622  2.8864  2.3482  1.7296  1.7296  1.4141  1.1680  1.1680  0.9428  0.9428
  0.9434  0.8503

 Free energy of the ion-electron system (eV)
  ---------------------------------------------------
  alpha Z        PSCENC =       751.52672365
  Ewald energy   TEWEN  =    -22871.32626174
  -Hartree energ DENC   =     -9078.18024987
  -exchange      EXHF   =         0.00000000
  -V(xc)+E(xc)   XCENC  =      1472.51337496
  PAW double counting   =     29498.45651760   -32317.82151803
  entropy T*S    EENTRO =        -0.00000000
  eigenvalues    EBANDS =     -5211.24830834
  atomic energy  EATOM  =     37532.17946992
  Solvation  Ediel_sol  =         0.00000000
  ---------------------------------------------------
  free energy    TOTEN  =      -223.90025184 eV

  energy without entropy =     -223.90025184  energy(sigma->0) =     -223.90025184


--------------------------------------------------------------------------------------------------------




--------------------------------------- Iteration      1(  18)  ---------------------------------------


    POTLOK:  cpu time      0.0358: real time      0.0360
    SETDIJ:  cpu time      0.0295: real time      0.0299
     EDDAV:  cpu time      7.7532: real time      7.7943
       DOS:  cpu time      0.0003: real time      0.0003
    CHARGE:  cpu time      0.2679: real time      0.2696
    MIXING:  cpu time      0.0015: real time      0.0015
    --------------------------------------------
      LOOP:  cpu time      8.0882: real time      8.1317

 eigenvalue-minimisations  :  3584
 total energy-change (2. order) :-0.2651359E-06  (-0.4546971E-08)
 number of electron     448.0000022 magnetization 
 augmentation part      112.8478625 magnetization 

 Broyden mixing:
  rms(total) = 0.64205E-04    rms(broyden)= 0.64193E-04
  rms(prec ) = 0.67228E-04
  weight for this iteration     100.00

 eigenvalues of (default mixing * dielectric matrix)
  average eigenvalue GAMMA=   1.5174
  3.1873  2.9203  2.2275  2.2275  1.2466  1.2466  1.2196  1.2196  0.8982  0.8982
  0.9222  0.8118  0.7012

 Free energy of the ion-electron system (eV)
  ---------------------------------------------------
  alpha Z        PSCENC =       751.52672365
  Ewald energy   TEWEN  =    -22871.32626174
  -Hartree energ DENC   =     -9078.18679537
  -exchange      EXHF   =         0.00000000
  -V(xc)+E(xc)   XCENC  =      1472.51365401
  PAW double counting   =     29498.19938657   -32317.56389878
  entropy T*S    EENTRO =        -0.00000000
  eigenvalues    EBANDS =     -5211.24253037
  atomic energy  EATOM  =     37532.17946992
  Solvation  Ediel_sol  =         0.00000000
  ---------------------------------------------------
  free energy    TOTEN  =      -223.90025210 eV

  energy without entropy =     -223.90025210  energy(sigma->0) =     -223.90025210


--------------------------------------------------------------------------------------------------------




--------------------------------------- Iteration      1(  19)  ---------------------------------------


    POTLOK:  cpu time      0.0360: real time      0.0362
    SETDIJ:  cpu time      0.0300: real time      0.0302
     EDDAV:  cpu time      5.9701: real time      6.0019
       DOS:  cpu time      0.0004: real time      0.0004
    --------------------------------------------
      LOOP:  cpu time      6.0365: real time      6.0686

 eigenvalue-minimisations  :  2496
 total energy-change (2. order) :-0.3630703E-08  (-0.9665941E-09)
 number of electron     448.0000022 magnetization 
 augmentation part      112.8478625 magnetization 

 Free energy of the ion-electron system (eV)
  ---------------------------------------------------
  alpha Z        PSCENC =       751.52672365
  Ewald energy   TEWEN  =    -22871.32626174
  -Hartree energ DENC   =     -9078.18665036
  -exchange      EXHF   =         0.00000000
  -V(xc)+E(xc)   XCENC  =      1472.51363636
  PAW double counting   =     29498.19987888   -32317.56419064
  entropy T*S    EENTRO =        -0.00000000
  eigenvalues    EBANDS =     -5211.24285818
  atomic energy  EATOM  =     37532.17946992
  Solvation  Ediel_sol  =         0.00000000
  ---------------------------------------------------
  free energy    TOTEN  =      -223.90025210 eV

  energy without entropy =     -223.90025210  energy(sigma->0) =     -223.90025210


--------------------------------------------------------------------------------------------------------




 average (electrostatic) potential at core
  the test charge radii are     0.9254  0.9406
  (the norm of the test charge is              1.0000)
       1 -46.9526       2 -46.9526       3 -46.9498       4 -46.9958       5 -46.9526
       6 -46.9526       7 -46.9496       8 -46.9560       9 -46.9525      10 -46.9467
      11 -46.9497      12 -46.9294      13 -46.9525      14 -46.9467      15 -46.9496
      16 -46.9474      17 -46.9467      18 -46.9525      19 -46.9497      20 -46.9294
      21 -46.9467      22 -46.9525      23 -46.9496      24 -46.9474      25 -46.9467
      26 -46.9467      27 -46.9496      28 -46.9431      29 -46.9467      30 -46.9467
      31 -46.9496      32 -46.9476      33 -93.5953      34 -93.5953      35 -93.6033
      36 -93.5883      37 -93.5897      38 -93.5897      39 -93.6033      40 -93.5883
      41 -93.5806      42 -93.5957      43 -93.5821      44 -93.5882      45 -93.5867
      46 -93.5897      47 -93.5821      48 -93.5882      49 -93.5957      50 -93.5806
      51 -93.5821      52 -93.5882      53 -93.5897      54 -93.5867      55 -93.5821
      56 -93.5882      57 -93.5806      58 -93.5806      59 -93.5852      60 -93.5882
      61 -93.5867      62 -93.5867      63 -93.5852      64 -93.5882
 
 
 
 E-fermi :  -0.5624     XC(G=0):  -8.4227     alpha+bet : -8.2520

 Fermi energy:        -0.5623910739

 k-point     1 :       0.0000    0.0000    0.0000
  band No.  band energies     occupation 
      1     -21.3282      2.00000
      2     -21.3282      2.00000
      3     -21.3281      2.00000
      4     -21.3038      2.00000
      5     -21.3015      2.00000
      6     -21.3015      2.00000
      7     -21.3009      2.00000
      8     -21.2938      2.00000
      9     -21.2936      2.00000
     10     -21.2935      2.00000
     11     -21.2935      2.00000
     12     -21.2933      2.00000
     13     -21.2933      2.00000
     14     -21.2933      2.00000
     15     -21.2928      2.00000
     16     -21.2928      2.00000
     17     -21.2908      2.00000
     18     -21.2908      2.00000
     19     -21.2904      2.00000
     20     -21.2898      2.00000
     21     -21.2883      2.00000
     22     -21.2883      2.00000
     23     -21.2864      2.00000
     24     -21.2864      2.00000
     25     -21.2861      2.00000
     26     -21.2861      2.00000
     27     -21.2858      2.00000
     28     -21.2854      2.00000
     29     -21.2854      2.00000
     30     -21.2852      2.00000
     31     -21.2841      2.00000
     32     -21.2837      2.00000
     33     -21.2836      2.00000
     34     -21.2835      2.00000
     35     -21.2835      2.00000
     36     -21.2832      2.00000
     37     -21.2832      2.00000
     38     -21.2829      2.00000
     39     -21.2829      2.00000
     40     -21.2823      2.00000
     41     -21.2815      2.00000
     42     -21.2812      2.00000
     43     -21.2808      2.00000
     44     -21.2808      2.00000
     45     -21.2808      2.00000
     46     -21.2801      2.00000
     47     -21.2800      2.00000
     48     -21.2800      2.00000
     49     -21.2800      2.00000
     50     -21.2799      2.00000
     51     -21.2798      2.00000
     52     -21.2798      2.00000
     53     -21.2797      2.00000
     54     -21.2794      2.00000
     55     -21.2794      2.00000
     56     -21.2776      2.00000
     57     -21.2776      2.00000
     58     -21.2776      2.00000
     59     -21.2762      2.00000
     60     -21.2760      2.00000
     61     -21.2760      2.00000
     62     -21.2751      2.00000
     63     -21.2749      2.00000
     64     -21.2749      2.00000
     65     -21.2744      2.00000
     66     -21.2740      2.00000
     67     -21.2740      2.00000
     68     -21.2740      2.00000
     69     -21.2734      2.00000
     70     -21.2734      2.00000
     71     -21.2728      2.00000
     72     -21.2719      2.00000
     73     -21.2719      2.00000
     74     -21.2715      2.00000
     75     -21.2715      2.00000
     76     -21.2713      2.00000
     77     -21.2711      2.00000
     78     -21.2711      2.00000
     79     -21.2711      2.00000
     80     -21.2710      2.00000
     81     -21.2710      2.00000
     82     -21.2710      2.00000
     83     -21.2709      2.00000
     84     -21.2706      2.00000
     85     -21.2706      2.00000
     86     -21.2705      2.00000
     87     -21.2701      2.00000
     88     -21.2678      2.00000
     89     -21.2678      2.00000
     90     -21.2674      2.00000
     91     -21.2596      2.00000
     92     -21.2596      2.00000
     93     -21.2587      2.00000
     94     -21.2583      2.00000
     95     -21.2575      2.00000
     96     -21.2575      2.00000
     97     -13.3580      2.00000
     98     -13.1400      2.00000
     99     -13.1376      2.00000
    100     -13.1375      2.00000
    101     -13.1374      2.00000
    102     -13.1367      2.00000
    103     -13.1355      2.00000
    104     -13.0185      2.00000
    105     -13.0150      2.00000
    106     -13.0147      2.00000
    107     -13.0124      2.00000
    108     -13.0118      2.00000
    109     -13.0112      2.00000
    110     -13.0112      2.00000
[...]
         0         1         2         3         4         5         6         7         8         9
 total charge-density along one line
 
 pseudopotential strength for first ion, spin component:           1
-25.389  -0.000  -0.000   2.511   0.000   0.000   0.000   0.001
 -0.000 -25.389  -0.000   0.000   2.511   0.000   0.000   0.000
 -0.000  -0.000 -25.389   0.000   0.000   2.511   0.000   0.000
  2.511   0.000   0.000   6.528  -0.000  -0.000  -0.000   0.000
  0.000   2.511   0.000  -0.000   6.528  -0.000  -0.000   0.000
  0.000   0.000   2.511  -0.000  -0.000   6.528   0.000   0.000
  0.000   0.000   0.000  -0.000  -0.000   0.000   1.428   6.993
  0.001   0.000   0.000   0.000   0.000   0.000   6.993  33.989
 total augmentation occupancy for first ion, spin component:           1
  2.002   0.000   0.000   0.002   0.000   0.000  -0.001   0.000
  0.000   2.002   0.000   0.000   0.002   0.000  -0.000   0.000
  0.000   0.000   2.002   0.000   0.000   0.002  -0.000   0.000
  0.002   0.000   0.000   0.017  -0.000   0.000  -0.000   0.000
  0.000   0.002   0.000  -0.000   0.017   0.000  -0.000   0.000
  0.000   0.000   0.002   0.000   0.000   0.017   0.000  -0.000
 -0.001  -0.000  -0.000  -0.000  -0.000   0.000   0.403  -0.001
  0.000   0.000   0.000   0.000   0.000  -0.000  -0.001   0.000


------------------------ aborting loop because EDIFF is reached ----------------------------------------


    CHARGE:  cpu time      0.2675: real time      0.2688
    FORLOC:  cpu time      0.0114: real time      0.0114
    FORNL :  cpu time      1.7189: real time      1.7290
    STRESS:  cpu time      9.7605: real time      9.8082
    FORCOR:  cpu time      0.0431: real time      0.0433
    FORHAR:  cpu time      0.0172: real time      0.0173
    MIXING:  cpu time      0.0012: real time      0.0012
    OFIELD:  cpu time      0.0000: real time      0.0000

  FORCE on cell =-STRESS in cart. coord.  units (eV):
  Direction    XX          YY          ZZ          XY          YZ          ZX
  --------------------------------------------------------------------------------------
  Alpha Z   751.52672   751.52672   751.52672
  Ewald   -7623.76841 -7623.76841 -7623.92677     0.01645     0.00000     0.00000
  Hartree  3026.07850  3026.07850  3026.02567     0.01223    -0.00000    -0.00000
  E(xc)   -2014.34828 -2014.34828 -2014.34837     0.00002     0.00000     0.00000
  Local   -2024.97075 -2024.97075 -2024.76430    -0.02932     0.00000    -0.00000
  n-local  1887.57091  1887.68014  1887.62035     0.00002     0.00000     0.00000
  augment   687.00983   687.00983   687.00972     0.00002    -0.00010    -0.00010
  Kinetic  5310.35004  5310.69699  5310.52284     0.00093     0.00000     0.00000
  Fock        0.00000     0.00000     0.00000     0.00000     0.00000     0.00000
  -------------------------------------------------------------------------------------
  Total      -0.32334    -0.32334    -0.33415     0.00036     0.00000     0.00000
  in kB      -0.36835    -0.36835    -0.38065     0.00041     0.00000     0.00000
  external pressure =       -0.37 kB  Pullay stress =        0.00 kB


 VOLUME and BASIS-vectors are now :
 -----------------------------------------------------------------------------
  energy-cutoff  :      341.21
  volume of cell :     1406.43
      direct lattice vectors                 reciprocal lattice vectors
    11.204002360  0.000000000  0.000000000     0.089253819  0.000000000  0.000000000
     0.000000000 11.204002360  0.000000000     0.000000000  0.089253819  0.000000000
     0.000000000  0.000000000 11.204002360     0.000000000  0.000000000  0.089253819

  length of vectors
    11.204002360 11.204002360 11.204002360     0.089253819  0.089253819  0.089253819


 FORCES acting on ions
    electron-ion (+dipol)            ewald-force                    non-local-force                 convergence-correction
 -----------------------------------------------------------------------------------------------
   -.654E-01 -.113E+01 -.182E+00   0.646E-01 0.108E+01 0.174E+00   0.538E-03 0.437E-01 0.673E-02   0.168E-05 0.107E-03 0.367E-05
   0.113E+01 0.654E-01 -.182E+00   -.108E+01 -.646E-01 0.174E+00   -.437E-01 -.538E-03 0.673E-02   -.107E-03 -.168E-05 0.367E-05
   0.977E+00 -.977E+00 -.176E-11   -.934E+00 0.934E+00 0.142E-13   -.385E-01 0.385E-01 0.681E-26   -.103E-03 0.103E-03 0.103E-12
   -.212E+01 0.212E+01 0.523E-13   0.200E+01 -.200E+01 -.711E-14   0.139E+00 -.139E+00 -.134E-24   0.452E-05 -.452E-05 0.168E-12
   -.654E-01 -.113E+01 0.182E+00   0.646E-01 0.108E+01 -.174E+00   0.538E-03 0.437E-01 -.673E-02   0.168E-05 0.107E-03 -.367E-05
   0.113E+01 0.654E-01 0.182E+00   -.108E+01 -.646E-01 -.174E+00   -.437E-01 -.538E-03 -.673E-02   -.107E-03 -.168E-05 -.367E-05
   0.113E+00 -.113E+00 -.103E-11   -.110E+00 0.110E+00 0.888E-15   -.270E-02 0.270E-02 0.134E-26   -.939E-04 0.939E-04 0.784E-14
   -.175E-01 0.175E-01 0.824E-12   0.185E-01 -.185E-01 -.178E-14   -.853E-03 0.853E-03 -.181E-24   0.129E-05 -.129E-05 -.363E-13
   -.654E-01 0.466E+00 -.165E+00   0.646E-01 -.440E+00 0.157E+00   0.497E-03 -.216E-01 0.602E-02   0.206E-05 -.106E-03 0.429E-05
   -.552E-01 0.620E-01 0.168E+00   0.512E-01 -.614E-01 -.160E+00   0.337E-02 -.387E-03 -.608E-02   -.905E-04 0.300E-06 -.300E-05
   0.960E+00 0.315E+00 -.319E-10   -.917E+00 -.296E+00 0.142E-13   -.376E-01 -.161E-01 -.243E-24   -.102E-03 -.994E-04 0.120E-12
   -.175E-01 0.218E+01 -.849E-06   0.185E-01 -.206E+01 0.711E-14   -.854E-03 -.143E+00 -.440E-23   0.180E-05 -.337E-05 0.161E-12
   -.654E-01 0.466E+00 0.165E+00   0.646E-01 -.440E+00 -.157E+00   0.497E-03 -.216E-01 -.602E-02   0.206E-05 -.106E-03 -.429E-05
   -.552E-01 0.620E-01 -.168E+00   0.512E-01 -.614E-01 0.160E+00   0.337E-02 -.387E-03 0.608E-02   -.905E-04 0.300E-06 0.300E-05
   0.113E+00 0.975E-01 -.101E-11   -.109E+00 -.939E-01 0.178E-14   -.269E-02 -.292E-02 0.134E-24   -.929E-04 -.932E-04 -.398E-14
   -.275E-02 0.151E-01 0.529E-08   0.273E-02 -.162E-01 0.178E-14   0.213E-04 0.931E-03 0.494E-24   0.119E-05 0.113E-05 -.155E-13
   -.620E-01 0.552E-01 0.168E+00   0.614E-01 -.512E-01 -.160E+00   0.387E-03 -.337E-02 -.608E-02   -.300E-06 0.905E-04 -.300E-05
   -.466E+00 0.654E-01 -.165E+00   0.440E+00 -.646E-01 0.157E+00   0.216E-01 -.497E-03 0.602E-02   0.106E-03 -.206E-05 0.429E-05
   -.315E+00 -.960E+00 0.297E-10   0.296E+00 0.917E+00 0.142E-13   0.161E-01 0.376E-01 -.254E-24   0.994E-04 0.102E-03 0.156E-12
   -.218E+01 0.175E-01 0.849E-06   0.206E+01 -.185E-01 0.711E-14   0.143E+00 0.854E-03 -.609E-23   0.337E-05 -.180E-05 0.999E-13
   -.620E-01 0.552E-01 -.168E+00   0.614E-01 -.512E-01 0.160E+00   0.387E-03 -.337E-02 0.608E-02   -.300E-06 0.905E-04 0.300E-05
   -.466E+00 0.654E-01 0.165E+00   0.440E+00 -.646E-01 -.157E+00   0.216E-01 -.497E-03 -.602E-02   0.106E-03 -.206E-05 -.429E-05
   -.975E-01 -.113E+00 -.296E-11   0.939E-01 0.109E+00 0.178E-14   0.292E-02 0.269E-02 -.239E-24   0.932E-04 0.929E-04 -.206E-13
   -.151E-01 0.275E-02 -.528E-08   0.162E-01 -.273E-02 -.533E-14   -.931E-03 -.213E-04 0.412E-24   -.113E-05 -.119E-05 0.136E-13
   -.621E-01 -.709E-01 0.168E+00   0.614E-01 0.672E-01 -.161E+00   0.411E-03 0.315E-02 -.609E-02   -.925E-06 -.896E-04 -.311E-05
   0.709E-01 0.621E-01 0.168E+00   -.672E-01 -.614E-01 -.161E+00   -.315E-02 -.411E-03 -.609E-02   0.896E-04 0.925E-06 -.311E-05
   -.298E+00 0.298E+00 -.926E-12   0.280E+00 -.280E+00 0.142E-13   0.155E-01 -.155E-01 0.418E-25   0.991E-04 -.991E-04 0.150E-12
   -.151E-01 0.151E-01 -.948E-12   0.162E-01 -.162E-01 0.711E-14   -.935E-03 0.935E-03 -.108E-24   -.700E-06 0.700E-06 0.979E-13
   -.621E-01 -.709E-01 -.168E+00   0.614E-01 0.672E-01 0.161E+00   0.411E-03 0.315E-02 0.609E-02   -.925E-06 -.896E-04 0.311E-05
   0.709E-01 0.621E-01 -.168E+00   -.672E-01 -.614E-01 0.161E+00   -.315E-02 -.411E-03 0.609E-02   0.896E-04 0.925E-06 0.311E-05
   -.969E-01 0.969E-01 -.414E-11   0.932E-01 -.932E-01 0.000E+00   0.292E-02 -.292E-02 0.100E-24   0.933E-04 -.933E-04 -.228E-14
   -.160E-02 0.160E-02 0.319E-11   0.163E-02 -.163E-02 -.533E-14   -.222E-04 0.222E-04 0.732E-24   -.111E-05 0.111E-05 0.209E-13
   0.449E+01 0.247E+00 -.377E-05   -.443E+01 -.242E+00 0.266E-14   -.135E+00 -.886E-02 0.588E-23   -.109E-03 -.207E-05 0.147E-12
   -.247E+00 -.449E+01 0.377E-05   0.242E+00 0.443E+01 0.622E-14   0.886E-02 0.135E+00 0.132E-22   0.207E-05 0.109E-03 0.168E-12
   -.256E+00 0.256E+00 -.956E+00   0.250E+00 -.250E+00 0.940E+00   0.924E-02 -.924E-02 0.275E-01   0.210E-05 -.210E-05 0.108E-04
   0.314E+00 -.314E+00 -.528E-02   -.311E+00 0.311E+00 0.519E-02   -.597E-02 0.597E-02 0.155E-03   -.862E-04 0.862E-04 0.658E-06
   0.206E+00 0.872E-02 -.796E-09   -.202E+00 -.877E-02 -.169E-13   -.534E-02 0.821E-04 0.139E-25   -.878E-04 -.110E-05 0.262E-13
   -.872E-02 -.206E+00 0.795E-09   0.877E-02 0.202E+00 -.124E-13   -.821E-04 0.534E-02 0.949E-25   0.110E-05 0.878E-04 -.279E-14
   -.256E+00 0.256E+00 0.956E+00   0.250E+00 -.250E+00 -.940E+00   0.924E-02 -.924E-02 -.275E-01   0.210E-05 -.210E-05 -.108E-04
   0.314E+00 -.314E+00 0.528E-02   -.311E+00 0.311E+00 -.519E-02   -.597E-02 0.597E-02 -.155E-03   -.862E-04 0.862E-04 -.658E-06
   -.321E+00 0.252E+00 -.113E-09   0.315E+00 -.247E+00 -.133E-13   0.101E-01 -.930E-02 0.132E-23   -.795E-04 0.146E-05 0.137E-12
   -.256E+00 0.100E+01 -.851E-06   0.250E+00 -.986E+00 -.107E-13   0.921E-02 -.233E-01 0.307E-24   0.205E-05 -.998E-04 0.156E-12
   -.872E-02 0.252E+00 0.447E+00   0.877E-02 -.247E+00 -.440E+00   -.837E-04 -.931E-02 -.126E-01   0.132E-05 0.656E-06 -.119E-05
   0.311E+00 0.178E+00 -.184E-02   -.307E+00 -.176E+00 0.182E-02   -.588E-02 -.397E-02 0.469E-04   -.872E-04 -.853E-04 0.760E-06
   0.282E-01 0.701E-02 -.310E-11   -.282E-01 -.709E-02 -.151E-13   0.142E-03 0.128E-03 0.572E-24   -.751E-04 0.892E-07 0.450E-13
   -.872E-02 0.171E+00 0.795E-09   0.877E-02 -.167E+00 -.107E-13   -.877E-04 -.639E-02 -.364E-24   0.145E-05 -.883E-04 0.686E-14
   -.872E-02 0.252E+00 -.447E+00   0.877E-02 -.247E+00 0.440E+00   -.837E-04 -.931E-02 0.126E-01   0.132E-05 0.656E-06 0.119E-05
   0.311E+00 0.178E+00 0.184E-02   -.307E+00 -.176E+00 -.182E-02   -.588E-02 -.397E-02 -.469E-04   -.872E-04 -.853E-04 -.760E-06
   -.100E+01 0.256E+00 0.851E-06   0.986E+00 -.250E+00 -.107E-13   0.233E-01 -.921E-02 -.821E-25   0.998E-04 -.205E-05 0.194E-12
   -.252E+00 0.321E+00 0.106E-09   0.247E+00 -.315E+00 -.124E-13   0.930E-02 -.101E-01 0.129E-23   -.146E-05 0.795E-04 0.121E-12
   -.252E+00 0.872E-02 0.447E+00   0.247E+00 -.877E-02 -.440E+00   0.931E-02 0.837E-04 -.126E-01   -.656E-06 -.132E-05 -.119E-05
   -.178E+00 -.311E+00 -.184E-02   0.176E+00 0.307E+00 0.182E-02   0.397E-02 0.588E-02 0.469E-04   0.853E-04 0.872E-04 0.760E-06
   -.171E+00 0.872E-02 -.799E-09   0.167E+00 -.877E-02 -.107E-13   0.639E-02 0.877E-04 -.329E-24   0.883E-04 -.145E-05 -.104E-13
   -.701E-02 -.282E-01 0.711E-11   0.709E-02 0.282E-01 -.178E-14   -.128E-03 -.142E-03 0.399E-24   -.892E-07 0.751E-04 0.491E-13
   -.252E+00 0.872E-02 -.447E+00   0.247E+00 -.877E-02 0.440E+00   0.931E-02 0.837E-04 0.126E-01   -.656E-06 -.132E-05 0.119E-05
   -.178E+00 -.311E+00 0.184E-02   0.176E+00 0.307E+00 -.182E-02   0.397E-02 0.588E-02 -.469E-04   0.853E-04 0.872E-04 -.760E-06
   0.356E+00 0.252E+00 -.107E-09   -.350E+00 -.247E+00 -.107E-13   -.909E-02 -.931E-02 0.244E-24   0.779E-04 0.230E-05 0.140E-12
   -.252E+00 -.356E+00 0.106E-09   0.247E+00 0.350E+00 -.107E-13   0.931E-02 0.909E-02 0.848E-24   -.230E-05 -.779E-04 0.131E-12
   -.701E-02 0.701E-02 0.801E-01   0.709E-02 -.709E-02 -.784E-01   -.127E-03 0.127E-03 -.290E-02   -.259E-05 0.259E-05 -.539E-05
   -.175E+00 0.175E+00 0.156E-02   0.172E+00 -.172E+00 -.155E-02   0.391E-02 -.391E-02 -.171E-04   0.851E-04 -.851E-04 0.207E-06
   -.239E-01 0.702E-02 -.642E-11   0.239E-01 -.709E-02 -.355E-14   -.116E-03 0.122E-03 -.821E-24   0.737E-04 -.135E-05 0.306E-13
   -.702E-02 0.239E-01 0.339E-11   0.709E-02 -.239E-01 -.355E-14   -.122E-03 0.116E-03 -.120E-23   0.135E-05 -.737E-04 0.425E-13
   -.701E-02 0.701E-02 -.801E-01   0.709E-02 -.709E-02 0.784E-01   -.127E-03 0.127E-03 0.290E-02   -.259E-05 0.259E-05 0.539E-05
   -.175E+00 0.175E+00 -.156E-02   0.172E+00 -.172E+00 0.155E-02   0.391E-02 -.391E-02 0.171E-04   0.851E-04 -.851E-04 -.207E-06
 -----------------------------------------------------------------------------------------------
   -.150E+00 0.150E+00 -.259E-10   0.702E-13 0.772E-14 -.667E-13   0.150E+00 -.150E+00 -.325E-17   -.115E-04 0.115E-04 -.158E-11
 
 
 POSITION                                       TOTAL-FORCE (eV/Angst)
 -----------------------------------------------------------------------------------
      0.00000      0.00000      0.00000        -0.000244     -0.006312     -0.001190
      2.80100      2.80100      0.00000         0.006312      0.000244     -0.001190
      2.80100      0.00000      2.80100         0.004938     -0.004938      0.000000
      0.00000      2.80100      2.80100         0.016196     -0.016196      0.000000
      0.00000      0.00000      5.60200        -0.000244     -0.006312      0.001190
      2.80100      2.80100      5.60200         0.006312      0.000244      0.001190
      2.80100      0.00000      8.40300         0.000605     -0.000605      0.000000
      0.00000      2.80100      8.40300         0.000152     -0.000152      0.000000
      0.00000      5.60200      0.00000        -0.000233      0.004131     -0.001287
      2.80100      8.40300      0.00000        -0.000692      0.000210      0.001301
      2.80100      5.60200      2.80100         0.005010      0.002722      0.000000
      0.00000      8.40300      2.80100         0.000150     -0.020262      0.000000
      0.00000      5.60200      5.60200        -0.000233      0.004131      0.001287
      2.80100      8.40300      5.60200        -0.000692      0.000210     -0.001301
      2.80100      5.60200      8.40300         0.000605      0.000668      0.000000
      0.00000      8.40300      8.40300        -0.000004     -0.000167      0.000000
      5.60200      0.00000      0.00000        -0.000210      0.000692      0.001301
      8.40300      2.80100      0.00000        -0.004131      0.000233     -0.001287
      8.40300      0.00000      2.80100        -0.002722     -0.005010      0.000000
      5.60200      2.80100      2.80100         0.020262     -0.000150      0.000000
      5.60200      0.00000      5.60200        -0.000210      0.000692     -0.001301
      8.40300      2.80100      5.60200        -0.004131      0.000233      0.001287
      8.40300      0.00000      8.40300        -0.000668     -0.000605      0.000000
      5.60200      2.80100      8.40300         0.000167      0.000004      0.000000
      5.60200      5.60200      0.00000        -0.000215     -0.000630      0.001303
      8.40300      8.40300      0.00000         0.000630      0.000215      0.001303
      8.40300      5.60200      2.80100        -0.002835      0.002835      0.000000
      5.60200      8.40300      2.80100         0.000168     -0.000168      0.000000
      5.60200      5.60200      5.60200        -0.000215     -0.000630     -0.001303
      8.40300      8.40300      5.60200         0.000630      0.000215     -0.001303
      8.40300      5.60200      8.40300        -0.000667      0.000667      0.000000
      5.60200      8.40300      8.40300         0.000006     -0.000006      0.000000
      2.83100      2.80100      2.80100        -0.081635     -0.003689      0.000000
      0.00000     11.17400      2.80100         0.003689      0.081635      0.000000
      0.00000      2.80100      0.00000         0.003872     -0.003872      0.011499
      2.80100      0.00000      0.00000        -0.002366      0.002366      0.000066
      2.80100      2.80100      8.40300        -0.002113      0.000037      0.000000
      0.00000      0.00000      8.40300        -0.000037      0.002113      0.000000
      0.00000      2.80100      5.60200         0.003872     -0.003872     -0.011499
      2.80100      0.00000      5.60200        -0.002366      0.002366     -0.000066
      2.80100      8.40300      2.80100         0.004339     -0.003917      0.000000
      0.00000      5.60200      2.80100         0.003858     -0.009579      0.000000
      0.00000      8.40300      0.00000        -0.000038     -0.003919     -0.005315
      2.80100      5.60200      0.00000        -0.002331     -0.001569      0.000021
      2.80100      8.40300      8.40300         0.000059      0.000055      0.000000
      0.00000      5.60200      8.40300        -0.000039     -0.002524      0.000000
      0.00000      8.40300      5.60200        -0.000038     -0.003919      0.005315
      2.80100      5.60200      5.60200        -0.002331     -0.001569     -0.000021
      8.40300      2.80100      2.80100         0.009579     -0.003858      0.000000
      5.60200      0.00000      2.80100         0.003917     -0.004339      0.000000
      5.60200      2.80100      0.00000         0.003919      0.000038     -0.005315
      8.40300      0.00000      0.00000         0.001569      0.002331      0.000021
      8.40300      2.80100      8.40300         0.002524      0.000039      0.000000
      5.60200      0.00000      8.40300        -0.000055     -0.000059      0.000000
      5.60200      2.80100      5.60200         0.003919      0.000038      0.005315
      8.40300      0.00000      5.60200         0.001569      0.002331     -0.000021
      8.40300      8.40300      2.80100        -0.003928     -0.003923      0.000000
      5.60200      5.60200      2.80100         0.003923      0.003928      0.000000
      5.60200      8.40300      0.00000        -0.000053      0.000053     -0.001151
      8.40300      5.60200      0.00000         0.001540     -0.001540     -0.000007
      8.40300      8.40300      8.40300        -0.000050      0.000051      0.000000
      5.60200      5.60200      8.40300        -0.000051      0.000050      0.000000
      5.60200      8.40300      5.60200        -0.000053      0.000053      0.001151
      8.40300      5.60200      5.60200         0.001540     -0.001540      0.000007
 -----------------------------------------------------------------------------------
    total drift:                                0.000193     -0.000193     -0.000000


--------------------------------------------------------------------------------------------------------



  FREE ENERGIE OF THE ION-ELECTRON SYSTEM (eV)
  ---------------------------------------------------
  free  energy   TOTEN  =      -223.90025210 eV

  energy  without entropy=     -223.90025210  energy(sigma->0) =     -223.90025210
 


--------------------------------------------------------------------------------------------------------


    POTLOK:  cpu time      0.0684: real time      0.0687


--------------------------------------------------------------------------------------------------------


     LOOP+:  cpu time    177.8578: real time    178.8712
    4ORBIT:  cpu time      0.0000: real time      0.0000

 total amount of memory used by VASP MPI-rank0   118439. kBytes
=======================================================================

   base      :      30000. kBytes
   nonl-proj :      36470. kBytes
   fftplans  :      14405. kBytes
   grid      :      19342. kBytes
   one-center:        196. kBytes
   wavefun   :      18026. kBytes
 
  
  
 General timing and accounting informations for this job:
 ========================================================
  
                  Total CPU time used (sec):      181.390
                            User time (sec):      180.872
                          System time (sec):        0.518
                         Elapsed time (sec):      182.830
  
                   Maximum memory used (kb):      303196.
                   Average memory used (kb):          N/A
  
                          Minor page faults:       101288
                          Major page faults:            0
                 Voluntary context switches:          866
