<?xml version="1.0" encoding="ISO-8859-1"?>
<modeling>
 <generator>
  <i name="program" type="string">vasp </i>
  <i name="version" type="string">6.3.2  </i>
  <i name="subversion" type="string">27Jun22 (build Oct 14 2022 12:13:54) complex                          parallel </i>
  <i name="platform" type="string">LinuxIFC </i>
  <i name="date" type="string">2025 08 28 </i>
  <i name="time" type="string">22:10:59 </i>
 </generator>
 <incar>
  <i type="string" name="PREC">Accurate</i>
  <i type="int" name="IALGO">    38</i>
  <i type="logical" name="ADDGRID"> T  </i>
  <i type="int" name="NELMIN">     5</i>
  <i type="int" name="IBRION">    -1</i>
  <i name="EDIFF">      0.00000001</i>
  <i name="ENCUT">    341.21360000</i>
  <i type="logical" name="LREAL"> F  </i>
  <i type="int" name="ISMEAR">     0</i>
  <i name="SIGMA">      0.02000000</i>
  <i type="logical" name="LWAVE"> F  </i>
  <i type="logical" name="LCHARG"> F  </i>
  <i type="string" name="GGA">PS</i>
 </incar>
 <primitive_cell>
  <structure name="primitive_cell" >
   <crystal>
    <varray name="basis" >
     <v>      11.20400236       0.00000000       0.00000000 </v>
     <v>       0.00000000      11.20400236       0.00000000 </v>
     <v>       0.00000000       0.00000000      11.20400236 </v>
    </varray>
    <i name="volume">   1406.43470641 </i>
    <varray name="rec_basis" >
     <v>       0.08925382       0.00000000       0.00000000 </v>
     <v>       0.00000000       0.08925382       0.00000000 </v>
     <v>       0.00000000       0.00000000       0.08925382 </v>
    </varray>
   </crystal>
   <varray name="positions" >
    <v>       0.00000000       0.00000000       0.00000000 </v>
    <v>       0.25000000       0.25000000       0.00000000 </v>
    <v>       0.25000000       0.00000000       0.25000000 </v>
    <v>       0.00000000       0.25000000       0.25000000 </v>
    <v>       0.00000000       0.00000000       0.50000000 </v>
    <v>       0.25000000       0.25000000       0.50000000 </v>
    <v>       0.25000000       0.00000000       0.75000000 </v>
    <v>       0.00000000       0.25000000       0.75000000 </v>
    <v>       0.00000000       0.50000000       0.00000000 </v>
    <v>       0.25000000       0.75000000       0.00000000 </v>
    <v>       0.25000000       0.50000000       0.25000000 </v>
    <v>       0.00000000       0.75000000       0.25000000 </v>
    <v>       0.00000000       0.50000000       0.50000000 </v>
    <v>       0.25000000       0.75000000       0.50000000 </v>
    <v>       0.25000000       0.50000000       0.75000000 </v>
    <v>       0.00000000       0.75000000       0.75000000 </v>
    <v>       0.50000000       0.00000000       0.00000000 </v>
    <v>       0.75000000       0.25000000       0.00000000 </v>
    <v>       0.75000000       0.00000000       0.25000000 </v>
    <v>       0.50000000       0.25000000       0.25000000 </v>
    <v>       0.50000000       0.00000000       0.50000000 </v>
    <v>       0.75000000       0.25000000       0.50000000 </v>
    <v>       0.75000000       0.00000000       0.75000000 </v>
    <v>       0.50000000       0.25000000       0.75000000 </v>
    <v>       0.50000000       0.50000000       0.00000000 </v>
    <v>       0.75000000       0.75000000       0.00000000 </v>
    <v>       0.75000000       0.50000000       0.25000000 </v>
    <v>       0.50000000       0.75000000       0.25000000 </v>
    <v>       0.50000000       0.50000000       0.50000000 </v>
    <v>       0.75000000       0.75000000       0.50000000 </v>
    <v>       0.75000000       0.50000000       0.75000000 </v>
    <v>       0.50000000       0.75000000       0.75000000 </v>
    <v>       0.25267761       0.25000000       0.25000000 </v>
    <v>       0.00000000       0.99732239       0.25000000 </v>
    <v>       0.00000000       0.25000000       0.00000000 </v>
    <v>       0.25000000       0.00000000       0.00000000 </v>
    <v>       0.25000000       0.25000000       0.75000000 </v>
    <v>       0.00000000       0.00000000       0.75000000 </v>
    <v>       0.00000000       0.25000000       0.50000000 </v>
    <v>       0.25000000       0.00000000       0.50000000 </v>
    <v>       0.25000000       0.75000000       0.25000000 </v>
    <v>       0.00000000       0.50000000       0.25000000 </v>
    <v>       0.00000000       0.75000000       0.00000000 </v>
    <v>       0.25000000       0.50000000       0.00000000 </v>
    <v>       0.25000000       0.75000000       0.75000000 </v>
    <v>       0.00000000       0.50000000       0.75000000 </v>
    <v>       0.00000000       0.75000000       0.50000000 </v>
    <v>       0.25000000       0.50000000       0.50000000 </v>
    <v>       0.75000000       0.25000000       0.25000000 </v>
    <v>       0.50000000       0.00000000       0.25000000 </v>
    <v>       0.50000000       0.25000000       0.00000000 </v>
    <v>       0.75000000       0.00000000       0.00000000 </v>
    <v>       0.75000000       0.25000000       0.75000000 </v>
    <v>       0.50000000       0.00000000       0.75000000 </v>
    <v>       0.50000000       0.25000000       0.50000000 </v>
    <v>       0.75000000       0.00000000       0.50000000 </v>
    <v>       0.75000000       0.75000000       0.25000000 </v>
    <v>       0.50000000       0.50000000       0.25000000 </v>
    <v>       0.50000000       0.75000000       0.00000000 </v>
    <v>       0.75000000       0.50000000       0.00000000 </v>
    <v>       0.75000000       0.75000000       0.75000000 </v>
    <v>       0.50000000       0.50000000       0.75000000 </v>
    <v>       0.50000000       0.75000000       0.50000000 </v>
    <v>       0.75000000       0.50000000       0.50000000 </v>
   </varray>
  </structure>
  <varray name="primitive_index" >
   <v type="int" >        1 </v>
   <v type="int" >        2 </v>
   <v type="int" >        3 </v>
   <v type="int" >        4 </v>
   <v type="int" >        5 </v>
   <v type="int" >        6 </v>
   <v type="int" >        7 </v>
   <v type="int" >        8 </v>
   <v type="int" >        9 </v>
   <v type="int" >       10 </v>
   <v type="int" >       11 </v>
   <v type="int" >       12 </v>
   <v type="int" >       13 </v>
   <v type="int" >       14 </v>
   <v type="int" >       15 </v>
   <v type="int" >       16 </v>
   <v type="int" >       17 </v>
   <v type="int" >       18 </v>
   <v type="int" >       19 </v>
   <v type="int" >       20 </v>
   <v type="int" >       21 </v>
   <v type="int" >       22 </v>
   <v type="int" >       23 </v>
   <v type="int" >       24 </v>
   <v type="int" >       25 </v>
   <v type="int" >       26 </v>
   <v type="int" >       27 </v>
   <v type="int" >       28 </v>
   <v type="int" >       29 </v>
   <v type="int" >       30 </v>
   <v type="int" >       31 </v>
   <v type="int" >       32 </v>
   <v type="int" >       33 </v>
   <v type="int" >       34 </v>
   <v type="int" >       35 </v>
   <v type="int" >       36 </v>
   <v type="int" >       37 </v>
   <v type="int" >       38 </v>
   <v type="int" >       39 </v>
   <v type="int" >       40 </v>
   <v type="int" >       41 </v>
   <v type="int" >       42 </v>
   <v type="int" >       43 </v>
   <v type="int" >       44 </v>
   <v type="int" >       45 </v>
   <v type="int" >       46 </v>
   <v type="int" >       47 </v>
   <v type="int" >       48 </v>
   <v type="int" >       49 </v>
   <v type="int" >       50 </v>
   <v type="int" >       51 </v>
   <v type="int" >       52 </v>
   <v type="int" >       53 </v>
   <v type="int" >       54 </v>
   <v type="int" >       55 </v>
   <v type="int" >       56 </v>
   <v type="int" >       57 </v>
   <v type="int" >       58 </v>
   <v type="int" >       59 </v>
   <v type="int" >       60 </v>
   <v type="int" >       61 </v>
   <v type="int" >       62 </v>
   <v type="int" >       63 </v>
   <v type="int" >       64 </v>
  </varray>
 </primitive_cell>
 <kpoints>
  <generation param="Gamma">
   <v type="int" name="divisions">       2        2        2 </v>
   <v name="usershift">      0.00000000       0.00000000       0.00000000 </v>
   <v name="genvec1">      0.50000000       0.00000000       0.00000000 </v>
   <v name="genvec2">      0.00000000       0.50000000       0.00000000 </v>
   <v name="genvec3">      0.00000000       0.00000000       0.50000000 </v>
   <v name="shift">      0.00000000       0.00000000       0.00000000 </v>
  </generation>
  <varray name="kpointlist" >
   <v>       0.00000000       0.00000000       0.00000000 </v>
   <v>       0.50000000       0.00000000       0.00000000 </v>
   <v>       0.00000000       0.00000000       0.50000000 </v>
   <v>       0.50000000       0.50000000       0.00000000 </v>
   <v>       0.00000000       0.50000000       0.50000000 </v>
   <v>       0.50000000       0.50000000       0.50000000 </v>
  </varray>
  <varray name="weights" >
   <v>       0.12500000 </v>
   <v>       0.25000000 </v>
   <v>       0.12500000 </v>
   <v>       0.12500000 </v>
   <v>       0.25000000 </v>
   <v>       0.12500000 </v>
  </varray>
 </kpoints>
 <parameters>
  <separator name="general" >
   <i type="string" name="SYSTEM">unknown system</i>
   <i type="logical" name="LCOMPAT"> F  </i>
  </separator>
  <separator name="electronic" >
   <i type="string" name="PREC">accura</i>
   <i name="ENMAX">    341.21360000</i>
   <i name="ENAUG">    368.05600000</i>
   <i name="EDIFF">      0.00000001</i>
   <i type="int" name="IALGO">    38</i>
   <i type="int" name="IWAVPR">    10</i>
   <i type="int" name="NBANDS">   288</i>
   <i type="int" name="NBANDSLOW">    -1</i>
   <i type="int" name="NBANDSHIGH">    -1</i>
   <i name="NELECT">    448.00000000</i>
   <i type="int" name="TURBO">     0</i>
   <i type="int" name="IRESTART">     0</i>
   <i type="int" name="NREBOOT">     0</i>
   <i type="int" name="NMIN">     0</i>
   <i name="EREF">      0.00000000</i>
   <separator name="electronic smearing" >
    <i type="int" name="ISMEAR">     0</i>
    <i name="SIGMA">      0.02000000</i>
    <i name="KSPACING">      0.50000000</i>
    <i type="logical" name="KGAMMA"> T  </i>
    <i type="logical" name="KBLOWUP"> T  </i>
   </separator>
   <separator name="electronic projectors" >
    <i type="logical" name="LREAL"> F  </i>
    <v name="ROPT">      0.00000000      0.00000000</v>
    <i type="int" name="LMAXPAW">  -100</i>
    <i type="int" name="LMAXMIX">     2</i>
    <i type="logical" name="NLSPLINE"> F  </i>
   </separator>
   <separator name="electronic startup" >
    <i type="int" name="ISTART">     0</i>
    <i type="int" name="ICHARG">     2</i>
    <i type="int" name="INIWAV">     1</i>
   </separator>
   <separator name="electronic spin" >
    <i type="int" name="ISPIN">     1</i>
    <i type="logical" name="LNONCOLLINEAR"> F  </i>
    <v name="MAGMOM">      1.00000000      1.00000000      1.00000000      1.00000000      1.00000000      1.00000000      1.00000000      1.00000000      1.00000000      1.00000000      1.00000000      1.00000000      1.00000000      1.00000000      1.00000000      1.00000000      1.00000000      1.00000000      1.00000000      1.00000000
      1.00000000      1.00000000      1.00000000      1.00000000      1.00000000      1.00000000      1.00000000      1.00000000      1.00000000      1.00000000      1.00000000      1.00000000      1.00000000      1.00000000      1.00000000      1.00000000      1.00000000      1.00000000      1.00000000      1.00000000
      1.00000000      1.00000000      1.00000000      1.00000000      1.00000000      1.00000000      1.00000000      1.00000000      1.00000000      1.00000000      1.00000000      1.00000000      1.00000000      1.00000000      1.00000000      1.00000000      1.00000000      1.00000000      1.00000000      1.00000000
      1.00000000      1.00000000      1.00000000      1.00000000</v>
    <i name="NUPDOWN">     -1.00000000</i>
    <i type="logical" name="LSORBIT"> F  </i>
    <v name="SAXIS">      0.00000000      0.00000000      1.00000000</v>
    <i type="logical" name="LSPIRAL"> F  </i>
    <v name="QSPIRAL">      0.00000000      0.00000000      0.00000000</v>
    <i type="logical" name="LZEROZ"> F  </i>
   </separator>
   <separator name="electronic exchange-correlation" >
    <i type="logical" name="LASPH"> F  </i>
    <i type="logical" name="LMETAGGA"> F  </i>
   </separator>
   <separator name="electronic convergence" >
    <i type="int" name="NELM">    60</i>
    <i type="int" name="NELMDL">    -5</i>
    <i type="int" name="NELMIN">     5</i>
    <i name="ENINI">    341.21360000</i>
    <separator name="electronic convergence detail" >
     <i type="logical" name="LDIAG"> T  </i>
     <i type="logical" name="LSUBROT"> F  </i>
     <i name="WEIMIN">      0.00000000</i>
     <i name="EBREAK">      0.00000000</i>
     <i name="DEPER">      0.30000000</i>
     <i type="int" name="NRMM">     4</i>
     <i name="TIME">      0.40000000</i>
    </separator>
   </separator>
   <separator name="electronic mixer" >
    <i name="AMIX">      0.40000000</i>
    <i name="BMIX">      1.00000000</i>
    <i name="AMIN">      0.10000000</i>
    <i name="AMIX_MAG">      1.60000000</i>
    <i name="BMIX_MAG">      1.00000000</i>
    <separator name="electronic mixer details" >
     <i type="int" name="IMIX">     4</i>
     <i type="logical" name="MIXFIRST"> F  </i>
     <i type="int" name="MAXMIX">   -45</i>
     <i name="WC">    100.00000000</i>
     <i type="int" name="INIMIX">     1</i>
     <i type="int" name="MIXPRE">     1</i>
     <i type="int" name="MREMOVE">     5</i>
    </separator>
   </separator>
   <separator name="electronic dipolcorrection" >
    <i type="logical" name="LDIPOL"> F  </i>
    <i type="logical" name="LMONO"> F  </i>
    <i type="int" name="IDIPOL">     0</i>
    <i name="EPSILON">      1.00000000</i>
    <v name="DIPOL">   -100.00000000   -100.00000000   -100.00000000</v>
    <i name="EFIELD">      0.00000000</i>
   </separator>
  </separator>
  <separator name="grids" >
   <i type="int" name="NGX">    70</i>
   <i type="int" name="NGY">    70</i>
   <i type="int" name="NGZ">    70</i>
   <i type="int" name="NGXF">   140</i>
   <i type="int" name="NGYF">   140</i>
   <i type="int" name="NGZF">   140</i>
   <i type="logical" name="ADDGRID"> T  </i>
  </separator>
  <separator name="ionic" >
   <i type="int" name="NSW">     0</i>
   <i type="int" name="IBRION">    -1</i>
   <i type="int" name="MDALGO">     0</i>
   <i type="int" name="ISIF">     2</i>
   <i name="PSTRESS">      0.00000000</i>
   <i name="EDIFFG">      0.00000010</i>
   <i type="int" name="NFREE">     0</i>
   <i name="POTIM">      0.50000000</i>
   <i name="SMASS">     -3.00000000</i>
   <i name="SCALEE">      1.00000000</i>
  </separator>
  <separator name="ionic md" >
   <i name="TEBEG">      0.00010000</i>
   <i name="TEEND">      0.00010000</i>
   <i type="int" name="NBLOCK">     1</i>
   <i type="int" name="KBLOCK">     1</i>
   <i type="int" name="NPACO">   256</i>
   <i name="APACO">     10.00000000</i>
  </separator>
  <separator name="symmetry" >
   <i type="int" name="ISYM">     2</i>
   <i name="SYMPREC">      0.00001000</i>
  </separator>
  <separator name="dos" >
   <i type="int" name="LORBIT">     0</i>
   <v name="RWIGS">     -1.00000000     -1.00000000</v>
   <i type="int" name="NEDOS">   301</i>
   <i name="EMIN">     10.00000000</i>
   <i name="EMAX">    -10.00000000</i>
   <i name="EFERMI">      0.00000000</i>
  </separator>
  <separator name="writing" >
   <i type="int" name="NWRITE">     2</i>
   <i type="logical" name="LWAVE"> F  </i>
   <i type="logical" name="LDOWNSAMPLE"> F  </i>
   <i type="logical" name="LCHARG"> F  </i>
   <i type="logical" name="LPARD"> F  </i>
   <i type="logical" name="LVTOT"> F  </i>
   <i type="logical" name="LVHAR"> F  </i>
   <i type="logical" name="LELF"> F  </i>
   <i type="logical" name="LOPTICS"> F  </i>
   <v name="STM">      0.00000000      0.00000000      0.00000000      0.00000000      0.00000000      0.00000000      0.00000000</v>
  </separator>
  <separator name="performance" >
   <i type="int" name="NPAR">    32</i>
   <i type="int" name="NSIM">     4</i>
   <i type="int" name="NBLK">    -1</i>
   <i type="logical" name="LPLANE"> T  </i>
   <i type="logical" name="LSCALAPACK"> T  </i>
   <i type="logical" name="LSCAAWARE"> F  </i>
   <i type="logical" name="LSCALU"> F  </i>
   <i type="logical" name="LASYNC"> F  </i>
   <i type="logical" name="LORBITALREAL"> F  </i>
  </separator>
  <separator name="miscellaneous" >
   <i type="int" name="IDIOT">     3</i>
   <i type="int" name="PHON_NSTRUCT">    -1</i>
   <i type="logical" name="LMUSIC"> F  </i>
   <v name="POMASS">     22.99000000     35.45300000</v>
   <v name="DARWINR">      0.00000000      0.00000000</v>
   <v name="DARWINV">      1.00000000      1.00000000</v>
   <i type="logical" name="LCORR"> T  </i>
  </separator>
  <i type="logical" name="GGA_COMPAT"> T  </i>
  <i type="logical" name="LBERRY"> F  </i>
  <i type="int" name="ICORELEVEL">     0</i>
  <i type="logical" name="LDAU"> F  </i>
  <i type="int" name="I_CONSTRAINED_M">     0</i>
  <separator name="electronic exchange-correlation" >
   <i type="string" name="GGA">PS</i>
   <i type="int" name="VOSKOWN">     0</i>
   <i type="logical" name="LHFCALC"> F  </i>
   <i type="string" name="PRECFOCK"></i>
   <i type="logical" name="LSYMGRAD"> F  </i>
   <i type="logical" name="LHFONE"> F  </i>
   <i type="logical" name="LRHFCALC"> F  </i>
   <i type="logical" name="LTHOMAS"> F  </i>
   <i type="logical" name="LMODELHF"> F  </i>
   <i type="logical" name="LFOCKACE"> F  </i>
   <i name="ENCUT4O">     -1.00000000</i>
   <i type="int" name="EXXOEP">     0</i>
   <i type="int" name="FOURORBIT">     0</i>
   <i name="AEXX">      0.00000000</i>
   <i name="HFALPHA">      0.00000000</i>
   <i name="MCALPHA">      0.00000000</i>
   <i name="ALDAX">      1.00000000</i>
   <i name="AGGAX">      1.00000000</i>
   <i name="ALDAC">      1.00000000</i>
   <i name="AGGAC">      1.00000000</i>
   <i type="int" name="NKREDX">     1</i>
   <i type="int" name="NKREDY">     1</i>
   <i type="int" name="NKREDZ">     1</i>
   <i type="logical" name="SHIFTRED"> F  </i>
   <i type="logical" name="ODDONLY"> F  </i>
   <i type="logical" name="EVENONLY"> F  </i>
   <i type="int" name="LMAXFOCK">     0</i>
   <i type="int" name="NMAXFOCKAE">     0</i>
   <i type="logical" name="LFOCKAEDFT"> F  </i>
   <i name="HFSCREEN">      0.00000000</i>
   <i name="HFSCREENC">      0.00000000</i>
   <i type="int" name="NBANDSGWLOW">     0</i>
  </separator>
  <separator name="vdW DFT" >
   <i type="logical" name="LUSE_VDW"> F  </i>
   <i name="Zab_VDW">     -0.84910000</i>
   <i name="PARAM1">      0.12340000</i>
   <i name="PARAM2">      1.00000000</i>
   <i name="PARAM3">      0.00000000</i>
  </separator>
  <separator name="model GW" >
   <i type="int" name="MODEL_GW">     0</i>
   <i name="MODEL_EPS0">     13.18532537</i>
   <i name="MODEL_ALPHA">      1.00000000</i>
  </separator>
  <separator name="linear response parameters" >
   <i type="logical" name="LEPSILON"> F  </i>
   <i type="logical" name="LRPA"> F  </i>
   <i type="logical" name="LNABLA"> F  </i>
   <i type="logical" name="LVEL"> F  </i>
   <i name="CSHIFT">      0.10000000</i>
   <i name="OMEGAMAX">     -1.00000000</i>
   <i name="DEG_THRESHOLD">      0.00200000</i>
   <i name="RTIME">     -0.10000000</i>
   <i name="WPLASMAI">      0.00000000</i>
   <v name="DFIELD">      0.00000000      0.00000000      0.00000000</v>
   <v name="WPLASMA">      0.00000000      0.00000000      0.00000000      0.00000000      0.00000000      0.00000000      0.00000000      0.00000000      0.00000000</v>
  </separator>
  <separator name="orbital magnetization" >
   <i type="logical" name="NUCIND"> F  </i>
   <v name="MAGPOS">      0.00000000      0.00000000      0.00000000</v>
   <i type="logical" name="LNICSALL"> T  </i>
   <i type="logical" name="ORBITALMAG"> F  </i>
   <i type="logical" name="LMAGBLOCH"> F  </i>
   <i type="logical" name="LCHIMAG"> F  </i>
   <i type="logical" name="LGAUGE"> T  </i>
   <i type="int" name="MAGATOM">     0</i>
   <v name="MAGDIPOL">      0.00000000      0.00000000      0.00000000</v>
   <v name="AVECCONST">      0.00000000      0.00000000      0.00000000</v>
  </separator>
  <separator name="response functions" >
   <i type="logical" name="LFINITE_TEMPERATURE"> F  </i>
   <i type="logical" name="LADDER"> F  </i>
   <i type="logical" name="LRPAFORCE"> F  </i>
   <i type="logical" name="LFXC"> F  </i>
   <i type="logical" name="LHARTREE"> T  </i>
   <i type="int" name="IBSE">     0</i>
   <v type="int" name="KPOINT">    -1     0     0     0</v>
   <i type="logical" name="LTCTC"> F  </i>
   <i type="logical" name="LTCTE"> F  </i>
   <i type="logical" name="LTETE"> F  </i>
   <i type="logical" name="LTRIPLET"> F  </i>
   <i type="logical" name="LFXCEPS"> F  </i>
   <i type="logical" name="LFXHEG"> F  </i>
   <i type="int" name="NATURALO">     2</i>
   <i type="logical" name="LHOLEGF"> F  </i>
   <i type="logical" name="L2ORDER"> F  </i>
   <i type="logical" name="LDMP1"> F  </i>
   <i type="logical" name="LMP2LT"> F  </i>
   <i type="logical" name="LSMP2LT"> F  </i>
   <i type="logical" name="LGWLF"> F  </i>
   <i name="ENCUTGW">     -2.00000000</i>
   <i name="ENCUTGWSOFT">     -2.00000000</i>
   <i name="ENCUTLF">     -1.00000000</i>
   <i type="logical" name="LESF_SPLINES"> F  </i>
   <i type="int" name="LMAXMP2">    -1</i>
   <i name="SCISSOR">      0.00000000</i>
   <i type="int" name="NOMEGA">     0</i>
   <i type="int" name="NOMEGAR">     0</i>
   <i type="int" name="NBANDSGW">    -1</i>
   <i type="int" name="NBANDSO">    -1</i>
   <i type="int" name="NBANDSV">    -1</i>
   <i type="int" name="NELMGW">     1</i>
   <i type="int" name="NELMHF">     1</i>
   <i type="int" name="DIM">     3</i>
   <i type="int" name="IESPILON">     4</i>
   <i type="int" name="ANTIRES">     0</i>
   <i name="OMEGAMAX">    -30.00000000</i>
   <i name="OMEGAMIN">    -30.00000000</i>
   <i name="OMEGATL">   -200.00000000</i>
   <i type="int" name="OMEGAGRID">     0</i>
   <i name="CSHIFT">     -0.10000000</i>
   <i type="logical" name="LSELFENERGY"> F  </i>
   <i type="logical" name="LSPECTRAL"> F  </i>
   <i type="logical" name="LSPECTRALGW"> F  </i>
   <i type="logical" name="LSINGLES"> F  </i>
   <i type="logical" name="LFERMIGW"> F  </i>
   <i type="logical" name="ODDONLYGW"> F  </i>
   <i type="logical" name="EVENONLYGW"> F  </i>
   <i type="int" name="NKREDLFX">     1</i>
   <i type="int" name="NKREDLFY">     1</i>
   <i type="int" name="NKREDLFZ">     1</i>
   <i type="int" name="MAXMEM">  2800</i>
   <i type="int" name="TELESCOPE">     0</i>
   <i type="int" name="NTAUPAR">    -1</i>
   <i type="int" name="NOMEGAPAR">    -1</i>
   <i name="DAMP_NEWTON">      0.80000001</i>
   <i name="LAMBDA">      1.00000000</i>
  </separator>
  <separator name="External order field" >
   <i name="OFIELD_KAPPA">      0.00000000</i>
   <v name="OFIELD_K">      0.00000000      0.00000000      0.00000000</v>
   <i name="OFIELD_Q6_NEAR">      0.00000000</i>
   <i name="OFIELD_Q6_FAR">      0.00000000</i>
   <i name="OFIELD_A">      0.00000000</i>
  </separator>
  <separator name="optional k-points parameters" >
   <i type="int" name="KPOINTS_OPT_MODE">     1</i>
   <i type="logical" name="LKPOINTS_OPT"> F  </i>
  </separator>
 </parameters>
 <atominfo>
  <atoms>      64 </atoms>
  <types>       2 </types>
  <array name="atoms" >
   <dimension dim="1">ion</dimension>
   <field type="string">element</field>
   <field type="int">atomtype</field>
   <set>
    <rc><c>Na</c><c>   1</c></rc>
    <rc><c>Na</c><c>   1</c></rc>
    <rc><c>Na</c><c>   1</c></rc>
    <rc><c>Na</c><c>   1</c></rc>
    <rc><c>Na</c><c>   1</c></rc>
    <rc><c>Na</c><c>   1</c></rc>
    <rc><c>Na</c><c>   1</c></rc>
    <rc><c>Na</c><c>   1</c></rc>
    <rc><c>Na</c><c>   1</c></rc>
    <rc><c>Na</c><c>   1</c></rc>
    <rc><c>Na</c><c>   1</c></rc>
    <rc><c>Na</c><c>   1</c></rc>
    <rc><c>Na</c><c>   1</c></rc>
    <rc><c>Na</c><c>   1</c></rc>
    <rc><c>Na</c><c>   1</c></rc>
    <rc><c>Na</c><c>   1</c></rc>
    <rc><c>Na</c><c>   1</c></rc>
    <rc><c>Na</c><c>   1</c></rc>
    <rc><c>Na</c><c>   1</c></rc>
    <rc><c>Na</c><c>   1</c></rc>
    <rc><c>Na</c><c>   1</c></rc>
    <rc><c>Na</c><c>   1</c></rc>
    <rc><c>Na</c><c>   1</c></rc>
    <rc><c>Na</c><c>   1</c></rc>
    <rc><c>Na</c><c>   1</c></rc>
    <rc><c>Na</c><c>   1</c></rc>
    <rc><c>Na</c><c>   1</c></rc>
    <rc><c>Na</c><c>   1</c></rc>
    <rc><c>Na</c><c>   1</c></rc>
    <rc><c>Na</c><c>   1</c></rc>
    <rc><c>Na</c><c>   1</c></rc>
    <rc><c>Na</c><c>   1</c></rc>
    <rc><c>Cl</c><c>   2</c></rc>
    <rc><c>Cl</c><c>   2</c></rc>
    <rc><c>Cl</c><c>   2</c></rc>
    <rc><c>Cl</c><c>   2</c></rc>
    <rc><c>Cl</c><c>   2</c></rc>
    <rc><c>Cl</c><c>   2</c></rc>
    <rc><c>Cl</c><c>   2</c></rc>
    <rc><c>Cl</c><c>   2</c></rc>
    <rc><c>Cl</c><c>   2</c></rc>
    <rc><c>Cl</c><c>   2</c></rc>
    <rc><c>Cl</c><c>   2</c></rc>
    <rc><c>Cl</c><c>   2</c></rc>
    <rc><c>Cl</c><c>   2</c></rc>
    <rc><c>Cl</c><c>   2</c></rc>
    <rc><c>Cl</c><c>   2</c></rc>
    <rc><c>Cl</c><c>   2</c></rc>
    <rc><c>Cl</c><c>   2</c></rc>
    <rc><c>Cl</c><c>   2</c></rc>
    <rc><c>Cl</c><c>   2</c></rc>
    <rc><c>Cl</c><c>   2</c></rc>
    <rc><c>Cl</c><c>   2</c></rc>
    <rc><c>Cl</c><c>   2</c></rc>
    <rc><c>Cl</c><c>   2</c></rc>
    <rc><c>Cl</c><c>   2</c></rc>
    <rc><c>Cl</c><c>   2</c></rc>
    <rc><c>Cl</c><c>   2</c></rc>
    <rc><c>Cl</c><c>   2</c></rc>
    <rc><c>Cl</c><c>   2</c></rc>
    <rc><c>Cl</c><c>   2</c></rc>
    <rc><c>Cl</c><c>   2</c></rc>
    <rc><c>Cl</c><c>   2</c></rc>
    <rc><c>Cl</c><c>   2</c></rc>
   </set>
  </array>
  <array name="atomtypes" >
   <dimension dim="1">type</dimension>
   <field type="int">atomspertype</field>
   <field type="string">element</field>
   <field>mass</field>
   <field>valence</field>
   <field type="string">pseudopotential</field>
   <set>
    <rc><c>  32</c><c>Na</c><c>     22.99000000</c><c>      7.00000000</c><c>  PAW_PBE Na_pv 19Sep2006               </c></rc>
    <rc><c>  32</c><c>Cl</c><c>     35.45300000</c><c>      7.00000000</c><c>  PAW_PBE Cl 06Sep2000                  </c></rc>
   </set>
  </array>
 </atominfo>
 <structure name="initialpos" >
  <crystal>
   <varray name="basis" >
    <v>      11.20400236       0.00000000       0.00000000 </v>
    <v>       0.00000000      11.20400236       0.00000000 </v>
    <v>       0.00000000       0.00000000      11.20400236 </v>
   </varray>
   <i name="volume">   1406.43470641 </i>
   <varray name="rec_basis" >
    <v>       0.08925382       0.00000000       0.00000000 </v>
    <v>       0.00000000       0.08925382       0.00000000 </v>
    <v>       0.00000000       0.00000000       0.08925382 </v>
   </varray>
  </crystal>
  <varray name="positions" >
   <v>       0.00000000       0.00000000       0.00000000 </v>
   <v>       0.25000000       0.25000000       0.00000000 </v>
   <v>       0.25000000       0.00000000       0.25000000 </v>
   <v>       0.00000000       0.25000000       0.25000000 </v>
   <v>       0.00000000       0.00000000       0.50000000 </v>
   <v>       0.25000000       0.25000000       0.50000000 </v>
   <v>       0.25000000       0.00000000       0.75000000 </v>
   <v>       0.00000000       0.25000000       0.75000000 </v>
   <v>       0.00000000       0.50000000       0.00000000 </v>
   <v>       0.25000000       0.75000000       0.00000000 </v>
   <v>       0.25000000       0.50000000       0.25000000 </v>
   <v>       0.00000000       0.75000000       0.25000000 </v>
   <v>       0.00000000       0.50000000       0.50000000 </v>
   <v>       0.25000000       0.75000000       0.50000000 </v>
   <v>       0.25000000       0.50000000       0.75000000 </v>
   <v>       0.00000000       0.75000000       0.75000000 </v>
   <v>       0.50000000       0.00000000       0.00000000 </v>
   <v>       0.75000000       0.25000000       0.00000000 </v>
   <v>       0.75000000       0.00000000       0.25000000 </v>
   <v>       0.50000000       0.25000000       0.25000000 </v>
   <v>       0.50000000       0.00000000       0.50000000 </v>
   <v>       0.75000000       0.25000000       0.50000000 </v>
   <v>       0.75000000       0.00000000       0.75000000 </v>
   <v>       0.50000000       0.25000000       0.75000000 </v>
   <v>       0.50000000       0.50000000       0.00000000 </v>
   <v>       0.75000000       0.75000000       0.00000000 </v>
   <v>       0.75000000       0.50000000       0.25000000 </v>
   <v>       0.50000000       0.75000000       0.25000000 </v>
   <v>       0.50000000       0.50000000       0.50000000 </v>
   <v>       0.75000000       0.75000000       0.50000000 </v>
   <v>       0.75000000       0.50000000       0.75000000 </v>
   <v>       0.50000000       0.75000000       0.75000000 </v>
   <v>       0.25267761       0.25000000       0.25000000 </v>
   <v>       0.00000000       0.99732239       0.25000000 </v>
   <v>       0.00000000       0.25000000       0.00000000 </v>
   <v>       0.25000000       0.00000000       0.00000000 </v>
   <v>       0.25000000       0.25000000       0.75000000 </v>
   <v>       0.00000000       0.00000000       0.75000000 </v>
   <v>       0.00000000       0.25000000       0.50000000 </v>
   <v>       0.25000000       0.00000000       0.50000000 </v>
   <v>       0.25000000       0.75000000       0.25000000 </v>
   <v>       0.00000000       0.50000000       0.25000000 </v>
   <v>       0.00000000       0.75000000       0.00000000 </v>
   <v>       0.25000000       0.50000000       0.00000000 </v>
   <v>       0.25000000       0.75000000       0.75000000 </v>
   <v>       0.00000000       0.50000000       0.75000000 </v>
   <v>       0.00000000       0.75000000       0.50000000 </v>
   <v>       0.25000000       0.50000000       0.50000000 </v>
   <v>       0.75000000       0.25000000       0.25000000 </v>
   <v>       0.50000000       0.00000000       0.25000000 </v>
   <v>       0.50000000       0.25000000       0.00000000 </v>
   <v>       0.75000000       0.00000000       0.00000000 </v>
   <v>       0.75000000       0.25000000       0.75000000 </v>
   <v>       0.50000000       0.00000000       0.75000000 </v>
   <v>       0.50000000       0.25000000       0.50000000 </v>
   <v>       0.75000000       0.00000000       0.50000000 </v>
   <v>       0.75000000       0.75000000       0.25000000 </v>
   <v>       0.50000000       0.50000000       0.25000000 </v>
   <v>       0.50000000       0.75000000       0.00000000 </v>
   <v>       0.75000000       0.50000000       0.00000000 </v>
   <v>       0.75000000       0.75000000       0.75000000 </v>
   <v>       0.50000000       0.50000000       0.75000000 </v>
   <v>       0.50000000       0.75000000       0.50000000 </v>
   <v>       0.75000000       0.50000000       0.50000000 </v>
  </varray>
 </structure>
 <calculation>
  <scstep>
   <time name="dav">    7.79    7.84</time>
   <time name="total">    7.87    7.91</time>
   <energy>
    <i name="alphaZ">    751.52672365 </i>
    <i name="ewald"> -22871.32626174 </i>
    <i name="hartreedc">  -8992.26203105 </i>
    <i name="XCdc">   1456.53431391 </i>
    <i name="pawpsdc">  26466.43774078 </i>
    <i name="pawaedc"> -29286.08056155 </i>
    <i name="eentropy">     -0.00016025 </i>
    <i name="bandstr">   -670.15818047 </i>
    <i name="atom">  37532.17946992 </i>
    <i name="e_fr_energy">   4386.85105321 </i>
    <i name="e_wo_entrp">   4386.85121346 </i>
    <i name="e_0_energy">   4386.85113333 </i>
   </energy>
  </scstep>
  <scstep>
   <time name="dav">    8.20    8.25</time>
   <time name="total">    8.21    8.25</time>
   <energy>
    <i name="e_fr_energy">    364.33308526 </i>
    <i name="e_wo_entrp">    364.33308526 </i>
    <i name="e_0_energy">    364.33308526 </i>
   </energy>
  </scstep>
  <scstep>
   <time name="dav">    8.71    8.76</time>
   <time name="total">    8.71    8.76</time>
   <energy>
    <i name="e_fr_energy">   -205.08422687 </i>
    <i name="e_wo_entrp">   -205.08422687 </i>
    <i name="e_0_energy">   -205.08422687 </i>
   </energy>
  </scstep>
  <scstep>
   <time name="dav">    8.70    8.75</time>
   <time name="total">    8.70    8.75</time>
   <energy>
    <i name="e_fr_energy">   -228.13656040 </i>
    <i name="e_wo_entrp">   -228.13656040 </i>
    <i name="e_0_energy">   -228.13656040 </i>
   </energy>
  </scstep>
  <scstep>
   <time name="dav">    9.08    9.13</time>
   <time name="total">    9.35    9.41</time>
   <energy>
    <i name="e_fr_energy">   -229.00359918 </i>
    <i name="e_wo_entrp">   -229.00359918 </i>
    <i name="e_0_energy">   -229.00359918 </i>
   </energy>
  </scstep>
  <scstep>
   <time name="dav">    8.87    8.92</time>
   <time name="total">    9.21    9.26</time>
   <energy>
    <i name="e_fr_energy">   -224.13801668 </i>
    <i name="e_wo_entrp">   -224.13801668 </i>
    <i name="e_0_energy">   -224.13801668 </i>
   </energy>
  </scstep>
  <scstep>
   <time name="dav">    9.68    9.74</time>
   <time name="total">   10.02   10.08</time>
   <energy>
    <i name="e_fr_energy">   -223.77723593 </i>
    <i name="e_wo_entrp">   -223.77723593 </i>
    <i name="e_0_energy">   -223.77723593 </i>
   </energy>
  </scstep>
  <scstep>
   <time name="dav">    8.66    8.71</time>
   <time name="total">    8.99    9.05</time>
   <energy>
    <i name="e_fr_energy">   -223.90265861 </i>
    <i name="e_wo_entrp">   -223.90265861 </i>
    <i name="e_0_energy">   -223.90265861 </i>
   </energy>
  </scstep>
  <scstep>
   <time name="dav">    8.94    8.99</time>
   <time name="total">    9.28    9.33</time>
   <energy>
    <i name="e_fr_energy">   -223.89689484 </i>
    <i name="e_wo_entrp">   -223.89689484 </i>
    <i name="e_0_energy">   -223.89689484 </i>
   </energy>
  </scstep>
  <scstep>
   <time name="dav">    8.61    8.65</time>
   <time name="total">    8.94    9.00</time>
   <energy>
    <i name="e_fr_energy">   -223.90102958 </i>
    <i name="e_wo_entrp">   -223.90102958 </i>
    <i name="e_0_energy">   -223.90102958 </i>
   </energy>
  </scstep>
  <scstep>
   <time name="dav">    9.08    9.13</time>
   <time name="total">    9.42    9.47</time>
   <energy>
    <i name="e_fr_energy">   -223.90029298 </i>
    <i name="e_wo_entrp">   -223.90029298 </i>
    <i name="e_0_energy">   -223.90029298 </i>
   </energy>
  </scstep>
  <scstep>
   <time name="dav">    9.39    9.44</time>
   <time name="total">    9.72    9.78</time>
   <energy>
    <i name="e_fr_energy">   -223.90025807 </i>
    <i name="e_wo_entrp">   -223.90025807 </i>
    <i name="e_0_energy">   -223.90025807 </i>
   </energy>
  </scstep>
  <scstep>
   <time name="dav">    8.64    8.68</time>
   <time name="total">    8.98    9.03</time>
   <energy>
    <i name="e_fr_energy">   -223.90024820 </i>
    <i name="e_wo_entrp">   -223.90024820 </i>
    <i name="e_0_energy">   -223.90024820 </i>
   </energy>
  </scstep>
  <scstep>
   <time name="dav">    8.71    8.76</time>
   <time name="total">    9.05    9.10</time>
   <energy>
    <i name="e_fr_energy">   -223.90025032 </i>
    <i name="e_wo_entrp">   -223.90025032 </i>
    <i name="e_0_energy">   -223.90025032 </i>
   </energy>
  </scstep>
  <scstep>
   <time name="dav">    8.90    8.95</time>
   <time name="total">    9.24    9.29</time>
   <energy>
    <i name="e_fr_energy">   -223.90025135 </i>
    <i name="e_wo_entrp">   -223.90025135 </i>
    <i name="e_0_energy">   -223.90025135 </i>
   </energy>
  </scstep>
  <scstep>
   <time name="dav">    8.98    9.04</time>
   <time name="total">    9.32    9.37</time>
   <energy>
    <i name="e_fr_energy">   -223.90025179 </i>
    <i name="e_wo_entrp">   -223.90025179 </i>
    <i name="e_0_energy">   -223.90025179 </i>
   </energy>
  </scstep>
  <scstep>
   <time name="dav">    6.46    6.49</time>
   <time name="total">    6.80    6.84</time>
   <energy>
    <i name="e_fr_energy">   -223.90025184 </i>
    <i name="e_wo_entrp">   -223.90025184 </i>
    <i name="e_0_energy">   -223.90025184 </i>
   </energy>
  </scstep>
  <scstep>
   <time name="dav">    7.75    7.79</time>
   <time name="total">    8.09    8.13</time>
   <energy>
    <i name="e_fr_energy">   -223.90025210 </i>
    <i name="e_wo_entrp">   -223.90025210 </i>
    <i name="e_0_energy">   -223.90025210 </i>
   </energy>
  </scstep>
  <scstep>
   <time name="dav">    5.97    6.00</time>
   <time name="total">    6.04    6.07</time>
   <energy>
    <i name="alphaZ">    751.52672365 </i>
    <i name="ewald"> -22871.32626174 </i>
    <i name="hartreedc">  -9078.18665036 </i>
    <i name="XCdc">   1472.51363636 </i>
    <i name="pawpsdc">  29498.19987888 </i>
    <i name="pawaedc"> -32317.56419064 </i>
    <i name="eentropy">     -0.00000000 </i>
    <i name="bandstr">  -5211.24285818 </i>
    <i name="atom">  37532.17946992 </i>
    <i name="e_fr_energy">   -223.90025210 </i>
    <i name="e_wo_entrp">   -223.90025210 </i>
    <i name="e_0_energy">   -223.90025210 </i>
   </energy>
  </scstep>
  <structure>
   <crystal>
    <varray name="basis" >
     <v>      11.20400236       0.00000000       0.00000000 </v>
     <v>       0.00000000      11.20400236       0.00000000 </v>
     <v>       0.00000000       0.00000000      11.20400236 </v>
    </varray>
    <i name="volume">   1406.43470641 </i>
    <varray name="rec_basis" >
     <v>       0.08925382       0.00000000       0.00000000 </v>
     <v>       0.00000000       0.08925382       0.00000000 </v>
     <v>       0.00000000       0.00000000       0.08925382 </v>
    </varray>
   </crystal>
   <varray name="positions" >
    <v>       0.00000000       0.00000000       0.00000000 </v>
    <v>       0.25000000       0.25000000       0.00000000 </v>
    <v>       0.25000000       0.00000000       0.25000000 </v>
    <v>       0.00000000       0.25000000       0.25000000 </v>
    <v>       0.00000000       0.00000000       0.50000000 </v>
    <v>       0.25000000       0.25000000       0.50000000 </v>
    <v>       0.25000000       0.00000000       0.75000000 </v>
    <v>       0.00000000       0.25000000       0.75000000 </v>
    <v>       0.00000000       0.50000000       0.00000000 </v>
    <v>       0.25000000       0.75000000       0.00000000 </v>
    <v>       0.25000000       0.50000000       0.25000000 </v>
    <v>       0.00000000       0.75000000       0.25000000 </v>
    <v>       0.00000000       0.50000000       0.50000000 </v>
    <v>       0.25000000       0.75000000       0.50000000 </v>
    <v>       0.25000000       0.50000000       0.75000000 </v>
    <v>       0.00000000       0.75000000       0.75000000 </v>
    <v>       0.50000000       0.00000000       0.00000000 </v>
    <v>       0.75000000       0.25000000       0.00000000 </v>
    <v>       0.75000000       0.00000000       0.25000000 </v>
    <v>       0.50000000       0.25000000       0.25000000 </v>
    <v>       0.50000000       0.00000000       0.50000000 </v>
    <v>       0.75000000       0.25000000       0.50000000 </v>
    <v>       0.75000000       0.00000000       0.75000000 </v>
    <v>       0.50000000       0.25000000       0.75000000 </v>
    <v>       0.50000000       0.50000000       0.00000000 </v>
    <v>       0.75000000       0.75000000       0.00000000 </v>
    <v>       0.75000000       0.50000000       0.25000000 </v>
    <v>       0.50000000       0.75000000       0.25000000 </v>
    <v>       0.50000000       0.50000000       0.50000000 </v>
    <v>       0.75000000       0.75000000       0.50000000 </v>
    <v>       0.75000000       0.50000000       0.75000000 </v>
    <v>       0.50000000       0.75000000       0.75000000 </v>
    <v>       0.25267761       0.25000000       0.25000000 </v>
    <v>       0.00000000       0.99732239       0.25000000 </v>
    <v>       0.00000000       0.25000000       0.00000000 </v>
    <v>       0.25000000       0.00000000       0.00000000 </v>
    <v>       0.25000000       0.25000000       0.75000000 </v>
    <v>       0.00000000       0.00000000       0.75000000 </v>
    <v>       0.00000000       0.25000000       0.50000000 </v>
    <v>       0.25000000       0.00000000       0.50000000 </v>
    <v>       0.25000000       0.75000000       0.25000000 </v>
    <v>       0.00000000       0.50000000       0.25000000 </v>
    <v>       0.00000000       0.75000000       0.00000000 </v>
    <v>       0.25000000       0.50000000       0.00000000 </v>
    <v>       0.25000000       0.75000000       0.75000000 </v>
    <v>       0.00000000       0.50000000       0.75000000 </v>
    <v>       0.00000000       0.75000000       0.50000000 </v>
    <v>       0.25000000       0.50000000       0.50000000 </v>
    <v>       0.75000000       0.25000000       0.25000000 </v>
    <v>       0.50000000       0.00000000       0.25000000 </v>
    <v>       0.50000000       0.25000000       0.00000000 </v>
    <v>       0.75000000       0.00000000       0.00000000 </v>
    <v>       0.75000000       0.25000000       0.75000000 </v>
    <v>       0.50000000       0.00000000       0.75000000 </v>
    <v>       0.50000000       0.25000000       0.50000000 </v>
    <v>       0.75000000       0.00000000       0.50000000 </v>
    <v>       0.75000000       0.75000000       0.25000000 </v>
    <v>       0.50000000       0.50000000       0.25000000 </v>
    <v>       0.50000000       0.75000000       0.00000000 </v>
    <v>       0.75000000       0.50000000       0.00000000 </v>
    <v>       0.75000000       0.75000000       0.75000000 </v>
    <v>       0.50000000       0.50000000       0.75000000 </v>
    <v>       0.50000000       0.75000000       0.50000000 </v>
    <v>       0.75000000       0.50000000       0.50000000 </v>
   </varray>
  </structure>
  <varray name="forces" >
   <v>      -0.00024353      -0.00631174      -0.00119016 </v>
   <v>       0.00631174       0.00024353      -0.00119016 </v>
   <v>       0.00493750      -0.00493750       0.00000000 </v>
   <v>       0.01619589      -0.01619589       0.00000000 </v>
   <v>      -0.00024353      -0.00631174       0.00119016 </v>
   <v>       0.00631174       0.00024353       0.00119016 </v>
   <v>       0.00060530      -0.00060530       0.00000000 </v>
   <v>       0.00015240      -0.00015240       0.00000000 </v>
   <v>      -0.00023311       0.00413106      -0.00128734 </v>
   <v>      -0.00069218       0.00021048       0.00130132 </v>
   <v>       0.00500970       0.00272162       0.00000000 </v>
   <v>       0.00014991      -0.02026203       0.00000000 </v>
   <v>      -0.00023311       0.00413106       0.00128734 </v>
   <v>      -0.00069218       0.00021048      -0.00130132 </v>
   <v>       0.00060481       0.00066775       0.00000000 </v>
   <v>      -0.00000373      -0.00016728       0.00000000 </v>
   <v>      -0.00021048       0.00069218       0.00130132 </v>
   <v>      -0.00413106       0.00023311      -0.00128734 </v>
   <v>      -0.00272162      -0.00500970       0.00000000 </v>
   <v>       0.02026203      -0.00014991       0.00000000 </v>
   <v>      -0.00021048       0.00069218      -0.00130132 </v>
   <v>      -0.00413106       0.00023311       0.00128734 </v>
   <v>      -0.00066775      -0.00060481       0.00000000 </v>
   <v>       0.00016728       0.00000373       0.00000000 </v>
   <v>      -0.00021501      -0.00063038       0.00130314 </v>
   <v>       0.00063038       0.00021501       0.00130314 </v>
   <v>      -0.00283493       0.00283493       0.00000000 </v>
   <v>       0.00016837      -0.00016837       0.00000000 </v>
   <v>      -0.00021501      -0.00063038      -0.00130314 </v>
   <v>       0.00063038       0.00021501      -0.00130314 </v>
   <v>      -0.00066665       0.00066665       0.00000000 </v>
   <v>       0.00000577      -0.00000577       0.00000000 </v>
   <v>      -0.08163512      -0.00368876       0.00000000 </v>
   <v>       0.00368876       0.08163512       0.00000000 </v>
   <v>       0.00387198      -0.00387198       0.01149897 </v>
   <v>      -0.00236642       0.00236642       0.00006560 </v>
   <v>      -0.00211289       0.00003679       0.00000000 </v>
   <v>      -0.00003679       0.00211289       0.00000000 </v>
   <v>       0.00387198      -0.00387198      -0.01149897 </v>
   <v>      -0.00236642       0.00236642      -0.00006560 </v>
   <v>       0.00433884      -0.00391653       0.00000000 </v>
   <v>       0.00385834      -0.00957898       0.00000000 </v>
   <v>      -0.00003793      -0.00391940      -0.00531540 </v>
   <v>      -0.00233068      -0.00156911       0.00002097 </v>
   <v>       0.00005875       0.00005452       0.00000000 </v>
   <v>      -0.00003909      -0.00252354       0.00000000 </v>
   <v>      -0.00003793      -0.00391940       0.00531540 </v>
   <v>      -0.00233068      -0.00156911      -0.00002097 </v>
   <v>       0.00957898      -0.00385834       0.00000000 </v>
   <v>       0.00391653      -0.00433884       0.00000000 </v>
   <v>       0.00391940       0.00003793      -0.00531540 </v>
   <v>       0.00156911       0.00233068       0.00002097 </v>
   <v>       0.00252354       0.00003909       0.00000000 </v>
   <v>      -0.00005452      -0.00005875       0.00000000 </v>
   <v>       0.00391940       0.00003793       0.00531540 </v>
   <v>       0.00156911       0.00233068      -0.00002097 </v>
   <v>      -0.00392831      -0.00392252       0.00000000 </v>
   <v>       0.00392252       0.00392831       0.00000000 </v>
   <v>      -0.00005343       0.00005343      -0.00115123 </v>
   <v>       0.00154018      -0.00154018      -0.00000684 </v>
   <v>      -0.00005045       0.00005132       0.00000000 </v>
   <v>      -0.00005132       0.00005045       0.00000000 </v>
   <v>      -0.00005343       0.00005343       0.00115123 </v>
   <v>       0.00154018      -0.00154018       0.00000684 </v>
  </varray>
  <varray name="stress" >
   <v>      -0.36834616       0.00040732       0.00000000 </v>
   <v>       0.00040732      -0.36834616       0.00000000 </v>
   <v>       0.00000000       0.00000000      -0.38065451 </v>
  </varray>
  <energy>
   <i name="e_fr_energy">   -223.90025210 </i>
   <i name="e_wo_entrp">   -223.90025210 </i>
   <i name="e_0_energy">   -223.90025210 </i>
  </energy>
  <time name="totalsc">  177.86  178.87</time>
  <eigenvalues>
   <array>
    <dimension dim="1">band</dimension>
    <dimension dim="2">kpoint</dimension>
    <dimension dim="3">spin</dimension>
    <field>eigene</field>
    <field>occ</field>
    <set>
     <set comment="spin 1">
      <set comment="kpoint 1">
       <r>  -21.3282    1.0000 </r>
       <r>  -21.3282    1.0000 </r>
       <r>  -21.3281    1.0000 </r>
       <r>  -21.3038    1.0000 </r>
       <r>  -21.3015    1.0000 </r>
       <r>  -21.3015    1.0000 </r>
       <r>  -21.3009    1.0000 </r>
       <r>  -21.2938    1.0000 </r>
       <r>  -21.2936    1.0000 </r>
       <r>  -21.2935    1.0000 </r>
       <r>  -21.2935    1.0000 </r>
       <r>  -21.2933    1.0000 </r>
       <r>  -21.2933    1.0000 </r>
       <r>  -21.2933    1.0000 </r>
       <r>  -21.2928    1.0000 </r>
       <r>  -21.2928    1.0000 </r>
       <r>  -21.2908    1.0000 </r>
       <r>  -21.2908    1.0000 </r>
       <r>  -21.2904    1.0000 </r>
       <r>  -21.2898    1.0000 </r>
       <r>  -21.2883    1.0000 </r>
       <r>  -21.2883    1.0000 </r>
       <r>  -21.2864    1.0000 </r>
       <r>  -21.2864    1.0000 </r>
       <r>  -21.2861    1.0000 </r>
       <r>  -21.2861    1.0000 </r>
       <r>  -21.2858    1.0000 </r>
       <r>  -21.2854    1.0000 </r>
       <r>  -21.2854    1.0000 </r>
       <r>  -21.2852    1.0000 </r>
       <r>  -21.2841    1.0000 </r>
       <r>  -21.2837    1.0000 </r>
       <r>  -21.2836    1.0000 </r>
       <r>  -21.2835    1.0000 </r>
       <r>  -21.2835    1.0000 </r>
       <r>  -21.2832    1.0000 </r>
       <r>  -21.2832    1.0000 </r>
       <r>  -21.2829    1.0000 </r>
       <r>  -21.2829    1.0000 </r>
       <r>  -21.2823    1.0000 </r>
       <r>  -21.2815    1.0000 </r>
       <r>  -21.2812    1.0000 </r>
       <r>  -21.2808    1.0000 </r>
       <r>  -21.2808    1.0000 </r>
       <r>  -21.2808    1.0000 </r>
       <r>  -21.2801    1.0000 </r>
       <r>  -21.2800    1.0000 </r>
       <r>  -21.2800    1.0000 </r>
       <r>  -21.2800    1.0000 </r>
       <r>  -21.2799    1.0000 </r>
       <r>  -21.2798    1.0000 </r>
       <r>  -21.2798    1.0000 </r>
       <r>  -21.2797    1.0000 </r>
       <r>  -21.2794    1.0000 </r>
       <r>  -21.2794    1.0000 </r>
       <r>  -21.2776    1.0000 </r>
       <r>  -21.2776    1.0000 </r>
       <r>  -21.2776    1.0000 </r>
       <r>  -21.2762    1.0000 </r>
       <r>  -21.2760    1.0000 </r>
       <r>  -21.2760    1.0000 </r>
       <r>  -21.2751    1.0000 </r>
       <r>  -21.2749    1.0000 </r>
       <r>  -21.2749    1.0000 </r>
       <r>  -21.2744    1.0000 </r>
       <r>  -21.2740    1.0000 </r>
       <r>  -21.2740    1.0000 </r>
       <r>  -21.2740    1.0000 </r>
       <r>  -21.2734    1.0000 </r>
       <r>  -21.2734    1.0000 </r>
       <r>  -21.2728    1.0000 </r>
       <r>  -21.2719    1.0000 </r>
       <r>  -21.2719    1.0000 </r>
       <r>  -21.2715    1.0000 </r>
       <r>  -21.2715    1.0000 </r>
       <r>  -21.2713    1.0000 </r>
       <r>  -21.2711    1.0000 </r>
       <r>  -21.2711    1.0000 </r>
       <r>  -21.2711    1.0000 </r>
       <r>  -21.2710    1.0000 </r>
       <r>  -21.2710    1.0000 </r>
       <r>  -21.2710    1.0000 </r>
       <r>  -21.2709    1.0000 </r>
       <r>  -21.2706    1.0000 </r>
       <r>  -21.2706    1.0000 </r>
       <r>  -21.2705    1.0000 </r>
       <r>  -21.2701    1.0000 </r>
       <r>  -21.2678    1.0000 </r>
       <r>  -21.2678    1.0000 </r>
       <r>  -21.2674    1.0000 </r>
       <r>  -21.2596    1.0000 </r>
       <r>  -21.2596    1.0000 </r>
       <r>  -21.2587    1.0000 </r>
       <r>  -21.2583    1.0000 </r>
       <r>  -21.2575    1.0000 </r>
       <r>  -21.2575    1.0000 </r>
       <r>  -13.3580    1.0000 </r>
       <r>  -13.1400    1.0000 </r>
       <r>  -13.1376    1.0000 </r>
       <r>  -13.1375    1.0000 </r>
       <r>  -13.1374    1.0000 </r>
       <r>  -13.1367    1.0000 </r>
       <r>  -13.1355    1.0000 </r>
       <r>  -13.0185    1.0000 </r>
       <r>  -13.0150    1.0000 </r>
       <r>  -13.0147    1.0000 </r>
       <r>  -13.0124    1.0000 </r>
       <r>  -13.0118    1.0000 </r>
       <r>  -13.0112    1.0000 </r>
       <r>  -13.0112    1.0000 </r>
       <r>  -13.0112    1.0000 </r>
       <r>  -13.0092    1.0000 </r>
       <r>  -13.0087    1.0000 </r>
       <r>  -13.0087    1.0000 </r>
       <r>  -13.0052    1.0000 </r>
       <r>  -12.9900    1.0000 </r>
       <r>  -12.9891    1.0000 </r>
       <r>  -12.9891    1.0000 </r>
       <r>  -12.9887    1.0000 </r>
       <r>  -12.9417    1.0000 </r>
       <r>  -12.9409    1.0000 </r>
       <r>  -12.9407    1.0000 </r>
       <r>  -12.9226    1.0000 </r>
       <r>  -12.9221    1.0000 </r>
       <r>  -12.9213    1.0000 </r>
       <r>  -12.9213    1.0000 </r>
       <r>  -12.9211    1.0000 </r>
       <r>  -12.9170    1.0000 </r>
       <r>   -2.7000    1.0000 </r>
       <r>   -2.7000    1.0000 </r>
       <r>   -2.6999    1.0000 </r>
       <r>   -2.6999    1.0000 </r>
       <r>   -2.4240    1.0000 </r>
       <r>   -2.4240    1.0000 </r>
       <r>   -2.4239    1.0000 </r>
       <r>   -2.2057    1.0000 </r>
       <r>   -2.2053    1.0000 </r>
       <r>   -2.2051    1.0000 </r>
       <r>   -2.2047    1.0000 </r>
       <r>   -2.2045    1.0000 </r>
       <r>   -2.2044    1.0000 </r>
       <r>   -2.2043    1.0000 </r>
       <r>   -2.2039    1.0000 </r>
       <r>   -2.2038    1.0000 </r>
       <r>   -2.2031    1.0000 </r>
       <r>   -2.2031    1.0000 </r>
       <r>   -2.2028    1.0000 </r>
       <r>   -1.9280    1.0000 </r>
       <r>   -1.9271    1.0000 </r>
       <r>   -1.9263    1.0000 </r>
       <r>   -1.9259    1.0000 </r>
       <r>   -1.9257    1.0000 </r>
       <r>   -1.9248    1.0000 </r>
       <r>   -1.9244    1.0000 </r>
       <r>   -1.9235    1.0000 </r>
       <r>   -1.9235    1.0000 </r>
       <r>   -1.9231    1.0000 </r>
       <r>   -1.9223    1.0000 </r>
       <r>   -1.9214    1.0000 </r>
       <r>   -1.7970    1.0000 </r>
       <r>   -1.7969    1.0000 </r>
       <r>   -1.7966    1.0000 </r>
       <r>   -1.7966    1.0000 </r>
       <r>   -1.7963    1.0000 </r>
       <r>   -1.7962    1.0000 </r>
       <r>   -1.5109    1.0000 </r>
       <r>   -1.5093    1.0000 </r>
       <r>   -1.5076    1.0000 </r>
       <r>   -1.5065    1.0000 </r>
       <r>   -1.5059    1.0000 </r>
       <r>   -1.5053    1.0000 </r>
       <r>   -1.5051    1.0000 </r>
       <r>   -1.5048    1.0000 </r>
       <r>   -1.5044    1.0000 </r>
       <r>   -1.5031    1.0000 </r>
       <r>   -1.5014    1.0000 </r>
       <r>   -1.5000    1.0000 </r>
       <r>   -1.4656    1.0000 </r>
       <r>   -1.4639    1.0000 </r>
       <r>   -1.4628    1.0000 </r>
       <r>   -1.4627    1.0000 </r>
       <r>   -1.4626    1.0000 </r>
       <r>   -1.4590    1.0000 </r>
       <r>   -1.2947    1.0000 </r>
       <r>   -1.2947    1.0000 </r>
       <r>   -1.2946    1.0000 </r>
       <r>   -1.2946    1.0000 </r>
       <r>   -1.2945    1.0000 </r>
       <r>   -1.2945    1.0000 </r>
       <r>   -1.0058    1.0000 </r>
       <r>   -1.0044    1.0000 </r>
       <r>   -1.0033    1.0000 </r>
       <r>   -1.0017    1.0000 </r>
       <r>   -1.0015    1.0000 </r>
       <r>   -1.0013    1.0000 </r>
       <r>   -1.0004    1.0000 </r>
       <r>   -1.0002    1.0000 </r>
       <r>   -1.0001    1.0000 </r>
       <r>   -0.9983    1.0000 </r>
       <r>   -0.9972    1.0000 </r>
       <r>   -0.9955    1.0000 </r>
       <r>   -0.9549    1.0000 </r>
       <r>   -0.9517    1.0000 </r>
       <r>   -0.9505    1.0000 </r>
       <r>   -0.9505    1.0000 </r>
       <r>   -0.9480    1.0000 </r>
       <r>   -0.9477    1.0000 </r>
       <r>   -0.9477    1.0000 </r>
       <r>   -0.9476    1.0000 </r>
       <r>   -0.9474    1.0000 </r>
       <r>   -0.9472    1.0000 </r>
       <r>   -0.9471    1.0000 </r>
       <r>   -0.9459    1.0000 </r>
       <r>   -0.9458    1.0000 </r>
       <r>   -0.9458    1.0000 </r>
       <r>   -0.9456    1.0000 </r>
       <r>   -0.9451    1.0000 </r>
       <r>   -0.9424    1.0000 </r>
       <r>   -0.9424    1.0000 </r>
       <r>   -0.9421    1.0000 </r>
       <r>   -0.9413    1.0000 </r>
       <r>   -0.6648    1.0000 </r>
       <r>   -0.6648    1.0000 </r>
       <r>   -0.6648    1.0000 </r>
       <r>    4.3402    0.0000 </r>
       <r>    6.3540    0.0000 </r>
       <r>    6.3673    0.0000 </r>
       <r>    6.3678    0.0000 </r>
       <r>    6.3680    0.0000 </r>
       <r>    6.3717    0.0000 </r>
       <r>    6.3777    0.0000 </r>
       <r>    6.4446    0.0000 </r>
       <r>    6.4448    0.0000 </r>
       <r>    6.4449    0.0000 </r>
       <r>    6.4454    0.0000 </r>
       <r>    6.8277    0.0000 </r>
       <r>    6.8280    0.0000 </r>
       <r>    6.8280    0.0000 </r>
       <r>    7.2066    0.0000 </r>
       <r>    7.2068    0.0000 </r>
       <r>    7.2068    0.0000 </r>
       <r>    7.4461    0.0000 </r>
       <r>    7.4552    0.0000 </r>
       <r>    7.4581    0.0000 </r>
       <r>    7.4605    0.0000 </r>
       <r>    7.4629    0.0000 </r>
       <r>    7.4642    0.0000 </r>
       <r>    7.4655    0.0000 </r>
       <r>    7.4681    0.0000 </r>
       <r>    7.4695    0.0000 </r>
       <r>    7.4715    0.0000 </r>
       <r>    7.4733    0.0000 </r>
       <r>    7.4746    0.0000 </r>
       <r>    8.1578    0.0000 </r>
       <r>    8.1679    0.0000 </r>
       <r>    8.1680    0.0000 </r>
       <r>    8.1684    0.0000 </r>
       <r>    8.1713    0.0000 </r>
       <r>    8.1764    0.0000 </r>
       <r>    8.2769    0.0000 </r>
       <r>    8.2783    0.0000 </r>
       <r>    8.2795    0.0000 </r>
       <r>    8.2797    0.0000 </r>
       <r>    8.2804    0.0000 </r>
       <r>    8.2828    0.0000 </r>
       <r>    8.8836    0.0000 </r>
       <r>    8.8857    0.0000 </r>
       <r>    8.8948    0.0000 </r>
       <r>    8.8969    0.0000 </r>
       <r>    8.8992    0.0000 </r>
       <r>    8.9005    0.0000 </r>
       <r>    8.9015    0.0000 </r>
       <r>    8.9022    0.0000 </r>
       <r>    8.9038    0.0000 </r>
       <r>    8.9047    0.0000 </r>
       <r>    8.9074    0.0000 </r>
       <r>    8.9078    0.0000 </r>
       <r>    8.9112    0.0000 </r>
       <r>    8.9128    0.0000 </r>
       <r>    8.9135    0.0000 </r>
       <r>    8.9145    0.0000 </r>
       <r>    8.9159    0.0000 </r>
       <r>    8.9165    0.0000 </r>
       <r>    8.9179    0.0000 </r>
       <r>    8.9207    0.0000 </r>
       <r>    8.9224    0.0000 </r>
       <r>    8.9302    0.0000 </r>
       <r>    8.9325    0.0000 </r>
      </set>
      <set comment="kpoint 2">
       <r>  -21.3282    1.0000 </r>
       <r>  -21.3281    1.0000 </r>
       <r>  -21.3280    1.0000 </r>
       <r>  -21.3001    1.0000 </r>
       <r>  -21.2987    1.0000 </r>
       <r>  -21.2985    1.0000 </r>
       <r>  -21.2983    1.0000 </r>
       <r>  -21.2982    1.0000 </r>
       <r>  -21.2980    1.0000 </r>
       <r>  -21.2963    1.0000 </r>
       <r>  -21.2962    1.0000 </r>
       <r>  -21.2924    1.0000 </r>
       <r>  -21.2920    1.0000 </r>
       <r>  -21.2920    1.0000 </r>
       <r>  -21.2917    1.0000 </r>
       <r>  -21.2916    1.0000 </r>
       <r>  -21.2914    1.0000 </r>
       <r>  -21.2911    1.0000 </r>
       <r>  -21.2894    1.0000 </r>
       <r>  -21.2891    1.0000 </r>
       <r>  -21.2890    1.0000 </r>
       <r>  -21.2888    1.0000 </r>
       <r>  -21.2887    1.0000 </r>
       <r>  -21.2886    1.0000 </r>
       <r>  -21.2883    1.0000 </r>
       <r>  -21.2877    1.0000 </r>
       <r>  -21.2871    1.0000 </r>
       <r>  -21.2869    1.0000 </r>
       <r>  -21.2865    1.0000 </r>
       <r>  -21.2864    1.0000 </r>
       <r>  -21.2859    1.0000 </r>
       <r>  -21.2859    1.0000 </r>
       <r>  -21.2857    1.0000 </r>
       <r>  -21.2852    1.0000 </r>
       <r>  -21.2850    1.0000 </r>
       <r>  -21.2831    1.0000 </r>
       <r>  -21.2830    1.0000 </r>
       <r>  -21.2830    1.0000 </r>
       <r>  -21.2828    1.0000 </r>
       <r>  -21.2827    1.0000 </r>
       <r>  -21.2822    1.0000 </r>
       <r>  -21.2807    1.0000 </r>
       <r>  -21.2807    1.0000 </r>
       <r>  -21.2804    1.0000 </r>
       <r>  -21.2800    1.0000 </r>
       <r>  -21.2800    1.0000 </r>
       <r>  -21.2784    1.0000 </r>
       <r>  -21.2784    1.0000 </r>
       <r>  -21.2781    1.0000 </r>
       <r>  -21.2780    1.0000 </r>
       <r>  -21.2775    1.0000 </r>
       <r>  -21.2770    1.0000 </r>
       <r>  -21.2770    1.0000 </r>
       <r>  -21.2770    1.0000 </r>
       <r>  -21.2768    1.0000 </r>
       <r>  -21.2767    1.0000 </r>
       <r>  -21.2761    1.0000 </r>
       <r>  -21.2761    1.0000 </r>
       <r>  -21.2756    1.0000 </r>
       <r>  -21.2755    1.0000 </r>
       <r>  -21.2753    1.0000 </r>
       <r>  -21.2753    1.0000 </r>
       <r>  -21.2748    1.0000 </r>
       <r>  -21.2748    1.0000 </r>
       <r>  -21.2744    1.0000 </r>
       <r>  -21.2743    1.0000 </r>
       <r>  -21.2742    1.0000 </r>
       <r>  -21.2740    1.0000 </r>
       <r>  -21.2740    1.0000 </r>
       <r>  -21.2738    1.0000 </r>
       <r>  -21.2729    1.0000 </r>
       <r>  -21.2729    1.0000 </r>
       <r>  -21.2727    1.0000 </r>
       <r>  -21.2727    1.0000 </r>
       <r>  -21.2723    1.0000 </r>
       <r>  -21.2721    1.0000 </r>
       <r>  -21.2721    1.0000 </r>
       <r>  -21.2715    1.0000 </r>
       <r>  -21.2715    1.0000 </r>
       <r>  -21.2712    1.0000 </r>
       <r>  -21.2711    1.0000 </r>
       <r>  -21.2711    1.0000 </r>
       <r>  -21.2708    1.0000 </r>
       <r>  -21.2707    1.0000 </r>
       <r>  -21.2705    1.0000 </r>
       <r>  -21.2705    1.0000 </r>
       <r>  -21.2703    1.0000 </r>
       <r>  -21.2688    1.0000 </r>
       <r>  -21.2679    1.0000 </r>
       <r>  -21.2678    1.0000 </r>
       <r>  -21.2588    1.0000 </r>
       <r>  -21.2587    1.0000 </r>
       <r>  -21.2586    1.0000 </r>
       <r>  -21.2585    1.0000 </r>
       <r>  -21.2585    1.0000 </r>
       <r>  -21.2583    1.0000 </r>
       <r>  -13.2930    1.0000 </r>
       <r>  -13.2894    1.0000 </r>
       <r>  -13.1000    1.0000 </r>
       <r>  -13.0997    1.0000 </r>
       <r>  -13.0986    1.0000 </r>
       <r>  -13.0979    1.0000 </r>
       <r>  -13.0973    1.0000 </r>
       <r>  -13.0947    1.0000 </r>
       <r>  -13.0946    1.0000 </r>
       <r>  -13.0932    1.0000 </r>
       <r>  -13.0053    1.0000 </r>
       <r>  -13.0051    1.0000 </r>
       <r>  -13.0020    1.0000 </r>
       <r>  -13.0009    1.0000 </r>
       <r>  -13.0006    1.0000 </r>
       <r>  -13.0006    1.0000 </r>
       <r>  -12.9970    1.0000 </r>
       <r>  -12.9962    1.0000 </r>
       <r>  -12.9961    1.0000 </r>
       <r>  -12.9927    1.0000 </r>
       <r>  -12.9484    1.0000 </r>
       <r>  -12.9459    1.0000 </r>
       <r>  -12.9457    1.0000 </r>
       <r>  -12.9451    1.0000 </r>
       <r>  -12.9423    1.0000 </r>
       <r>  -12.9415    1.0000 </r>
       <r>  -12.9414    1.0000 </r>
       <r>  -12.9404    1.0000 </r>
       <r>  -12.9331    1.0000 </r>
       <r>  -12.9307    1.0000 </r>
       <r>  -12.9304    1.0000 </r>
       <r>  -12.9265    1.0000 </r>
       <r>   -2.5075    1.0000 </r>
       <r>   -2.5068    1.0000 </r>
       <r>   -2.5047    1.0000 </r>
       <r>   -2.5046    1.0000 </r>
       <r>   -2.5040    1.0000 </r>
       <r>   -2.5039    1.0000 </r>
       <r>   -2.5019    1.0000 </r>
       <r>   -2.5012    1.0000 </r>
       <r>   -2.2890    1.0000 </r>
       <r>   -2.2890    1.0000 </r>
       <r>   -2.2863    1.0000 </r>
       <r>   -2.2863    1.0000 </r>
       <r>   -2.2761    1.0000 </r>
       <r>   -2.2721    1.0000 </r>
       <r>   -2.1391    1.0000 </r>
       <r>   -2.1379    1.0000 </r>
       <r>   -2.1367    1.0000 </r>
       <r>   -2.1367    1.0000 </r>
       <r>   -2.1361    1.0000 </r>
       <r>   -2.1358    1.0000 </r>
       <r>   -2.1353    1.0000 </r>
       <r>   -2.1336    1.0000 </r>
       <r>   -1.9870    1.0000 </r>
       <r>   -1.9865    1.0000 </r>
       <r>   -1.9865    1.0000 </r>
       <r>   -1.9862    1.0000 </r>
       <r>   -1.9848    1.0000 </r>
       <r>   -1.9843    1.0000 </r>
       <r>   -1.9843    1.0000 </r>
       <r>   -1.9836    1.0000 </r>
       <r>   -1.8141    1.0000 </r>
       <r>   -1.8103    1.0000 </r>
       <r>   -1.8095    1.0000 </r>
       <r>   -1.8079    1.0000 </r>
       <r>   -1.8079    1.0000 </r>
       <r>   -1.8070    1.0000 </r>
       <r>   -1.8068    1.0000 </r>
       <r>   -1.8066    1.0000 </r>
       <r>   -1.5010    1.0000 </r>
       <r>   -1.5010    1.0000 </r>
       <r>   -1.4945    1.0000 </r>
       <r>   -1.4944    1.0000 </r>
       <r>   -1.3844    1.0000 </r>
       <r>   -1.3808    1.0000 </r>
       <r>   -1.3802    1.0000 </r>
       <r>   -1.3763    1.0000 </r>
       <r>   -1.2146    1.0000 </r>
       <r>   -1.2140    1.0000 </r>
       <r>   -1.2111    1.0000 </r>
       <r>   -1.2107    1.0000 </r>
       <r>   -1.1953    1.0000 </r>
       <r>   -1.1929    1.0000 </r>
       <r>   -1.1926    1.0000 </r>
       <r>   -1.1914    1.0000 </r>
       <r>   -1.1909    1.0000 </r>
       <r>   -1.1905    1.0000 </r>
       <r>   -1.1898    1.0000 </r>
       <r>   -1.1881    1.0000 </r>
       <r>   -1.1791    1.0000 </r>
       <r>   -1.1765    1.0000 </r>
       <r>   -1.1756    1.0000 </r>
       <r>   -1.1751    1.0000 </r>
       <r>   -1.1733    1.0000 </r>
       <r>   -1.1704    1.0000 </r>
       <r>   -1.1704    1.0000 </r>
       <r>   -1.1701    1.0000 </r>
       <r>   -1.1649    1.0000 </r>
       <r>   -1.1634    1.0000 </r>
       <r>   -1.1623    1.0000 </r>
       <r>   -1.1593    1.0000 </r>
       <r>   -1.1577    1.0000 </r>
       <r>   -1.1576    1.0000 </r>
       <r>   -1.1552    1.0000 </r>
       <r>   -1.1545    1.0000 </r>
       <r>   -1.0858    1.0000 </r>
       <r>   -1.0807    1.0000 </r>
       <r>   -0.9519    1.0000 </r>
       <r>   -0.9506    1.0000 </r>
       <r>   -0.9469    1.0000 </r>
       <r>   -0.9468    1.0000 </r>
       <r>   -0.9468    1.0000 </r>
       <r>   -0.9465    1.0000 </r>
       <r>   -0.9426    1.0000 </r>
       <r>   -0.9422    1.0000 </r>
       <r>   -0.9363    1.0000 </r>
       <r>   -0.9339    1.0000 </r>
       <r>   -0.9337    1.0000 </r>
       <r>   -0.9321    1.0000 </r>
       <r>   -0.9308    1.0000 </r>
       <r>   -0.9307    1.0000 </r>
       <r>   -0.9305    1.0000 </r>
       <r>   -0.9296    1.0000 </r>
       <r>   -0.7711    1.0000 </r>
       <r>   -0.7710    1.0000 </r>
       <r>   -0.7654    1.0000 </r>
       <r>   -0.7654    1.0000 </r>
       <r>    5.0186    0.0000 </r>
       <r>    5.0259    0.0000 </r>
       <r>    6.7003    0.0000 </r>
       <r>    6.7133    0.0000 </r>
       <r>    6.7144    0.0000 </r>
       <r>    6.7207    0.0000 </r>
       <r>    6.7220    0.0000 </r>
       <r>    6.7220    0.0000 </r>
       <r>    6.7246    0.0000 </r>
       <r>    6.7250    0.0000 </r>
       <r>    6.8371    0.0000 </r>
       <r>    6.8377    0.0000 </r>
       <r>    6.8399    0.0000 </r>
       <r>    6.8428    0.0000 </r>
       <r>    6.8456    0.0000 </r>
       <r>    6.8477    0.0000 </r>
       <r>    6.8481    0.0000 </r>
       <r>    6.8484    0.0000 </r>
       <r>    6.9686    0.0000 </r>
       <r>    6.9742    0.0000 </r>
       <r>    7.3563    0.0000 </r>
       <r>    7.3625    0.0000 </r>
       <r>    7.3626    0.0000 </r>
       <r>    7.3689    0.0000 </r>
       <r>    7.4789    0.0000 </r>
       <r>    7.4816    0.0000 </r>
       <r>    7.7109    0.0000 </r>
       <r>    7.7110    0.0000 </r>
       <r>    7.7183    0.0000 </r>
       <r>    7.7183    0.0000 </r>
       <r>    8.2499    0.0000 </r>
       <r>    8.2631    0.0000 </r>
       <r>    8.2637    0.0000 </r>
       <r>    8.2664    0.0000 </r>
       <r>    8.2680    0.0000 </r>
       <r>    8.2682    0.0000 </r>
       <r>    8.2715    0.0000 </r>
       <r>    8.2749    0.0000 </r>
       <r>    8.5226    0.0000 </r>
       <r>    8.5250    0.0000 </r>
       <r>    8.5282    0.0000 </r>
       <r>    8.5350    0.0000 </r>
       <r>    8.5358    0.0000 </r>
       <r>    8.5365    0.0000 </r>
       <r>    8.5383    0.0000 </r>
       <r>    8.5393    0.0000 </r>
       <r>    8.5394    0.0000 </r>
       <r>    8.5411    0.0000 </r>
       <r>    8.5412    0.0000 </r>
       <r>    8.5428    0.0000 </r>
       <r>    8.5445    0.0000 </r>
       <r>    8.5475    0.0000 </r>
       <r>    8.5477    0.0000 </r>
       <r>    8.5516    0.0000 </r>
       <r>    8.9403    0.0000 </r>
       <r>    8.9468    0.0000 </r>
       <r>    8.9483    0.0000 </r>
       <r>    8.9507    0.0000 </r>
       <r>    8.9531    0.0000 </r>
       <r>    8.9553    0.0000 </r>
       <r>    8.9554    0.0000 </r>
       <r>    8.9580    0.0000 </r>
       <r>    9.4900    0.0000 </r>
       <r>    9.5159    0.0000 </r>
      </set>
      <set comment="kpoint 3">
       <r>  -21.3282    1.0000 </r>
       <r>  -21.3281    1.0000 </r>
       <r>  -21.3279    1.0000 </r>
       <r>  -21.3003    1.0000 </r>
       <r>  -21.2998    1.0000 </r>
       <r>  -21.2998    1.0000 </r>
       <r>  -21.2995    1.0000 </r>
       <r>  -21.2995    1.0000 </r>
       <r>  -21.2953    1.0000 </r>
       <r>  -21.2933    1.0000 </r>
       <r>  -21.2933    1.0000 </r>
       <r>  -21.2932    1.0000 </r>
       <r>  -21.2918    1.0000 </r>
       <r>  -21.2918    1.0000 </r>
       <r>  -21.2912    1.0000 </r>
       <r>  -21.2912    1.0000 </r>
       <r>  -21.2912    1.0000 </r>
       <r>  -21.2912    1.0000 </r>
       <r>  -21.2909    1.0000 </r>
       <r>  -21.2901    1.0000 </r>
       <r>  -21.2900    1.0000 </r>
       <r>  -21.2893    1.0000 </r>
       <r>  -21.2885    1.0000 </r>
       <r>  -21.2882    1.0000 </r>
       <r>  -21.2881    1.0000 </r>
       <r>  -21.2879    1.0000 </r>
       <r>  -21.2878    1.0000 </r>
       <r>  -21.2878    1.0000 </r>
       <r>  -21.2878    1.0000 </r>
       <r>  -21.2856    1.0000 </r>
       <r>  -21.2844    1.0000 </r>
       <r>  -21.2843    1.0000 </r>
       <r>  -21.2843    1.0000 </r>
       <r>  -21.2843    1.0000 </r>
       <r>  -21.2842    1.0000 </r>
       <r>  -21.2842    1.0000 </r>
       <r>  -21.2842    1.0000 </r>
       <r>  -21.2841    1.0000 </r>
       <r>  -21.2839    1.0000 </r>
       <r>  -21.2820    1.0000 </r>
       <r>  -21.2820    1.0000 </r>
       <r>  -21.2819    1.0000 </r>
       <r>  -21.2819    1.0000 </r>
       <r>  -21.2810    1.0000 </r>
       <r>  -21.2804    1.0000 </r>
       <r>  -21.2803    1.0000 </r>
       <r>  -21.2780    1.0000 </r>
       <r>  -21.2779    1.0000 </r>
       <r>  -21.2776    1.0000 </r>
       <r>  -21.2776    1.0000 </r>
       <r>  -21.2771    1.0000 </r>
       <r>  -21.2768    1.0000 </r>
       <r>  -21.2767    1.0000 </r>
       <r>  -21.2767    1.0000 </r>
       <r>  -21.2765    1.0000 </r>
       <r>  -21.2765    1.0000 </r>
       <r>  -21.2764    1.0000 </r>
       <r>  -21.2764    1.0000 </r>
       <r>  -21.2759    1.0000 </r>
       <r>  -21.2754    1.0000 </r>
       <r>  -21.2751    1.0000 </r>
       <r>  -21.2751    1.0000 </r>
       <r>  -21.2750    1.0000 </r>
       <r>  -21.2750    1.0000 </r>
       <r>  -21.2745    1.0000 </r>
       <r>  -21.2742    1.0000 </r>
       <r>  -21.2742    1.0000 </r>
       <r>  -21.2742    1.0000 </r>
       <r>  -21.2741    1.0000 </r>
       <r>  -21.2740    1.0000 </r>
       <r>  -21.2735    1.0000 </r>
       <r>  -21.2735    1.0000 </r>
       <r>  -21.2728    1.0000 </r>
       <r>  -21.2728    1.0000 </r>
       <r>  -21.2727    1.0000 </r>
       <r>  -21.2720    1.0000 </r>
       <r>  -21.2718    1.0000 </r>
       <r>  -21.2718    1.0000 </r>
       <r>  -21.2712    1.0000 </r>
       <r>  -21.2708    1.0000 </r>
       <r>  -21.2707    1.0000 </r>
       <r>  -21.2707    1.0000 </r>
       <r>  -21.2707    1.0000 </r>
       <r>  -21.2706    1.0000 </r>
       <r>  -21.2698    1.0000 </r>
       <r>  -21.2698    1.0000 </r>
       <r>  -21.2698    1.0000 </r>
       <r>  -21.2688    1.0000 </r>
       <r>  -21.2686    1.0000 </r>
       <r>  -21.2686    1.0000 </r>
       <r>  -21.2597    1.0000 </r>
       <r>  -21.2597    1.0000 </r>
       <r>  -21.2591    1.0000 </r>
       <r>  -21.2583    1.0000 </r>
       <r>  -21.2576    1.0000 </r>
       <r>  -21.2576    1.0000 </r>
       <r>  -13.2913    1.0000 </r>
       <r>  -13.2912    1.0000 </r>
       <r>  -13.1001    1.0000 </r>
       <r>  -13.0987    1.0000 </r>
       <r>  -13.0977    1.0000 </r>
       <r>  -13.0969    1.0000 </r>
       <r>  -13.0968    1.0000 </r>
       <r>  -13.0963    1.0000 </r>
       <r>  -13.0955    1.0000 </r>
       <r>  -13.0939    1.0000 </r>
       <r>  -13.0039    1.0000 </r>
       <r>  -13.0024    1.0000 </r>
       <r>  -13.0006    1.0000 </r>
       <r>  -13.0006    1.0000 </r>
       <r>  -13.0006    1.0000 </r>
       <r>  -13.0006    1.0000 </r>
       <r>  -13.0006    1.0000 </r>
       <r>  -13.0004    1.0000 </r>
       <r>  -12.9942    1.0000 </r>
       <r>  -12.9935    1.0000 </r>
       <r>  -12.9466    1.0000 </r>
       <r>  -12.9456    1.0000 </r>
       <r>  -12.9438    1.0000 </r>
       <r>  -12.9437    1.0000 </r>
       <r>  -12.9432    1.0000 </r>
       <r>  -12.9432    1.0000 </r>
       <r>  -12.9431    1.0000 </r>
       <r>  -12.9408    1.0000 </r>
       <r>  -12.9310    1.0000 </r>
       <r>  -12.9303    1.0000 </r>
       <r>  -12.9303    1.0000 </r>
       <r>  -12.9285    1.0000 </r>
       <r>   -2.5055    1.0000 </r>
       <r>   -2.5051    1.0000 </r>
       <r>   -2.5043    1.0000 </r>
       <r>   -2.5043    1.0000 </r>
       <r>   -2.5043    1.0000 </r>
       <r>   -2.5043    1.0000 </r>
       <r>   -2.5035    1.0000 </r>
       <r>   -2.5032    1.0000 </r>
       <r>   -2.2877    1.0000 </r>
       <r>   -2.2877    1.0000 </r>
       <r>   -2.2876    1.0000 </r>
       <r>   -2.2876    1.0000 </r>
       <r>   -2.2741    1.0000 </r>
       <r>   -2.2741    1.0000 </r>
       <r>   -2.1383    1.0000 </r>
       <r>   -2.1374    1.0000 </r>
       <r>   -2.1366    1.0000 </r>
       <r>   -2.1366    1.0000 </r>
       <r>   -2.1362    1.0000 </r>
       <r>   -2.1361    1.0000 </r>
       <r>   -2.1353    1.0000 </r>
       <r>   -2.1344    1.0000 </r>
       <r>   -1.9864    1.0000 </r>
       <r>   -1.9861    1.0000 </r>
       <r>   -1.9854    1.0000 </r>
       <r>   -1.9854    1.0000 </r>
       <r>   -1.9854    1.0000 </r>
       <r>   -1.9854    1.0000 </r>
       <r>   -1.9847    1.0000 </r>
       <r>   -1.9844    1.0000 </r>
       <r>   -1.8148    1.0000 </r>
       <r>   -1.8098    1.0000 </r>
       <r>   -1.8090    1.0000 </r>
       <r>   -1.8088    1.0000 </r>
       <r>   -1.8088    1.0000 </r>
       <r>   -1.8085    1.0000 </r>
       <r>   -1.8076    1.0000 </r>
       <r>   -1.8029    1.0000 </r>
       <r>   -1.4978    1.0000 </r>
       <r>   -1.4978    1.0000 </r>
       <r>   -1.4978    1.0000 </r>
       <r>   -1.4977    1.0000 </r>
       <r>   -1.3807    1.0000 </r>
       <r>   -1.3805    1.0000 </r>
       <r>   -1.3804    1.0000 </r>
       <r>   -1.3802    1.0000 </r>
       <r>   -1.2129    1.0000 </r>
       <r>   -1.2129    1.0000 </r>
       <r>   -1.2126    1.0000 </r>
       <r>   -1.2126    1.0000 </r>
       <r>   -1.1926    1.0000 </r>
       <r>   -1.1924    1.0000 </r>
       <r>   -1.1921    1.0000 </r>
       <r>   -1.1908    1.0000 </r>
       <r>   -1.1905    1.0000 </r>
       <r>   -1.1905    1.0000 </r>
       <r>   -1.1902    1.0000 </r>
       <r>   -1.1897    1.0000 </r>
       <r>   -1.1775    1.0000 </r>
       <r>   -1.1748    1.0000 </r>
       <r>   -1.1743    1.0000 </r>
       <r>   -1.1741    1.0000 </r>
       <r>   -1.1739    1.0000 </r>
       <r>   -1.1738    1.0000 </r>
       <r>   -1.1735    1.0000 </r>
       <r>   -1.1707    1.0000 </r>
       <r>   -1.1643    1.0000 </r>
       <r>   -1.1602    1.0000 </r>
       <r>   -1.1600    1.0000 </r>
       <r>   -1.1595    1.0000 </r>
       <r>   -1.1588    1.0000 </r>
       <r>   -1.1588    1.0000 </r>
       <r>   -1.1587    1.0000 </r>
       <r>   -1.1550    1.0000 </r>
       <r>   -1.0832    1.0000 </r>
       <r>   -1.0830    1.0000 </r>
       <r>   -0.9489    1.0000 </r>
       <r>   -0.9469    1.0000 </r>
       <r>   -0.9469    1.0000 </r>
       <r>   -0.9469    1.0000 </r>
       <r>   -0.9468    1.0000 </r>
       <r>   -0.9468    1.0000 </r>
       <r>   -0.9461    1.0000 </r>
       <r>   -0.9449    1.0000 </r>
       <r>   -0.9365    1.0000 </r>
       <r>   -0.9353    1.0000 </r>
       <r>   -0.9326    1.0000 </r>
       <r>   -0.9322    1.0000 </r>
       <r>   -0.9322    1.0000 </r>
       <r>   -0.9321    1.0000 </r>
       <r>   -0.9292    1.0000 </r>
       <r>   -0.9276    1.0000 </r>
       <r>   -0.7683    1.0000 </r>
       <r>   -0.7683    1.0000 </r>
       <r>   -0.7681    1.0000 </r>
       <r>   -0.7680    1.0000 </r>
       <r>    5.0221    0.0000 </r>
       <r>    5.0224    0.0000 </r>
       <r>    6.6997    0.0000 </r>
       <r>    6.7145    0.0000 </r>
       <r>    6.7171    0.0000 </r>
       <r>    6.7180    0.0000 </r>
       <r>    6.7183    0.0000 </r>
       <r>    6.7187    0.0000 </r>
       <r>    6.7220    0.0000 </r>
       <r>    6.7344    0.0000 </r>
       <r>    6.8366    0.0000 </r>
       <r>    6.8413    0.0000 </r>
       <r>    6.8431    0.0000 </r>
       <r>    6.8432    0.0000 </r>
       <r>    6.8432    0.0000 </r>
       <r>    6.8439    0.0000 </r>
       <r>    6.8453    0.0000 </r>
       <r>    6.8503    0.0000 </r>
       <r>    6.9712    0.0000 </r>
       <r>    6.9714    0.0000 </r>
       <r>    7.3624    0.0000 </r>
       <r>    7.3626    0.0000 </r>
       <r>    7.3626    0.0000 </r>
       <r>    7.3628    0.0000 </r>
       <r>    7.4802    0.0000 </r>
       <r>    7.4803    0.0000 </r>
       <r>    7.7146    0.0000 </r>
       <r>    7.7146    0.0000 </r>
       <r>    7.7146    0.0000 </r>
       <r>    7.7147    0.0000 </r>
       <r>    8.2539    0.0000 </r>
       <r>    8.2640    0.0000 </r>
       <r>    8.2644    0.0000 </r>
       <r>    8.2648    0.0000 </r>
       <r>    8.2669    0.0000 </r>
       <r>    8.2673    0.0000 </r>
       <r>    8.2675    0.0000 </r>
       <r>    8.2778    0.0000 </r>
       <r>    8.5206    0.0000 </r>
       <r>    8.5309    0.0000 </r>
       <r>    8.5312    0.0000 </r>
       <r>    8.5325    0.0000 </r>
       <r>    8.5339    0.0000 </r>
       <r>    8.5355    0.0000 </r>
       <r>    8.5377    0.0000 </r>
       <r>    8.5383    0.0000 </r>
       <r>    8.5388    0.0000 </r>
       <r>    8.5389    0.0000 </r>
       <r>    8.5419    0.0000 </r>
       <r>    8.5430    0.0000 </r>
       <r>    8.5442    0.0000 </r>
       <r>    8.5461    0.0000 </r>
       <r>    8.5463    0.0000 </r>
       <r>    8.5565    0.0000 </r>
       <r>    8.9347    0.0000 </r>
       <r>    8.9486    0.0000 </r>
       <r>    8.9499    0.0000 </r>
       <r>    8.9508    0.0000 </r>
       <r>    8.9510    0.0000 </r>
       <r>    8.9519    0.0000 </r>
       <r>    8.9533    0.0000 </r>
       <r>    8.9676    0.0000 </r>
       <r>    9.4901    0.0000 </r>
       <r>    9.5111    0.0000 </r>
      </set>
      <set comment="kpoint 4">
       <r>  -21.3281    1.0000 </r>
       <r>  -21.3281    1.0000 </r>
       <r>  -21.3279    1.0000 </r>
       <r>  -21.2975    1.0000 </r>
       <r>  -21.2970    1.0000 </r>
       <r>  -21.2970    1.0000 </r>
       <r>  -21.2967    1.0000 </r>
       <r>  -21.2965    1.0000 </r>
       <r>  -21.2965    1.0000 </r>
       <r>  -21.2962    1.0000 </r>
       <r>  -21.2943    1.0000 </r>
       <r>  -21.2940    1.0000 </r>
       <r>  -21.2934    1.0000 </r>
       <r>  -21.2927    1.0000 </r>
       <r>  -21.2927    1.0000 </r>
       <r>  -21.2924    1.0000 </r>
       <r>  -21.2924    1.0000 </r>
       <r>  -21.2923    1.0000 </r>
       <r>  -21.2918    1.0000 </r>
       <r>  -21.2915    1.0000 </r>
       <r>  -21.2912    1.0000 </r>
       <r>  -21.2912    1.0000 </r>
       <r>  -21.2910    1.0000 </r>
       <r>  -21.2883    1.0000 </r>
       <r>  -21.2881    1.0000 </r>
       <r>  -21.2879    1.0000 </r>
       <r>  -21.2879    1.0000 </r>
       <r>  -21.2878    1.0000 </r>
       <r>  -21.2877    1.0000 </r>
       <r>  -21.2870    1.0000 </r>
       <r>  -21.2864    1.0000 </r>
       <r>  -21.2857    1.0000 </r>
       <r>  -21.2857    1.0000 </r>
       <r>  -21.2857    1.0000 </r>
       <r>  -21.2842    1.0000 </r>
       <r>  -21.2823    1.0000 </r>
       <r>  -21.2812    1.0000 </r>
       <r>  -21.2812    1.0000 </r>
       <r>  -21.2804    1.0000 </r>
       <r>  -21.2801    1.0000 </r>
       <r>  -21.2800    1.0000 </r>
       <r>  -21.2800    1.0000 </r>
       <r>  -21.2795    1.0000 </r>
       <r>  -21.2794    1.0000 </r>
       <r>  -21.2792    1.0000 </r>
       <r>  -21.2792    1.0000 </r>
       <r>  -21.2791    1.0000 </r>
       <r>  -21.2790    1.0000 </r>
       <r>  -21.2790    1.0000 </r>
       <r>  -21.2788    1.0000 </r>
       <r>  -21.2775    1.0000 </r>
       <r>  -21.2774    1.0000 </r>
       <r>  -21.2771    1.0000 </r>
       <r>  -21.2769    1.0000 </r>
       <r>  -21.2763    1.0000 </r>
       <r>  -21.2763    1.0000 </r>
       <r>  -21.2763    1.0000 </r>
       <r>  -21.2763    1.0000 </r>
       <r>  -21.2762    1.0000 </r>
       <r>  -21.2762    1.0000 </r>
[...]
      </set>
     </set>
    </set>
   </array>
  </eigenvalues>
  <separator name="orbital magnetization" >
   <v name="MAGDIPOLOUT">      0.00000000      0.00000000      0.00000000</v>
  </separator>
  <dos>
   <i name="efermi">     -0.56239107 </i>
   <total>
    <array>
     <dimension dim="1">gridpoints</dimension>
     <dimension dim="2">spin</dimension>
     <field>energy</field>
     <field>total</field>
     <field>integrated</field>
     <set>
      <set comment="spin 1">
       <r>   -22.8704     0.0000     0.0000 </r>
       <r>   -22.7573     0.0000     0.0000 </r>
       <r>   -22.6442     0.0000     0.0000 </r>
       <r>   -22.5311     0.0000     0.0000 </r>
       <r>   -22.4180     0.0000     0.0000 </r>
       <r>   -22.3049     0.0000     0.0000 </r>
       <r>   -22.1919     0.0000     0.0000 </r>
       <r>   -22.0788     0.0000     0.0000 </r>
       <r>   -21.9657     0.0000     0.0000 </r>
       <r>   -21.8526     0.0000     0.0000 </r>
       <r>   -21.7395     0.0000     0.0000 </r>
       <r>   -21.6264     0.0000     0.0000 </r>
       <r>   -21.5133     0.0000     0.0000 </r>
       <r>   -21.4002     0.0000     0.0000 </r>
       <r>   -21.2871   602.6616    68.1581 </r>
       <r>   -21.1740  1095.0229   192.0000 </r>
       <r>   -21.0609     0.0000   192.0000 </r>
       <r>   -20.9478     0.0000   192.0000 </r>
       <r>   -20.8347     0.0000   192.0000 </r>
       <r>   -20.7216     0.0000   192.0000 </r>
       <r>   -20.6085     0.0000   192.0000 </r>
       <r>   -20.4954     0.0000   192.0000 </r>
       <r>   -20.3823     0.0000   192.0000 </r>
       <r>   -20.2692     0.0000   192.0000 </r>
       <r>   -20.1561     0.0000   192.0000 </r>
       <r>   -20.0430     0.0000   192.0000 </r>
       <r>   -19.9299     0.0000   192.0000 </r>
       <r>   -19.8169     0.0000   192.0000 </r>
       <r>   -19.7038     0.0000   192.0000 </r>
       <r>   -19.5907     0.0000   192.0000 </r>
       <r>   -19.4776     0.0000   192.0000 </r>
       <r>   -19.3645     0.0000   192.0000 </r>
       <r>   -19.2514     0.0000   192.0000 </r>
       <r>   -19.1383     0.0000   192.0000 </r>
       <r>   -19.0252     0.0000   192.0000 </r>
       <r>   -18.9121     0.0000   192.0000 </r>
       <r>   -18.7990     0.0000   192.0000 </r>
       <r>   -18.6859     0.0000   192.0000 </r>
       <r>   -18.5728     0.0000   192.0000 </r>
       <r>   -18.4597     0.0000   192.0000 </r>
       <r>   -18.3466     0.0000   192.0000 </r>
       <r>   -18.2335     0.0000   192.0000 </r>
       <r>   -18.1204     0.0000   192.0000 </r>
       <r>   -18.0073     0.0000   192.0000 </r>
       <r>   -17.8942     0.0000   192.0000 </r>
       <r>   -17.7811     0.0000   192.0000 </r>
       <r>   -17.6680     0.0000   192.0000 </r>
       <r>   -17.5549     0.0000   192.0000 </r>
       <r>   -17.4419     0.0000   192.0000 </r>
       <r>   -17.3288     0.0000   192.0000 </r>
       <r>   -17.2157     0.0000   192.0000 </r>
       <r>   -17.1026     0.0000   192.0000 </r>
       <r>   -16.9895     0.0000   192.0000 </r>
       <r>   -16.8764     0.0000   192.0000 </r>
       <r>   -16.7633     0.0000   192.0000 </r>
       <r>   -16.6502     0.0000   192.0000 </r>
       <r>   -16.5371     0.0000   192.0000 </r>
       <r>   -16.4240     0.0000   192.0000 </r>
       <r>   -16.3109     0.0000   192.0000 </r>
       <r>   -16.1978     0.0000   192.0000 </r>
       <r>   -16.0847     0.0000   192.0000 </r>
       <r>   -15.9716     0.0000   192.0000 </r>
       <r>   -15.8585     0.0000   192.0000 </r>
       <r>   -15.7454     0.0000   192.0000 </r>
       <r>   -15.6323     0.0000   192.0000 </r>
       <r>   -15.5192     0.0000   192.0000 </r>
       <r>   -15.4061     0.0000   192.0000 </r>
       <r>   -15.2930     0.0000   192.0000 </r>
       <r>   -15.1799     0.0000   192.0000 </r>
       <r>   -15.0669     0.0000   192.0000 </r>
       <r>   -14.9538     0.0000   192.0000 </r>
       <r>   -14.8407     0.0000   192.0000 </r>
       <r>   -14.7276     0.0000   192.0000 </r>
       <r>   -14.6145     0.0000   192.0000 </r>
       <r>   -14.5014     0.0000   192.0000 </r>
       <r>   -14.3883     0.0000   192.0000 </r>
       <r>   -14.2752     0.0000   192.0000 </r>
       <r>   -14.1621     0.0000   192.0000 </r>
       <r>   -14.0490     0.0000   192.0000 </r>
       <r>   -13.9359     0.0000   192.0000 </r>
       <r>   -13.8228     0.0000   192.0000 </r>
       <r>   -13.7097     0.0000   192.0000 </r>
       <r>   -13.5966     0.0000   192.0000 </r>
       <r>   -13.4835     0.0000   192.0000 </r>
       <r>   -13.3704     0.4183   192.0473 </r>
       <r>   -13.2573    15.9122   193.8469 </r>
       <r>   -13.1442    47.4504   199.2133 </r>
       <r>   -13.0311   118.1434   212.5748 </r>
       <r>   -12.9180   365.3180   253.8905 </r>
       <r>   -12.8049    18.6442   256.0000 </r>
       <r>   -12.6919     0.0000   256.0000 </r>
       <r>   -12.5788     0.0000   256.0000 </r>
       <r>   -12.4657     0.0000   256.0000 </r>
       <r>   -12.3526     0.0000   256.0000 </r>
       <r>   -12.2395     0.0000   256.0000 </r>
       <r>   -12.1264     0.0000   256.0000 </r>
       <r>   -12.0133     0.0000   256.0000 </r>
       <r>   -11.9002     0.0000   256.0000 </r>
       <r>   -11.7871     0.0000   256.0000 </r>
       <r>   -11.6740     0.0000   256.0000 </r>
       <r>   -11.5609     0.0000   256.0000 </r>
       <r>   -11.4478     0.0000   256.0000 </r>
       <r>   -11.3347     0.0000   256.0000 </r>
       <r>   -11.2216     0.0000   256.0000 </r>
       <r>   -11.1085     0.0000   256.0000 </r>
       <r>   -10.9954     0.0000   256.0000 </r>
       <r>   -10.8823     0.0000   256.0000 </r>
       <r>   -10.7692     0.0000   256.0000 </r>
       <r>   -10.6561     0.0000   256.0000 </r>
       <r>   -10.5430     0.0000   256.0000 </r>
       <r>   -10.4299     0.0000   256.0000 </r>
       <r>   -10.3169     0.0000   256.0000 </r>
       <r>   -10.2038     0.0000   256.0000 </r>
       <r>   -10.0907     0.0000   256.0000 </r>
       <r>    -9.9776     0.0000   256.0000 </r>
       <r>    -9.8645     0.0000   256.0000 </r>
       <r>    -9.7514     0.0000   256.0000 </r>
       <r>    -9.6383     0.0000   256.0000 </r>
       <r>    -9.5252     0.0000   256.0000 </r>
       <r>    -9.4121     0.0000   256.0000 </r>
       <r>    -9.2990     0.0000   256.0000 </r>
       <r>    -9.1859     0.0000   256.0000 </r>
       <r>    -9.0728     0.0000   256.0000 </r>
       <r>    -8.9597     0.0000   256.0000 </r>
       <r>    -8.8466     0.0000   256.0000 </r>
       <r>    -8.7335     0.0000   256.0000 </r>
       <r>    -8.6204     0.0000   256.0000 </r>
       <r>    -8.5073     0.0000   256.0000 </r>
       <r>    -8.3942     0.0000   256.0000 </r>
       <r>    -8.2811     0.0000   256.0000 </r>
       <r>    -8.1680     0.0000   256.0000 </r>
       <r>    -8.0549     0.0000   256.0000 </r>
       <r>    -7.9419     0.0000   256.0000 </r>
       <r>    -7.8288     0.0000   256.0000 </r>
       <r>    -7.7157     0.0000   256.0000 </r>
       <r>    -7.6026     0.0000   256.0000 </r>
       <r>    -7.4895     0.0000   256.0000 </r>
       <r>    -7.3764     0.0000   256.0000 </r>
       <r>    -7.2633     0.0000   256.0000 </r>
       <r>    -7.1502     0.0000   256.0000 </r>
       <r>    -7.0371     0.0000   256.0000 </r>
       <r>    -6.9240     0.0000   256.0000 </r>
       <r>    -6.8109     0.0000   256.0000 </r>
       <r>    -6.6978     0.0000   256.0000 </r>
       <r>    -6.5847     0.0000   256.0000 </r>
       <r>    -6.4716     0.0000   256.0000 </r>
       <r>    -6.3585     0.0000   256.0000 </r>
       <r>    -6.2454     0.0000   256.0000 </r>
       <r>    -6.1323     0.0000   256.0000 </r>
       <r>    -6.0192     0.0000   256.0000 </r>
       <r>    -5.9061     0.0000   256.0000 </r>
       <r>    -5.7930     0.0000   256.0000 </r>
       <r>    -5.6799     0.0000   256.0000 </r>
       <r>    -5.5669     0.0000   256.0000 </r>
       <r>    -5.4538     0.0000   256.0000 </r>
       <r>    -5.3407     0.0000   256.0000 </r>
       <r>    -5.2276     0.0000   256.0000 </r>
       <r>    -5.1145     0.0000   256.0000 </r>
       <r>    -5.0014     0.0000   256.0000 </r>
       <r>    -4.8883     0.0000   256.0000 </r>
       <r>    -4.7752     0.0000   256.0000 </r>
       <r>    -4.6621     0.0000   256.0000 </r>
       <r>    -4.5490     0.0000   256.0000 </r>
       <r>    -4.4359     0.0000   256.0000 </r>
       <r>    -4.3228     0.0000   256.0000 </r>
       <r>    -4.2097     0.0000   256.0000 </r>
       <r>    -4.0966     0.0000   256.0000 </r>
       <r>    -3.9835     0.0000   256.0000 </r>
       <r>    -3.8704     0.0000   256.0000 </r>
       <r>    -3.7573     0.0000   256.0000 </r>
       <r>    -3.6442     0.0000   256.0000 </r>
       <r>    -3.5311     0.0000   256.0000 </r>
       <r>    -3.4180     0.0000   256.0000 </r>
       <r>    -3.3050     0.0000   256.0000 </r>
       <r>    -3.1919     0.0000   256.0000 </r>
       <r>    -3.0788     0.0000   256.0000 </r>
       <r>    -2.9657     0.0000   256.0000 </r>
       <r>    -2.8526     0.0000   256.0000 </r>
       <r>    -2.7395     0.0230   256.0026 </r>
       <r>    -2.6264     8.8192   257.0000 </r>
       <r>    -2.5133    14.0266   258.5863 </r>
       <r>    -2.4002    88.5913   268.6056 </r>
       <r>    -2.2871    79.4323   277.5890 </r>
       <r>    -2.1740   158.7998   295.5485 </r>
       <r>    -2.0609    76.9395   304.2500 </r>
       <r>    -1.9478    54.2309   310.3833 </r>
       <r>    -1.8347    54.6016   316.5584 </r>
       <r>    -1.7216    81.2728   325.7500 </r>
       <r>    -1.6085     0.0000   325.7500 </r>
       <r>    -1.4954    48.1753   331.1984 </r>
       <r>    -1.3823   211.6547   355.1355 </r>
       <r>    -1.2692    31.5614   358.7050 </r>
       <r>    -1.1561   238.6060   385.6902 </r>
       <r>    -1.0430   148.5601   402.4917 </r>
       <r>    -0.9300   245.8064   430.2914 </r>
       <r>    -0.8169    72.6494   438.5077 </r>
       <r>    -0.7038    77.1425   447.2321 </r>
       <r>    -0.5907     6.7897   448.0000 </r>
       <r>    -0.4776     0.0000   448.0000 </r>
       <r>    -0.3645     0.0000   448.0000 </r>
       <r>    -0.2514     0.0000   448.0000 </r>
       <r>    -0.1383     0.0000   448.0000 </r>
       <r>    -0.0252     0.0000   448.0000 </r>
       <r>     0.0879     0.0000   448.0000 </r>
       <r>     0.2010     0.0000   448.0000 </r>
       <r>     0.3141     0.0000   448.0000 </r>
       <r>     0.4272     0.0000   448.0000 </r>
       <r>     0.5403     0.0000   448.0000 </r>
       <r>     0.6534     0.0000   448.0000 </r>
       <r>     0.7665     0.0000   448.0000 </r>
       <r>     0.8796     0.0000   448.0000 </r>
       <r>     0.9927     0.0000   448.0000 </r>
       <r>     1.1058     0.0000   448.0000 </r>
       <r>     1.2189     0.0000   448.0000 </r>
       <r>     1.3320     0.0000   448.0000 </r>
       <r>     1.4450     0.0000   448.0000 </r>
       <r>     1.5581     0.0000   448.0000 </r>
       <r>     1.6712     0.0000   448.0000 </r>
       <r>     1.7843     0.0000   448.0000 </r>
       <r>     1.8974     0.0000   448.0000 </r>
       <r>     2.0105     0.0000   448.0000 </r>
       <r>     2.1236     0.0000   448.0000 </r>
       <r>     2.2367     0.0000   448.0000 </r>
       <r>     2.3498     0.0000   448.0000 </r>
       <r>     2.4629     0.0000   448.0000 </r>
       <r>     2.5760     0.0000   448.0000 </r>
       <r>     2.6891     0.0000   448.0000 </r>
       <r>     2.8022     0.0000   448.0000 </r>
       <r>     2.9153     0.0000   448.0000 </r>
       <r>     3.0284     0.0000   448.0000 </r>
       <r>     3.1415     0.0000   448.0000 </r>
       <r>     3.2546     0.0000   448.0000 </r>
       <r>     3.3677     0.0000   448.0000 </r>
       <r>     3.4808     0.0000   448.0000 </r>
       <r>     3.5939     0.0000   448.0000 </r>
       <r>     3.7070     0.0000   448.0000 </r>
       <r>     3.8200     0.0000   448.0000 </r>
       <r>     3.9331     0.0000   448.0000 </r>
       <r>     4.0462     0.0000   448.0000 </r>
       <r>     4.1593     0.0000   448.0000 </r>
       <r>     4.2724     0.0000   448.0000 </r>
       <r>     4.3855     2.2090   448.2498 </r>
       <r>     4.4986     0.0015   448.2500 </r>
       <r>     4.6117     0.0000   448.2500 </r>
       <r>     4.7248     0.0000   448.2500 </r>
       <r>     4.8379     0.0000   448.2500 </r>
       <r>     4.9510     0.0000   448.2500 </r>
       <r>     5.0641    13.2382   449.7472 </r>
       <r>     5.1772     0.0250   449.7500 </r>
       <r>     5.2903     0.0000   449.7500 </r>
       <r>     5.4034     0.0000   449.7500 </r>
       <r>     5.5165     1.7572   449.9487 </r>
       <r>     5.6296    24.7692   452.7500 </r>
       <r>     5.7427     0.0000   452.7500 </r>
       <r>     5.8558    16.6654   454.6348 </r>
       <r>     5.9689     1.0188   454.7500 </r>
       <r>     6.0820     0.0000   454.7500 </r>
       <r>     6.1950     0.0000   454.7500 </r>
       <r>     6.3081     0.0014   454.7502 </r>
       <r>     6.4212    13.6743   456.2967 </r>
       <r>     6.5343     8.4285   457.2500 </r>
       <r>     6.6474    37.7509   461.5194 </r>
       <r>     6.7605    68.1676   469.2289 </r>
       <r>     6.8736    58.8041   475.8796 </r>
       <r>     6.9867    12.4393   477.2864 </r>
       <r>     7.0998     1.8888   477.5000 </r>
       <r>     7.2129     4.4345   478.0015 </r>
       <r>     7.3260     2.3596   478.2684 </r>
       <r>     7.4391    81.1874   487.4503 </r>
       <r>     7.5522   166.0927   506.2347 </r>
       <r>     7.6653     4.5643   506.7510 </r>
       <r>     7.7784    26.5177   509.7500 </r>
       <r>     7.8915     0.1153   509.7630 </r>
       <r>     8.0046    52.9373   515.7500 </r>
       <r>     8.1177     0.0064   515.7507 </r>
       <r>     8.2308    14.0210   517.3364 </r>
       <r>     8.3439    92.0512   527.7470 </r>
       <r>     8.4570     0.0238   527.7500 </r>
       <r>     8.5700   143.6641   543.9977 </r>
       <r>     8.6831    15.4910   545.7500 </r>
       <r>     8.7962     0.0000   545.7500 </r>
       <r>     8.9093    78.6401   554.6438 </r>
       <r>     9.0224   125.2100   568.8045 </r>
       <r>     9.1355     6.1499   569.5000 </r>
       <r>     9.2486    19.7556   571.7343 </r>
       <r>     9.3617    22.8004   574.3129 </r>
       <r>     9.4748     2.6075   574.6078 </r>
       <r>     9.5879    12.3101   576.0000 </r>
       <r>     9.7010     0.0000   576.0000 </r>
       <r>     9.8141     0.0000   576.0000 </r>
       <r>     9.9272     0.0000   576.0000 </r>
       <r>    10.0403     0.0000   576.0000 </r>
       <r>    10.1534     0.0000   576.0000 </r>
       <r>    10.2665     0.0000   576.0000 </r>
       <r>    10.3796     0.0000   576.0000 </r>
       <r>    10.4927     0.0000   576.0000 </r>
       <r>    10.6058     0.0000   576.0000 </r>
       <r>    10.7189     0.0000   576.0000 </r>
       <r>    10.8320     0.0000   576.0000 </r>
       <r>    10.9450     0.0000   576.0000 </r>
       <r>    11.0581     0.0000   576.0000 </r>
      </set>
     </set>
    </array>
   </total>
  </dos>
 </calculation>
 <structure name="finalpos" >
  <crystal>
   <varray name="basis" >
    <v>      11.20400236       0.00000000       0.00000000 </v>
    <v>       0.00000000      11.20400236       0.00000000 </v>
    <v>       0.00000000       0.00000000      11.20400236 </v>
   </varray>
   <i name="volume">   1406.43470641 </i>
   <varray name="rec_basis" >
    <v>       0.08925382       0.00000000       0.00000000 </v>
    <v>       0.00000000       0.08925382       0.00000000 </v>
    <v>       0.00000000       0.00000000       0.08925382 </v>
   </varray>
  </crystal>
  <varray name="positions" >
   <v>       0.00000000       0.00000000       0.00000000 </v>
   <v>       0.25000000       0.25000000       0.00000000 </v>
   <v>       0.25000000       0.00000000       0.25000000 </v>
   <v>       0.00000000       0.25000000       0.25000000 </v>
   <v>       0.00000000       0.00000000       0.50000000 </v>
   <v>       0.25000000       0.25000000       0.50000000 </v>
   <v>       0.25000000       0.00000000       0.75000000 </v>
   <v>       0.00000000       0.25000000       0.75000000 </v>
   <v>       0.00000000       0.50000000       0.00000000 </v>
   <v>       0.25000000       0.75000000       0.00000000 </v>
   <v>       0.25000000       0.50000000       0.25000000 </v>
   <v>       0.00000000       0.75000000       0.25000000 </v>
   <v>       0.00000000       0.50000000       0.50000000 </v>
   <v>       0.25000000       0.75000000       0.50000000 </v>
   <v>       0.25000000       0.50000000       0.75000000 </v>
   <v>       0.00000000       0.75000000       0.75000000 </v>
   <v>       0.50000000       0.00000000       0.00000000 </v>
   <v>       0.75000000       0.25000000       0.00000000 </v>
   <v>       0.75000000       0.00000000       0.25000000 </v>
   <v>       0.50000000       0.25000000       0.25000000 </v>
   <v>       0.50000000       0.00000000       0.50000000 </v>
   <v>       0.75000000       0.25000000       0.50000000 </v>
   <v>       0.75000000       0.00000000       0.75000000 </v>
   <v>       0.50000000       0.25000000       0.75000000 </v>
   <v>       0.50000000       0.50000000       0.00000000 </v>
   <v>       0.75000000       0.75000000       0.00000000 </v>
   <v>       0.75000000       0.50000000       0.25000000 </v>
   <v>       0.50000000       0.75000000       0.25000000 </v>
   <v>       0.50000000       0.50000000       0.50000000 </v>
   <v>       0.75000000       0.75000000       0.50000000 </v>
   <v>       0.75000000       0.50000000       0.75000000 </v>
   <v>       0.50000000       0.75000000       0.75000000 </v>
   <v>       0.25267761       0.25000000       0.25000000 </v>
   <v>       0.00000000       0.99732239       0.25000000 </v>
   <v>       0.00000000       0.25000000       0.00000000 </v>
   <v>       0.25000000       0.00000000       0.00000000 </v>
   <v>       0.25000000       0.25000000       0.75000000 </v>
   <v>       0.00000000       0.00000000       0.75000000 </v>
   <v>       0.00000000       0.25000000       0.50000000 </v>
   <v>       0.25000000       0.00000000       0.50000000 </v>
   <v>       0.25000000       0.75000000       0.25000000 </v>
   <v>       0.00000000       0.50000000       0.25000000 </v>
   <v>       0.00000000       0.75000000       0.00000000 </v>
   <v>       0.25000000       0.50000000       0.00000000 </v>
   <v>       0.25000000       0.75000000       0.75000000 </v>
   <v>       0.00000000       0.50000000       0.75000000 </v>
   <v>       0.00000000       0.75000000       0.50000000 </v>
   <v>       0.25000000       0.50000000       0.50000000 </v>
   <v>       0.75000000       0.25000000       0.25000000 </v>
   <v>       0.50000000       0.00000000       0.25000000 </v>
   <v>       0.50000000       0.25000000       0.00000000 </v>
   <v>       0.75000000       0.00000000       0.00000000 </v>
   <v>       0.75000000       0.25000000       0.75000000 </v>
   <v>       0.50000000       0.00000000       0.75000000 </v>
   <v>       0.50000000       0.25000000       0.50000000 </v>
   <v>       0.75000000       0.00000000       0.50000000 </v>
   <v>       0.75000000       0.75000000       0.25000000 </v>
   <v>       0.50000000       0.50000000       0.25000000 </v>
   <v>       0.50000000       0.75000000       0.00000000 </v>
   <v>       0.75000000       0.50000000       0.00000000 </v>
   <v>       0.75000000       0.75000000       0.75000000 </v>
   <v>       0.50000000       0.50000000       0.75000000 </v>
   <v>       0.50000000       0.75000000       0.50000000 </v>
   <v>       0.75000000       0.50000000       0.50000000 </v>
  </varray>
 </structure>
</modeling>
