  64  64   0   0
  0.2197554E+02  0.1120400E-08  0.1120400E-08  0.1120400E-08  0.5000000E-15
  1.000000000000000E-004
  CAR 
 unknown system                          
     11.06446469    -22.84596326  301     -0.54985688      1.00000000
    -22.846  0.0000E+00  0.0000E+00
    -22.733  0.0000E+00  0.0000E+00
    -22.620  0.0000E+00  0.0000E+00
    -22.507  0.0000E+00  0.0000E+00
    -22.394  0.0000E+00  0.0000E+00
    -22.281  0.0000E+00  0.0000E+00
    -22.168  0.0000E+00  0.0000E+00
    -22.055  0.0000E+00  0.0000E+00
    -21.942  0.0000E+00  0.0000E+00
    -21.829  0.0000E+00  0.0000E+00
    -21.716  0.0000E+00  0.0000E+00
    -21.603  0.0000E+00  0.0000E+00
    -21.490  0.0000E+00  0.0000E+00
    -21.377  0.4444E-05  0.5023E-06
    -21.263  0.1450E+04  0.1639E+03
    -21.150  0.2490E+03  0.1920E+03
    -21.037  0.0000E+00  0.1920E+03
    -20.924  0.0000E+00  0.1920E+03
    -20.811  0.0000E+00  0.1920E+03
    -20.698  0.0000E+00  0.1920E+03
    -20.585  0.0000E+00  0.1920E+03
    -20.472  0.0000E+00  0.1920E+03
    -20.359  0.0000E+00  0.1920E+03
    -20.246  0.0000E+00  0.1920E+03
    -20.133  0.0000E+00  0.1920E+03
    -20.020  0.0000E+00  0.1920E+03
    -19.907  0.0000E+00  0.1920E+03
    -19.794  0.0000E+00  0.1920E+03
    -19.681  0.0000E+00  0.1920E+03
    -19.568  0.0000E+00  0.1920E+03
    -19.455  0.0000E+00  0.1920E+03
    -19.342  0.0000E+00  0.1920E+03
    -19.229  0.0000E+00  0.1920E+03
    -19.116  0.0000E+00  0.1920E+03
    -19.003  0.0000E+00  0.1920E+03
    -18.890  0.0000E+00  0.1920E+03
    -18.777  0.0000E+00  0.1920E+03
    -18.664  0.0000E+00  0.1920E+03
    -18.551  0.0000E+00  0.1920E+03
    -18.438  0.0000E+00  0.1920E+03
    -18.325  0.0000E+00  0.1920E+03
    -18.212  0.0000E+00  0.1920E+03
    -18.099  0.0000E+00  0.1920E+03
    -17.985  0.0000E+00  0.1920E+03
    -17.872  0.0000E+00  0.1920E+03
    -17.759  0.0000E+00  0.1920E+03
    -17.646  0.0000E+00  0.1920E+03
    -17.533  0.0000E+00  0.1920E+03
    -17.420  0.0000E+00  0.1920E+03
    -17.307  0.0000E+00  0.1920E+03
    -17.194  0.0000E+00  0.1920E+03
    -17.081  0.0000E+00  0.1920E+03
    -16.968  0.0000E+00  0.1920E+03
    -16.855  0.0000E+00  0.1920E+03
    -16.742  0.0000E+00  0.1920E+03
    -16.629  0.0000E+00  0.1920E+03
    -16.516  0.0000E+00  0.1920E+03
    -16.403  0.0000E+00  0.1920E+03
    -16.290  0.0000E+00  0.1920E+03
    -16.177  0.0000E+00  0.1920E+03
    -16.064  0.0000E+00  0.1920E+03
    -15.951  0.0000E+00  0.1920E+03
    -15.838  0.0000E+00  0.1920E+03
    -15.725  0.0000E+00  0.1920E+03
    -15.612  0.0000E+00  0.1920E+03
    -15.499  0.0000E+00  0.1920E+03
    -15.386  0.0000E+00  0.1920E+03
    -15.273  0.0000E+00  0.1920E+03
    -15.160  0.0000E+00  0.1920E+03
    -15.047  0.0000E+00  0.1920E+03
    -14.934  0.0000E+00  0.1920E+03
    -14.820  0.0000E+00  0.1920E+03
    -14.707  0.0000E+00  0.1920E+03
    -14.594  0.0000E+00  0.1920E+03
    -14.481  0.0000E+00  0.1920E+03
    -14.368  0.0000E+00  0.1920E+03
    -14.255  0.0000E+00  0.1920E+03
    -14.142  0.0000E+00  0.1920E+03
    -14.029  0.0000E+00  0.1920E+03
    -13.916  0.0000E+00  0.1920E+03
    -13.803  0.0000E+00  0.1920E+03
    -13.690  0.0000E+00  0.1920E+03
    -13.577  0.0000E+00  0.1920E+03
    -13.464  0.7195E-13  0.1920E+03
    -13.351  0.1526E+01  0.1922E+03
    -13.238  0.2277E+02  0.1947E+03
    -13.125  0.4762E+02  0.2001E+03
    -13.012  0.1346E+03  0.2153E+03
    -12.899  0.3579E+03  0.2558E+03
    -12.786  0.1747E+01  0.2560E+03
    -12.673  0.0000E+00  0.2560E+03
    -12.560  0.0000E+00  0.2560E+03
    -12.447  0.0000E+00  0.2560E+03
    -12.334  0.0000E+00  0.2560E+03
    -12.221  0.0000E+00  0.2560E+03
    -12.108  0.0000E+00  0.2560E+03
    -11.995  0.0000E+00  0.2560E+03
    -11.882  0.0000E+00  0.2560E+03
    -11.769  0.0000E+00  0.2560E+03
    -11.656  0.0000E+00  0.2560E+03
    -11.542  0.0000E+00  0.2560E+03
    -11.429  0.0000E+00  0.2560E+03
    -11.316  0.0000E+00  0.2560E+03
    -11.203  0.0000E+00  0.2560E+03
    -11.090  0.0000E+00  0.2560E+03
    -10.977  0.0000E+00  0.2560E+03
    -10.864  0.0000E+00  0.2560E+03
    -10.751  0.0000E+00  0.2560E+03
    -10.638  0.0000E+00  0.2560E+03
    -10.525  0.0000E+00  0.2560E+03
    -10.412  0.0000E+00  0.2560E+03
    -10.299  0.0000E+00  0.2560E+03
    -10.186  0.0000E+00  0.2560E+03
    -10.073  0.0000E+00  0.2560E+03
     -9.960  0.0000E+00  0.2560E+03
     -9.847  0.0000E+00  0.2560E+03
     -9.734  0.0000E+00  0.2560E+03
     -9.621  0.0000E+00  0.2560E+03
     -9.508  0.0000E+00  0.2560E+03
     -9.395  0.0000E+00  0.2560E+03
     -9.282  0.0000E+00  0.2560E+03
     -9.169  0.0000E+00  0.2560E+03
     -9.056  0.0000E+00  0.2560E+03
     -8.943  0.0000E+00  0.2560E+03
     -8.830  0.0000E+00  0.2560E+03
     -8.717  0.0000E+00  0.2560E+03
     -8.604  0.0000E+00  0.2560E+03
     -8.491  0.0000E+00  0.2560E+03
     -8.378  0.0000E+00  0.2560E+03
     -8.264  0.0000E+00  0.2560E+03
     -8.151  0.0000E+00  0.2560E+03
     -8.038  0.0000E+00  0.2560E+03
     -7.925  0.0000E+00  0.2560E+03
     -7.812  0.0000E+00  0.2560E+03
     -7.699  0.0000E+00  0.2560E+03
     -7.586  0.0000E+00  0.2560E+03
     -7.473  0.0000E+00  0.2560E+03
     -7.360  0.0000E+00  0.2560E+03
     -7.247  0.0000E+00  0.2560E+03
     -7.134  0.0000E+00  0.2560E+03
     -7.021  0.0000E+00  0.2560E+03
     -6.908  0.0000E+00  0.2560E+03
     -6.795  0.0000E+00  0.2560E+03
     -6.682  0.0000E+00  0.2560E+03
     -6.569  0.0000E+00  0.2560E+03
     -6.456  0.0000E+00  0.2560E+03
     -6.343  0.0000E+00  0.2560E+03
     -6.230  0.0000E+00  0.2560E+03
     -6.117  0.0000E+00  0.2560E+03
     -6.004  0.0000E+00  0.2560E+03
     -5.891  0.0000E+00  0.2560E+03
     -5.778  0.0000E+00  0.2560E+03
     -5.665  0.0000E+00  0.2560E+03
     -5.552  0.0000E+00  0.2560E+03
     -5.439  0.0000E+00  0.2560E+03
     -5.326  0.0000E+00  0.2560E+03
     -5.213  0.0000E+00  0.2560E+03
     -5.100  0.0000E+00  0.2560E+03
     -4.986  0.0000E+00  0.2560E+03
     -4.873  0.0000E+00  0.2560E+03
     -4.760  0.0000E+00  0.2560E+03
     -4.647  0.0000E+00  0.2560E+03
     -4.534  0.0000E+00  0.2560E+03
     -4.421  0.0000E+00  0.2560E+03
     -4.308  0.0000E+00  0.2560E+03
     -4.195  0.0000E+00  0.2560E+03
     -4.082  0.0000E+00  0.2560E+03
     -3.969  0.0000E+00  0.2560E+03
     -3.856  0.0000E+00  0.2560E+03
     -3.743  0.0000E+00  0.2560E+03
     -3.630  0.0000E+00  0.2560E+03
     -3.517  0.0000E+00  0.2560E+03
     -3.404  0.0000E+00  0.2560E+03
     -3.291  0.0000E+00  0.2560E+03
     -3.178  0.0000E+00  0.2560E+03
     -3.065  0.0000E+00  0.2560E+03
     -2.952  0.0000E+00  0.2560E+03
     -2.839  0.0000E+00  0.2560E+03
     -2.726  0.3026E+00  0.2560E+03
     -2.613  0.8544E+01  0.2570E+03
     -2.500  0.3337E+02  0.2608E+03
     -2.387  0.7769E+02  0.2696E+03
     -2.274  0.8772E+02  0.2795E+03
     -2.161  0.1522E+03  0.2967E+03
     -2.048  0.6708E+02  0.3043E+03
     -1.935  0.5956E+02  0.3110E+03
     -1.821  0.6828E+02  0.3187E+03
     -1.708  0.6235E+02  0.3257E+03
     -1.595  0.2725E-08  0.3258E+03
     -1.482  0.9377E+02  0.3363E+03
     -1.369  0.1786E+03  0.3565E+03
     -1.256  0.2058E+02  0.3589E+03
     -1.143  0.2641E+03  0.3887E+03
     -1.030  0.1306E+03  0.4035E+03
     -0.917  0.2632E+03  0.4332E+03
     -0.804  0.5877E+02  0.4399E+03
     -0.691  0.6539E+02  0.4473E+03
     -0.578  0.6430E+01  0.4480E+03
     -0.465  0.0000E+00  0.4480E+03
     -0.352  0.0000E+00  0.4480E+03
     -0.239  0.0000E+00  0.4480E+03
     -0.126  0.0000E+00  0.4480E+03
     -0.013  0.0000E+00  0.4480E+03
      0.100  0.0000E+00  0.4480E+03
      0.213  0.0000E+00  0.4480E+03
      0.326  0.0000E+00  0.4480E+03
      0.439  0.0000E+00  0.4480E+03
      0.552  0.0000E+00  0.4480E+03
      0.665  0.0000E+00  0.4480E+03
      0.778  0.0000E+00  0.4480E+03
      0.891  0.0000E+00  0.4480E+03
      1.004  0.0000E+00  0.4480E+03
      1.117  0.0000E+00  0.4480E+03
      1.230  0.0000E+00  0.4480E+03
      1.343  0.0000E+00  0.4480E+03
      1.457  0.0000E+00  0.4480E+03
      1.570  0.0000E+00  0.4480E+03
      1.683  0.0000E+00  0.4480E+03
      1.796  0.0000E+00  0.4480E+03
      1.909  0.0000E+00  0.4480E+03
      2.022  0.0000E+00  0.4480E+03
      2.135  0.0000E+00  0.4480E+03
      2.248  0.0000E+00  0.4480E+03
      2.361  0.0000E+00  0.4480E+03
      2.474  0.0000E+00  0.4480E+03
      2.587  0.0000E+00  0.4480E+03
      2.700  0.0000E+00  0.4480E+03
      2.813  0.0000E+00  0.4480E+03
      2.926  0.0000E+00  0.4480E+03
      3.039  0.0000E+00  0.4480E+03
      3.152  0.0000E+00  0.4480E+03
      3.265  0.0000E+00  0.4480E+03
      3.378  0.0000E+00  0.4480E+03
      3.491  0.0000E+00  0.4480E+03
      3.604  0.0000E+00  0.4480E+03
      3.717  0.0000E+00  0.4480E+03
      3.830  0.0000E+00  0.4480E+03
      3.943  0.0000E+00  0.4480E+03
      4.056  0.0000E+00  0.4480E+03
      4.169  0.0000E+00  0.4480E+03
      4.282  0.4629E-04  0.4480E+03
      4.395  0.2212E+01  0.4482E+03
      4.508  0.0000E+00  0.4482E+03
      4.621  0.0000E+00  0.4482E+03
      4.735  0.0000E+00  0.4482E+03
      4.848  0.0000E+00  0.4482E+03
      4.961  0.8752E-04  0.4483E+03
      5.074  0.1327E+02  0.4497E+03
      5.187  0.0000E+00  0.4498E+03
      5.300  0.0000E+00  0.4498E+03
      5.413  0.0000E+00  0.4498E+03
      5.526  0.4448E+01  0.4503E+03
      5.639  0.2209E+02  0.4527E+03
      5.752  0.2434E-06  0.4528E+03
      5.865  0.1752E+02  0.4547E+03
      5.978  0.1752E+00  0.4548E+03
      6.091  0.0000E+00  0.4548E+03
      6.204  0.0000E+00  0.4548E+03
      6.317  0.2103E-02  0.4548E+03
      6.430  0.1461E+02  0.4564E+03
      6.543  0.7509E+01  0.4573E+03
      6.656  0.4692E+02  0.4626E+03
      6.769  0.5923E+02  0.4692E+03
      6.882  0.5955E+02  0.4760E+03
      6.995  0.1285E+02  0.4774E+03
      7.108  0.5861E+00  0.4775E+03
      7.221  0.5613E+01  0.4781E+03
      7.334  0.1644E+01  0.4783E+03
      7.447  0.8299E+02  0.4877E+03
      7.560  0.1674E+03  0.5066E+03
      7.673  0.1158E+01  0.5068E+03
      7.786  0.2649E+02  0.5097E+03
      7.899  0.4295E+00  0.5098E+03
      8.013  0.5265E+02  0.5157E+03
      8.126  0.1668E-01  0.5158E+03
      8.239  0.1475E+02  0.5174E+03
      8.352  0.9140E+02  0.5277E+03
      8.465  0.1209E-04  0.5278E+03
      8.578  0.1547E+03  0.5452E+03
      8.691  0.4527E+01  0.5458E+03
      8.804  0.4457E-05  0.5458E+03
      8.917  0.8825E+02  0.5557E+03
      9.030  0.1202E+03  0.5693E+03
      9.143  0.1700E+01  0.5695E+03
      9.256  0.2866E+02  0.5727E+03
      9.369  0.1557E+02  0.5745E+03
      9.482  0.1392E+01  0.5747E+03
      9.595  0.1188E+02  0.5760E+03
      9.708  0.0000E+00  0.5760E+03
      9.821  0.0000E+00  0.5760E+03
      9.934  0.0000E+00  0.5760E+03
     10.047  0.0000E+00  0.5760E+03
     10.160  0.0000E+00  0.5760E+03
     10.273  0.0000E+00  0.5760E+03
     10.386  0.0000E+00  0.5760E+03
     10.499  0.0000E+00  0.5760E+03
     10.612  0.0000E+00  0.5760E+03
     10.725  0.0000E+00  0.5760E+03
     10.838  0.0000E+00  0.5760E+03
     10.951  0.0000E+00  0.5760E+03
     11.064  0.0000E+00  0.5760E+03
