       N       E                     dE             d eps       ncg     rms          rms(c)
DAV:   1     0.431657773744E+04    0.43166E+04   -0.17183E+05  3456   0.125E+03
DAV:   2     0.363220084289E+03   -0.39534E+04   -0.37631E+04  3840   0.367E+02
DAV:   3    -0.206235089065E+03   -0.56946E+03   -0.56520E+03  4192   0.155E+02
DAV:   4    -0.228195162502E+03   -0.21960E+02   -0.21859E+02  4160   0.330E+01
DAV:   5    -0.229005547538E+03   -0.81039E+00   -0.80903E+00  4256   0.615E+00    0.106E+01
DAV:   6    -0.224138770454E+03    0.48668E+01   -0.94963E+00  4288   0.528E+00    0.776E+00
DAV:   7    -0.223778446405E+03    0.36032E+00   -0.20618E+00  4704   0.235E+00    0.534E+00
DAV:   8    -0.223903671754E+03   -0.12523E+00   -0.26644E-01  4000   0.122E+00    0.142E+00
DAV:   9    -0.223898203241E+03    0.54685E-02   -0.11365E-02  4288   0.256E-01    0.598E-01
DAV:  10    -0.223902541806E+03   -0.43386E-02   -0.18351E-02  3968   0.218E-01    0.295E-01
DAV:  11    -0.223901785003E+03    0.75680E-03   -0.17361E-03  4288   0.770E-02    0.766E-02
DAV:  12    -0.223901754174E+03    0.30828E-04   -0.15381E-04  4512   0.225E-02    0.101E-02
DAV:  13    -0.223901762359E+03   -0.81845E-05   -0.10883E-05  4096   0.642E-03    0.270E-03
DAV:  14    -0.223901761817E+03    0.54130E-06   -0.82663E-07  4672   0.210E-03    0.886E-03
DAV:  15    -0.223901763115E+03   -0.12974E-05   -0.63971E-07  3584   0.146E-03    0.207E-03
DAV:  16    -0.223901763472E+03   -0.35766E-06   -0.42558E-08  3648   0.509E-04    0.296E-04
DAV:  17    -0.223901763471E+03    0.13679E-08   -0.49737E-09  2432   0.318E-04
   1 F= -.22390176E+03 E0= -.22390176E+03  d E =-.180919E-16
