 vasp.6.3.2 27Jun22 (build Oct 14 2022 12:13:54) complex                        
  
 executed on             LinuxIFC date 2025.08.28  21:57:03
 running on   32 total cores
 distrk:  each k-point on   32 cores,    1 groups
 distr:  one band on NCORE=   1 cores,   32 groups


--------------------------------------------------------------------------------------------------------


 INCAR:
   ENCUT = 341.213600
   SIGMA = 0.020000
   EDIFF = 1.00e-08
   GGA = PS
   PREC = Accurate
   IALGO = 38
   IBRION = -1
   ISMEAR = 0
   NELMIN = 5
   ADDGRID = .TRUE.
   LCHARG = .FALSE.
   LWAVE = .FALSE.
   LREAL = .FALSE.

 POTCAR:    PAW_PBE Na_pv 19Sep2006               
 POTCAR:    PAW_PBE Cl 06Sep2000                  
 -----------------------------------------------------------------------------
|                                                                             |
|           W    W    AA    RRRRR   N    N  II  N    N   GGGG   !!!           |
|           W    W   A  A   R    R  NN   N  II  NN   N  G    G  !!!           |
|           W    W  A    A  R    R  N N  N  II  N N  N  G       !!!           |
|           W WW W  AAAAAA  RRRRR   N  N N  II  N  N N  G  GGG   !            |
|           WW  WW  A    A  R   R   N   NN  II  N   NN  G    G                |
|           W    W  A    A  R    R  N    N  II  N    N   GGGG   !!!           |
|                                                                             |
|     For optimal performance we recommend to set                             |
|       NCORE = 2 up to number-of-cores-per-socket                            |
|     NCORE specifies how many cores store one orbital (NPAR=cpu/NCORE).      |
|     This setting can greatly improve the performance of VASP for DFT.       |
|     The default, NCORE=1 might be grossly inefficient on modern             |
|     multi-core architectures or massively parallel machines. Do your        |
|     own testing! More info at https://www.vasp.at/wiki/index.php/NCORE      |
|     Unfortunately you need to use the default for GW and RPA                |
|     calculations (for HF NCORE is supported but not extensively tested      |
|     yet).                                                                   |
|                                                                             |
 -----------------------------------------------------------------------------

 POTCAR:    PAW_PBE Na_pv 19Sep2006               
   SHA256 =  6a2f546d9e11350984debacf3dc457d8cffc0868e817d445faca461816a32b94 Na_pv/POTCAR          
   COPYR  = (c) Copyright 19Sep2006 Georg Kresse                                                    
   COPYR  = This file is part of the software VASP. Any use, copying, and all other rights are regul
   COPYR  = If you do not have a valid VASP license, you may not use, copy or distribute this file. 
   VRHFIN =Na: p6s1                                                                                 
   LEXCH  = PE                                                                                      
   EATOM  =   766.0439 eV,   56.3026 Ry                                                             
                                                                                                    
   TITEL  = PAW_PBE Na_pv 19Sep2006                                                                 
   LULTRA =        F    use ultrasoft PP ?                                                          
   IUNSCR =        1    unscreen: 0-lin 1-nonlin 2-no                                               
   RPACOR =    1.800    partial core radius                                                         
   POMASS =   22.990; ZVAL   =    7.000    mass and valenz                                          
   RCORE  =    2.200    outmost cutoff radius                                                       
   RWIGS  =    2.200; RWIGS  =    1.164    wigner-seitz radius (au A)                               
   ENMAX  =  259.561; ENMIN  =  194.671 eV                                                          
   ICORE  =        2    local potential                                                             
   LCOR   =        T    correct aug charges                                                         
   LPAW   =        T    paw PP                                                                      
   EAUG   =  368.056                                                                                
   DEXC   =    0.000                                                                                
   RMAX   =    2.245    core radius for proj-oper                                                   
   RAUG   =    1.300    factor for augmentation sphere                                              
   RDEP   =    2.259    radius for radial grids                                                     
   RDEPT  =    1.738    core radius for aug-charge                                                  
                                                                                                    
   Atomic configuration                                                                             
    5 entries                                                                                       
     n  l   j            E        occ.                                                              
     1  0  0.50     -1033.6933   2.0000                                                             
     2  0  0.50       -56.7526   2.0000                                                             
     2  1  1.50       -28.6721   6.0000                                                             
     3  0  0.50        -2.7440   1.0000                                                             
     3  2  1.50        -1.3606   0.0000                                                             
   Description                                                                                      
     l       E           TYP  RCUT    TYP  RCUT                                                     
     1    -28.6720912     23  2.000                                                                 
     1      6.8029130     23  2.000                                                                 
     0     -2.7439560     23  2.200                                                                 
     0     34.0145650     23  2.200                                                                 
     2     -1.3605826     23  2.200                                                                 
  local pseudopotential read in
  partial core-charges read in
  partial kinetic energy density read in
  atomic valenz-charges read in
  non local Contribution for L=           1  read in
    real space projection operators read in
  non local Contribution for L=           1  read in
    real space projection operators read in
  non local Contribution for L=           0  read in
    real space projection operators read in
  non local Contribution for L=           0  read in
    real space projection operators read in
    PAW grid and wavefunctions read in
 
   number of l-projection  operators is LMAX  =           4
   number of lm-projection operators is LMMAX =           8
 
 POTCAR:    PAW_PBE Cl 06Sep2000                  
   SHA256 =  9f1b6e6ed4247ac726a768b330d26d7667cc3c95a39ff49c1d064c2d9dcce931 Cl/POTCAR             
   COPYR  = (c) Copyright 06Sep2000 Georg Kresse                                                    
   COPYR  = This file is part of the software VASP. Any use, copying, and all other rights are regul
   COPYR  = If you do not have a valid VASP license, you may not use, copy or distribute this file. 
   VRHFIN =Cl: s2p5                                                                                 
   LEXCH  = PE                                                                                      
   EATOM  =   409.7259 eV,   30.1140 Ry                                                             
                                                                                                    
   TITEL  = PAW_PBE Cl 06Sep2000                                                                    
   LULTRA =        F    use ultrasoft PP ?                                                          
   IUNSCR =        1    unscreen: 0-lin 1-nonlin 2-no                                               
   RPACOR =    1.500    partial core radius                                                         
   POMASS =   35.453; ZVAL   =    7.000    mass and valenz                                          
   RCORE  =    1.900    outmost cutoff radius                                                       
   RWIGS  =    2.100; RWIGS  =    1.111    wigner-seitz radius (au A)                               
   ENMAX  =  262.472; ENMIN  =  196.854 eV                                                          
   ICORE  =        2    local potential                                                             
   LCOR   =        T    correct aug charges                                                         
   LPAW   =        T    paw PP                                                                      
   EAUG   =  356.192                                                                                
   DEXC   =    0.000                                                                                
   RMAX   =    1.945    core radius for proj-oper                                                   
   RAUG   =    1.300    factor for augmentation sphere                                              
   RDEP   =    2.020    radius for radial grids                                                     
   RDEPT  =    1.678    core radius for aug-charge                                                  
                                                                                                    
   Atomic configuration                                                                             
    6 entries                                                                                       
     n  l   j            E        occ.                                                              
     1  0  0.50     -2751.1850   2.0000                                                             
     2  0  0.50      -252.6861   2.0000                                                             
     2  1  1.50      -191.6157   6.0000                                                             
     3  0  0.50       -20.6916   2.0000                                                             
     3  1  0.50        -8.5949   5.0000                                                             
     3  2  1.50        -8.1635   0.0000                                                             
   Description                                                                                      
     l       E           TYP  RCUT    TYP  RCUT                                                     
     0    -20.6915656     23  1.900                                                                 
     0    -22.0521482     23  1.900                                                                 
     1     -8.5948577     23  1.900                                                                 
     1     -5.3847331     23  1.900                                                                 
     2     -8.1634956     23  1.900                                                                 
  local pseudopotential read in
  partial core-charges read in
  partial kinetic energy density read in
  atomic valenz-charges read in
  non local Contribution for L=           0  read in
    real space projection operators read in
  non local Contribution for L=           0  read in
    real space projection operators read in
  non local Contribution for L=           1  read in
    real space projection operators read in
  non local Contribution for L=           1  read in
    real space projection operators read in
    PAW grid and wavefunctions read in
 
   number of l-projection  operators is LMAX  =           4
   number of lm-projection operators is LMMAX =           8
 
 -----------------------------------------------------------------------------
|                                                                             |
|               ----> ADVICE to this user running VASP <----                  |
|                                                                             |
|     You have a (more or less) 'large supercell' and for larger cells it     |
|     might be more efficient to use real-space projection operators.         |
|     Therefore, try LREAL= Auto in the INCAR file.                           |
|     Mind: For very accurate calculation, you might also keep the            |
|     reciprocal projection scheme (i.e. LREAL=.FALSE.).                      |
|                                                                             |
 -----------------------------------------------------------------------------

 -----------------------------------------------------------------------------
|                                                                             |
|               ----> ADVICE to this user running VASP <----                  |
|                                                                             |
|     You enforced a specific xc type in the INCAR file but a different       |
|     type was found in the POTCAR file.                                      |
|     I HOPE YOU KNOW WHAT YOU ARE DOING!                                     |
|                                                                             |
 -----------------------------------------------------------------------------

  PAW_PBE Na_pv 19Sep2006               :
 energy of atom  1       EATOM= -766.0439
 kinetic energy error for atom=    0.0189 (will be added to EATOM!!)
  PAW_PBE Cl 06Sep2000                  :
 energy of atom  2       EATOM= -409.7259
 kinetic energy error for atom=    0.0106 (will be added to EATOM!!)
 
 
 POSCAR: Na Cl
  positions in cartesian coordinates
  No initial velocities read in
 exchange correlation table for  LEXCH =       14
   RHO(1)=    0.500       N(1)  =     2000
   RHO(2)=  100.500       N(2)  =     4000
 


--------------------------------------------------------------------------------------------------------


 ion  position               nearest neighbor table
   1  0.003  0.000  0.000-
   2  0.250  0.250  0.000-
   3  0.250  0.000  0.250-
   4  0.000  0.250  0.250-
   5  0.000  0.000  0.500-
   6  0.250  0.250  0.500-
   7  0.250  0.000  0.750-
   8  0.000  0.250  0.750-
   9  0.000  0.500  0.000-
  10  0.250  0.750  0.000-
  11  0.250  0.500  0.250-
  12  0.000  0.750  0.250-
  13  0.000  0.500  0.500-
  14  0.250  0.750  0.500-
  15  0.250  0.500  0.750-
  16  0.000  0.750  0.750-
  17  0.500  0.000  0.000-
  18  0.750  0.250  0.000-
  19  0.750  0.000  0.250-
  20  0.500  0.250  0.250-
  21  0.500  0.000  0.500-
  22  0.750  0.250  0.500-
  23  0.750  0.000  0.750-
  24  0.500  0.250  0.750-
  25  0.500  0.500  0.000-
  26  0.750  0.750  0.000-
  27  0.750  0.500  0.250-
  28  0.500  0.750  0.250-
  29  0.500  0.500  0.500-
  30  0.750  0.750  0.500-
  31  0.750  0.500  0.750-
  32  0.500  0.750  0.750-
  33  0.250  0.250  0.250-
  34  0.000  0.000  0.250-
  35  0.000  0.250  0.000-
  36  0.250  0.000  0.000-
  37  0.250  0.250  0.750-
  38  0.000  0.000  0.750-
  39  0.000  0.250  0.500-
  40  0.250  0.000  0.500-
  41  0.250  0.750  0.250-
  42  0.000  0.500  0.250-
  43  0.000  0.750  0.000-
  44  0.250  0.500  0.000-
  45  0.250  0.750  0.750-
  46  0.000  0.500  0.750-
  47  0.000  0.750  0.500-
  48  0.250  0.500  0.500-
  49  0.750  0.250  0.250-
  50  0.500  0.000  0.250-
  51  0.500  0.250  0.000-
  52  0.750  0.000  0.000-
  53  0.750  0.250  0.750-
  54  0.500  0.000  0.750-
  55  0.500  0.250  0.500-
  56  0.750  0.000  0.500-
  57  0.750  0.750  0.250-
  58  0.500  0.500  0.250-
  59  0.500  0.750  0.000-
  60  0.750  0.500  0.000-
  61  0.750  0.750  0.750-
  62  0.500  0.500  0.750-
  63  0.500  0.750  0.500-
  64  0.750  0.500  0.500-
 
  LATTYP: Found a simple cubic cell.
 ALAT       =    11.2040023600
  
  Lattice vectors:
  
 A1 = (  11.2040023600,   0.0000000000,   0.0000000000)
 A2 = (   0.0000000000,  11.2040023600,   0.0000000000)
 A3 = (   0.0000000000,   0.0000000000,  11.2040023600)


Analysis of symmetry for initial positions (statically):
=====================================================================
 Subroutine PRICEL returns:
 Original cell was already a primitive cell.
 

 Routine SETGRP: Setting up the symmetry group for a 
 simple cubic supercell.


 Subroutine GETGRP returns: Found  8 space group operations
 (whereof  8 operations were pure point group operations)
 out of a pool of 48 trial point group operations.


The static configuration has the point symmetry C_4v.


Analysis of symmetry for dynamics (positions and initial velocities):
=====================================================================
 Subroutine PRICEL returns:
 Original cell was already a primitive cell.
 

 Routine SETGRP: Setting up the symmetry group for a 
 simple cubic supercell.


 Subroutine GETGRP returns: Found  8 space group operations
 (whereof  8 operations were pure point group operations)
 out of a pool of 48 trial point group operations.


The dynamic configuration has the point symmetry C_4v.


 Subroutine INISYM returns: Found  8 space group operations
 (whereof  8 operations are pure point group operations),
 and found     1 'primitive' translations


----------------------------------------------------------------------------------------

                                     Primitive cell                                     

  volume of cell :    1406.4347

  direct lattice vectors                    reciprocal lattice vectors
    11.204002360  0.000000000  0.000000000     0.089253819  0.000000000  0.000000000
     0.000000000 11.204002360  0.000000000     0.000000000  0.089253819  0.000000000
     0.000000000  0.000000000 11.204002360     0.000000000  0.000000000  0.089253819

  length of vectors
    11.204002360 11.204002360 11.204002360     0.089253819  0.089253819  0.089253819

  position of ions in fractional coordinates (direct lattice)
     0.002677615  0.000000000  0.000000000
     0.250000000  0.250000000  0.000000000
     0.250000000  0.000000000  0.250000000
     0.000000000  0.250000000  0.250000000
     0.000000000  0.000000000  0.500000000
     0.250000000  0.250000000  0.500000000
     0.250000000  0.000000000  0.750000000
     0.000000000  0.250000000  0.750000000
     0.000000000  0.500000000  0.000000000
     0.250000000  0.750000000  0.000000000
     0.250000000  0.500000000  0.250000000
     0.000000000  0.750000000  0.250000000
     0.000000000  0.500000000  0.500000000
     0.250000000  0.750000000  0.500000000
     0.250000000  0.500000000  0.750000000
     0.000000000  0.750000000  0.750000000
     0.500000000  0.000000000  0.000000000
     0.750000000  0.250000000  0.000000000
     0.750000000  0.000000000  0.250000000
     0.500000000  0.250000000  0.250000000
     0.500000000  0.000000000  0.500000000
     0.750000000  0.250000000  0.500000000
     0.750000000  0.000000000  0.750000000
     0.500000000  0.250000000  0.750000000
     0.500000000  0.500000000  0.000000000
     0.750000000  0.750000000  0.000000000
     0.750000000  0.500000000  0.250000000
     0.500000000  0.750000000  0.250000000
     0.500000000  0.500000000  0.500000000
     0.750000000  0.750000000  0.500000000
     0.750000000  0.500000000  0.750000000
     0.500000000  0.750000000  0.750000000
     0.250000000  0.250000000  0.250000000
     0.000000000  0.000000000  0.250000000
     0.000000000  0.250000000  0.000000000
     0.250000000  0.000000000  0.000000000
     0.250000000  0.250000000  0.750000000
     0.000000000  0.000000000  0.750000000
     0.000000000  0.250000000  0.500000000
     0.250000000  0.000000000  0.500000000
     0.250000000  0.750000000  0.250000000
     0.000000000  0.500000000  0.250000000
     0.000000000  0.750000000  0.000000000
     0.250000000  0.500000000  0.000000000
     0.250000000  0.750000000  0.750000000
     0.000000000  0.500000000  0.750000000
     0.000000000  0.750000000  0.500000000
     0.250000000  0.500000000  0.500000000
     0.750000000  0.250000000  0.250000000
     0.500000000  0.000000000  0.250000000
     0.500000000  0.250000000  0.000000000
     0.750000000  0.000000000  0.000000000
     0.750000000  0.250000000  0.750000000
     0.500000000  0.000000000  0.750000000
     0.500000000  0.250000000  0.500000000
     0.750000000  0.000000000  0.500000000
     0.750000000  0.750000000  0.250000000
     0.500000000  0.500000000  0.250000000
     0.500000000  0.750000000  0.000000000
     0.750000000  0.500000000  0.000000000
     0.750000000  0.750000000  0.750000000
     0.500000000  0.500000000  0.750000000
     0.500000000  0.750000000  0.500000000
     0.750000000  0.500000000  0.500000000

  ion indices of the primitive-cell ions
   primitive index   ion index
                 1           1
                 2           2
                 3           3
                 4           4
                 5           5
                 6           6
                 7           7
                 8           8
                 9           9
                10          10
                11          11
                12          12
                13          13
                14          14
                15          15
                16          16
                17          17
                18          18
                19          19
                20          20
                21          21
                22          22
                23          23
                24          24
                25          25
                26          26
                27          27
                28          28
                29          29
                30          30
                31          31
                32          32
                33          33
                34          34
                35          35
                36          36
                37          37
                38          38
                39          39
                40          40
                41          41
                42          42
                43          43
                44          44
                45          45
                46          46
                47          47
                48          48
                49          49
                50          50
                51          51
                52          52
                53          53
                54          54
                55          55
                56          56
                57          57
                58          58
                59          59
                60          60
                61          61
                62          62
                63          63
                64          64

----------------------------------------------------------------------------------------

 
 
 KPOINTS: KPOINTS created by Atomic Simulation Env

Automatic generation of k-mesh.
 Grid dimensions read from file:
 generate k-points for:    2    2    2

 Generating k-lattice:

  Cartesian coordinates                     Fractional coordinates (reciprocal lattice)
     0.044626910  0.000000000  0.000000000     0.500000000  0.000000000  0.000000000
     0.000000000  0.044626910  0.000000000     0.000000000  0.500000000  0.000000000
     0.000000000  0.000000000  0.044626910     0.000000000  0.000000000  0.500000000

  Length of vectors
     0.044626910  0.044626910  0.044626910

  Shift w.r.t. Gamma in fractional coordinates (k-lattice)
     0.000000000  0.000000000  0.000000000

 
 Subroutine IBZKPT returns following result:
 ===========================================
 
 Found      6 irreducible k-points:
 
 Following reciprocal coordinates:
            Coordinates               Weight
  0.000000  0.000000  0.000000      1.000000
  0.500000  0.000000  0.000000      1.000000
  0.000000  0.500000  0.000000      2.000000
  0.500000  0.500000  0.000000      2.000000
  0.000000  0.500000  0.500000      1.000000
  0.500000  0.500000  0.500000      1.000000
 
 Following cartesian coordinates:
            Coordinates               Weight
  0.000000  0.000000  0.000000      1.000000
  0.044627  0.000000  0.000000      1.000000
  0.000000  0.044627  0.000000      2.000000
  0.044627  0.044627  0.000000      2.000000
  0.000000  0.044627  0.044627      1.000000
  0.044627  0.044627  0.044627      1.000000
 


--------------------------------------------------------------------------------------------------------




 Dimension of arrays:
   k-points           NKPTS =      6   k-points in BZ     NKDIM =      6   number of bands    NBANDS=    288
   number of dos      NEDOS =    301   number of ions     NIONS =     64
   non local maximal  LDIM  =      4   non local SUM 2l+1 LMDIM =      8
   total plane-waves  NPLWV = 343000
   max r-space proj   IRMAX =      1   max aug-charges    IRDMAX=  56280
   dimension x,y,z NGX =    70 NGY =   70 NGZ =   70
   dimension x,y,z NGXF=   140 NGYF=  140 NGZF=  140
   support grid    NGXF=   280 NGYF=  280 NGZF=  280
   ions per type =              32  32
   NGX,Y,Z   is equivalent  to a cutoff of  10.39, 10.39, 10.39 a.u.
   NGXF,Y,Z  is equivalent  to a cutoff of  20.77, 20.77, 20.77 a.u.

 SYSTEM =  unknown system                          
 POSCAR =  Na Cl                                   

 Startparameter for this run:
   NWRITE =      2    write-flag & timer
   PREC   = accura    normal or accurate (medium, high low for compatibility)
   ISTART =      0    job   : 0-new  1-cont  2-samecut
   ICHARG =      2    charge: 1-file 2-atom 10-const
   ISPIN  =      1    spin polarized calculation?
   LNONCOLLINEAR =      F non collinear calculations
   LSORBIT =      F    spin-orbit coupling
   INIWAV =      1    electr: 0-lowe 1-rand  2-diag
   LASPH  =      F    aspherical Exc in radial PAW
 Electronic Relaxation 1
   ENCUT  =  341.2 eV  25.08 Ry    5.01 a.u.  16.87 16.87 16.87*2*pi/ulx,y,z
   ENINI  =  341.2     initial cutoff
   ENAUG  =  368.1 eV  augmentation charge cutoff
   NELM   =     60;   NELMIN=  5; NELMDL= -5     # of ELM steps 
   EDIFF  = 0.1E-07   stopping-criterion for ELM
   LREAL  =      F    real-space projection
   NLSPLINE    = F    spline interpolate recip. space projectors
   LCOMPAT=      F    compatible to vasp.4.4
   GGA_COMPAT  = T    GGA compatible to vasp.4.4-vasp.4.6
   LMAXPAW     = -100 max onsite density
   LMAXMIX     =    2 max onsite mixed and CHGCAR
   VOSKOWN=      0    Vosko Wilk Nusair interpolation
   ROPT   =    0.00000   0.00000
 Ionic relaxation
   EDIFFG = 0.1E-06   stopping-criterion for IOM
   NSW    =      0    number of steps for IOM
   NBLOCK =      1;   KBLOCK =      1    inner block; outer block 
   IBRION =     -1    ionic relax: 0-MD 1-quasi-New 2-CG
   NFREE  =      0    steps in history (QN), initial steepest desc. (CG)
   ISIF   =      2    stress and relaxation
   IWAVPR =     10    prediction:  0-non 1-charg 2-wave 3-comb
   ISYM   =      2    0-nonsym 1-usesym 2-fastsym
   LCORR  =      T    Harris-Foulkes like correction to forces

   POTIM  = 0.5000    time-step for ionic-motion
   TEIN   =    0.0    initial temperature
   TEBEG  =    0.0;   TEEND  =   0.0 temperature during run
   SMASS  =  -3.00    Nose mass-parameter (am)
   estimated Nose-frequenzy (Omega)   =  0.10E-29 period in steps = 0.13E+47 mass=  -0.287E-26a.u.
   SCALEE = 1.0000    scale energy and forces
   NPACO  =    256;   APACO  = 10.0  distance and # of slots for P.C.
   PSTRESS=    0.0 pullay stress

  Mass of Ions in am
   POMASS =  22.99 35.45
  Ionic Valenz
   ZVAL   =   7.00  7.00
  Atomic Wigner-Seitz radii
   RWIGS  =  -1.00 -1.00
  virtual crystal weights 
   VCA    =   1.00  1.00
   NELECT =     448.0000    total number of electrons
   NUPDOWN=      -1.0000    fix difference up-down

 DOS related values:
   EMIN   =  10.00;   EMAX   =-10.00  energy-range for DOS
   EFERMI =   0.00
   ISMEAR =     0;   SIGMA  =   0.02  broadening in eV -4-tet -1-fermi 0-gaus

 Electronic relaxation 2 (details)
   IALGO  =     38    algorithm
   LDIAG  =      T    sub-space diagonalisation (order eigenvalues)
   LSUBROT=      F    optimize rotation matrix (better conditioning)
   TURBO    =      0    0=normal 1=particle mesh
   IRESTART =      0    0=no restart 2=restart with 2 vectors
   NREBOOT  =      0    no. of reboots
   NMIN     =      0    reboot dimension
   EREF     =   0.00    reference energy to select bands
   IMIX   =      4    mixing-type and parameters
     AMIX     =   0.40;   BMIX     =  1.00
     AMIX_MAG =   1.60;   BMIX_MAG =  1.00
     AMIN     =   0.10
     WC   =   100.;   INIMIX=   1;  MIXPRE=   1;  MAXMIX= -45

 Intra band minimization:
   WEIMIN = 0.0000     energy-eigenvalue tresh-hold
   EBREAK =  0.87E-11  absolut break condition
   DEPER  =   0.30     relativ break condition  

   TIME   =   0.40     timestep for ELM

  volume/ion in A,a.u.               =      21.98       148.30
  Fermi-wavevector in a.u.,A,eV,Ry     =   1.118049  2.112807 17.007750  1.250034
  Thomas-Fermi vector in A             =   2.254677
 
 Write flags
   LWAVE        =      F    write WAVECAR
   LDOWNSAMPLE  =      F    k-point downsampling of WAVECAR
   LCHARG       =      F    write CHGCAR
   LVTOT        =      F    write LOCPOT, total local potential
   LVHAR        =      F    write LOCPOT, Hartree potential only
   LELF         =      F    write electronic localiz. function (ELF)
   LORBIT       =      0    0 simple, 1 ext, 2 COOP (PROOUT), +10 PAW based schemes


 Dipole corrections
   LMONO  =      F    monopole corrections only (constant potential shift)
   LDIPOL =      F    correct potential (dipole corrections)
   IDIPOL =      0    1-x, 2-y, 3-z, 4-all directions 
   EPSILON=  1.0000000 bulk dielectric constant

 Exchange correlation treatment:
   GGA     =    PS    GGA type
   LEXCH   =    14    internal setting for exchange type
   LIBXC   =     F    Libxc                    
   VOSKOWN =     0    Vosko Wilk Nusair interpolation
   LHFCALC =     F    Hartree Fock is set to
   LHFONE  =     F    Hartree Fock one center treatment
   AEXX    =    0.0000 exact exchange contribution

 Linear response parameters
   LEPSILON=     F    determine dielectric tensor
   LRPA    =     F    only Hartree local field effects (RPA)
   LNABLA  =     F    use nabla operator in PAW spheres
   LVEL    =     F    velocity operator in full k-point grid
   CSHIFT  =0.1000    complex shift for real part using Kramers Kronig
   OMEGAMAX=  -1.0    maximum frequency
   DEG_THRESHOLD= 0.2000000E-02 threshold for treating states as degnerate
   RTIME   =   -0.100 relaxation time in fs
  (WPLASMAI=    0.000 imaginary part of plasma frequency in eV, 0.658/RTIME)
   DFIELD  = 0.0000000 0.0000000 0.0000000 field for delta impulse in time
 
  Optional k-point grid parameters
   LKPOINTS_OPT  =     F    use optional k-point grid
   KPOINTS_OPT_MODE=     1    mode for optional k-point grid
 
 Orbital magnetization related:
   ORBITALMAG=     F  switch on orbital magnetization
   LCHIMAG   =     F  perturbation theory with respect to B field
   DQ        =  0.001000  dq finite difference perturbation B field
   LLRAUG    =     F  two centre corrections for induced B field



--------------------------------------------------------------------------------------------------------


 Static calculation
 charge density and potential will be updated during run
 non-spin polarized calculation
 Variant of blocked Davidson
 Davidson routine will perform the subspace rotation
 perform sub-space diagonalisation
    after iterative eigenvector-optimisation
 modified Broyden-mixing scheme, WC =      100.0
 initial mixing is a Kerker type mixing with AMIX =  0.4000 and BMIX =      1.0000
 Hartree-type preconditioning will be used
 using additional bands           64
 reciprocal scheme for non local part
 use partial core corrections
 calculate Harris-corrections to forces 
   (improved forces if not selfconsistent)
 use gradient corrections 
 use of overlap-Matrix (Vanderbilt PP)
 Gauss-broadening in eV      SIGMA  =   0.02


--------------------------------------------------------------------------------------------------------


  energy-cutoff  :      341.21
  volume of cell :     1406.43
      direct lattice vectors                 reciprocal lattice vectors
    11.204002360  0.000000000  0.000000000     0.089253819  0.000000000  0.000000000
     0.000000000 11.204002360  0.000000000     0.000000000  0.089253819  0.000000000
     0.000000000  0.000000000 11.204002360     0.000000000  0.000000000  0.089253819

  length of vectors
    11.204002360 11.204002360 11.204002360     0.089253819  0.089253819  0.089253819


 
 k-points in units of 2pi/SCALE and weight: KPOINTS created by Atomic Simulation Env
   0.00000000  0.00000000  0.00000000       0.125
   0.04462691  0.00000000  0.00000000       0.125
   0.00000000  0.04462691  0.00000000       0.250
   0.04462691  0.04462691  0.00000000       0.250
   0.00000000  0.04462691  0.04462691       0.125
   0.04462691  0.04462691  0.04462691       0.125
 
 k-points in reciprocal lattice and weights: KPOINTS created by Atomic Simulation Env
   0.00000000  0.00000000  0.00000000       0.125
   0.50000000  0.00000000  0.00000000       0.125
   0.00000000  0.50000000  0.00000000       0.250
   0.50000000  0.50000000  0.00000000       0.250
   0.00000000  0.50000000  0.50000000       0.125
   0.50000000  0.50000000  0.50000000       0.125
 
 position of ions in fractional coordinates (direct lattice) 
   0.00267761  0.00000000  0.00000000
   0.25000000  0.25000000  0.00000000
   0.25000000  0.00000000  0.25000000
   0.00000000  0.25000000  0.25000000
   0.00000000  0.00000000  0.50000000
   0.25000000  0.25000000  0.50000000
   0.25000000  0.00000000  0.75000000
   0.00000000  0.25000000  0.75000000
   0.00000000  0.50000000  0.00000000
   0.25000000  0.75000000  0.00000000
   0.25000000  0.50000000  0.25000000
   0.00000000  0.75000000  0.25000000
   0.00000000  0.50000000  0.50000000
   0.25000000  0.75000000  0.50000000
   0.25000000  0.50000000  0.75000000
   0.00000000  0.75000000  0.75000000
   0.50000000  0.00000000  0.00000000
   0.75000000  0.25000000  0.00000000
   0.75000000  0.00000000  0.25000000
   0.50000000  0.25000000  0.25000000
   0.50000000  0.00000000  0.50000000
   0.75000000  0.25000000  0.50000000
   0.75000000  0.00000000  0.75000000
   0.50000000  0.25000000  0.75000000
   0.50000000  0.50000000  0.00000000
   0.75000000  0.75000000  0.00000000
   0.75000000  0.50000000  0.25000000
   0.50000000  0.75000000  0.25000000
   0.50000000  0.50000000  0.50000000
   0.75000000  0.75000000  0.50000000
   0.75000000  0.50000000  0.75000000
   0.50000000  0.75000000  0.75000000
   0.25000000  0.25000000  0.25000000
   0.00000000  0.00000000  0.25000000
   0.00000000  0.25000000  0.00000000
   0.25000000  0.00000000  0.00000000
   0.25000000  0.25000000  0.75000000
   0.00000000  0.00000000  0.75000000
   0.00000000  0.25000000  0.50000000
   0.25000000  0.00000000  0.50000000
   0.25000000  0.75000000  0.25000000
   0.00000000  0.50000000  0.25000000
   0.00000000  0.75000000  0.00000000
   0.25000000  0.50000000  0.00000000
   0.25000000  0.75000000  0.75000000
   0.00000000  0.50000000  0.75000000
   0.00000000  0.75000000  0.50000000
   0.25000000  0.50000000  0.50000000
   0.75000000  0.25000000  0.25000000
   0.50000000  0.00000000  0.25000000
   0.50000000  0.25000000  0.00000000
   0.75000000  0.00000000  0.00000000
   0.75000000  0.25000000  0.75000000
   0.50000000  0.00000000  0.75000000
   0.50000000  0.25000000  0.50000000
   0.75000000  0.00000000  0.50000000
   0.75000000  0.75000000  0.25000000
   0.50000000  0.50000000  0.25000000
   0.50000000  0.75000000  0.00000000
   0.75000000  0.50000000  0.00000000
   0.75000000  0.75000000  0.75000000
   0.50000000  0.50000000  0.75000000
   0.50000000  0.75000000  0.50000000
   0.75000000  0.50000000  0.50000000
 
 position of ions in cartesian coordinates  (Angst):
   0.03000000  0.00000000  0.00000000
   2.80100059  2.80100059  0.00000000
   2.80100059  0.00000000  2.80100059
   0.00000000  2.80100059  2.80100059
   0.00000000  0.00000000  5.60200118
   2.80100059  2.80100059  5.60200118
   2.80100059  0.00000000  8.40300177
   0.00000000  2.80100059  8.40300177
   0.00000000  5.60200118  0.00000000
   2.80100059  8.40300177  0.00000000
   2.80100059  5.60200118  2.80100059
   0.00000000  8.40300177  2.80100059
   0.00000000  5.60200118  5.60200118
   2.80100059  8.40300177  5.60200118
   2.80100059  5.60200118  8.40300177
   0.00000000  8.40300177  8.40300177
   5.60200118  0.00000000  0.00000000
   8.40300177  2.80100059  0.00000000
   8.40300177  0.00000000  2.80100059
   5.60200118  2.80100059  2.80100059
   5.60200118  0.00000000  5.60200118
   8.40300177  2.80100059  5.60200118
   8.40300177  0.00000000  8.40300177
   5.60200118  2.80100059  8.40300177
   5.60200118  5.60200118  0.00000000
   8.40300177  8.40300177  0.00000000
   8.40300177  5.60200118  2.80100059
   5.60200118  8.40300177  2.80100059
   5.60200118  5.60200118  5.60200118
   8.40300177  8.40300177  5.60200118
   8.40300177  5.60200118  8.40300177
   5.60200118  8.40300177  8.40300177
   2.80100059  2.80100059  2.80100059
   0.00000000  0.00000000  2.80100059
   0.00000000  2.80100059  0.00000000
   2.80100059  0.00000000  0.00000000
   2.80100059  2.80100059  8.40300177
   0.00000000  0.00000000  8.40300177
   0.00000000  2.80100059  5.60200118
   2.80100059  0.00000000  5.60200118
   2.80100059  8.40300177  2.80100059
   0.00000000  5.60200118  2.80100059
   0.00000000  8.40300177  0.00000000
   2.80100059  5.60200118  0.00000000
   2.80100059  8.40300177  8.40300177
   0.00000000  5.60200118  8.40300177
   0.00000000  8.40300177  5.60200118
   2.80100059  5.60200118  5.60200118
   8.40300177  2.80100059  2.80100059
   5.60200118  0.00000000  2.80100059
   5.60200118  2.80100059  0.00000000
   8.40300177  0.00000000  0.00000000
   8.40300177  2.80100059  8.40300177
   5.60200118  0.00000000  8.40300177
   5.60200118  2.80100059  5.60200118
   8.40300177  0.00000000  5.60200118
   8.40300177  8.40300177  2.80100059
   5.60200118  5.60200118  2.80100059
   5.60200118  8.40300177  0.00000000
   8.40300177  5.60200118  0.00000000
   8.40300177  8.40300177  8.40300177
   5.60200118  5.60200118  8.40300177
   5.60200118  8.40300177  5.60200118
   8.40300177  5.60200118  5.60200118
 


--------------------------------------------------------------------------------------------------------


 k-point   1 :   0.0000 0.0000 0.0000  plane waves:   20005
 k-point   2 :   0.5000 0.0000 0.0000  plane waves:   20138
 k-point   3 :   0.0000 0.5000 0.0000  plane waves:   20138
 k-point   4 :   0.5000 0.5000 0.0000  plane waves:   20160
 k-point   5 :   0.0000 0.5000 0.5000  plane waves:   20160
 k-point   6 :   0.5000 0.5000 0.5000  plane waves:   20336

 maximum and minimum number of plane-waves per node :     20336    20005

 maximum number of plane-waves:     20336
 maximum index in each direction: 
   IXMAX=   16   IYMAX=   16   IZMAX=   16
   IXMIN=  -17   IYMIN=  -17   IZMIN=  -17


 serial   3D FFT for wavefunctions
 parallel 3D FFT for charge:
    minimum data exchange during FFTs selected (reduces bandwidth)


 total amount of memory used by VASP MPI-rank0   118439. kBytes
=======================================================================

   base      :      30000. kBytes
   nonl-proj :      36470. kBytes
   fftplans  :      14405. kBytes
   grid      :      19342. kBytes
   one-center:        196. kBytes
   wavefun   :      18026. kBytes
 
     INWAV:  cpu time      0.0000: real time      0.0000
 Broyden mixing: mesh for mixing (old mesh)
   NGX = 33   NGY = 33   NGZ = 33
  (NGX  =140   NGY  =140   NGZ  =140)
  gives a total of  35937 points

 initial charge density was supplied:
 charge density of overlapping atoms calculated
 number of electron     448.0000000 magnetization 
 keeping initial charge density in first step


--------------------------------------------------------------------------------------------------------


 Maximum index for augmentation-charges         1834 (set IRDMAX)


--------------------------------------------------------------------------------------------------------


 First call to EWALD:  gamma=   0.158
 Maximum number of real-space cells 3x 3x 3
 Maximum number of reciprocal cells 3x 3x 3

    FEWALD:  cpu time      0.0015: real time      0.0015


--------------------------------------- Iteration      1(   1)  ---------------------------------------


    POTLOK:  cpu time      0.0419: real time      0.0428
    SETDIJ:  cpu time      0.0317: real time      0.0319
     EDDAV:  cpu time      7.4431: real time      7.4880
       DOS:  cpu time      0.0015: real time      0.0015
    --------------------------------------------
      LOOP:  cpu time      7.5182: real time      7.5642

 eigenvalue-minimisations  :  3456
 total energy-change (2. order) : 0.4316578E+04  (-0.1718289E+05)
 number of electron     448.0000000 magnetization 
 augmentation part      448.0000000 magnetization 

 Free energy of the ion-electron system (eV)
  ---------------------------------------------------
  alpha Z        PSCENC =       751.52672365
  Ewald energy   TEWEN  =    -22871.39982569
  -Hartree energ DENC   =     -8992.19152425
  -exchange      EXHF   =         0.00000000
  -V(xc)+E(xc)   XCENC  =      1456.53400737
  PAW double counting   =     26466.43774078   -29286.08056155
  entropy T*S    EENTRO =        -0.00295812
  eigenvalues    EBANDS =      -740.42533467
  atomic energy  EATOM  =     37532.17946992
  Solvation  Ediel_sol  =         0.00000000
  ---------------------------------------------------
  free energy    TOTEN  =      4316.57773744 eV

  energy without entropy =     4316.58069556  energy(sigma->0) =     4316.57921650


--------------------------------------------------------------------------------------------------------




--------------------------------------- Iteration      1(   2)  ---------------------------------------


     EDDAV:  cpu time      8.0844: real time      8.1278
       DOS:  cpu time      0.0007: real time      0.0007
    --------------------------------------------
      LOOP:  cpu time      8.0850: real time      8.1284

 eigenvalue-minimisations  :  3840
 total energy-change (2. order) :-0.3953358E+04  (-0.3763103E+04)
 number of electron     448.0000000 magnetization 
 augmentation part      448.0000000 magnetization 

 Free energy of the ion-electron system (eV)
  ---------------------------------------------------
  alpha Z        PSCENC =       751.52672365
  Ewald energy   TEWEN  =    -22871.39982569
  -Hartree energ DENC   =     -8992.19152425
  -exchange      EXHF   =         0.00000000
  -V(xc)+E(xc)   XCENC  =      1456.53400737
  PAW double counting   =     26466.43774078   -29286.08056155
  entropy T*S    EENTRO =        -0.00000000
  eigenvalues    EBANDS =     -4693.78594595
  atomic energy  EATOM  =     37532.17946992
  Solvation  Ediel_sol  =         0.00000000
  ---------------------------------------------------
  free energy    TOTEN  =       363.22008429 eV

  energy without entropy =      363.22008429  energy(sigma->0) =      363.22008429


--------------------------------------------------------------------------------------------------------




--------------------------------------- Iteration      1(   3)  ---------------------------------------


     EDDAV:  cpu time      8.6870: real time      8.7329
       DOS:  cpu time      0.0007: real time      0.0007
    --------------------------------------------
      LOOP:  cpu time      8.6877: real time      8.7336

 eigenvalue-minimisations  :  4192
 total energy-change (2. order) :-0.5694552E+03  (-0.5651999E+03)
 number of electron     448.0000000 magnetization 
 augmentation part      448.0000000 magnetization 

 Free energy of the ion-electron system (eV)
  ---------------------------------------------------
  alpha Z        PSCENC =       751.52672365
  Ewald energy   TEWEN  =    -22871.39982569
  -Hartree energ DENC   =     -8992.19152425
  -exchange      EXHF   =         0.00000000
  -V(xc)+E(xc)   XCENC  =      1456.53400737
  PAW double counting   =     26466.43774078   -29286.08056155
  entropy T*S    EENTRO =        -0.00000000
  eigenvalues    EBANDS =     -5263.24111930
  atomic energy  EATOM  =     37532.17946992
  Solvation  Ediel_sol  =         0.00000000
  ---------------------------------------------------
  free energy    TOTEN  =      -206.23508906 eV

  energy without entropy =     -206.23508906  energy(sigma->0) =     -206.23508906


--------------------------------------------------------------------------------------------------------




--------------------------------------- Iteration      1(   4)  ---------------------------------------


     EDDAV:  cpu time      8.6093: real time      8.6557
       DOS:  cpu time      0.0010: real time      0.0010
    --------------------------------------------
      LOOP:  cpu time      8.6103: real time      8.6566

 eigenvalue-minimisations  :  4160
 total energy-change (2. order) :-0.2196007E+02  (-0.2185864E+02)
 number of electron     448.0000000 magnetization 
 augmentation part      448.0000000 magnetization 

 Free energy of the ion-electron system (eV)
  ---------------------------------------------------
  alpha Z        PSCENC =       751.52672365
  Ewald energy   TEWEN  =    -22871.39982569
  -Hartree energ DENC   =     -8992.19152425
  -exchange      EXHF   =         0.00000000
  -V(xc)+E(xc)   XCENC  =      1456.53400737
  PAW double counting   =     26466.43774078   -29286.08056155
  entropy T*S    EENTRO =        -0.00000000
  eigenvalues    EBANDS =     -5285.20119274
  atomic energy  EATOM  =     37532.17946992
  Solvation  Ediel_sol  =         0.00000000
  ---------------------------------------------------
  free energy    TOTEN  =      -228.19516250 eV

  energy without entropy =     -228.19516250  energy(sigma->0) =     -228.19516250


--------------------------------------------------------------------------------------------------------




--------------------------------------- Iteration      1(   5)  ---------------------------------------


     EDDAV:  cpu time      8.7582: real time      8.8057
       DOS:  cpu time      0.0005: real time      0.0005
    CHARGE:  cpu time      0.2704: real time      0.2721
    MIXING:  cpu time      0.0010: real time      0.0010
    --------------------------------------------
      LOOP:  cpu time      9.0302: real time      9.0794

 eigenvalue-minimisations  :  4256
 total energy-change (2. order) :-0.8103850E+00  (-0.8090252E+00)
 number of electron     448.0000022 magnetization 
 augmentation part      111.6482300 magnetization 

 Broyden mixing:
  rms(total) = 0.10608E+01    rms(broyden)= 0.10603E+01
  rms(prec ) = 0.14939E+01
  weight for this iteration     100.00

 Free energy of the ion-electron system (eV)
  ---------------------------------------------------
  alpha Z        PSCENC =       751.52672365
  Ewald energy   TEWEN  =    -22871.39982569
  -Hartree energ DENC   =     -8992.19152425
  -exchange      EXHF   =         0.00000000
  -V(xc)+E(xc)   XCENC  =      1456.53400737
  PAW double counting   =     26466.43774078   -29286.08056155
  entropy T*S    EENTRO =        -0.00000000
  eigenvalues    EBANDS =     -5286.01157777
  atomic energy  EATOM  =     37532.17946992
  Solvation  Ediel_sol  =         0.00000000
  ---------------------------------------------------
  free energy    TOTEN  =      -229.00554754 eV

  energy without entropy =     -229.00554754  energy(sigma->0) =     -229.00554754


--------------------------------------------------------------------------------------------------------




--------------------------------------- Iteration      1(   6)  ---------------------------------------


    POTLOK:  cpu time      0.0363: real time      0.0373
    SETDIJ:  cpu time      0.0299: real time      0.0301
     EDDAV:  cpu time      8.8142: real time      8.8611
       DOS:  cpu time      0.0003: real time      0.0003
    CHARGE:  cpu time      0.2653: real time      0.2666
    MIXING:  cpu time      0.0012: real time      0.0012
    --------------------------------------------
      LOOP:  cpu time      9.1471: real time      9.1965

 eigenvalue-minimisations  :  4288
 total energy-change (2. order) : 0.4866777E+01  (-0.9496296E+00)
 number of electron     448.0000022 magnetization 
 augmentation part      112.4565139 magnetization 

 Broyden mixing:
  rms(total) = 0.77600E+00    rms(broyden)= 0.77595E+00
  rms(prec ) = 0.89195E+00
  weight for this iteration     100.00

 eigenvalues of (default mixing * dielectric matrix)
  average eigenvalue GAMMA=   1.0730
  1.0730

 Free energy of the ion-electron system (eV)
  ---------------------------------------------------
  alpha Z        PSCENC =       751.52672365
  Ewald energy   TEWEN  =    -22871.39982569
  -Hartree energ DENC   =     -9061.86384945
  -exchange      EXHF   =         0.00000000
  -V(xc)+E(xc)   XCENC  =      1465.44129034
  PAW double counting   =     27290.55204434   -30102.62578170
  entropy T*S    EENTRO =        -0.00000000
  eigenvalues    EBANDS =     -5227.94884187
  atomic energy  EATOM  =     37532.17946992
  Solvation  Ediel_sol  =         0.00000000
  ---------------------------------------------------
  free energy    TOTEN  =      -224.13877045 eV

  energy without entropy =     -224.13877045  energy(sigma->0) =     -224.13877045


--------------------------------------------------------------------------------------------------------




--------------------------------------- Iteration      1(   7)  ---------------------------------------


    POTLOK:  cpu time      0.0365: real time      0.0372
    SETDIJ:  cpu time      0.0300: real time      0.0302
     EDDAV:  cpu time      9.4997: real time      9.5500
       DOS:  cpu time      0.0003: real time      0.0003
    CHARGE:  cpu time      0.2640: real time      0.2656
    MIXING:  cpu time      0.0012: real time      0.0012
    --------------------------------------------
      LOOP:  cpu time      9.8316: real time      9.8844

 eigenvalue-minimisations  :  4704
 total energy-change (2. order) : 0.3603240E+00  (-0.2061810E+00)
 number of electron     448.0000022 magnetization 
 augmentation part      112.8265534 magnetization 

 Broyden mixing:
  rms(total) = 0.53356E+00    rms(broyden)= 0.53353E+00
  rms(prec ) = 0.56358E+00
  weight for this iteration     100.00

 eigenvalues of (default mixing * dielectric matrix)
  average eigenvalue GAMMA=   2.1547
  1.4377  2.8717

 Free energy of the ion-electron system (eV)
  ---------------------------------------------------
  alpha Z        PSCENC =       751.52672365
  Ewald energy   TEWEN  =    -22871.39982569
  -Hartree energ DENC   =     -9085.77829972
  -exchange      EXHF   =         0.00000000
  -V(xc)+E(xc)   XCENC  =      1470.12247087
  PAW double counting   =     28328.15009781   -31140.87784733
  entropy T*S    EENTRO =        -0.00000000
  eigenvalues    EBANDS =     -5207.70123593
  atomic energy  EATOM  =     37532.17946992
  Solvation  Ediel_sol  =         0.00000000
  ---------------------------------------------------
  free energy    TOTEN  =      -223.77844641 eV

  energy without entropy =     -223.77844641  energy(sigma->0) =     -223.77844641


--------------------------------------------------------------------------------------------------------




--------------------------------------- Iteration      1(   8)  ---------------------------------------


    POTLOK:  cpu time      0.0366: real time      0.0405
    SETDIJ:  cpu time      0.0301: real time      0.0302
     EDDAV:  cpu time      8.3261: real time      8.3702
       DOS:  cpu time      0.0003: real time      0.0003
    CHARGE:  cpu time      0.2651: real time      0.2664
    MIXING:  cpu time      0.0014: real time      0.0014
    --------------------------------------------
      LOOP:  cpu time      8.6595: real time      8.7089

 eigenvalue-minimisations  :  4000
 total energy-change (2. order) :-0.1252253E+00  (-0.2664448E-01)
 number of electron     448.0000022 magnetization 
 augmentation part      112.8095160 magnetization 

 Broyden mixing:
  rms(total) = 0.14169E+00    rms(broyden)= 0.14169E+00
  rms(prec ) = 0.14454E+00
  weight for this iteration     100.00

 eigenvalues of (default mixing * dielectric matrix)
  average eigenvalue GAMMA=   1.5559
  2.5220  1.3845  0.7613

 Free energy of the ion-electron system (eV)
  ---------------------------------------------------
  alpha Z        PSCENC =       751.52672365
  Ewald energy   TEWEN  =    -22871.39982569
  -Hartree energ DENC   =     -9075.18382827
  -exchange      EXHF   =         0.00000000
  -V(xc)+E(xc)   XCENC  =      1472.34184542
  PAW double counting   =     29809.71009447   -32629.52674867
  entropy T*S    EENTRO =        -0.00000000
  eigenvalues    EBANDS =     -5213.55140259
  atomic energy  EATOM  =     37532.17946992
  Solvation  Ediel_sol  =         0.00000000
  ---------------------------------------------------
  free energy    TOTEN  =      -223.90367175 eV

  energy without entropy =     -223.90367175  energy(sigma->0) =     -223.90367175


--------------------------------------------------------------------------------------------------------




--------------------------------------- Iteration      1(   9)  ---------------------------------------


    POTLOK:  cpu time      0.0359: real time      0.0362
    SETDIJ:  cpu time      0.0294: real time      0.0297
     EDDAV:  cpu time      8.8620: real time      8.9083
       DOS:  cpu time      0.0002: real time      0.0002
    CHARGE:  cpu time      0.2658: real time      0.2673
    MIXING:  cpu time      0.0012: real time      0.0012
    --------------------------------------------
      LOOP:  cpu time      9.1944: real time      9.2429

 eigenvalue-minimisations  :  4288
 total energy-change (2. order) : 0.5468513E-02  (-0.1136498E-02)
 number of electron     448.0000022 magnetization 
 augmentation part      112.8318617 magnetization 

 Broyden mixing:
  rms(total) = 0.59798E-01    rms(broyden)= 0.59797E-01
  rms(prec ) = 0.61841E-01
  weight for this iteration     100.00

 eigenvalues of (default mixing * dielectric matrix)
  average eigenvalue GAMMA=   2.0210
  2.9794  2.7184  0.9952  1.3910

 Free energy of the ion-electron system (eV)
  ---------------------------------------------------
  alpha Z        PSCENC =       751.52672365
  Ewald energy   TEWEN  =    -22871.39982569
  -Hartree energ DENC   =     -9077.90665199
  -exchange      EXHF   =         0.00000000
  -V(xc)+E(xc)   XCENC  =      1472.35790638
  PAW double counting   =     29629.85910471   -32448.83996147
  entropy T*S    EENTRO =        -0.00000000
  eigenvalues    EBANDS =     -5211.67496875
  atomic energy  EATOM  =     37532.17946992
  Solvation  Ediel_sol  =         0.00000000
  ---------------------------------------------------
  free energy    TOTEN  =      -223.89820324 eV

  energy without entropy =     -223.89820324  energy(sigma->0) =     -223.89820324


--------------------------------------------------------------------------------------------------------




--------------------------------------- Iteration      1(  10)  ---------------------------------------


    POTLOK:  cpu time      0.0354: real time      0.0357
    SETDIJ:  cpu time      0.0299: real time      0.0300
     EDDAV:  cpu time      8.2871: real time      8.3310
       DOS:  cpu time      0.0002: real time      0.0002
    CHARGE:  cpu time      0.2651: real time      0.2664
    MIXING:  cpu time      0.0025: real time      0.0025
    --------------------------------------------
      LOOP:  cpu time      8.6201: real time      8.6659

 eigenvalue-minimisations  :  3968
 total energy-change (2. order) :-0.4338565E-02  (-0.1835098E-02)
 number of electron     448.0000022 magnetization 
 augmentation part      112.8610065 magnetization 

 Broyden mixing:
  rms(total) = 0.29478E-01    rms(broyden)= 0.29475E-01
  rms(prec ) = 0.31487E-01
  weight for this iteration     100.00

 eigenvalues of (default mixing * dielectric matrix)
  average eigenvalue GAMMA=   1.7095
  2.9354  2.5144  1.2982  1.0187  0.7810

 Free energy of the ion-electron system (eV)
  ---------------------------------------------------
  alpha Z        PSCENC =       751.52672365
  Ewald energy   TEWEN  =    -22871.39982569
  -Hartree energ DENC   =     -9079.36997016
  -exchange      EXHF   =         0.00000000
  -V(xc)+E(xc)   XCENC  =      1472.60789089
  PAW double counting   =     29452.85971550   -32272.11279990
  entropy T*S    EENTRO =        -0.00000000
  eigenvalues    EBANDS =     -5210.19374602
  atomic energy  EATOM  =     37532.17946992
  Solvation  Ediel_sol  =         0.00000000
  ---------------------------------------------------
  free energy    TOTEN  =      -223.90254181 eV

  energy without entropy =     -223.90254181  energy(sigma->0) =     -223.90254181


--------------------------------------------------------------------------------------------------------




--------------------------------------- Iteration      1(  11)  ---------------------------------------


    POTLOK:  cpu time      0.0356: real time      0.0358
    SETDIJ:  cpu time      0.0303: real time      0.0304
     EDDAV:  cpu time      8.8138: real time      8.8607
       DOS:  cpu time      0.0002: real time      0.0002
    CHARGE:  cpu time      0.2674: real time      0.2691
    MIXING:  cpu time      0.0014: real time      0.0014
    --------------------------------------------
      LOOP:  cpu time      9.1487: real time      9.1976

 eigenvalue-minimisations  :  4288
 total energy-change (2. order) : 0.7568037E-03  (-0.1736126E-03)
 number of electron     448.0000022 magnetization 
 augmentation part      112.8510633 magnetization 

 Broyden mixing:
  rms(total) = 0.76595E-02    rms(broyden)= 0.76594E-02
  rms(prec ) = 0.80202E-02
  weight for this iteration     100.00

 eigenvalues of (default mixing * dielectric matrix)
  average eigenvalue GAMMA=   1.6084
  2.9003  2.4131  1.3397  1.0056  0.9960  0.9960

 Free energy of the ion-electron system (eV)
  ---------------------------------------------------
  alpha Z        PSCENC =       751.52672365
  Ewald energy   TEWEN  =    -22871.39982569
  -Hartree energ DENC   =     -9078.24102563
  -exchange      EXHF   =         0.00000000
  -V(xc)+E(xc)   XCENC  =      1472.52641254
  PAW double counting   =     29488.47572611   -32307.86350046
  entropy T*S    EENTRO =        -0.00000000
  eigenvalues    EBANDS =     -5211.10576545
  atomic energy  EATOM  =     37532.17946992
  Solvation  Ediel_sol  =         0.00000000
  ---------------------------------------------------
  free energy    TOTEN  =      -223.90178500 eV

  energy without entropy =     -223.90178500  energy(sigma->0) =     -223.90178500


--------------------------------------------------------------------------------------------------------




--------------------------------------- Iteration      1(  12)  ---------------------------------------


    POTLOK:  cpu time      0.0361: real time      0.0374
    SETDIJ:  cpu time      0.0302: real time      0.0304
     EDDAV:  cpu time      9.1874: real time      9.2391
       DOS:  cpu time      0.0002: real time      0.0002
    CHARGE:  cpu time      0.2664: real time      0.2680
    MIXING:  cpu time      0.0016: real time      0.0016
    --------------------------------------------
      LOOP:  cpu time      9.5219: real time      9.5767

 eigenvalue-minimisations  :  4512
 total energy-change (2. order) : 0.3082846E-04  (-0.1538134E-04)
 number of electron     448.0000022 magnetization 
 augmentation part      112.8483149 magnetization 

 Broyden mixing:
  rms(total) = 0.10087E-02    rms(broyden)= 0.10075E-02
  rms(prec ) = 0.11483E-02
  weight for this iteration     100.00

 eigenvalues of (default mixing * dielectric matrix)
  average eigenvalue GAMMA=   1.7088
  2.8737  2.5848  2.3084  1.1247  1.1247  0.8674  1.0778

 Free energy of the ion-electron system (eV)
  ---------------------------------------------------
  alpha Z        PSCENC =       751.52672365
  Ewald energy   TEWEN  =    -22871.39982569
  -Hartree energ DENC   =     -9078.07894876
  -exchange      EXHF   =         0.00000000
  -V(xc)+E(xc)   XCENC  =      1472.51484887
  PAW double counting   =     29500.98064489   -32320.35593822
  entropy T*S    EENTRO =        -0.00000000
  eigenvalues    EBANDS =     -5211.26872885
  atomic energy  EATOM  =     37532.17946992
  Solvation  Ediel_sol  =         0.00000000
  ---------------------------------------------------
  free energy    TOTEN  =      -223.90175417 eV

  energy without entropy =     -223.90175417  energy(sigma->0) =     -223.90175417


--------------------------------------------------------------------------------------------------------




--------------------------------------- Iteration      1(  13)  ---------------------------------------


    POTLOK:  cpu time      0.0361: real time      0.0372
    SETDIJ:  cpu time      0.0301: real time      0.0303
     EDDAV:  cpu time      8.4889: real time      8.5375
       DOS:  cpu time      0.0002: real time      0.0002
    CHARGE:  cpu time      0.2683: real time      0.2697
    MIXING:  cpu time      0.0014: real time      0.0014
    --------------------------------------------
      LOOP:  cpu time      8.8250: real time      8.8762

 eigenvalue-minimisations  :  4096
 total energy-change (2. order) :-0.8184514E-05  (-0.1088331E-05)
 number of electron     448.0000022 magnetization 
 augmentation part      112.8478138 magnetization 

 Broyden mixing:
  rms(total) = 0.27038E-03    rms(broyden)= 0.27002E-03
  rms(prec ) = 0.30914E-03
  weight for this iteration     100.00

 eigenvalues of (default mixing * dielectric matrix)
  average eigenvalue GAMMA=   1.6427
  2.9732  2.4284  2.4284  1.2334  1.0074  1.0074  1.0316  1.0316

 Free energy of the ion-electron system (eV)
  ---------------------------------------------------
  alpha Z        PSCENC =       751.52672365
  Ewald energy   TEWEN  =    -22871.39982569
  -Hartree energ DENC   =     -9078.05443220
  -exchange      EXHF   =         0.00000000
  -V(xc)+E(xc)   XCENC  =      1472.51045557
  PAW double counting   =     29498.37178668   -32317.73782904
  entropy T*S    EENTRO =        -0.00000000
  eigenvalues    EBANDS =     -5211.29811126
  atomic energy  EATOM  =     37532.17946992
  Solvation  Ediel_sol  =         0.00000000
  ---------------------------------------------------
  free energy    TOTEN  =      -223.90176236 eV

  energy without entropy =     -223.90176236  energy(sigma->0) =     -223.90176236


--------------------------------------------------------------------------------------------------------




--------------------------------------- Iteration      1(  14)  ---------------------------------------


    POTLOK:  cpu time      0.0362: real time      0.0369
    SETDIJ:  cpu time      0.0300: real time      0.0303
     EDDAV:  cpu time      9.4473: real time      9.5013
       DOS:  cpu time      0.0002: real time      0.0002
    CHARGE:  cpu time      0.2635: real time      0.2650
    MIXING:  cpu time      0.0019: real time      0.0019
    --------------------------------------------
      LOOP:  cpu time      9.7792: real time      9.8356

 eigenvalue-minimisations  :  4672
 total energy-change (2. order) : 0.5413021E-06  (-0.8266303E-07)
 number of electron     448.0000022 magnetization 
 augmentation part      112.8476862 magnetization 

 Broyden mixing:
  rms(total) = 0.88574E-03    rms(broyden)= 0.88571E-03
  rms(prec ) = 0.90633E-03
  weight for this iteration     100.00

 eigenvalues of (default mixing * dielectric matrix)
  average eigenvalue GAMMA=   1.6740
  3.0392  2.6005  2.6005  1.5846  1.2601  1.2601  0.9444  0.9444  0.8320

 Free energy of the ion-electron system (eV)
  ---------------------------------------------------
  alpha Z        PSCENC =       751.52672365
  Ewald energy   TEWEN  =    -22871.39982569
  -Hartree energ DENC   =     -9078.06233529
  -exchange      EXHF   =         0.00000000
  -V(xc)+E(xc)   XCENC  =      1472.51172918
  PAW double counting   =     29499.92913397   -32319.29649460
  entropy T*S    EENTRO =        -0.00000000
  eigenvalues    EBANDS =     -5211.29016296
  atomic energy  EATOM  =     37532.17946992
  Solvation  Ediel_sol  =         0.00000000
  ---------------------------------------------------
  free energy    TOTEN  =      -223.90176182 eV

  energy without entropy =     -223.90176182  energy(sigma->0) =     -223.90176182


--------------------------------------------------------------------------------------------------------




--------------------------------------- Iteration      1(  15)  ---------------------------------------


    POTLOK:  cpu time      0.0363: real time      0.0398
    SETDIJ:  cpu time      0.0300: real time      0.0302
     EDDAV:  cpu time      7.6549: real time      7.6986
       DOS:  cpu time      0.0002: real time      0.0002
    CHARGE:  cpu time      0.2666: real time      0.2680
    MIXING:  cpu time      0.0015: real time      0.0016
    --------------------------------------------
      LOOP:  cpu time      7.9895: real time      8.0383

 eigenvalue-minimisations  :  3584
 total energy-change (2. order) :-0.1297405E-05  (-0.6397118E-07)
 number of electron     448.0000022 magnetization 
 augmentation part      112.8478079 magnetization 

 Broyden mixing:
  rms(total) = 0.20719E-03    rms(broyden)= 0.20714E-03
  rms(prec ) = 0.21183E-03
  weight for this iteration     100.00

 eigenvalues of (default mixing * dielectric matrix)
  average eigenvalue GAMMA=   1.6195
  3.0978  2.7808  2.3533  1.4150  1.4150  1.3162  1.0265  1.0265  0.8817  0.8817

 Free energy of the ion-electron system (eV)
  ---------------------------------------------------
  alpha Z        PSCENC =       751.52672365
  Ewald energy   TEWEN  =    -22871.39982569
  -Hartree energ DENC   =     -9078.09274347
  -exchange      EXHF   =         0.00000000
  -V(xc)+E(xc)   XCENC  =      1472.51288202
  PAW double counting   =     29498.66822167   -32318.03407943
  entropy T*S    EENTRO =        -0.00000000
  eigenvalues    EBANDS =     -5211.26241179
  atomic energy  EATOM  =     37532.17946992
  Solvation  Ediel_sol  =         0.00000000
  ---------------------------------------------------
  free energy    TOTEN  =      -223.90176311 eV

  energy without entropy =     -223.90176311  energy(sigma->0) =     -223.90176311


--------------------------------------------------------------------------------------------------------




--------------------------------------- Iteration      1(  16)  ---------------------------------------


    POTLOK:  cpu time      0.0354: real time      0.0357
    SETDIJ:  cpu time      0.0299: real time      0.0301
     EDDAV:  cpu time      7.7792: real time      7.8238
       DOS:  cpu time      0.0003: real time      0.0003
    CHARGE:  cpu time      0.2651: real time      0.2665
    MIXING:  cpu time      0.0015: real time      0.0015
    --------------------------------------------
      LOOP:  cpu time      8.1114: real time      8.1579

 eigenvalue-minimisations  :  3648
 total energy-change (2. order) :-0.3576642E-06  (-0.4255752E-08)
 number of electron     448.0000022 magnetization 
 augmentation part      112.8478585 magnetization 

 Broyden mixing:
  rms(total) = 0.29563E-04    rms(broyden)= 0.29237E-04
  rms(prec ) = 0.33387E-04
  weight for this iteration     100.00

 eigenvalues of (default mixing * dielectric matrix)
  average eigenvalue GAMMA=   1.5688
  3.1309  2.7677  2.3267  1.5048  1.5048  1.2887  1.0854  1.0854  0.9240  0.8190
  0.8190

 Free energy of the ion-electron system (eV)
  ---------------------------------------------------
  alpha Z        PSCENC =       751.52672365
  Ewald energy   TEWEN  =    -22871.39982569
  -Hartree energ DENC   =     -9078.09703384
  -exchange      EXHF   =         0.00000000
  -V(xc)+E(xc)   XCENC  =      1472.51290140
  PAW double counting   =     29498.25212872   -32317.61669045
  entropy T*S    EENTRO =        -0.00000000
  eigenvalues    EBANDS =     -5211.25943718
  atomic energy  EATOM  =     37532.17946992
  Solvation  Ediel_sol  =         0.00000000
  ---------------------------------------------------
  free energy    TOTEN  =      -223.90176347 eV

  energy without entropy =     -223.90176347  energy(sigma->0) =     -223.90176347


--------------------------------------------------------------------------------------------------------




--------------------------------------- Iteration      1(  17)  ---------------------------------------


    POTLOK:  cpu time      0.0357: real time      0.0360
    SETDIJ:  cpu time      0.0296: real time      0.0299
     EDDAV:  cpu time      5.8146: real time      5.8477
       DOS:  cpu time      0.0002: real time      0.0002
    --------------------------------------------
      LOOP:  cpu time      5.8800: real time      5.9137

 eigenvalue-minimisations  :  2432
 total energy-change (2. order) : 0.1367880E-08  (-0.4973703E-09)
 number of electron     448.0000022 magnetization 
 augmentation part      112.8478585 magnetization 

 Free energy of the ion-electron system (eV)
  ---------------------------------------------------
  alpha Z        PSCENC =       751.52672365
  Ewald energy   TEWEN  =    -22871.39982569
  -Hartree energ DENC   =     -9078.09768150
  -exchange      EXHF   =         0.00000000
  -V(xc)+E(xc)   XCENC  =      1472.51291663
  PAW double counting   =     29498.20615787   -32317.57045460
  entropy T*S    EENTRO =        -0.00000000
  eigenvalues    EBANDS =     -5211.25906976
  atomic energy  EATOM  =     37532.17946992
  Solvation  Ediel_sol  =         0.00000000
  ---------------------------------------------------
  free energy    TOTEN  =      -223.90176347 eV

  energy without entropy =     -223.90176347  energy(sigma->0) =     -223.90176347


--------------------------------------------------------------------------------------------------------




 average (electrostatic) potential at core
  the test charge radii are     0.9254  0.9406
  (the norm of the test charge is              1.0000)
       1 -46.9496       2 -46.9553       3 -46.9553       4 -46.9496       5 -46.9496
       6 -46.9508       7 -46.9553       8 -46.9496       9 -46.9496      10 -46.9553
      11 -46.9508      12 -46.9496      13 -46.9496      14 -46.9508      15 -46.9508
      16 -46.9496      17 -46.9496      18 -46.9440      19 -46.9440      20 -46.9496
      21 -46.9496      22 -46.9484      23 -46.9440      24 -46.9496      25 -46.9496
      26 -46.9440      27 -46.9484      28 -46.9496      29 -46.9496      30 -46.9484
      31 -46.9484      32 -46.9496      33 -93.5910      34 -93.5881      35 -93.5881
      36 -93.6116      37 -93.5910      38 -93.5881      39 -93.5882      40 -93.5891
      41 -93.5910      42 -93.5882      43 -93.5881      44 -93.5891      45 -93.5910
      46 -93.5882      47 -93.5882      48 -93.5892      49 -93.5855      50 -93.5883
      51 -93.5883      52 -93.5651      53 -93.5855      54 -93.5883      55 -93.5882
      56 -93.5874      57 -93.5855      58 -93.5882      59 -93.5883      60 -93.5874
      61 -93.5855      62 -93.5882      63 -93.5882      64 -93.5872
 
 
 
 E-fermi :  -0.5499     XC(G=0):  -8.4227     alpha+bet : -8.2520

 Fermi energy:        -0.5498568816

 k-point     1 :       0.0000    0.0000    0.0000
  band No.  band energies     occupation 
      1     -21.3046      2.00000
      2     -21.3044      2.00000
      3     -21.3038      2.00000
      4     -21.3038      2.00000
      5     -21.2948      2.00000
      6     -21.2946      2.00000
      7     -21.2945      2.00000
      8     -21.2945      2.00000
      9     -21.2937      2.00000
     10     -21.2936      2.00000
     11     -21.2936      2.00000
     12     -21.2936      2.00000
     13     -21.2929      2.00000
     14     -21.2929      2.00000
     15     -21.2928      2.00000
     16     -21.2928      2.00000
     17     -21.2928      2.00000
     18     -21.2922      2.00000
     19     -21.2913      2.00000
     20     -21.2875      2.00000
     21     -21.2875      2.00000
     22     -21.2868      2.00000
     23     -21.2864      2.00000
     24     -21.2862      2.00000
     25     -21.2860      2.00000
     26     -21.2856      2.00000
     27     -21.2856      2.00000
     28     -21.2856      2.00000
     29     -21.2856      2.00000
     30     -21.2854      2.00000
     31     -21.2854      2.00000
     32     -21.2839      2.00000
     33     -21.2837      2.00000
     34     -21.2835      2.00000
     35     -21.2833      2.00000
     36     -21.2833      2.00000
     37     -21.2831      2.00000
     38     -21.2829      2.00000
     39     -21.2815      2.00000
     40     -21.2814      2.00000
     41     -21.2814      2.00000
     42     -21.2813      2.00000
     43     -21.2811      2.00000
     44     -21.2807      2.00000
     45     -21.2807      2.00000
     46     -21.2806      2.00000
     47     -21.2806      2.00000
     48     -21.2803      2.00000
     49     -21.2799      2.00000
     50     -21.2799      2.00000
     51     -21.2799      2.00000
     52     -21.2799      2.00000
     53     -21.2799      2.00000
     54     -21.2798      2.00000
     55     -21.2796      2.00000
     56     -21.2792      2.00000
     57     -21.2792      2.00000
     58     -21.2787      2.00000
     59     -21.2775      2.00000
     60     -21.2775      2.00000
     61     -21.2767      2.00000
     62     -21.2751      2.00000
     63     -21.2749      2.00000
     64     -21.2749      2.00000
     65     -21.2749      2.00000
     66     -21.2747      2.00000
     67     -21.2746      2.00000
     68     -21.2745      2.00000
     69     -21.2745      2.00000
     70     -21.2741      2.00000
     71     -21.2741      2.00000
     72     -21.2736      2.00000
     73     -21.2734      2.00000
     74     -21.2725      2.00000
     75     -21.2725      2.00000
     76     -21.2718      2.00000
     77     -21.2718      2.00000
     78     -21.2718      2.00000
     79     -21.2718      2.00000
     80     -21.2718      2.00000
     81     -21.2717      2.00000
     82     -21.2717      2.00000
     83     -21.2716      2.00000
     84     -21.2713      2.00000
     85     -21.2713      2.00000
     86     -21.2712      2.00000
     87     -21.2711      2.00000
     88     -21.2709      2.00000
     89     -21.2703      2.00000
     90     -21.2697      2.00000
     91     -21.2697      2.00000
     92     -21.2684      2.00000
     93     -21.2678      2.00000
     94     -21.2677      2.00000
     95     -21.2677      2.00000
     96     -21.2674      2.00000
     97     -13.3580      2.00000
     98     -13.1425      2.00000
     99     -13.1373      2.00000
    100     -13.1373      2.00000
    101     -13.1373      2.00000
    102     -13.1373      2.00000
    103     -13.1335      2.00000
    104     -13.0215      2.00000
    105     -13.0115      2.00000
    106     -13.0112      2.00000
    107     -13.0112      2.00000
    108     -13.0112      2.00000
    109     -13.0112      2.00000
    110     -13.0112      2.00000
    111     -13.0111      2.00000
    112     -13.0111      2.00000
    113     -13.0111      2.00000
    114     -13.0111      2.00000
    115     -13.0044      2.00000
    116     -12.9900      2.00000
    117     -12.9900      2.00000
    118     -12.9897      2.00000
    119     -12.9886      2.00000
    120     -12.9412      2.00000
    121     -12.9408      2.00000
    122     -12.9403      2.00000
    123     -12.9245      2.00000
    124     -12.9215      2.00000
    125     -12.9215      2.00000
    126     -12.9215      2.00000
    127     -12.9215      2.00000
    128     -12.9152      2.00000
    129      -2.7000      2.00000
    130      -2.7000      2.00000
    131      -2.7000      2.00000
    132      -2.6999      2.00000
    133      -2.4240      2.00000
    134      -2.4240      2.00000
    135      -2.4240      2.00000
    136      -2.2073      2.00000
    137      -2.2073      2.00000
    138      -2.2052      2.00000
    139      -2.2045      2.00000
    140      -2.2045      2.00000
    141      -2.2042      2.00000
    142      -2.2042      2.00000
    143      -2.2042      2.00000
    144      -2.2039      2.00000
    145      -2.2032      2.00000
    146      -2.2013      2.00000
    147      -2.2013      2.00000
    148      -1.9277      2.00000
    149      -1.9277      2.00000
    150      -1.9251      2.00000
    151      -1.9251      2.00000
    152      -1.9248      2.00000
    153      -1.9247      2.00000
    154      -1.9246      2.00000
    155      -1.9246      2.00000
    156      -1.9241      2.00000
    157      -1.9241      2.00000
    158      -1.9217      2.00000
    159      -1.9217      2.00000
    160      -1.7977      2.00000
    161      -1.7966      2.00000
    162      -1.7966      2.00000
    163      -1.7966      2.00000
    164      -1.7966      2.00000
    165      -1.7956      2.00000
    166      -1.5061      2.00000
    167      -1.5061      2.00000
    168      -1.5059      2.00000
    169      -1.5057      2.00000
    170      -1.5057      2.00000
    171      -1.5055      2.00000
    172      -1.5053      2.00000
    173      -1.5053      2.00000
    174      -1.5052      2.00000
    175      -1.5050      2.00000
    176      -1.5044      2.00000
    177      -1.5044      2.00000
    178      -1.4636      2.00000
    179      -1.4629      2.00000
    180      -1.4626      2.00000
    181      -1.4626      2.00000
    182      -1.4624      2.00000
    183      -1.4621      2.00000
    184      -1.2947      2.00000
    185      -1.2947      2.00000
    186      -1.2947      2.00000
    187      -1.2947      2.00000
    188      -1.2947      2.00000
    189      -1.2947      2.00000
    190      -1.0039      2.00000
    191      -1.0039      2.00000
    192      -1.0028      2.00000
    193      -1.0011      2.00000
    194      -1.0011      2.00000
    195      -1.0007      2.00000
    196      -1.0007      2.00000
    197      -1.0007      2.00000
    198      -1.0003      2.00000
    199      -1.0003      2.00000
    200      -0.9981      2.00000
    201      -0.9981      2.00000
    202      -0.9526      2.00000
    203      -0.9526      2.00000
    204      -0.9486      2.00000
    205      -0.9479      2.00000
    206      -0.9479      2.00000
    207      -0.9479      2.00000
    208      -0.9478      2.00000
    209      -0.9478      2.00000
    210      -0.9473      2.00000
    211      -0.9473      2.00000
    212      -0.9472      2.00000
    213      -0.9470      2.00000
    214      -0.9458      2.00000
    215      -0.9458      2.00000
    216      -0.9458      2.00000
    217      -0.9458      2.00000
    218      -0.9456      2.00000
    219      -0.9443      2.00000
    220      -0.9410      2.00000
    221      -0.9410      2.00000
    222      -0.6649      2.00000
    223      -0.6649      2.00000
    224      -0.6649      2.00000
    225       4.3403      0.00000
    226       6.3656      0.00000
    227       6.3682      0.00000
    228       6.3682      0.00000
[...]
         0         1         2         3         4         5         6         7         8         9
 total charge-density along one line
 
 pseudopotential strength for first ion, spin component:           1
-25.387  -0.000  -0.000   2.510   0.000   0.000   0.000   0.000
 -0.000 -25.387  -0.000   0.000   2.510   0.000   0.000   0.000
 -0.000  -0.000 -25.387   0.000   0.000   2.510  -0.000  -0.001
  2.510   0.000   0.000   6.528   0.000   0.000  -0.000   0.000
  0.000   2.510   0.000   0.000   6.528   0.000  -0.000   0.000
  0.000   0.000   2.510   0.000   0.000   6.528   0.000   0.000
  0.000   0.000  -0.000  -0.000  -0.000   0.000   1.428   6.993
  0.000   0.000  -0.001   0.000   0.000   0.000   6.993  33.989
 total augmentation occupancy for first ion, spin component:           1
  2.002   0.000   0.000   0.002   0.000   0.000   0.000   0.000
  0.000   2.002   0.000   0.000   0.002  -0.000  -0.000  -0.000
  0.000   0.000   2.002   0.000   0.000   0.002   0.001  -0.000
  0.002   0.000   0.000   0.017   0.000  -0.000   0.000   0.000
  0.000   0.002   0.000   0.000   0.017   0.000   0.000   0.000
  0.000  -0.000   0.002  -0.000   0.000   0.018   0.003  -0.000
  0.000  -0.000   0.001   0.000   0.000   0.003   0.403  -0.001
  0.000  -0.000  -0.000   0.000   0.000  -0.000  -0.001   0.000


------------------------ aborting loop because EDIFF is reached ----------------------------------------


    CHARGE:  cpu time      0.2651: real time      0.2666
    FORLOC:  cpu time      0.0115: real time      0.0115
    FORNL :  cpu time      1.7284: real time      1.7385
    STRESS:  cpu time      9.6278: real time      9.6759
    FORCOR:  cpu time      0.0433: real time      0.0435
    FORHAR:  cpu time      0.0172: real time      0.0173
    MIXING:  cpu time      0.0011: real time      0.0012
    OFIELD:  cpu time      0.0000: real time      0.0000

  FORCE on cell =-STRESS in cart. coord.  units (eV):
  Direction    XX          YY          ZZ          XY          YZ          ZX
  --------------------------------------------------------------------------------------
  Alpha Z   751.52672   751.52672   751.52672
  Ewald   -7623.74468 -7623.89624 -7623.89624     0.00000     0.00000     0.00000
  Hartree  3026.07226  3026.01384  3026.01384    -0.00000    -0.00000    -0.00000
  E(xc)   -2014.34754 -2014.34760 -2014.34760    -0.00000     0.00000     0.00000
  Local   -2024.98790 -2024.78047 -2024.78047    -0.00000    -0.00000    -0.00000
  n-local  1887.62556  1887.51875  1887.72106    -0.00000     0.00000     0.00000
  augment   687.00937   687.00966   687.00936    -0.00000    -0.00010    -0.00010
  Kinetic  5310.52420  5310.26696  5310.77766    -0.00000     0.00000     0.00000
  Fock        0.00000     0.00000     0.00000     0.00000     0.00000     0.00000
  -------------------------------------------------------------------------------------
  Total      -0.32200    -0.33202    -0.33202     0.00000     0.00000    -0.00000
  in kB      -0.36682    -0.37823    -0.37823     0.00000     0.00000    -0.00000
  external pressure =       -0.37 kB  Pullay stress =        0.00 kB


 VOLUME and BASIS-vectors are now :
 -----------------------------------------------------------------------------
  energy-cutoff  :      341.21
  volume of cell :     1406.43
      direct lattice vectors                 reciprocal lattice vectors
    11.204002360  0.000000000  0.000000000     0.089253819  0.000000000  0.000000000
     0.000000000 11.204002360  0.000000000     0.000000000  0.089253819  0.000000000
     0.000000000  0.000000000 11.204002360     0.000000000  0.000000000  0.089253819

  length of vectors
    11.204002360 11.204002360 11.204002360     0.089253819  0.089253819  0.089253819


 FORCES acting on ions
    electron-ion (+dipol)            ewald-force                    non-local-force                 convergence-correction
 -----------------------------------------------------------------------------------------------
   0.403E+01 0.368E-13 -.674E-05   -.397E+01 -.310E-13 -.169E-13   -.116E+00 0.233E-22 -.142E-22   0.182E-03 -.168E-12 -.457E-12
   -.242E+00 -.445E+00 -.133E-08   0.247E+00 0.479E+00 0.682E-14   -.293E-02 -.273E-01 -.156E-24   0.654E-06 -.165E-04 -.658E-13
   -.242E+00 0.314E-13 -.445E+00   0.247E+00 0.228E-13 0.479E+00   -.293E-02 -.887E-24 -.273E-01   0.654E-06 -.106E-12 -.165E-04
   0.300E+00 0.249E-02 0.249E-02   -.308E+00 -.259E-02 -.259E-02   0.644E-02 0.903E-04 0.903E-04   0.146E-03 -.171E-05 -.171E-05
   0.163E+00 0.343E-13 -.279E-07   -.163E+00 0.377E-13 0.180E-14   -.335E-03 0.367E-24 0.448E-25   0.139E-03 -.125E-12 -.305E-12
   -.721E-02 -.397E-01 0.117E-10   0.709E-02 0.392E-01 0.125E-13   0.915E-04 0.427E-03 0.213E-24   0.243E-05 -.112E-05 -.161E-12
   -.242E+00 0.307E-13 0.445E+00   0.247E+00 -.387E-14 -.479E+00   -.293E-02 0.696E-24 0.273E-01   0.654E-06 -.679E-13 0.165E-04
   0.300E+00 0.249E-02 -.249E-02   -.308E+00 -.259E-02 0.259E-02   0.644E-02 0.903E-04 -.903E-04   0.146E-03 -.171E-05 0.171E-05
   0.163E+00 0.763E-12 -.545E-09   -.163E+00 0.356E-14 0.131E-13   -.335E-03 -.430E-25 0.262E-24   0.139E-03 0.141E-12 -.141E-12
   -.242E+00 0.445E+00 -.133E-08   0.247E+00 -.479E+00 0.954E-14   -.293E-02 0.273E-01 -.138E-24   0.654E-06 0.165E-04 -.237E-13
   -.721E-02 0.843E-12 -.397E-01   0.709E-02 0.178E-14 0.392E-01   0.915E-04 -.191E-24 0.427E-03   0.243E-05 0.483E-13 -.112E-05
   0.300E+00 -.249E-02 0.249E-02   -.308E+00 0.259E-02 -.259E-02   0.644E-02 -.903E-04 0.903E-04   0.146E-03 0.171E-05 -.171E-05
   0.648E-01 0.768E-12 -.126E-10   -.674E-01 0.196E-13 0.160E-13   0.200E-02 0.229E-25 0.178E-25   0.138E-03 0.100E-12 -.208E-12
   -.721E-02 0.397E-01 0.118E-10   0.709E-02 -.392E-01 0.125E-13   0.915E-04 -.427E-03 -.156E-24   0.243E-05 0.112E-05 -.193E-12
   -.721E-02 0.574E-12 0.397E-01   0.709E-02 -.520E-17 -.392E-01   0.915E-04 -.703E-25 -.427E-03   0.243E-05 0.174E-13 0.112E-05
   0.300E+00 -.249E-02 -.249E-02   -.308E+00 0.259E-02 0.259E-02   0.644E-02 -.903E-04 -.903E-04   0.146E-03 0.171E-05 0.171E-05
   -.451E+00 0.445E-13 0.502E-05   0.516E+00 0.159E-13 -.153E-13   -.558E-01 -.157E-22 0.233E-22   -.166E-03 -.985E-13 -.433E-13
   -.246E+00 0.438E+00 -.133E-08   0.250E+00 -.470E+00 0.599E-14   -.303E-02 0.268E-01 -.244E-24   -.173E-05 0.138E-04 -.320E-13
   -.246E+00 0.426E-13 0.438E+00   0.250E+00 0.198E-13 -.470E+00   -.303E-02 -.367E-24 0.268E-01   -.173E-05 -.222E-12 0.138E-04
   -.166E+00 -.751E-03 -.751E-03   0.173E+00 0.777E-03 0.777E-03   -.548E-02 -.202E-04 -.202E-04   -.145E-03 -.832E-06 -.832E-06
   -.127E+00 0.397E-13 -.279E-07   0.128E+00 0.289E-13 0.160E-13   -.118E-02 0.354E-26 -.697E-25   -.137E-03 -.920E-13 -.355E-12
   -.881E-02 0.395E-01 0.170E-10   0.877E-02 -.391E-01 0.891E-14   0.352E-04 -.406E-03 -.247E-24   -.211E-05 -.181E-05 -.201E-12
   -.246E+00 0.548E-13 -.438E+00   0.250E+00 -.629E-14 0.470E+00   -.303E-02 0.268E-24 -.268E-01   -.173E-05 -.113E-12 -.138E-04
   -.166E+00 -.751E-03 0.751E-03   0.173E+00 0.777E-03 -.777E-03   -.548E-02 -.202E-04 0.202E-04   -.145E-03 -.832E-06 0.832E-06
   -.127E+00 0.739E-12 -.545E-09   0.128E+00 0.574E-17 -.162E-13   -.118E-02 0.185E-24 -.179E-25   -.137E-03 0.468E-13 -.107E-12
   -.246E+00 -.438E+00 -.133E-08   0.250E+00 0.470E+00 0.194E-13   -.303E-02 -.268E-01 0.675E-25   -.173E-05 -.138E-04 0.821E-13
   -.881E-02 0.238E-11 0.395E-01   0.877E-02 -.180E-14 -.391E-01   0.352E-04 -.214E-24 -.406E-03   -.211E-05 0.157E-12 -.181E-05
   -.166E+00 0.751E-03 -.751E-03   0.173E+00 -.777E-03 0.777E-03   -.548E-02 0.202E-04 -.202E-04   -.145E-03 0.832E-06 -.832E-06
   -.605E-01 0.858E-12 -.120E-10   0.630E-01 0.142E-13 0.142E-13   -.199E-02 0.506E-24 -.432E-24   -.140E-03 0.390E-13 -.230E-12
   -.881E-02 -.395E-01 0.247E-10   0.877E-02 0.391E-01 0.892E-14   0.352E-04 0.406E-03 0.334E-24   -.211E-05 0.181E-05 -.308E-12
   -.881E-02 0.663E-11 -.395E-01   0.877E-02 -.352E-14 0.391E-01   0.352E-04 -.543E-25 0.406E-03   -.211E-05 0.538E-13 0.181E-05
   -.166E+00 0.751E-03 0.751E-03   0.173E+00 -.777E-03 -.777E-03   -.548E-02 0.202E-04 0.202E-04   -.145E-03 0.832E-06 0.832E-06
   -.611E-01 -.159E+00 -.159E+00   0.614E-01 0.161E+00 0.161E+00   -.545E-03 -.330E-02 -.330E-02   0.160E-05 -.476E-05 -.476E-05
   0.907E+00 -.821E-13 0.152E-01   -.918E+00 -.685E-14 -.153E-01   0.165E-01 -.472E-24 -.476E-04   0.125E-03 -.185E-12 -.559E-06
   0.907E+00 0.152E-01 -.106E-09   -.918E+00 -.153E-01 0.869E-14   0.165E-01 -.476E-04 0.148E-24   0.125E-03 -.559E-06 -.532E-13
   -.204E+01 -.762E-13 0.148E-05   0.206E+01 -.276E-13 -.135E-13   0.769E-02 0.228E-23 0.303E-23   -.491E-06 -.954E-13 -.205E-13
   -.611E-01 -.159E+00 0.159E+00   0.614E-01 0.161E+00 -.161E+00   -.545E-03 -.330E-02 0.330E-02   0.160E-05 -.476E-05 0.476E-05
   0.907E+00 -.826E-13 -.152E-01   -.918E+00 0.160E-14 0.153E-01   0.165E-01 -.518E-24 0.476E-04   0.125E-03 -.121E-12 0.559E-06
   0.108E+00 0.382E-03 -.419E-11   -.109E+00 -.398E-03 -.354E-14   0.150E-02 0.272E-04 0.235E-24   0.117E-03 -.249E-05 -.139E-12
   -.164E-01 -.832E-13 0.834E-08   0.162E-01 -.178E-13 0.623E-14   0.450E-03 -.890E-24 -.500E-24   -.217E-06 -.866E-13 -.199E-12
   -.611E-01 0.159E+00 -.159E+00   0.614E-01 -.161E+00 0.161E+00   -.545E-03 0.330E-02 -.330E-02   0.160E-05 0.476E-05 -.476E-05
   0.108E+00 -.677E-14 0.382E-03   -.109E+00 -.708E-14 -.398E-03   0.150E-02 -.255E-24 0.272E-04   0.117E-03 0.130E-12 -.249E-05
   0.907E+00 -.152E-01 -.106E-09   -.918E+00 0.153E-01 0.237E-14   0.165E-01 0.476E-04 -.354E-24   0.125E-03 0.559E-06 0.140E-13
   -.164E-01 0.145E-13 -.752E-10   0.162E-01 -.622E-14 -.145E-13   0.450E-03 -.530E-24 0.100E-23   -.217E-06 0.372E-13 -.950E-13
   -.611E-01 0.159E+00 0.159E+00   0.614E-01 -.161E+00 -.161E+00   -.545E-03 0.330E-02 0.330E-02   0.160E-05 0.476E-05 0.476E-05
   0.108E+00 -.102E-12 -.382E-03   -.109E+00 0.222E-13 0.398E-03   0.150E-02 0.111E-24 -.272E-04   0.117E-03 0.667E-13 0.249E-05
   0.108E+00 -.382E-03 -.428E-11   -.109E+00 0.398E-03 -.266E-14   0.150E-02 -.272E-04 0.922E-25   0.117E-03 0.249E-05 -.199E-12
   -.165E-02 0.369E-13 -.910E-11   0.163E-02 -.711E-14 0.771E-17   0.224E-04 -.369E-24 0.565E-25   0.179E-05 0.252E-13 -.101E-12
   -.643E-01 0.157E+00 0.157E+00   0.646E-01 -.159E+00 -.159E+00   -.598E-03 0.324E-02 0.324E-02   -.481E-05 0.311E-05 0.311E-05
   -.277E+00 -.870E-13 -.157E-02   0.281E+00 0.750E-14 0.158E-02   -.708E-02 0.279E-24 -.233E-04   -.124E-03 -.129E-12 -.244E-05
   -.277E+00 -.157E-02 -.105E-09   0.281E+00 0.158E-02 0.104E-13   -.708E-02 -.233E-04 0.195E-25   -.124E-03 -.244E-05 -.218E-13
   -.198E+01 -.909E-13 0.148E-05   0.200E+01 -.546E-13 -.829E-14   0.259E-02 0.107E-23 -.378E-24   -.560E-05 -.188E-12 0.129E-12
   -.643E-01 0.157E+00 -.157E+00   0.646E-01 -.159E+00 0.159E+00   -.598E-03 0.324E-02 -.324E-02   -.481E-05 0.311E-05 -.311E-05
   -.277E+00 -.864E-13 0.157E-02   0.281E+00 -.290E-15 -.158E-02   -.708E-02 0.193E-24 0.233E-04   -.124E-03 -.577E-13 0.244E-05
   -.924E-01 -.263E-03 -.840E-11   0.935E-01 0.274E-03 -.355E-14   -.165E-02 -.775E-05 -.120E-24   -.116E-03 0.671E-06 -.177E-12
   -.187E-01 -.905E-13 0.835E-08   0.185E-01 -.115E-13 0.837E-17   0.374E-03 -.108E-25 -.758E-25   -.969E-06 -.139E-12 -.293E-12
   -.643E-01 -.157E+00 0.157E+00   0.646E-01 0.159E+00 -.159E+00   -.598E-03 -.324E-02 0.324E-02   -.481E-05 -.311E-05 0.311E-05
   -.924E-01 0.615E-12 -.263E-03   0.935E-01 -.708E-14 0.274E-03   -.165E-02 -.264E-24 -.775E-05   -.116E-03 0.848E-13 0.671E-06
   -.277E+00 0.157E-02 -.104E-09   0.281E+00 -.158E-02 0.734E-14   -.708E-02 0.233E-04 -.760E-24   -.124E-03 0.244E-05 0.511E-13
   -.187E-01 0.107E-10 -.851E-10   0.185E-01 -.364E-13 -.140E-13   0.374E-03 -.316E-26 -.905E-25   -.969E-06 0.134E-12 -.312E-13
   -.643E-01 -.157E+00 -.157E+00   0.646E-01 0.159E+00 0.159E+00   -.598E-03 -.324E-02 -.324E-02   -.481E-05 -.311E-05 -.311E-05
   -.924E-01 0.145E-11 0.263E-03   0.935E-01 0.178E-13 -.274E-03   -.165E-02 0.280E-24 0.775E-05   -.116E-03 0.153E-13 -.671E-06
   -.924E-01 0.263E-03 -.696E-11   0.935E-01 -.274E-03 -.416E-16   -.165E-02 0.775E-05 0.101E-24   -.116E-03 -.671E-06 -.246E-12
   -.273E-02 0.342E-11 -.817E-11   0.273E-02 -.213E-13 -.583E-16   0.151E-05 -.365E-24 0.734E-25   -.350E-05 0.858E-13 -.169E-12
 -----------------------------------------------------------------------------------------------
   0.150E+00 -.390E-11 0.111E-05   0.822E-13 0.175E-13 0.890E-13   -.149E+00 -.527E-17 0.800E-18   0.135E-05 -.796E-13 -.202E-11
 
 
 POSITION                                       TOTAL-FORCE (eV/Angst)
 -----------------------------------------------------------------------------------
      0.03000      0.00000      0.00000        -0.062818      0.000000     -0.000000
      2.80100      2.80100      0.00000         0.001513      0.005927     -0.000000
      2.80100      0.00000      2.80100         0.001513      0.000000      0.005927
      0.00000      2.80100      2.80100        -0.001663     -0.000020     -0.000020
      0.00000      0.00000      5.60200        -0.000050      0.000000     -0.000000
      2.80100      2.80100      5.60200        -0.000034     -0.000077     -0.000000
      2.80100      0.00000      8.40300         0.001513      0.000000     -0.005927
      0.00000      2.80100      8.40300        -0.001663     -0.000020      0.000020
      0.00000      5.60200      0.00000        -0.000050      0.000000     -0.000000
      2.80100      8.40300      0.00000         0.001513     -0.005927     -0.000000
      2.80100      5.60200      2.80100        -0.000034      0.000000     -0.000077
      0.00000      8.40300      2.80100        -0.001663      0.000020     -0.000020
      0.00000      5.60200      5.60200        -0.000452      0.000000     -0.000000
      2.80100      8.40300      5.60200        -0.000034      0.000077     -0.000000
      2.80100      5.60200      8.40300        -0.000034      0.000000      0.000077
      0.00000      8.40300      8.40300        -0.001663      0.000020      0.000020
      5.60200      0.00000      0.00000         0.008916      0.000000     -0.000000
      8.40300      2.80100      0.00000         0.001508     -0.005802     -0.000000
      8.40300      0.00000      2.80100         0.001508      0.000000     -0.005802
      5.60200      2.80100      2.80100         0.001162      0.000005      0.000005
      5.60200      0.00000      5.60200         0.000308      0.000000     -0.000000
      8.40300      2.80100      5.60200        -0.000021      0.000073     -0.000000
      8.40300      0.00000      8.40300         0.001508      0.000000      0.005802
      5.60200      2.80100      8.40300         0.001162      0.000005     -0.000005
      5.60200      5.60200      0.00000         0.000308      0.000000     -0.000000
      8.40300      8.40300      0.00000         0.001508      0.005802     -0.000000
      8.40300      5.60200      2.80100        -0.000021      0.000000      0.000073
      5.60200      8.40300      2.80100         0.001162     -0.000005      0.000005
      5.60200      5.60200      5.60200         0.000440      0.000000     -0.000000
      8.40300      8.40300      5.60200        -0.000021     -0.000073     -0.000000
      8.40300      5.60200      8.40300        -0.000021      0.000000     -0.000073
      5.60200      8.40300      8.40300         0.001162     -0.000005     -0.000005
      2.80100      2.80100      2.80100        -0.000218     -0.001306     -0.001306
      0.00000      0.00000      2.80100         0.004990      0.000000     -0.000121
      0.00000      2.80100      0.00000         0.004990     -0.000121     -0.000000
      2.80100      0.00000      0.00000         0.020225      0.000000     -0.000000
      2.80100      2.80100      8.40300        -0.000218     -0.001306      0.001306
      0.00000      0.00000      8.40300         0.004990      0.000000      0.000121
      0.00000      2.80100      5.60200         0.000590      0.000008     -0.000000
      2.80100      0.00000      5.60200         0.000169      0.000000     -0.000000
      2.80100      8.40300      2.80100        -0.000218      0.001306     -0.001306
      0.00000      5.60200      2.80100         0.000590      0.000000      0.000008
      0.00000      8.40300      0.00000         0.004990      0.000121     -0.000000
      2.80100      5.60200      0.00000         0.000169      0.000000     -0.000000
      2.80100      8.40300      8.40300        -0.000218      0.001306      0.001306
      0.00000      5.60200      8.40300         0.000590      0.000000     -0.000008
      0.00000      8.40300      5.60200         0.000590     -0.000008     -0.000000
      2.80100      5.60200      5.60200        -0.000002      0.000000     -0.000000
      8.40300      2.80100      2.80100        -0.000241      0.001283      0.001283
      5.60200      0.00000      2.80100        -0.002826      0.000000     -0.000015
      5.60200      2.80100      0.00000        -0.002826     -0.000015     -0.000000
      8.40300      0.00000      0.00000         0.016173      0.000000     -0.000000
      8.40300      2.80100      8.40300        -0.000241      0.001283     -0.001283
      5.60200      0.00000      8.40300        -0.002826      0.000000      0.000015
      5.60200      2.80100      5.60200        -0.000661      0.000003     -0.000000
      8.40300      0.00000      5.60200         0.000141      0.000000     -0.000000
      8.40300      8.40300      2.80100        -0.000241     -0.001283      0.001283
      5.60200      5.60200      2.80100        -0.000661      0.000000      0.000003
      5.60200      8.40300      0.00000        -0.002826      0.000015     -0.000000
      8.40300      5.60200      0.00000         0.000141      0.000000     -0.000000
      8.40300      8.40300      8.40300        -0.000241     -0.001283     -0.001283
      5.60200      5.60200      8.40300        -0.000661      0.000000     -0.000003
      5.60200      8.40300      5.60200        -0.000661     -0.000003     -0.000000
      8.40300      5.60200      5.60200        -0.000014      0.000000     -0.000000
 -----------------------------------------------------------------------------------
    total drift:                                0.000591     -0.000000      0.000001


--------------------------------------------------------------------------------------------------------



  FREE ENERGIE OF THE ION-ELECTRON SYSTEM (eV)
  ---------------------------------------------------
  free  energy   TOTEN  =      -223.90176347 eV

  energy  without entropy=     -223.90176347  energy(sigma->0) =     -223.90176347
 


--------------------------------------------------------------------------------------------------------


    POTLOK:  cpu time      0.0686: real time      0.0689


--------------------------------------------------------------------------------------------------------


     LOOP+:  cpu time    158.4420: real time    159.3343
    4ORBIT:  cpu time      0.0000: real time      0.0000

 total amount of memory used by VASP MPI-rank0   118439. kBytes
=======================================================================

   base      :      30000. kBytes
   nonl-proj :      36470. kBytes
   fftplans  :      14405. kBytes
   grid      :      19342. kBytes
   one-center:        196. kBytes
   wavefun   :      18026. kBytes
 
  
  
 General timing and accounting informations for this job:
 ========================================================
  
                  Total CPU time used (sec):      161.889
                            User time (sec):      161.363
                          System time (sec):        0.525
                         Elapsed time (sec):      163.214
  
                   Maximum memory used (kb):      304016.
                   Average memory used (kb):          N/A
  
                          Minor page faults:       108634
                          Major page faults:            1
                 Voluntary context switches:          864
