<?xml version="1.0" encoding="ISO-8859-1"?>
<modeling>
 <generator>
  <i name="program" type="string">vasp </i>
  <i name="version" type="string">6.3.2  </i>
  <i name="subversion" type="string">27Jun22 (build Oct 14 2022 12:13:54) complex                          parallel </i>
  <i name="platform" type="string">LinuxIFC </i>
  <i name="date" type="string">2025 08 28 </i>
  <i name="time" type="string">21:57:03 </i>
 </generator>
 <incar>
  <i type="string" name="PREC">Accurate</i>
  <i type="int" name="IALGO">    38</i>
  <i type="logical" name="ADDGRID"> T  </i>
  <i type="int" name="NELMIN">     5</i>
  <i type="int" name="IBRION">    -1</i>
  <i name="EDIFF">      0.00000001</i>
  <i name="ENCUT">    341.21360000</i>
  <i type="logical" name="LREAL"> F  </i>
  <i type="int" name="ISMEAR">     0</i>
  <i name="SIGMA">      0.02000000</i>
  <i type="logical" name="LWAVE"> F  </i>
  <i type="logical" name="LCHARG"> F  </i>
  <i type="string" name="GGA">PS</i>
 </incar>
 <primitive_cell>
  <structure name="primitive_cell" >
   <crystal>
    <varray name="basis" >
     <v>      11.20400236       0.00000000       0.00000000 </v>
     <v>       0.00000000      11.20400236       0.00000000 </v>
     <v>       0.00000000       0.00000000      11.20400236 </v>
    </varray>
    <i name="volume">   1406.43470641 </i>
    <varray name="rec_basis" >
     <v>       0.08925382       0.00000000       0.00000000 </v>
     <v>       0.00000000       0.08925382       0.00000000 </v>
     <v>       0.00000000       0.00000000       0.08925382 </v>
    </varray>
   </crystal>
   <varray name="positions" >
    <v>       0.00267761       0.00000000       0.00000000 </v>
    <v>       0.25000000       0.25000000       0.00000000 </v>
    <v>       0.25000000       0.00000000       0.25000000 </v>
    <v>       0.00000000       0.25000000       0.25000000 </v>
    <v>       0.00000000       0.00000000       0.50000000 </v>
    <v>       0.25000000       0.25000000       0.50000000 </v>
    <v>       0.25000000       0.00000000       0.75000000 </v>
    <v>       0.00000000       0.25000000       0.75000000 </v>
    <v>       0.00000000       0.50000000       0.00000000 </v>
    <v>       0.25000000       0.75000000       0.00000000 </v>
    <v>       0.25000000       0.50000000       0.25000000 </v>
    <v>       0.00000000       0.75000000       0.25000000 </v>
    <v>       0.00000000       0.50000000       0.50000000 </v>
    <v>       0.25000000       0.75000000       0.50000000 </v>
    <v>       0.25000000       0.50000000       0.75000000 </v>
    <v>       0.00000000       0.75000000       0.75000000 </v>
    <v>       0.50000000       0.00000000       0.00000000 </v>
    <v>       0.75000000       0.25000000       0.00000000 </v>
    <v>       0.75000000       0.00000000       0.25000000 </v>
    <v>       0.50000000       0.25000000       0.25000000 </v>
    <v>       0.50000000       0.00000000       0.50000000 </v>
    <v>       0.75000000       0.25000000       0.50000000 </v>
    <v>       0.75000000       0.00000000       0.75000000 </v>
    <v>       0.50000000       0.25000000       0.75000000 </v>
    <v>       0.50000000       0.50000000       0.00000000 </v>
    <v>       0.75000000       0.75000000       0.00000000 </v>
    <v>       0.75000000       0.50000000       0.25000000 </v>
    <v>       0.50000000       0.75000000       0.25000000 </v>
    <v>       0.50000000       0.50000000       0.50000000 </v>
    <v>       0.75000000       0.75000000       0.50000000 </v>
    <v>       0.75000000       0.50000000       0.75000000 </v>
    <v>       0.50000000       0.75000000       0.75000000 </v>
    <v>       0.25000000       0.25000000       0.25000000 </v>
    <v>       0.00000000       0.00000000       0.25000000 </v>
    <v>       0.00000000       0.25000000       0.00000000 </v>
    <v>       0.25000000       0.00000000       0.00000000 </v>
    <v>       0.25000000       0.25000000       0.75000000 </v>
    <v>       0.00000000       0.00000000       0.75000000 </v>
    <v>       0.00000000       0.25000000       0.50000000 </v>
    <v>       0.25000000       0.00000000       0.50000000 </v>
    <v>       0.25000000       0.75000000       0.25000000 </v>
    <v>       0.00000000       0.50000000       0.25000000 </v>
    <v>       0.00000000       0.75000000       0.00000000 </v>
    <v>       0.25000000       0.50000000       0.00000000 </v>
    <v>       0.25000000       0.75000000       0.75000000 </v>
    <v>       0.00000000       0.50000000       0.75000000 </v>
    <v>       0.00000000       0.75000000       0.50000000 </v>
    <v>       0.25000000       0.50000000       0.50000000 </v>
    <v>       0.75000000       0.25000000       0.25000000 </v>
    <v>       0.50000000       0.00000000       0.25000000 </v>
    <v>       0.50000000       0.25000000       0.00000000 </v>
    <v>       0.75000000       0.00000000       0.00000000 </v>
    <v>       0.75000000       0.25000000       0.75000000 </v>
    <v>       0.50000000       0.00000000       0.75000000 </v>
    <v>       0.50000000       0.25000000       0.50000000 </v>
    <v>       0.75000000       0.00000000       0.50000000 </v>
    <v>       0.75000000       0.75000000       0.25000000 </v>
    <v>       0.50000000       0.50000000       0.25000000 </v>
    <v>       0.50000000       0.75000000       0.00000000 </v>
    <v>       0.75000000       0.50000000       0.00000000 </v>
    <v>       0.75000000       0.75000000       0.75000000 </v>
    <v>       0.50000000       0.50000000       0.75000000 </v>
    <v>       0.50000000       0.75000000       0.50000000 </v>
    <v>       0.75000000       0.50000000       0.50000000 </v>
   </varray>
  </structure>
  <varray name="primitive_index" >
   <v type="int" >        1 </v>
   <v type="int" >        2 </v>
   <v type="int" >        3 </v>
   <v type="int" >        4 </v>
   <v type="int" >        5 </v>
   <v type="int" >        6 </v>
   <v type="int" >        7 </v>
   <v type="int" >        8 </v>
   <v type="int" >        9 </v>
   <v type="int" >       10 </v>
   <v type="int" >       11 </v>
   <v type="int" >       12 </v>
   <v type="int" >       13 </v>
   <v type="int" >       14 </v>
   <v type="int" >       15 </v>
   <v type="int" >       16 </v>
   <v type="int" >       17 </v>
   <v type="int" >       18 </v>
   <v type="int" >       19 </v>
   <v type="int" >       20 </v>
   <v type="int" >       21 </v>
   <v type="int" >       22 </v>
   <v type="int" >       23 </v>
   <v type="int" >       24 </v>
   <v type="int" >       25 </v>
   <v type="int" >       26 </v>
   <v type="int" >       27 </v>
   <v type="int" >       28 </v>
   <v type="int" >       29 </v>
   <v type="int" >       30 </v>
   <v type="int" >       31 </v>
   <v type="int" >       32 </v>
   <v type="int" >       33 </v>
   <v type="int" >       34 </v>
   <v type="int" >       35 </v>
   <v type="int" >       36 </v>
   <v type="int" >       37 </v>
   <v type="int" >       38 </v>
   <v type="int" >       39 </v>
   <v type="int" >       40 </v>
   <v type="int" >       41 </v>
   <v type="int" >       42 </v>
   <v type="int" >       43 </v>
   <v type="int" >       44 </v>
   <v type="int" >       45 </v>
   <v type="int" >       46 </v>
   <v type="int" >       47 </v>
   <v type="int" >       48 </v>
   <v type="int" >       49 </v>
   <v type="int" >       50 </v>
   <v type="int" >       51 </v>
   <v type="int" >       52 </v>
   <v type="int" >       53 </v>
   <v type="int" >       54 </v>
   <v type="int" >       55 </v>
   <v type="int" >       56 </v>
   <v type="int" >       57 </v>
   <v type="int" >       58 </v>
   <v type="int" >       59 </v>
   <v type="int" >       60 </v>
   <v type="int" >       61 </v>
   <v type="int" >       62 </v>
   <v type="int" >       63 </v>
   <v type="int" >       64 </v>
  </varray>
 </primitive_cell>
 <kpoints>
  <generation param="Gamma">
   <v type="int" name="divisions">       2        2        2 </v>
   <v name="usershift">      0.00000000       0.00000000       0.00000000 </v>
   <v name="genvec1">      0.50000000       0.00000000       0.00000000 </v>
   <v name="genvec2">      0.00000000       0.50000000       0.00000000 </v>
   <v name="genvec3">      0.00000000       0.00000000       0.50000000 </v>
   <v name="shift">      0.00000000       0.00000000       0.00000000 </v>
  </generation>
  <varray name="kpointlist" >
   <v>       0.00000000       0.00000000       0.00000000 </v>
   <v>       0.50000000       0.00000000       0.00000000 </v>
   <v>       0.00000000       0.50000000       0.00000000 </v>
   <v>       0.50000000       0.50000000       0.00000000 </v>
   <v>       0.00000000       0.50000000       0.50000000 </v>
   <v>       0.50000000       0.50000000       0.50000000 </v>
  </varray>
  <varray name="weights" >
   <v>       0.12500000 </v>
   <v>       0.12500000 </v>
   <v>       0.25000000 </v>
   <v>       0.25000000 </v>
   <v>       0.12500000 </v>
   <v>       0.12500000 </v>
  </varray>
 </kpoints>
 <parameters>
  <separator name="general" >
   <i type="string" name="SYSTEM">unknown system</i>
   <i type="logical" name="LCOMPAT"> F  </i>
  </separator>
  <separator name="electronic" >
   <i type="string" name="PREC">accura</i>
   <i name="ENMAX">    341.21360000</i>
   <i name="ENAUG">    368.05600000</i>
   <i name="EDIFF">      0.00000001</i>
   <i type="int" name="IALGO">    38</i>
   <i type="int" name="IWAVPR">    10</i>
   <i type="int" name="NBANDS">   288</i>
   <i type="int" name="NBANDSLOW">    -1</i>
   <i type="int" name="NBANDSHIGH">    -1</i>
   <i name="NELECT">    448.00000000</i>
   <i type="int" name="TURBO">     0</i>
   <i type="int" name="IRESTART">     0</i>
   <i type="int" name="NREBOOT">     0</i>
   <i type="int" name="NMIN">     0</i>
   <i name="EREF">      0.00000000</i>
   <separator name="electronic smearing" >
    <i type="int" name="ISMEAR">     0</i>
    <i name="SIGMA">      0.02000000</i>
    <i name="KSPACING">      0.50000000</i>
    <i type="logical" name="KGAMMA"> T  </i>
    <i type="logical" name="KBLOWUP"> T  </i>
   </separator>
   <separator name="electronic projectors" >
    <i type="logical" name="LREAL"> F  </i>
    <v name="ROPT">      0.00000000      0.00000000</v>
    <i type="int" name="LMAXPAW">  -100</i>
    <i type="int" name="LMAXMIX">     2</i>
    <i type="logical" name="NLSPLINE"> F  </i>
   </separator>
   <separator name="electronic startup" >
    <i type="int" name="ISTART">     0</i>
    <i type="int" name="ICHARG">     2</i>
    <i type="int" name="INIWAV">     1</i>
   </separator>
   <separator name="electronic spin" >
    <i type="int" name="ISPIN">     1</i>
    <i type="logical" name="LNONCOLLINEAR"> F  </i>
    <v name="MAGMOM">      1.00000000      1.00000000      1.00000000      1.00000000      1.00000000      1.00000000      1.00000000      1.00000000      1.00000000      1.00000000      1.00000000      1.00000000      1.00000000      1.00000000      1.00000000      1.00000000      1.00000000      1.00000000      1.00000000      1.00000000
      1.00000000      1.00000000      1.00000000      1.00000000      1.00000000      1.00000000      1.00000000      1.00000000      1.00000000      1.00000000      1.00000000      1.00000000      1.00000000      1.00000000      1.00000000      1.00000000      1.00000000      1.00000000      1.00000000      1.00000000
      1.00000000      1.00000000      1.00000000      1.00000000      1.00000000      1.00000000      1.00000000      1.00000000      1.00000000      1.00000000      1.00000000      1.00000000      1.00000000      1.00000000      1.00000000      1.00000000      1.00000000      1.00000000      1.00000000      1.00000000
      1.00000000      1.00000000      1.00000000      1.00000000</v>
    <i name="NUPDOWN">     -1.00000000</i>
    <i type="logical" name="LSORBIT"> F  </i>
    <v name="SAXIS">      0.00000000      0.00000000      1.00000000</v>
    <i type="logical" name="LSPIRAL"> F  </i>
    <v name="QSPIRAL">      0.00000000      0.00000000      0.00000000</v>
    <i type="logical" name="LZEROZ"> F  </i>
   </separator>
   <separator name="electronic exchange-correlation" >
    <i type="logical" name="LASPH"> F  </i>
    <i type="logical" name="LMETAGGA"> F  </i>
   </separator>
   <separator name="electronic convergence" >
    <i type="int" name="NELM">    60</i>
    <i type="int" name="NELMDL">    -5</i>
    <i type="int" name="NELMIN">     5</i>
    <i name="ENINI">    341.21360000</i>
    <separator name="electronic convergence detail" >
     <i type="logical" name="LDIAG"> T  </i>
     <i type="logical" name="LSUBROT"> F  </i>
     <i name="WEIMIN">      0.00000000</i>
     <i name="EBREAK">      0.00000000</i>
     <i name="DEPER">      0.30000000</i>
     <i type="int" name="NRMM">     4</i>
     <i name="TIME">      0.40000000</i>
    </separator>
   </separator>
   <separator name="electronic mixer" >
    <i name="AMIX">      0.40000000</i>
    <i name="BMIX">      1.00000000</i>
    <i name="AMIN">      0.10000000</i>
    <i name="AMIX_MAG">      1.60000000</i>
    <i name="BMIX_MAG">      1.00000000</i>
    <separator name="electronic mixer details" >
     <i type="int" name="IMIX">     4</i>
     <i type="logical" name="MIXFIRST"> F  </i>
     <i type="int" name="MAXMIX">   -45</i>
     <i name="WC">    100.00000000</i>
     <i type="int" name="INIMIX">     1</i>
     <i type="int" name="MIXPRE">     1</i>
     <i type="int" name="MREMOVE">     5</i>
    </separator>
   </separator>
   <separator name="electronic dipolcorrection" >
    <i type="logical" name="LDIPOL"> F  </i>
    <i type="logical" name="LMONO"> F  </i>
    <i type="int" name="IDIPOL">     0</i>
    <i name="EPSILON">      1.00000000</i>
    <v name="DIPOL">   -100.00000000   -100.00000000   -100.00000000</v>
    <i name="EFIELD">      0.00000000</i>
   </separator>
  </separator>
  <separator name="grids" >
   <i type="int" name="NGX">    70</i>
   <i type="int" name="NGY">    70</i>
   <i type="int" name="NGZ">    70</i>
   <i type="int" name="NGXF">   140</i>
   <i type="int" name="NGYF">   140</i>
   <i type="int" name="NGZF">   140</i>
   <i type="logical" name="ADDGRID"> T  </i>
  </separator>
  <separator name="ionic" >
   <i type="int" name="NSW">     0</i>
   <i type="int" name="IBRION">    -1</i>
   <i type="int" name="MDALGO">     0</i>
   <i type="int" name="ISIF">     2</i>
   <i name="PSTRESS">      0.00000000</i>
   <i name="EDIFFG">      0.00000010</i>
   <i type="int" name="NFREE">     0</i>
   <i name="POTIM">      0.50000000</i>
   <i name="SMASS">     -3.00000000</i>
   <i name="SCALEE">      1.00000000</i>
  </separator>
  <separator name="ionic md" >
   <i name="TEBEG">      0.00010000</i>
   <i name="TEEND">      0.00010000</i>
   <i type="int" name="NBLOCK">     1</i>
   <i type="int" name="KBLOCK">     1</i>
   <i type="int" name="NPACO">   256</i>
   <i name="APACO">     10.00000000</i>
  </separator>
  <separator name="symmetry" >
   <i type="int" name="ISYM">     2</i>
   <i name="SYMPREC">      0.00001000</i>
  </separator>
  <separator name="dos" >
   <i type="int" name="LORBIT">     0</i>
   <v name="RWIGS">     -1.00000000     -1.00000000</v>
   <i type="int" name="NEDOS">   301</i>
   <i name="EMIN">     10.00000000</i>
   <i name="EMAX">    -10.00000000</i>
   <i name="EFERMI">      0.00000000</i>
  </separator>
  <separator name="writing" >
   <i type="int" name="NWRITE">     2</i>
   <i type="logical" name="LWAVE"> F  </i>
   <i type="logical" name="LDOWNSAMPLE"> F  </i>
   <i type="logical" name="LCHARG"> F  </i>
   <i type="logical" name="LPARD"> F  </i>
   <i type="logical" name="LVTOT"> F  </i>
   <i type="logical" name="LVHAR"> F  </i>
   <i type="logical" name="LELF"> F  </i>
   <i type="logical" name="LOPTICS"> F  </i>
   <v name="STM">      0.00000000      0.00000000      0.00000000      0.00000000      0.00000000      0.00000000      0.00000000</v>
  </separator>
  <separator name="performance" >
   <i type="int" name="NPAR">    32</i>
   <i type="int" name="NSIM">     4</i>
   <i type="int" name="NBLK">    -1</i>
   <i type="logical" name="LPLANE"> T  </i>
   <i type="logical" name="LSCALAPACK"> T  </i>
   <i type="logical" name="LSCAAWARE"> F  </i>
   <i type="logical" name="LSCALU"> F  </i>
   <i type="logical" name="LASYNC"> F  </i>
   <i type="logical" name="LORBITALREAL"> F  </i>
  </separator>
  <separator name="miscellaneous" >
   <i type="int" name="IDIOT">     3</i>
   <i type="int" name="PHON_NSTRUCT">    -1</i>
   <i type="logical" name="LMUSIC"> F  </i>
   <v name="POMASS">     22.99000000     35.45300000</v>
   <v name="DARWINR">      0.00000000      0.00000000</v>
   <v name="DARWINV">      1.00000000      1.00000000</v>
   <i type="logical" name="LCORR"> T  </i>
  </separator>
  <i type="logical" name="GGA_COMPAT"> T  </i>
  <i type="logical" name="LBERRY"> F  </i>
  <i type="int" name="ICORELEVEL">     0</i>
  <i type="logical" name="LDAU"> F  </i>
  <i type="int" name="I_CONSTRAINED_M">     0</i>
  <separator name="electronic exchange-correlation" >
   <i type="string" name="GGA">PS</i>
   <i type="int" name="VOSKOWN">     0</i>
   <i type="logical" name="LHFCALC"> F  </i>
   <i type="string" name="PRECFOCK"></i>
   <i type="logical" name="LSYMGRAD"> F  </i>
   <i type="logical" name="LHFONE"> F  </i>
   <i type="logical" name="LRHFCALC"> F  </i>
   <i type="logical" name="LTHOMAS"> F  </i>
   <i type="logical" name="LMODELHF"> F  </i>
   <i type="logical" name="LFOCKACE"> F  </i>
   <i name="ENCUT4O">     -1.00000000</i>
   <i type="int" name="EXXOEP">     0</i>
   <i type="int" name="FOURORBIT">     0</i>
   <i name="AEXX">      0.00000000</i>
   <i name="HFALPHA">      0.00000000</i>
   <i name="MCALPHA">      0.00000000</i>
   <i name="ALDAX">      1.00000000</i>
   <i name="AGGAX">      1.00000000</i>
   <i name="ALDAC">      1.00000000</i>
   <i name="AGGAC">      1.00000000</i>
   <i type="int" name="NKREDX">     1</i>
   <i type="int" name="NKREDY">     1</i>
   <i type="int" name="NKREDZ">     1</i>
   <i type="logical" name="SHIFTRED"> F  </i>
   <i type="logical" name="ODDONLY"> F  </i>
   <i type="logical" name="EVENONLY"> F  </i>
   <i type="int" name="LMAXFOCK">     0</i>
   <i type="int" name="NMAXFOCKAE">     0</i>
   <i type="logical" name="LFOCKAEDFT"> F  </i>
   <i name="HFSCREEN">      0.00000000</i>
   <i name="HFSCREENC">      0.00000000</i>
   <i type="int" name="NBANDSGWLOW">     0</i>
  </separator>
  <separator name="vdW DFT" >
   <i type="logical" name="LUSE_VDW"> F  </i>
   <i name="Zab_VDW">     -0.84910000</i>
   <i name="PARAM1">      0.12340000</i>
   <i name="PARAM2">      1.00000000</i>
   <i name="PARAM3">      0.00000000</i>
  </separator>
  <separator name="model GW" >
   <i type="int" name="MODEL_GW">     0</i>
   <i name="MODEL_EPS0">     13.18532537</i>
   <i name="MODEL_ALPHA">      1.00000000</i>
  </separator>
  <separator name="linear response parameters" >
   <i type="logical" name="LEPSILON"> F  </i>
   <i type="logical" name="LRPA"> F  </i>
   <i type="logical" name="LNABLA"> F  </i>
   <i type="logical" name="LVEL"> F  </i>
   <i name="CSHIFT">      0.10000000</i>
   <i name="OMEGAMAX">     -1.00000000</i>
   <i name="DEG_THRESHOLD">      0.00200000</i>
   <i name="RTIME">     -0.10000000</i>
   <i name="WPLASMAI">      0.00000000</i>
   <v name="DFIELD">      0.00000000      0.00000000      0.00000000</v>
   <v name="WPLASMA">      0.00000000      0.00000000      0.00000000      0.00000000      0.00000000      0.00000000      0.00000000      0.00000000      0.00000000</v>
  </separator>
  <separator name="orbital magnetization" >
   <i type="logical" name="NUCIND"> F  </i>
   <v name="MAGPOS">      0.00000000      0.00000000      0.00000000</v>
   <i type="logical" name="LNICSALL"> T  </i>
   <i type="logical" name="ORBITALMAG"> F  </i>
   <i type="logical" name="LMAGBLOCH"> F  </i>
   <i type="logical" name="LCHIMAG"> F  </i>
   <i type="logical" name="LGAUGE"> T  </i>
   <i type="int" name="MAGATOM">     0</i>
   <v name="MAGDIPOL">      0.00000000      0.00000000      0.00000000</v>
   <v name="AVECCONST">      0.00000000      0.00000000      0.00000000</v>
  </separator>
  <separator name="response functions" >
   <i type="logical" name="LFINITE_TEMPERATURE"> F  </i>
   <i type="logical" name="LADDER"> F  </i>
   <i type="logical" name="LRPAFORCE"> F  </i>
   <i type="logical" name="LFXC"> F  </i>
   <i type="logical" name="LHARTREE"> T  </i>
   <i type="int" name="IBSE">     0</i>
   <v type="int" name="KPOINT">    -1     0     0     0</v>
   <i type="logical" name="LTCTC"> F  </i>
   <i type="logical" name="LTCTE"> F  </i>
   <i type="logical" name="LTETE"> F  </i>
   <i type="logical" name="LTRIPLET"> F  </i>
   <i type="logical" name="LFXCEPS"> F  </i>
   <i type="logical" name="LFXHEG"> F  </i>
   <i type="int" name="NATURALO">     2</i>
   <i type="logical" name="LHOLEGF"> F  </i>
   <i type="logical" name="L2ORDER"> F  </i>
   <i type="logical" name="LDMP1"> F  </i>
   <i type="logical" name="LMP2LT"> F  </i>
   <i type="logical" name="LSMP2LT"> F  </i>
   <i type="logical" name="LGWLF"> F  </i>
   <i name="ENCUTGW">     -2.00000000</i>
   <i name="ENCUTGWSOFT">     -2.00000000</i>
   <i name="ENCUTLF">     -1.00000000</i>
   <i type="logical" name="LESF_SPLINES"> F  </i>
   <i type="int" name="LMAXMP2">    -1</i>
   <i name="SCISSOR">      0.00000000</i>
   <i type="int" name="NOMEGA">     0</i>
   <i type="int" name="NOMEGAR">     0</i>
   <i type="int" name="NBANDSGW">    -1</i>
   <i type="int" name="NBANDSO">    -1</i>
   <i type="int" name="NBANDSV">    -1</i>
   <i type="int" name="NELMGW">     1</i>
   <i type="int" name="NELMHF">     1</i>
   <i type="int" name="DIM">     3</i>
   <i type="int" name="IESPILON">     4</i>
   <i type="int" name="ANTIRES">     0</i>
   <i name="OMEGAMAX">    -30.00000000</i>
   <i name="OMEGAMIN">    -30.00000000</i>
   <i name="OMEGATL">   -200.00000000</i>
   <i type="int" name="OMEGAGRID">     0</i>
   <i name="CSHIFT">     -0.10000000</i>
   <i type="logical" name="LSELFENERGY"> F  </i>
   <i type="logical" name="LSPECTRAL"> F  </i>
   <i type="logical" name="LSPECTRALGW"> F  </i>
   <i type="logical" name="LSINGLES"> F  </i>
   <i type="logical" name="LFERMIGW"> F  </i>
   <i type="logical" name="ODDONLYGW"> F  </i>
   <i type="logical" name="EVENONLYGW"> F  </i>
   <i type="int" name="NKREDLFX">     1</i>
   <i type="int" name="NKREDLFY">     1</i>
   <i type="int" name="NKREDLFZ">     1</i>
   <i type="int" name="MAXMEM">  2800</i>
   <i type="int" name="TELESCOPE">     0</i>
   <i type="int" name="NTAUPAR">    -1</i>
   <i type="int" name="NOMEGAPAR">    -1</i>
   <i name="DAMP_NEWTON">      0.80000001</i>
   <i name="LAMBDA">      1.00000000</i>
  </separator>
  <separator name="External order field" >
   <i name="OFIELD_KAPPA">      0.00000000</i>
   <v name="OFIELD_K">      0.00000000      0.00000000      0.00000000</v>
   <i name="OFIELD_Q6_NEAR">      0.00000000</i>
   <i name="OFIELD_Q6_FAR">      0.00000000</i>
   <i name="OFIELD_A">      0.00000000</i>
  </separator>
  <separator name="optional k-points parameters" >
   <i type="int" name="KPOINTS_OPT_MODE">     1</i>
   <i type="logical" name="LKPOINTS_OPT"> F  </i>
  </separator>
 </parameters>
 <atominfo>
  <atoms>      64 </atoms>
  <types>       2 </types>
  <array name="atoms" >
   <dimension dim="1">ion</dimension>
   <field type="string">element</field>
   <field type="int">atomtype</field>
   <set>
    <rc><c>Na</c><c>   1</c></rc>
    <rc><c>Na</c><c>   1</c></rc>
    <rc><c>Na</c><c>   1</c></rc>
    <rc><c>Na</c><c>   1</c></rc>
    <rc><c>Na</c><c>   1</c></rc>
    <rc><c>Na</c><c>   1</c></rc>
    <rc><c>Na</c><c>   1</c></rc>
    <rc><c>Na</c><c>   1</c></rc>
    <rc><c>Na</c><c>   1</c></rc>
    <rc><c>Na</c><c>   1</c></rc>
    <rc><c>Na</c><c>   1</c></rc>
    <rc><c>Na</c><c>   1</c></rc>
    <rc><c>Na</c><c>   1</c></rc>
    <rc><c>Na</c><c>   1</c></rc>
    <rc><c>Na</c><c>   1</c></rc>
    <rc><c>Na</c><c>   1</c></rc>
    <rc><c>Na</c><c>   1</c></rc>
    <rc><c>Na</c><c>   1</c></rc>
    <rc><c>Na</c><c>   1</c></rc>
    <rc><c>Na</c><c>   1</c></rc>
    <rc><c>Na</c><c>   1</c></rc>
    <rc><c>Na</c><c>   1</c></rc>
    <rc><c>Na</c><c>   1</c></rc>
    <rc><c>Na</c><c>   1</c></rc>
    <rc><c>Na</c><c>   1</c></rc>
    <rc><c>Na</c><c>   1</c></rc>
    <rc><c>Na</c><c>   1</c></rc>
    <rc><c>Na</c><c>   1</c></rc>
    <rc><c>Na</c><c>   1</c></rc>
    <rc><c>Na</c><c>   1</c></rc>
    <rc><c>Na</c><c>   1</c></rc>
    <rc><c>Na</c><c>   1</c></rc>
    <rc><c>Cl</c><c>   2</c></rc>
    <rc><c>Cl</c><c>   2</c></rc>
    <rc><c>Cl</c><c>   2</c></rc>
    <rc><c>Cl</c><c>   2</c></rc>
    <rc><c>Cl</c><c>   2</c></rc>
    <rc><c>Cl</c><c>   2</c></rc>
    <rc><c>Cl</c><c>   2</c></rc>
    <rc><c>Cl</c><c>   2</c></rc>
    <rc><c>Cl</c><c>   2</c></rc>
    <rc><c>Cl</c><c>   2</c></rc>
    <rc><c>Cl</c><c>   2</c></rc>
    <rc><c>Cl</c><c>   2</c></rc>
    <rc><c>Cl</c><c>   2</c></rc>
    <rc><c>Cl</c><c>   2</c></rc>
    <rc><c>Cl</c><c>   2</c></rc>
    <rc><c>Cl</c><c>   2</c></rc>
    <rc><c>Cl</c><c>   2</c></rc>
    <rc><c>Cl</c><c>   2</c></rc>
    <rc><c>Cl</c><c>   2</c></rc>
    <rc><c>Cl</c><c>   2</c></rc>
    <rc><c>Cl</c><c>   2</c></rc>
    <rc><c>Cl</c><c>   2</c></rc>
    <rc><c>Cl</c><c>   2</c></rc>
    <rc><c>Cl</c><c>   2</c></rc>
    <rc><c>Cl</c><c>   2</c></rc>
    <rc><c>Cl</c><c>   2</c></rc>
    <rc><c>Cl</c><c>   2</c></rc>
    <rc><c>Cl</c><c>   2</c></rc>
    <rc><c>Cl</c><c>   2</c></rc>
    <rc><c>Cl</c><c>   2</c></rc>
    <rc><c>Cl</c><c>   2</c></rc>
    <rc><c>Cl</c><c>   2</c></rc>
   </set>
  </array>
  <array name="atomtypes" >
   <dimension dim="1">type</dimension>
   <field type="int">atomspertype</field>
   <field type="string">element</field>
   <field>mass</field>
   <field>valence</field>
   <field type="string">pseudopotential</field>
   <set>
    <rc><c>  32</c><c>Na</c><c>     22.99000000</c><c>      7.00000000</c><c>  PAW_PBE Na_pv 19Sep2006               </c></rc>
    <rc><c>  32</c><c>Cl</c><c>     35.45300000</c><c>      7.00000000</c><c>  PAW_PBE Cl 06Sep2000                  </c></rc>
   </set>
  </array>
 </atominfo>
 <structure name="initialpos" >
  <crystal>
   <varray name="basis" >
    <v>      11.20400236       0.00000000       0.00000000 </v>
    <v>       0.00000000      11.20400236       0.00000000 </v>
    <v>       0.00000000       0.00000000      11.20400236 </v>
   </varray>
   <i name="volume">   1406.43470641 </i>
   <varray name="rec_basis" >
    <v>       0.08925382       0.00000000       0.00000000 </v>
    <v>       0.00000000       0.08925382       0.00000000 </v>
    <v>       0.00000000       0.00000000       0.08925382 </v>
   </varray>
  </crystal>
  <varray name="positions" >
   <v>       0.00267761       0.00000000       0.00000000 </v>
   <v>       0.25000000       0.25000000       0.00000000 </v>
   <v>       0.25000000       0.00000000       0.25000000 </v>
   <v>       0.00000000       0.25000000       0.25000000 </v>
   <v>       0.00000000       0.00000000       0.50000000 </v>
   <v>       0.25000000       0.25000000       0.50000000 </v>
   <v>       0.25000000       0.00000000       0.75000000 </v>
   <v>       0.00000000       0.25000000       0.75000000 </v>
   <v>       0.00000000       0.50000000       0.00000000 </v>
   <v>       0.25000000       0.75000000       0.00000000 </v>
   <v>       0.25000000       0.50000000       0.25000000 </v>
   <v>       0.00000000       0.75000000       0.25000000 </v>
   <v>       0.00000000       0.50000000       0.50000000 </v>
   <v>       0.25000000       0.75000000       0.50000000 </v>
   <v>       0.25000000       0.50000000       0.75000000 </v>
   <v>       0.00000000       0.75000000       0.75000000 </v>
   <v>       0.50000000       0.00000000       0.00000000 </v>
   <v>       0.75000000       0.25000000       0.00000000 </v>
   <v>       0.75000000       0.00000000       0.25000000 </v>
   <v>       0.50000000       0.25000000       0.25000000 </v>
   <v>       0.50000000       0.00000000       0.50000000 </v>
   <v>       0.75000000       0.25000000       0.50000000 </v>
   <v>       0.75000000       0.00000000       0.75000000 </v>
   <v>       0.50000000       0.25000000       0.75000000 </v>
   <v>       0.50000000       0.50000000       0.00000000 </v>
   <v>       0.75000000       0.75000000       0.00000000 </v>
   <v>       0.75000000       0.50000000       0.25000000 </v>
   <v>       0.50000000       0.75000000       0.25000000 </v>
   <v>       0.50000000       0.50000000       0.50000000 </v>
   <v>       0.75000000       0.75000000       0.50000000 </v>
   <v>       0.75000000       0.50000000       0.75000000 </v>
   <v>       0.50000000       0.75000000       0.75000000 </v>
   <v>       0.25000000       0.25000000       0.25000000 </v>
   <v>       0.00000000       0.00000000       0.25000000 </v>
   <v>       0.00000000       0.25000000       0.00000000 </v>
   <v>       0.25000000       0.00000000       0.00000000 </v>
   <v>       0.25000000       0.25000000       0.75000000 </v>
   <v>       0.00000000       0.00000000       0.75000000 </v>
   <v>       0.00000000       0.25000000       0.50000000 </v>
   <v>       0.25000000       0.00000000       0.50000000 </v>
   <v>       0.25000000       0.75000000       0.25000000 </v>
   <v>       0.00000000       0.50000000       0.25000000 </v>
   <v>       0.00000000       0.75000000       0.00000000 </v>
   <v>       0.25000000       0.50000000       0.00000000 </v>
   <v>       0.25000000       0.75000000       0.75000000 </v>
   <v>       0.00000000       0.50000000       0.75000000 </v>
   <v>       0.00000000       0.75000000       0.50000000 </v>
   <v>       0.25000000       0.50000000       0.50000000 </v>
   <v>       0.75000000       0.25000000       0.25000000 </v>
   <v>       0.50000000       0.00000000       0.25000000 </v>
   <v>       0.50000000       0.25000000       0.00000000 </v>
   <v>       0.75000000       0.00000000       0.00000000 </v>
   <v>       0.75000000       0.25000000       0.75000000 </v>
   <v>       0.50000000       0.00000000       0.75000000 </v>
   <v>       0.50000000       0.25000000       0.50000000 </v>
   <v>       0.75000000       0.00000000       0.50000000 </v>
   <v>       0.75000000       0.75000000       0.25000000 </v>
   <v>       0.50000000       0.50000000       0.25000000 </v>
   <v>       0.50000000       0.75000000       0.00000000 </v>
   <v>       0.75000000       0.50000000       0.00000000 </v>
   <v>       0.75000000       0.75000000       0.75000000 </v>
   <v>       0.50000000       0.50000000       0.75000000 </v>
   <v>       0.50000000       0.75000000       0.50000000 </v>
   <v>       0.75000000       0.50000000       0.50000000 </v>
  </varray>
 </structure>
 <calculation>
  <scstep>
   <time name="dav">    7.44    7.49</time>
   <time name="total">    7.52    7.56</time>
   <energy>
    <i name="alphaZ">    751.52672365 </i>
    <i name="ewald"> -22871.39982569 </i>
    <i name="hartreedc">  -8992.19152425 </i>
    <i name="XCdc">   1456.53400737 </i>
    <i name="pawpsdc">  26466.43774078 </i>
    <i name="pawaedc"> -29286.08056155 </i>
    <i name="eentropy">     -0.00295812 </i>
    <i name="bandstr">   -740.42533467 </i>
    <i name="atom">  37532.17946992 </i>
    <i name="e_fr_energy">   4316.57773744 </i>
    <i name="e_wo_entrp">   4316.58069556 </i>
    <i name="e_0_energy">   4316.57921650 </i>
   </energy>
  </scstep>
  <scstep>
   <time name="dav">    8.08    8.13</time>
   <time name="total">    8.09    8.13</time>
   <energy>
    <i name="e_fr_energy">    363.22008429 </i>
    <i name="e_wo_entrp">    363.22008429 </i>
    <i name="e_0_energy">    363.22008429 </i>
   </energy>
  </scstep>
  <scstep>
   <time name="dav">    8.69    8.73</time>
   <time name="total">    8.69    8.73</time>
   <energy>
    <i name="e_fr_energy">   -206.23508906 </i>
    <i name="e_wo_entrp">   -206.23508906 </i>
    <i name="e_0_energy">   -206.23508906 </i>
   </energy>
  </scstep>
  <scstep>
   <time name="dav">    8.61    8.66</time>
   <time name="total">    8.61    8.66</time>
   <energy>
    <i name="e_fr_energy">   -228.19516250 </i>
    <i name="e_wo_entrp">   -228.19516250 </i>
    <i name="e_0_energy">   -228.19516250 </i>
   </energy>
  </scstep>
  <scstep>
   <time name="dav">    8.76    8.81</time>
   <time name="total">    9.03    9.08</time>
   <energy>
    <i name="e_fr_energy">   -229.00554754 </i>
    <i name="e_wo_entrp">   -229.00554754 </i>
    <i name="e_0_energy">   -229.00554754 </i>
   </energy>
  </scstep>
  <scstep>
   <time name="dav">    8.81    8.86</time>
   <time name="total">    9.15    9.20</time>
   <energy>
    <i name="e_fr_energy">   -224.13877045 </i>
    <i name="e_wo_entrp">   -224.13877045 </i>
    <i name="e_0_energy">   -224.13877045 </i>
   </energy>
  </scstep>
  <scstep>
   <time name="dav">    9.50    9.55</time>
   <time name="total">    9.83    9.88</time>
   <energy>
    <i name="e_fr_energy">   -223.77844641 </i>
    <i name="e_wo_entrp">   -223.77844641 </i>
    <i name="e_0_energy">   -223.77844641 </i>
   </energy>
  </scstep>
  <scstep>
   <time name="dav">    8.33    8.37</time>
   <time name="total">    8.66    8.71</time>
   <energy>
    <i name="e_fr_energy">   -223.90367175 </i>
    <i name="e_wo_entrp">   -223.90367175 </i>
    <i name="e_0_energy">   -223.90367175 </i>
   </energy>
  </scstep>
  <scstep>
   <time name="dav">    8.86    8.91</time>
   <time name="total">    9.19    9.24</time>
   <energy>
    <i name="e_fr_energy">   -223.89820324 </i>
    <i name="e_wo_entrp">   -223.89820324 </i>
    <i name="e_0_energy">   -223.89820324 </i>
   </energy>
  </scstep>
  <scstep>
   <time name="dav">    8.29    8.33</time>
   <time name="total">    8.62    8.67</time>
   <energy>
    <i name="e_fr_energy">   -223.90254181 </i>
    <i name="e_wo_entrp">   -223.90254181 </i>
    <i name="e_0_energy">   -223.90254181 </i>
   </energy>
  </scstep>
  <scstep>
   <time name="dav">    8.81    8.86</time>
   <time name="total">    9.15    9.20</time>
   <energy>
    <i name="e_fr_energy">   -223.90178500 </i>
    <i name="e_wo_entrp">   -223.90178500 </i>
    <i name="e_0_energy">   -223.90178500 </i>
   </energy>
  </scstep>
  <scstep>
   <time name="dav">    9.19    9.24</time>
   <time name="total">    9.52    9.58</time>
   <energy>
    <i name="e_fr_energy">   -223.90175417 </i>
    <i name="e_wo_entrp">   -223.90175417 </i>
    <i name="e_0_energy">   -223.90175417 </i>
   </energy>
  </scstep>
  <scstep>
   <time name="dav">    8.49    8.54</time>
   <time name="total">    8.82    8.88</time>
   <energy>
    <i name="e_fr_energy">   -223.90176236 </i>
    <i name="e_wo_entrp">   -223.90176236 </i>
    <i name="e_0_energy">   -223.90176236 </i>
   </energy>
  </scstep>
  <scstep>
   <time name="dav">    9.45    9.50</time>
   <time name="total">    9.78    9.84</time>
   <energy>
    <i name="e_fr_energy">   -223.90176182 </i>
    <i name="e_wo_entrp">   -223.90176182 </i>
    <i name="e_0_energy">   -223.90176182 </i>
   </energy>
  </scstep>
  <scstep>
   <time name="dav">    7.65    7.70</time>
   <time name="total">    7.99    8.04</time>
   <energy>
    <i name="e_fr_energy">   -223.90176311 </i>
    <i name="e_wo_entrp">   -223.90176311 </i>
    <i name="e_0_energy">   -223.90176311 </i>
   </energy>
  </scstep>
  <scstep>
   <time name="dav">    7.78    7.82</time>
   <time name="total">    8.11    8.16</time>
   <energy>
    <i name="e_fr_energy">   -223.90176347 </i>
    <i name="e_wo_entrp">   -223.90176347 </i>
    <i name="e_0_energy">   -223.90176347 </i>
   </energy>
  </scstep>
  <scstep>
   <time name="dav">    5.81    5.85</time>
   <time name="total">    5.88    5.91</time>
   <energy>
    <i name="alphaZ">    751.52672365 </i>
    <i name="ewald"> -22871.39982569 </i>
    <i name="hartreedc">  -9078.09768150 </i>
    <i name="XCdc">   1472.51291663 </i>
    <i name="pawpsdc">  29498.20615787 </i>
    <i name="pawaedc"> -32317.57045460 </i>
    <i name="eentropy">     -0.00000000 </i>
    <i name="bandstr">  -5211.25906976 </i>
    <i name="atom">  37532.17946992 </i>
    <i name="e_fr_energy">   -223.90176347 </i>
    <i name="e_wo_entrp">   -223.90176347 </i>
    <i name="e_0_energy">   -223.90176347 </i>
   </energy>
  </scstep>
  <structure>
   <crystal>
    <varray name="basis" >
     <v>      11.20400236       0.00000000       0.00000000 </v>
     <v>       0.00000000      11.20400236       0.00000000 </v>
     <v>       0.00000000       0.00000000      11.20400236 </v>
    </varray>
    <i name="volume">   1406.43470641 </i>
    <varray name="rec_basis" >
     <v>       0.08925382       0.00000000       0.00000000 </v>
     <v>       0.00000000       0.08925382       0.00000000 </v>
     <v>       0.00000000       0.00000000       0.08925382 </v>
    </varray>
   </crystal>
   <varray name="positions" >
    <v>       0.00267761       0.00000000       0.00000000 </v>
    <v>       0.25000000       0.25000000       0.00000000 </v>
    <v>       0.25000000       0.00000000       0.25000000 </v>
    <v>       0.00000000       0.25000000       0.25000000 </v>
    <v>       0.00000000       0.00000000       0.50000000 </v>
    <v>       0.25000000       0.25000000       0.50000000 </v>
    <v>       0.25000000       0.00000000       0.75000000 </v>
    <v>       0.00000000       0.25000000       0.75000000 </v>
    <v>       0.00000000       0.50000000       0.00000000 </v>
    <v>       0.25000000       0.75000000       0.00000000 </v>
    <v>       0.25000000       0.50000000       0.25000000 </v>
    <v>       0.00000000       0.75000000       0.25000000 </v>
    <v>       0.00000000       0.50000000       0.50000000 </v>
    <v>       0.25000000       0.75000000       0.50000000 </v>
    <v>       0.25000000       0.50000000       0.75000000 </v>
    <v>       0.00000000       0.75000000       0.75000000 </v>
    <v>       0.50000000       0.00000000       0.00000000 </v>
    <v>       0.75000000       0.25000000       0.00000000 </v>
    <v>       0.75000000       0.00000000       0.25000000 </v>
    <v>       0.50000000       0.25000000       0.25000000 </v>
    <v>       0.50000000       0.00000000       0.50000000 </v>
    <v>       0.75000000       0.25000000       0.50000000 </v>
    <v>       0.75000000       0.00000000       0.75000000 </v>
    <v>       0.50000000       0.25000000       0.75000000 </v>
    <v>       0.50000000       0.50000000       0.00000000 </v>
    <v>       0.75000000       0.75000000       0.00000000 </v>
    <v>       0.75000000       0.50000000       0.25000000 </v>
    <v>       0.50000000       0.75000000       0.25000000 </v>
    <v>       0.50000000       0.50000000       0.50000000 </v>
    <v>       0.75000000       0.75000000       0.50000000 </v>
    <v>       0.75000000       0.50000000       0.75000000 </v>
    <v>       0.50000000       0.75000000       0.75000000 </v>
    <v>       0.25000000       0.25000000       0.25000000 </v>
    <v>       0.00000000       0.00000000       0.25000000 </v>
    <v>       0.00000000       0.25000000       0.00000000 </v>
    <v>       0.25000000       0.00000000       0.00000000 </v>
    <v>       0.25000000       0.25000000       0.75000000 </v>
    <v>       0.00000000       0.00000000       0.75000000 </v>
    <v>       0.00000000       0.25000000       0.50000000 </v>
    <v>       0.25000000       0.00000000       0.50000000 </v>
    <v>       0.25000000       0.75000000       0.25000000 </v>
    <v>       0.00000000       0.50000000       0.25000000 </v>
    <v>       0.00000000       0.75000000       0.00000000 </v>
    <v>       0.25000000       0.50000000       0.00000000 </v>
    <v>       0.25000000       0.75000000       0.75000000 </v>
    <v>       0.00000000       0.50000000       0.75000000 </v>
    <v>       0.00000000       0.75000000       0.50000000 </v>
    <v>       0.25000000       0.50000000       0.50000000 </v>
    <v>       0.75000000       0.25000000       0.25000000 </v>
    <v>       0.50000000       0.00000000       0.25000000 </v>
    <v>       0.50000000       0.25000000       0.00000000 </v>
    <v>       0.75000000       0.00000000       0.00000000 </v>
    <v>       0.75000000       0.25000000       0.75000000 </v>
    <v>       0.50000000       0.00000000       0.75000000 </v>
    <v>       0.50000000       0.25000000       0.50000000 </v>
    <v>       0.75000000       0.00000000       0.50000000 </v>
    <v>       0.75000000       0.75000000       0.25000000 </v>
    <v>       0.50000000       0.50000000       0.25000000 </v>
    <v>       0.50000000       0.75000000       0.00000000 </v>
    <v>       0.75000000       0.50000000       0.00000000 </v>
    <v>       0.75000000       0.75000000       0.75000000 </v>
    <v>       0.50000000       0.50000000       0.75000000 </v>
    <v>       0.50000000       0.75000000       0.50000000 </v>
    <v>       0.75000000       0.50000000       0.50000000 </v>
   </varray>
  </structure>
  <varray name="forces" >
   <v>      -0.06281819       0.00000000      -0.00000000 </v>
   <v>       0.00151331       0.00592693      -0.00000000 </v>
   <v>       0.00151331       0.00000000       0.00592693 </v>
   <v>      -0.00166291      -0.00001954      -0.00001954 </v>
   <v>      -0.00005008       0.00000000      -0.00000000 </v>
   <v>      -0.00003377      -0.00007745      -0.00000000 </v>
   <v>       0.00151331       0.00000000      -0.00592693 </v>
   <v>      -0.00166291      -0.00001954       0.00001954 </v>
   <v>      -0.00005008       0.00000000      -0.00000000 </v>
   <v>       0.00151331      -0.00592693      -0.00000000 </v>
   <v>      -0.00003377       0.00000000      -0.00007745 </v>
   <v>      -0.00166291       0.00001954      -0.00001954 </v>
   <v>      -0.00045182       0.00000000      -0.00000000 </v>
   <v>      -0.00003377       0.00007745      -0.00000000 </v>
   <v>      -0.00003377       0.00000000       0.00007745 </v>
   <v>      -0.00166291       0.00001954       0.00001954 </v>
   <v>       0.00891612       0.00000000      -0.00000000 </v>
   <v>       0.00150798      -0.00580228      -0.00000000 </v>
   <v>       0.00150798       0.00000000      -0.00580228 </v>
   <v>       0.00116192       0.00000452       0.00000452 </v>
   <v>       0.00030765       0.00000000      -0.00000000 </v>
   <v>      -0.00002120       0.00007326      -0.00000000 </v>
   <v>       0.00150798       0.00000000       0.00580228 </v>
   <v>       0.00116192       0.00000452      -0.00000452 </v>
   <v>       0.00030765       0.00000000      -0.00000000 </v>
   <v>       0.00150798       0.00580228      -0.00000000 </v>
   <v>      -0.00002120       0.00000000       0.00007326 </v>
   <v>       0.00116192      -0.00000452       0.00000452 </v>
   <v>       0.00043990       0.00000000      -0.00000000 </v>
   <v>      -0.00002120      -0.00007326      -0.00000000 </v>
   <v>      -0.00002120       0.00000000      -0.00007326 </v>
   <v>       0.00116192      -0.00000452      -0.00000452 </v>
   <v>      -0.00021809      -0.00130552      -0.00130552 </v>
   <v>       0.00498960       0.00000000      -0.00012136 </v>
   <v>       0.00498960      -0.00012136      -0.00000000 </v>
   <v>       0.02022469       0.00000000      -0.00000000 </v>
   <v>      -0.00021809      -0.00130552       0.00130552 </v>
   <v>       0.00498960       0.00000000       0.00012136 </v>
   <v>       0.00058976       0.00000807      -0.00000000 </v>
   <v>       0.00016895       0.00000000      -0.00000000 </v>
   <v>      -0.00021809       0.00130552      -0.00130552 </v>
   <v>       0.00058976       0.00000000       0.00000807 </v>
   <v>       0.00498960       0.00012136      -0.00000000 </v>
   <v>       0.00016895       0.00000000      -0.00000000 </v>
   <v>      -0.00021809       0.00130552       0.00130552 </v>
   <v>       0.00058976       0.00000000      -0.00000807 </v>
   <v>       0.00058976      -0.00000807      -0.00000000 </v>
   <v>      -0.00000177       0.00000000      -0.00000000 </v>
   <v>      -0.00024079       0.00128266       0.00128266 </v>
   <v>      -0.00282575       0.00000000      -0.00001532 </v>
   <v>      -0.00282575      -0.00001532      -0.00000000 </v>
   <v>       0.01617272       0.00000000      -0.00000000 </v>
   <v>      -0.00024079       0.00128266      -0.00128266 </v>
   <v>      -0.00282575       0.00000000       0.00001532 </v>
   <v>      -0.00066072       0.00000330      -0.00000000 </v>
   <v>       0.00014102       0.00000000      -0.00000000 </v>
   <v>      -0.00024079      -0.00128266       0.00128266 </v>
   <v>      -0.00066072       0.00000000       0.00000330 </v>
   <v>      -0.00282575       0.00001532      -0.00000000 </v>
   <v>       0.00014102       0.00000000      -0.00000000 </v>
   <v>      -0.00024079      -0.00128266      -0.00128266 </v>
   <v>      -0.00066072       0.00000000      -0.00000330 </v>
   <v>      -0.00066072      -0.00000330      -0.00000000 </v>
   <v>      -0.00001410       0.00000000      -0.00000000 </v>
  </varray>
  <varray name="stress" >
   <v>      -0.36681917       0.00000000      -0.00000000 </v>
   <v>       0.00000000      -0.37822963       0.00000000 </v>
   <v>      -0.00000000       0.00000000      -0.37822963 </v>
  </varray>
  <energy>
   <i name="e_fr_energy">   -223.90176347 </i>
   <i name="e_wo_entrp">   -223.90176347 </i>
   <i name="e_0_energy">   -223.90176347 </i>
  </energy>
  <time name="totalsc">  158.44  159.33</time>
  <eigenvalues>
   <array>
    <dimension dim="1">band</dimension>
    <dimension dim="2">kpoint</dimension>
    <dimension dim="3">spin</dimension>
    <field>eigene</field>
    <field>occ</field>
    <set>
     <set comment="spin 1">
      <set comment="kpoint 1">
       <r>  -21.3046    1.0000 </r>
       <r>  -21.3044    1.0000 </r>
       <r>  -21.3038    1.0000 </r>
       <r>  -21.3038    1.0000 </r>
       <r>  -21.2948    1.0000 </r>
       <r>  -21.2946    1.0000 </r>
       <r>  -21.2945    1.0000 </r>
       <r>  -21.2945    1.0000 </r>
       <r>  -21.2937    1.0000 </r>
       <r>  -21.2936    1.0000 </r>
       <r>  -21.2936    1.0000 </r>
       <r>  -21.2936    1.0000 </r>
       <r>  -21.2929    1.0000 </r>
       <r>  -21.2929    1.0000 </r>
       <r>  -21.2928    1.0000 </r>
       <r>  -21.2928    1.0000 </r>
       <r>  -21.2928    1.0000 </r>
       <r>  -21.2922    1.0000 </r>
       <r>  -21.2913    1.0000 </r>
       <r>  -21.2875    1.0000 </r>
       <r>  -21.2875    1.0000 </r>
       <r>  -21.2868    1.0000 </r>
       <r>  -21.2864    1.0000 </r>
       <r>  -21.2862    1.0000 </r>
       <r>  -21.2860    1.0000 </r>
       <r>  -21.2856    1.0000 </r>
       <r>  -21.2856    1.0000 </r>
       <r>  -21.2856    1.0000 </r>
       <r>  -21.2856    1.0000 </r>
       <r>  -21.2854    1.0000 </r>
       <r>  -21.2854    1.0000 </r>
       <r>  -21.2839    1.0000 </r>
       <r>  -21.2837    1.0000 </r>
       <r>  -21.2835    1.0000 </r>
       <r>  -21.2833    1.0000 </r>
       <r>  -21.2833    1.0000 </r>
       <r>  -21.2831    1.0000 </r>
       <r>  -21.2829    1.0000 </r>
       <r>  -21.2815    1.0000 </r>
       <r>  -21.2814    1.0000 </r>
       <r>  -21.2814    1.0000 </r>
       <r>  -21.2813    1.0000 </r>
       <r>  -21.2811    1.0000 </r>
       <r>  -21.2807    1.0000 </r>
       <r>  -21.2807    1.0000 </r>
       <r>  -21.2806    1.0000 </r>
       <r>  -21.2806    1.0000 </r>
       <r>  -21.2803    1.0000 </r>
       <r>  -21.2799    1.0000 </r>
       <r>  -21.2799    1.0000 </r>
       <r>  -21.2799    1.0000 </r>
       <r>  -21.2799    1.0000 </r>
       <r>  -21.2799    1.0000 </r>
       <r>  -21.2798    1.0000 </r>
       <r>  -21.2796    1.0000 </r>
       <r>  -21.2792    1.0000 </r>
       <r>  -21.2792    1.0000 </r>
       <r>  -21.2787    1.0000 </r>
       <r>  -21.2775    1.0000 </r>
       <r>  -21.2775    1.0000 </r>
       <r>  -21.2767    1.0000 </r>
       <r>  -21.2751    1.0000 </r>
       <r>  -21.2749    1.0000 </r>
       <r>  -21.2749    1.0000 </r>
       <r>  -21.2749    1.0000 </r>
       <r>  -21.2747    1.0000 </r>
       <r>  -21.2746    1.0000 </r>
       <r>  -21.2745    1.0000 </r>
       <r>  -21.2745    1.0000 </r>
       <r>  -21.2741    1.0000 </r>
       <r>  -21.2741    1.0000 </r>
       <r>  -21.2736    1.0000 </r>
       <r>  -21.2734    1.0000 </r>
       <r>  -21.2725    1.0000 </r>
       <r>  -21.2725    1.0000 </r>
       <r>  -21.2718    1.0000 </r>
       <r>  -21.2718    1.0000 </r>
       <r>  -21.2718    1.0000 </r>
       <r>  -21.2718    1.0000 </r>
       <r>  -21.2718    1.0000 </r>
       <r>  -21.2717    1.0000 </r>
       <r>  -21.2717    1.0000 </r>
       <r>  -21.2716    1.0000 </r>
       <r>  -21.2713    1.0000 </r>
       <r>  -21.2713    1.0000 </r>
       <r>  -21.2712    1.0000 </r>
       <r>  -21.2711    1.0000 </r>
       <r>  -21.2709    1.0000 </r>
       <r>  -21.2703    1.0000 </r>
       <r>  -21.2697    1.0000 </r>
       <r>  -21.2697    1.0000 </r>
       <r>  -21.2684    1.0000 </r>
       <r>  -21.2678    1.0000 </r>
       <r>  -21.2677    1.0000 </r>
       <r>  -21.2677    1.0000 </r>
       <r>  -21.2674    1.0000 </r>
       <r>  -13.3580    1.0000 </r>
       <r>  -13.1425    1.0000 </r>
       <r>  -13.1373    1.0000 </r>
       <r>  -13.1373    1.0000 </r>
       <r>  -13.1373    1.0000 </r>
       <r>  -13.1373    1.0000 </r>
       <r>  -13.1335    1.0000 </r>
       <r>  -13.0215    1.0000 </r>
       <r>  -13.0115    1.0000 </r>
       <r>  -13.0112    1.0000 </r>
       <r>  -13.0112    1.0000 </r>
       <r>  -13.0112    1.0000 </r>
       <r>  -13.0112    1.0000 </r>
       <r>  -13.0112    1.0000 </r>
       <r>  -13.0111    1.0000 </r>
       <r>  -13.0111    1.0000 </r>
       <r>  -13.0111    1.0000 </r>
       <r>  -13.0111    1.0000 </r>
       <r>  -13.0044    1.0000 </r>
       <r>  -12.9900    1.0000 </r>
       <r>  -12.9900    1.0000 </r>
       <r>  -12.9897    1.0000 </r>
       <r>  -12.9886    1.0000 </r>
       <r>  -12.9412    1.0000 </r>
       <r>  -12.9408    1.0000 </r>
       <r>  -12.9403    1.0000 </r>
       <r>  -12.9245    1.0000 </r>
       <r>  -12.9215    1.0000 </r>
       <r>  -12.9215    1.0000 </r>
       <r>  -12.9215    1.0000 </r>
       <r>  -12.9215    1.0000 </r>
       <r>  -12.9152    1.0000 </r>
       <r>   -2.7000    1.0000 </r>
       <r>   -2.7000    1.0000 </r>
       <r>   -2.7000    1.0000 </r>
       <r>   -2.6999    1.0000 </r>
       <r>   -2.4240    1.0000 </r>
       <r>   -2.4240    1.0000 </r>
       <r>   -2.4240    1.0000 </r>
       <r>   -2.2073    1.0000 </r>
       <r>   -2.2073    1.0000 </r>
       <r>   -2.2052    1.0000 </r>
       <r>   -2.2045    1.0000 </r>
       <r>   -2.2045    1.0000 </r>
       <r>   -2.2042    1.0000 </r>
       <r>   -2.2042    1.0000 </r>
       <r>   -2.2042    1.0000 </r>
       <r>   -2.2039    1.0000 </r>
       <r>   -2.2032    1.0000 </r>
       <r>   -2.2013    1.0000 </r>
       <r>   -2.2013    1.0000 </r>
       <r>   -1.9277    1.0000 </r>
       <r>   -1.9277    1.0000 </r>
       <r>   -1.9251    1.0000 </r>
       <r>   -1.9251    1.0000 </r>
       <r>   -1.9248    1.0000 </r>
       <r>   -1.9247    1.0000 </r>
       <r>   -1.9246    1.0000 </r>
       <r>   -1.9246    1.0000 </r>
       <r>   -1.9241    1.0000 </r>
       <r>   -1.9241    1.0000 </r>
       <r>   -1.9217    1.0000 </r>
       <r>   -1.9217    1.0000 </r>
       <r>   -1.7977    1.0000 </r>
       <r>   -1.7966    1.0000 </r>
       <r>   -1.7966    1.0000 </r>
       <r>   -1.7966    1.0000 </r>
       <r>   -1.7966    1.0000 </r>
       <r>   -1.7956    1.0000 </r>
       <r>   -1.5061    1.0000 </r>
       <r>   -1.5061    1.0000 </r>
       <r>   -1.5059    1.0000 </r>
       <r>   -1.5057    1.0000 </r>
       <r>   -1.5057    1.0000 </r>
       <r>   -1.5055    1.0000 </r>
       <r>   -1.5053    1.0000 </r>
       <r>   -1.5053    1.0000 </r>
       <r>   -1.5052    1.0000 </r>
       <r>   -1.5050    1.0000 </r>
       <r>   -1.5044    1.0000 </r>
       <r>   -1.5044    1.0000 </r>
       <r>   -1.4636    1.0000 </r>
       <r>   -1.4629    1.0000 </r>
       <r>   -1.4626    1.0000 </r>
       <r>   -1.4626    1.0000 </r>
       <r>   -1.4624    1.0000 </r>
       <r>   -1.4621    1.0000 </r>
       <r>   -1.2947    1.0000 </r>
       <r>   -1.2947    1.0000 </r>
       <r>   -1.2947    1.0000 </r>
       <r>   -1.2947    1.0000 </r>
       <r>   -1.2947    1.0000 </r>
       <r>   -1.2947    1.0000 </r>
       <r>   -1.0039    1.0000 </r>
       <r>   -1.0039    1.0000 </r>
       <r>   -1.0028    1.0000 </r>
       <r>   -1.0011    1.0000 </r>
       <r>   -1.0011    1.0000 </r>
       <r>   -1.0007    1.0000 </r>
       <r>   -1.0007    1.0000 </r>
       <r>   -1.0007    1.0000 </r>
       <r>   -1.0003    1.0000 </r>
       <r>   -1.0003    1.0000 </r>
       <r>   -0.9981    1.0000 </r>
       <r>   -0.9981    1.0000 </r>
       <r>   -0.9526    1.0000 </r>
       <r>   -0.9526    1.0000 </r>
       <r>   -0.9486    1.0000 </r>
       <r>   -0.9479    1.0000 </r>
       <r>   -0.9479    1.0000 </r>
       <r>   -0.9479    1.0000 </r>
       <r>   -0.9478    1.0000 </r>
       <r>   -0.9478    1.0000 </r>
       <r>   -0.9473    1.0000 </r>
       <r>   -0.9473    1.0000 </r>
       <r>   -0.9472    1.0000 </r>
       <r>   -0.9470    1.0000 </r>
       <r>   -0.9458    1.0000 </r>
       <r>   -0.9458    1.0000 </r>
       <r>   -0.9458    1.0000 </r>
       <r>   -0.9458    1.0000 </r>
       <r>   -0.9456    1.0000 </r>
       <r>   -0.9443    1.0000 </r>
       <r>   -0.9410    1.0000 </r>
       <r>   -0.9410    1.0000 </r>
       <r>   -0.6649    1.0000 </r>
       <r>   -0.6649    1.0000 </r>
       <r>   -0.6649    1.0000 </r>
       <r>    4.3403    0.0000 </r>
       <r>    6.3656    0.0000 </r>
       <r>    6.3682    0.0000 </r>
       <r>    6.3682    0.0000 </r>
       <r>    6.3682    0.0000 </r>
       <r>    6.3682    0.0000 </r>
       <r>    6.3707    0.0000 </r>
       <r>    6.4446    0.0000 </r>
       <r>    6.4446    0.0000 </r>
       <r>    6.4446    0.0000 </r>
       <r>    6.4447    0.0000 </r>
       <r>    6.8279    0.0000 </r>
       <r>    6.8280    0.0000 </r>
       <r>    6.8280    0.0000 </r>
       <r>    7.2069    0.0000 </r>
       <r>    7.2069    0.0000 </r>
       <r>    7.2069    0.0000 </r>
       <r>    7.4612    0.0000 </r>
       <r>    7.4624    0.0000 </r>
       <r>    7.4624    0.0000 </r>
       <r>    7.4639    0.0000 </r>
       <r>    7.4641    0.0000 </r>
       <r>    7.4642    0.0000 </r>
       <r>    7.4642    0.0000 </r>
       <r>    7.4642    0.0000 </r>
       <r>    7.4645    0.0000 </r>
       <r>    7.4660    0.0000 </r>
       <r>    7.4660    0.0000 </r>
       <r>    7.4672    0.0000 </r>
       <r>    8.1666    0.0000 </r>
       <r>    8.1684    0.0000 </r>
       <r>    8.1684    0.0000 </r>
       <r>    8.1684    0.0000 </r>
       <r>    8.1684    0.0000 </r>
       <r>    8.1702    0.0000 </r>
       <r>    8.2770    0.0000 </r>
       <r>    8.2795    0.0000 </r>
       <r>    8.2795    0.0000 </r>
       <r>    8.2796    0.0000 </r>
       <r>    8.2796    0.0000 </r>
       <r>    8.2821    0.0000 </r>
       <r>    8.8966    0.0000 </r>
       <r>    8.8967    0.0000 </r>
       <r>    8.8974    0.0000 </r>
       <r>    8.9006    0.0000 </r>
       <r>    8.9006    0.0000 </r>
       <r>    8.9009    0.0000 </r>
       <r>    8.9011    0.0000 </r>
       <r>    8.9011    0.0000 </r>
       <r>    8.9018    0.0000 </r>
       <r>    8.9037    0.0000 </r>
       <r>    8.9038    0.0000 </r>
       <r>    8.9057    0.0000 </r>
       <r>    8.9136    0.0000 </r>
       <r>    8.9145    0.0000 </r>
       <r>    8.9155    0.0000 </r>
       <r>    8.9159    0.0000 </r>
       <r>    8.9167    0.0000 </r>
       <r>    8.9168    0.0000 </r>
       <r>    8.9175    0.0000 </r>
       <r>    8.9182    0.0000 </r>
       <r>    8.9188    0.0000 </r>
       <r>    8.9207    0.0000 </r>
       <r>    8.9218    0.0000 </r>
      </set>
      <set comment="kpoint 2">
       <r>  -21.3024    1.0000 </r>
       <r>  -21.3020    1.0000 </r>
       <r>  -21.3002    1.0000 </r>
       <r>  -21.3002    1.0000 </r>
       <r>  -21.2984    1.0000 </r>
       <r>  -21.2984    1.0000 </r>
       <r>  -21.2969    1.0000 </r>
       <r>  -21.2968    1.0000 </r>
       <r>  -21.2937    1.0000 </r>
       <r>  -21.2935    1.0000 </r>
       <r>  -21.2935    1.0000 </r>
       <r>  -21.2925    1.0000 </r>
       <r>  -21.2923    1.0000 </r>
       <r>  -21.2923    1.0000 </r>
       <r>  -21.2922    1.0000 </r>
       <r>  -21.2919    1.0000 </r>
       <r>  -21.2915    1.0000 </r>
       <r>  -21.2915    1.0000 </r>
       <r>  -21.2912    1.0000 </r>
       <r>  -21.2896    1.0000 </r>
       <r>  -21.2894    1.0000 </r>
       <r>  -21.2894    1.0000 </r>
       <r>  -21.2883    1.0000 </r>
       <r>  -21.2882    1.0000 </r>
       <r>  -21.2882    1.0000 </r>
       <r>  -21.2878    1.0000 </r>
       <r>  -21.2873    1.0000 </r>
       <r>  -21.2872    1.0000 </r>
       <r>  -21.2872    1.0000 </r>
       <r>  -21.2869    1.0000 </r>
       <r>  -21.2864    1.0000 </r>
       <r>  -21.2864    1.0000 </r>
       <r>  -21.2863    1.0000 </r>
       <r>  -21.2860    1.0000 </r>
       <r>  -21.2833    1.0000 </r>
       <r>  -21.2827    1.0000 </r>
       <r>  -21.2827    1.0000 </r>
       <r>  -21.2827    1.0000 </r>
       <r>  -21.2826    1.0000 </r>
       <r>  -21.2821    1.0000 </r>
       <r>  -21.2821    1.0000 </r>
       <r>  -21.2801    1.0000 </r>
       <r>  -21.2800    1.0000 </r>
       <r>  -21.2796    1.0000 </r>
       <r>  -21.2796    1.0000 </r>
       <r>  -21.2789    1.0000 </r>
       <r>  -21.2789    1.0000 </r>
       <r>  -21.2778    1.0000 </r>
       <r>  -21.2778    1.0000 </r>
       <r>  -21.2776    1.0000 </r>
       <r>  -21.2776    1.0000 </r>
       <r>  -21.2773    1.0000 </r>
       <r>  -21.2769    1.0000 </r>
       <r>  -21.2769    1.0000 </r>
       <r>  -21.2768    1.0000 </r>
       <r>  -21.2768    1.0000 </r>
       <r>  -21.2765    1.0000 </r>
       <r>  -21.2764    1.0000 </r>
       <r>  -21.2764    1.0000 </r>
       <r>  -21.2763    1.0000 </r>
       <r>  -21.2763    1.0000 </r>
       <r>  -21.2758    1.0000 </r>
       <r>  -21.2754    1.0000 </r>
       <r>  -21.2754    1.0000 </r>
       <r>  -21.2752    1.0000 </r>
       <r>  -21.2752    1.0000 </r>
       <r>  -21.2751    1.0000 </r>
       <r>  -21.2748    1.0000 </r>
       <r>  -21.2744    1.0000 </r>
       <r>  -21.2743    1.0000 </r>
       <r>  -21.2743    1.0000 </r>
       <r>  -21.2740    1.0000 </r>
       <r>  -21.2735    1.0000 </r>
       <r>  -21.2735    1.0000 </r>
       <r>  -21.2731    1.0000 </r>
       <r>  -21.2731    1.0000 </r>
       <r>  -21.2729    1.0000 </r>
       <r>  -21.2728    1.0000 </r>
       <r>  -21.2722    1.0000 </r>
       <r>  -21.2720    1.0000 </r>
       <r>  -21.2720    1.0000 </r>
       <r>  -21.2718    1.0000 </r>
       <r>  -21.2718    1.0000 </r>
       <r>  -21.2718    1.0000 </r>
       <r>  -21.2718    1.0000 </r>
       <r>  -21.2717    1.0000 </r>
       <r>  -21.2717    1.0000 </r>
       <r>  -21.2714    1.0000 </r>
       <r>  -21.2704    1.0000 </r>
       <r>  -21.2701    1.0000 </r>
       <r>  -21.2699    1.0000 </r>
       <r>  -21.2699    1.0000 </r>
       <r>  -21.2681    1.0000 </r>
       <r>  -21.2681    1.0000 </r>
       <r>  -21.2678    1.0000 </r>
       <r>  -21.2675    1.0000 </r>
       <r>  -13.2938    1.0000 </r>
       <r>  -13.2888    1.0000 </r>
       <r>  -13.1046    1.0000 </r>
       <r>  -13.0982    1.0000 </r>
       <r>  -13.0982    1.0000 </r>
       <r>  -13.0973    1.0000 </r>
       <r>  -13.0964    1.0000 </r>
       <r>  -13.0955    1.0000 </r>
       <r>  -13.0955    1.0000 </r>
       <r>  -13.0909    1.0000 </r>
       <r>  -13.0092    1.0000 </r>
       <r>  -13.0033    1.0000 </r>
       <r>  -13.0006    1.0000 </r>
       <r>  -13.0006    1.0000 </r>
       <r>  -13.0005    1.0000 </r>
       <r>  -13.0005    1.0000 </r>
       <r>  -12.9979    1.0000 </r>
       <r>  -12.9970    1.0000 </r>
       <r>  -12.9965    1.0000 </r>
       <r>  -12.9908    1.0000 </r>
       <r>  -12.9504    1.0000 </r>
       <r>  -12.9451    1.0000 </r>
       <r>  -12.9451    1.0000 </r>
       <r>  -12.9442    1.0000 </r>
       <r>  -12.9433    1.0000 </r>
       <r>  -12.9424    1.0000 </r>
       <r>  -12.9424    1.0000 </r>
       <r>  -12.9380    1.0000 </r>
       <r>  -12.9348    1.0000 </r>
       <r>  -12.9312    1.0000 </r>
       <r>  -12.9311    1.0000 </r>
       <r>  -12.9237    1.0000 </r>
       <r>   -2.5080    1.0000 </r>
       <r>   -2.5080    1.0000 </r>
       <r>   -2.5064    1.0000 </r>
       <r>   -2.5050    1.0000 </r>
       <r>   -2.5036    1.0000 </r>
       <r>   -2.5023    1.0000 </r>
       <r>   -2.5007    1.0000 </r>
       <r>   -2.5007    1.0000 </r>
       <r>   -2.2901    1.0000 </r>
       <r>   -2.2901    1.0000 </r>
       <r>   -2.2852    1.0000 </r>
       <r>   -2.2852    1.0000 </r>
       <r>   -2.2769    1.0000 </r>
       <r>   -2.2715    1.0000 </r>
       <r>   -2.1416    1.0000 </r>
       <r>   -2.1369    1.0000 </r>
       <r>   -2.1366    1.0000 </r>
       <r>   -2.1366    1.0000 </r>
       <r>   -2.1363    1.0000 </r>
       <r>   -2.1363    1.0000 </r>
       <r>   -2.1358    1.0000 </r>
       <r>   -2.1313    1.0000 </r>
       <r>   -1.9878    1.0000 </r>
       <r>   -1.9878    1.0000 </r>
       <r>   -1.9859    1.0000 </r>
       <r>   -1.9854    1.0000 </r>
       <r>   -1.9853    1.0000 </r>
       <r>   -1.9849    1.0000 </r>
       <r>   -1.9832    1.0000 </r>
       <r>   -1.9832    1.0000 </r>
       <r>   -1.8122    1.0000 </r>
       <r>   -1.8122    1.0000 </r>
       <r>   -1.8105    1.0000 </r>
       <r>   -1.8100    1.0000 </r>
       <r>   -1.8075    1.0000 </r>
       <r>   -1.8070    1.0000 </r>
       <r>   -1.8054    1.0000 </r>
       <r>   -1.8054    1.0000 </r>
       <r>   -1.5000    1.0000 </r>
       <r>   -1.5000    1.0000 </r>
       <r>   -1.4955    1.0000 </r>
       <r>   -1.4955    1.0000 </r>
       <r>   -1.3859    1.0000 </r>
       <r>   -1.3804    1.0000 </r>
       <r>   -1.3803    1.0000 </r>
       <r>   -1.3752    1.0000 </r>
       <r>   -1.2149    1.0000 </r>
       <r>   -1.2149    1.0000 </r>
       <r>   -1.2100    1.0000 </r>
       <r>   -1.2100    1.0000 </r>
       <r>   -1.1930    1.0000 </r>
       <r>   -1.1930    1.0000 </r>
       <r>   -1.1930    1.0000 </r>
       <r>   -1.1912    1.0000 </r>
       <r>   -1.1905    1.0000 </r>
       <r>   -1.1904    1.0000 </r>
       <r>   -1.1892    1.0000 </r>
       <r>   -1.1892    1.0000 </r>
       <r>   -1.1795    1.0000 </r>
       <r>   -1.1760    1.0000 </r>
       <r>   -1.1754    1.0000 </r>
       <r>   -1.1754    1.0000 </r>
       <r>   -1.1734    1.0000 </r>
       <r>   -1.1734    1.0000 </r>
       <r>   -1.1725    1.0000 </r>
       <r>   -1.1678    1.0000 </r>
       <r>   -1.1625    1.0000 </r>
       <r>   -1.1625    1.0000 </r>
       <r>   -1.1612    1.0000 </r>
       <r>   -1.1609    1.0000 </r>
       <r>   -1.1585    1.0000 </r>
       <r>   -1.1583    1.0000 </r>
       <r>   -1.1560    1.0000 </r>
       <r>   -1.1560    1.0000 </r>
       <r>   -1.0856    1.0000 </r>
       <r>   -1.0807    1.0000 </r>
       <r>   -0.9517    1.0000 </r>
       <r>   -0.9517    1.0000 </r>
       <r>   -0.9469    1.0000 </r>
       <r>   -0.9469    1.0000 </r>
       <r>   -0.9468    1.0000 </r>
       <r>   -0.9468    1.0000 </r>
       <r>   -0.9422    1.0000 </r>
       <r>   -0.9422    1.0000 </r>
       <r>   -0.9383    1.0000 </r>
       <r>   -0.9329    1.0000 </r>
       <r>   -0.9324    1.0000 </r>
       <r>   -0.9324    1.0000 </r>
       <r>   -0.9323    1.0000 </r>
       <r>   -0.9323    1.0000 </r>
       <r>   -0.9320    1.0000 </r>
       <r>   -0.9260    1.0000 </r>
       <r>   -0.7707    1.0000 </r>
       <r>   -0.7707    1.0000 </r>
       <r>   -0.7660    1.0000 </r>
       <r>   -0.7660    1.0000 </r>
       <r>    5.0205    0.0000 </r>
       <r>    5.0242    0.0000 </r>
       <r>    6.7156    0.0000 </r>
       <r>    6.7166    0.0000 </r>
       <r>    6.7166    0.0000 </r>
       <r>    6.7178    0.0000 </r>
       <r>    6.7190    0.0000 </r>
       <r>    6.7202    0.0000 </r>
       <r>    6.7202    0.0000 </r>
       <r>    6.7210    0.0000 </r>
       <r>    6.8403    0.0000 </r>
       <r>    6.8404    0.0000 </r>
       <r>    6.8418    0.0000 </r>
       <r>    6.8418    0.0000 </r>
       <r>    6.8446    0.0000 </r>
       <r>    6.8446    0.0000 </r>
       <r>    6.8461    0.0000 </r>
       <r>    6.8461    0.0000 </r>
       <r>    6.9696    0.0000 </r>
       <r>    6.9726    0.0000 </r>
       <r>    7.3591    0.0000 </r>
       <r>    7.3623    0.0000 </r>
       <r>    7.3628    0.0000 </r>
       <r>    7.3659    0.0000 </r>
       <r>    7.4775    0.0000 </r>
       <r>    7.4830    0.0000 </r>
       <r>    7.7116    0.0000 </r>
       <r>    7.7116    0.0000 </r>
       <r>    7.7176    0.0000 </r>
       <r>    7.7176    0.0000 </r>
       <r>    8.2632    0.0000 </r>
       <r>    8.2637    0.0000 </r>
       <r>    8.2637    0.0000 </r>
       <r>    8.2659    0.0000 </r>
       <r>    8.2660    0.0000 </r>
       <r>    8.2682    0.0000 </r>
       <r>    8.2682    0.0000 </r>
       <r>    8.2686    0.0000 </r>
       <r>    8.5349    0.0000 </r>
       <r>    8.5349    0.0000 </r>
       <r>    8.5362    0.0000 </r>
       <r>    8.5365    0.0000 </r>
       <r>    8.5365    0.0000 </r>
       <r>    8.5366    0.0000 </r>
       <r>    8.5376    0.0000 </r>
       <r>    8.5379    0.0000 </r>
       <r>    8.5389    0.0000 </r>
       <r>    8.5395    0.0000 </r>
       <r>    8.5400    0.0000 </r>
       <r>    8.5401    0.0000 </r>
       <r>    8.5401    0.0000 </r>
       <r>    8.5412    0.0000 </r>
       <r>    8.5426    0.0000 </r>
       <r>    8.5426    0.0000 </r>
       <r>    8.9460    0.0000 </r>
       <r>    8.9485    0.0000 </r>
       <r>    8.9485    0.0000 </r>
       <r>    8.9502    0.0000 </r>
       <r>    8.9516    0.0000 </r>
       <r>    8.9533    0.0000 </r>
       <r>    8.9533    0.0000 </r>
       <r>    8.9558    0.0000 </r>
       <r>    9.4905    0.0000 </r>
       <r>    9.5036    0.0000 </r>
      </set>
      <set comment="kpoint 3">
       <r>  -21.3009    1.0000 </r>
       <r>  -21.3004    1.0000 </r>
       <r>  -21.2998    1.0000 </r>
       <r>  -21.2997    1.0000 </r>
       <r>  -21.2997    1.0000 </r>
       <r>  -21.2995    1.0000 </r>
       <r>  -21.2995    1.0000 </r>
       <r>  -21.2992    1.0000 </r>
       <r>  -21.2941    1.0000 </r>
       <r>  -21.2929    1.0000 </r>
       <r>  -21.2927    1.0000 </r>
       <r>  -21.2923    1.0000 </r>
       <r>  -21.2919    1.0000 </r>
       <r>  -21.2916    1.0000 </r>
       <r>  -21.2913    1.0000 </r>
       <r>  -21.2911    1.0000 </r>
       <r>  -21.2911    1.0000 </r>
       <r>  -21.2909    1.0000 </r>
       <r>  -21.2908    1.0000 </r>
       <r>  -21.2908    1.0000 </r>
       <r>  -21.2897    1.0000 </r>
       <r>  -21.2890    1.0000 </r>
       <r>  -21.2887    1.0000 </r>
       <r>  -21.2886    1.0000 </r>
       <r>  -21.2883    1.0000 </r>
       <r>  -21.2882    1.0000 </r>
       <r>  -21.2880    1.0000 </r>
       <r>  -21.2879    1.0000 </r>
       <r>  -21.2875    1.0000 </r>
       <r>  -21.2871    1.0000 </r>
       <r>  -21.2844    1.0000 </r>
       <r>  -21.2843    1.0000 </r>
       <r>  -21.2842    1.0000 </r>
       <r>  -21.2841    1.0000 </r>
       <r>  -21.2840    1.0000 </r>
       <r>  -21.2840    1.0000 </r>
       <r>  -21.2840    1.0000 </r>
       <r>  -21.2840    1.0000 </r>
       <r>  -21.2823    1.0000 </r>
       <r>  -21.2816    1.0000 </r>
       <r>  -21.2812    1.0000 </r>
       <r>  -21.2810    1.0000 </r>
       <r>  -21.2808    1.0000 </r>
       <r>  -21.2807    1.0000 </r>
       <r>  -21.2805    1.0000 </r>
       <r>  -21.2801    1.0000 </r>
       <r>  -21.2789    1.0000 </r>
       <r>  -21.2785    1.0000 </r>
       <r>  -21.2785    1.0000 </r>
       <r>  -21.2780    1.0000 </r>
       <r>  -21.2773    1.0000 </r>
       <r>  -21.2772    1.0000 </r>
       <r>  -21.2772    1.0000 </r>
       <r>  -21.2771    1.0000 </r>
       <r>  -21.2765    1.0000 </r>
       <r>  -21.2765    1.0000 </r>
       <r>  -21.2765    1.0000 </r>
       <r>  -21.2759    1.0000 </r>
       <r>  -21.2758    1.0000 </r>
       <r>  -21.2758    1.0000 </r>
       <r>  -21.2756    1.0000 </r>
       <r>  -21.2755    1.0000 </r>
       <r>  -21.2754    1.0000 </r>
       <r>  -21.2751    1.0000 </r>
       <r>  -21.2751    1.0000 </r>
       <r>  -21.2748    1.0000 </r>
       <r>  -21.2748    1.0000 </r>
       <r>  -21.2748    1.0000 </r>
       <r>  -21.2747    1.0000 </r>
       <r>  -21.2745    1.0000 </r>
       <r>  -21.2744    1.0000 </r>
       <r>  -21.2744    1.0000 </r>
       <r>  -21.2743    1.0000 </r>
       <r>  -21.2741    1.0000 </r>
       <r>  -21.2739    1.0000 </r>
       <r>  -21.2736    1.0000 </r>
       <r>  -21.2729    1.0000 </r>
       <r>  -21.2724    1.0000 </r>
       <r>  -21.2724    1.0000 </r>
       <r>  -21.2723    1.0000 </r>
       <r>  -21.2718    1.0000 </r>
       <r>  -21.2718    1.0000 </r>
       <r>  -21.2717    1.0000 </r>
       <r>  -21.2714    1.0000 </r>
       <r>  -21.2710    1.0000 </r>
       <r>  -21.2709    1.0000 </r>
       <r>  -21.2707    1.0000 </r>
       <r>  -21.2706    1.0000 </r>
       <r>  -21.2703    1.0000 </r>
       <r>  -21.2698    1.0000 </r>
       <r>  -21.2694    1.0000 </r>
       <r>  -21.2690    1.0000 </r>
       <r>  -21.2689    1.0000 </r>
       <r>  -21.2686    1.0000 </r>
       <r>  -21.2685    1.0000 </r>
       <r>  -21.2682    1.0000 </r>
       <r>  -13.2915    1.0000 </r>
       <r>  -13.2911    1.0000 </r>
       <r>  -13.1041    1.0000 </r>
       <r>  -13.0969    1.0000 </r>
       <r>  -13.0969    1.0000 </r>
       <r>  -13.0969    1.0000 </r>
       <r>  -13.0968    1.0000 </r>
       <r>  -13.0968    1.0000 </r>
       <r>  -13.0968    1.0000 </r>
       <r>  -13.0914    1.0000 </r>
       <r>  -13.0060    1.0000 </r>
       <r>  -13.0006    1.0000 </r>
       <r>  -13.0006    1.0000 </r>
       <r>  -13.0006    1.0000 </r>
       <r>  -13.0006    1.0000 </r>
       <r>  -13.0006    1.0000 </r>
       <r>  -13.0006    1.0000 </r>
       <r>  -13.0006    1.0000 </r>
       <r>  -12.9955    1.0000 </r>
       <r>  -12.9922    1.0000 </r>
       <r>  -12.9497    1.0000 </r>
       <r>  -12.9439    1.0000 </r>
       <r>  -12.9438    1.0000 </r>
       <r>  -12.9437    1.0000 </r>
       <r>  -12.9437    1.0000 </r>
       <r>  -12.9437    1.0000 </r>
       <r>  -12.9437    1.0000 </r>
       <r>  -12.9392    1.0000 </r>
       <r>  -12.9312    1.0000 </r>
       <r>  -12.9311    1.0000 </r>
       <r>  -12.9310    1.0000 </r>
       <r>  -12.9260    1.0000 </r>
       <r>   -2.5047    1.0000 </r>
       <r>   -2.5046    1.0000 </r>
       <r>   -2.5046    1.0000 </r>
       <r>   -2.5044    1.0000 </r>
       <r>   -2.5042    1.0000 </r>
       <r>   -2.5042    1.0000 </r>
       <r>   -2.5042    1.0000 </r>
       <r>   -2.5041    1.0000 </r>
       <r>   -2.2877    1.0000 </r>
       <r>   -2.2876    1.0000 </r>
       <r>   -2.2876    1.0000 </r>
       <r>   -2.2876    1.0000 </r>
       <r>   -2.2743    1.0000 </r>
       <r>   -2.2741    1.0000 </r>
       <r>   -2.1407    1.0000 </r>
       <r>   -2.1366    1.0000 </r>
       <r>   -2.1364    1.0000 </r>
       <r>   -2.1364    1.0000 </r>
       <r>   -2.1364    1.0000 </r>
       <r>   -2.1364    1.0000 </r>
       <r>   -2.1362    1.0000 </r>
       <r>   -2.1321    1.0000 </r>
       <r>   -1.9868    1.0000 </r>
       <r>   -1.9867    1.0000 </r>
       <r>   -1.9857    1.0000 </r>
       <r>   -1.9856    1.0000 </r>
       <r>   -1.9854    1.0000 </r>
       <r>   -1.9854    1.0000 </r>
       <r>   -1.9841    1.0000 </r>
       <r>   -1.9841    1.0000 </r>
       <r>   -1.8098    1.0000 </r>
       <r>   -1.8088    1.0000 </r>
       <r>   -1.8088    1.0000 </r>
       <r>   -1.8087    1.0000 </r>
       <r>   -1.8087    1.0000 </r>
       <r>   -1.8087    1.0000 </r>
       <r>   -1.8086    1.0000 </r>
       <r>   -1.8077    1.0000 </r>
       <r>   -1.4979    1.0000 </r>
       <r>   -1.4978    1.0000 </r>
       <r>   -1.4977    1.0000 </r>
       <r>   -1.4977    1.0000 </r>
       <r>   -1.3807    1.0000 </r>
       <r>   -1.3804    1.0000 </r>
       <r>   -1.3804    1.0000 </r>
       <r>   -1.3804    1.0000 </r>
       <r>   -1.2138    1.0000 </r>
       <r>   -1.2126    1.0000 </r>
       <r>   -1.2123    1.0000 </r>
       <r>   -1.2122    1.0000 </r>
       <r>   -1.1932    1.0000 </r>
       <r>   -1.1924    1.0000 </r>
       <r>   -1.1920    1.0000 </r>
       <r>   -1.1910    1.0000 </r>
       <r>   -1.1908    1.0000 </r>
       <r>   -1.1908    1.0000 </r>
       <r>   -1.1899    1.0000 </r>
       <r>   -1.1899    1.0000 </r>
       <r>   -1.1753    1.0000 </r>
       <r>   -1.1743    1.0000 </r>
       <r>   -1.1743    1.0000 </r>
       <r>   -1.1742    1.0000 </r>
       <r>   -1.1741    1.0000 </r>
       <r>   -1.1741    1.0000 </r>
       <r>   -1.1735    1.0000 </r>
       <r>   -1.1732    1.0000 </r>
       <r>   -1.1606    1.0000 </r>
       <r>   -1.1598    1.0000 </r>
       <r>   -1.1597    1.0000 </r>
       <r>   -1.1597    1.0000 </r>
       <r>   -1.1596    1.0000 </r>
       <r>   -1.1590    1.0000 </r>
       <r>   -1.1587    1.0000 </r>
       <r>   -1.1575    1.0000 </r>
       <r>   -1.0833    1.0000 </r>
       <r>   -1.0832    1.0000 </r>
       <r>   -0.9474    1.0000 </r>
       <r>   -0.9469    1.0000 </r>
       <r>   -0.9469    1.0000 </r>
       <r>   -0.9469    1.0000 </r>
       <r>   -0.9469    1.0000 </r>
       <r>   -0.9468    1.0000 </r>
       <r>   -0.9468    1.0000 </r>
       <r>   -0.9465    1.0000 </r>
       <r>   -0.9368    1.0000 </r>
       <r>   -0.9326    1.0000 </r>
       <r>   -0.9325    1.0000 </r>
       <r>   -0.9325    1.0000 </r>
       <r>   -0.9324    1.0000 </r>
       <r>   -0.9323    1.0000 </r>
       <r>   -0.9318    1.0000 </r>
       <r>   -0.9277    1.0000 </r>
       <r>   -0.7684    1.0000 </r>
       <r>   -0.7684    1.0000 </r>
       <r>   -0.7682    1.0000 </r>
       <r>   -0.7680    1.0000 </r>
       <r>    5.0224    0.0000 </r>
       <r>    5.0224    0.0000 </r>
       <r>    6.7150    0.0000 </r>
       <r>    6.7179    0.0000 </r>
       <r>    6.7183    0.0000 </r>
       <r>    6.7183    0.0000 </r>
       <r>    6.7184    0.0000 </r>
       <r>    6.7184    0.0000 </r>
       <r>    6.7188    0.0000 </r>
       <r>    6.7216    0.0000 </r>
       <r>    6.8425    0.0000 </r>
       <r>    6.8427    0.0000 </r>
       <r>    6.8428    0.0000 </r>
       <r>    6.8429    0.0000 </r>
       <r>    6.8436    0.0000 </r>
       <r>    6.8436    0.0000 </r>
       <r>    6.8437    0.0000 </r>
       <r>    6.8439    0.0000 </r>
       <r>    6.9711    0.0000 </r>
       <r>    6.9711    0.0000 </r>
       <r>    7.3625    0.0000 </r>
       <r>    7.3626    0.0000 </r>
       <r>    7.3626    0.0000 </r>
       <r>    7.3626    0.0000 </r>
       <r>    7.4802    0.0000 </r>
       <r>    7.4803    0.0000 </r>
       <r>    7.7146    0.0000 </r>
       <r>    7.7146    0.0000 </r>
       <r>    7.7146    0.0000 </r>
       <r>    7.7146    0.0000 </r>
       <r>    8.2627    0.0000 </r>
       <r>    8.2649    0.0000 </r>
       <r>    8.2659    0.0000 </r>
       <r>    8.2659    0.0000 </r>
       <r>    8.2660    0.0000 </r>
       <r>    8.2660    0.0000 </r>
       <r>    8.2670    0.0000 </r>
       <r>    8.2692    0.0000 </r>
       <r>    8.5353    0.0000 </r>
       <r>    8.5361    0.0000 </r>
       <r>    8.5371    0.0000 </r>
       <r>    8.5372    0.0000 </r>
       <r>    8.5381    0.0000 </r>
       <r>    8.5381    0.0000 </r>
       <r>    8.5382    0.0000 </r>
       <r>    8.5383    0.0000 </r>
       <r>    8.5385    0.0000 </r>
       <r>    8.5386    0.0000 </r>
       <r>    8.5387    0.0000 </r>
       <r>    8.5393    0.0000 </r>
       <r>    8.5397    0.0000 </r>
       <r>    8.5399    0.0000 </r>
       <r>    8.5407    0.0000 </r>
       <r>    8.5422    0.0000 </r>
       <r>    8.9447    0.0000 </r>
       <r>    8.9503    0.0000 </r>
       <r>    8.9509    0.0000 </r>
       <r>    8.9509    0.0000 </r>
       <r>    8.9509    0.0000 </r>
       <r>    8.9509    0.0000 </r>
       <r>    8.9515    0.0000 </r>
       <r>    8.9571    0.0000 </r>
       <r>    9.4969    0.0000 </r>
       <r>    9.5231    0.0000 </r>
      </set>
      <set comment="kpoint 4">
       <r>  -21.2997    1.0000 </r>
       <r>  -21.2992    1.0000 </r>
       <r>  -21.2980    1.0000 </r>
       <r>  -21.2979    1.0000 </r>
       <r>  -21.2978    1.0000 </r>
       <r>  -21.2973    1.0000 </r>
       <r>  -21.2972    1.0000 </r>
       <r>  -21.2963    1.0000 </r>
       <r>  -21.2945    1.0000 </r>
       <r>  -21.2943    1.0000 </r>
       <r>  -21.2942    1.0000 </r>
       <r>  -21.2937    1.0000 </r>
       <r>  -21.2936    1.0000 </r>
       <r>  -21.2936    1.0000 </r>
       <r>  -21.2934    1.0000 </r>
       <r>  -21.2931    1.0000 </r>
       <r>  -21.2926    1.0000 </r>
       <r>  -21.2921    1.0000 </r>
       <r>  -21.2920    1.0000 </r>
       <r>  -21.2919    1.0000 </r>
       <r>  -21.2916    1.0000 </r>
       <r>  -21.2910    1.0000 </r>
       <r>  -21.2909    1.0000 </r>
       <r>  -21.2904    1.0000 </r>
       <r>  -21.2901    1.0000 </r>
       <r>  -21.2900    1.0000 </r>
       <r>  -21.2877    1.0000 </r>
       <r>  -21.2872    1.0000 </r>
       <r>  -21.2870    1.0000 </r>
       <r>  -21.2869    1.0000 </r>
       <r>  -21.2864    1.0000 </r>
       <r>  -21.2859    1.0000 </r>
       <r>  -21.2826    1.0000 </r>
       <r>  -21.2817    1.0000 </r>
       <r>  -21.2815    1.0000 </r>
       <r>  -21.2810    1.0000 </r>
       <r>  -21.2808    1.0000 </r>
       <r>  -21.2805    1.0000 </r>
       <r>  -21.2805    1.0000 </r>
       <r>  -21.2804    1.0000 </r>
       <r>  -21.2803    1.0000 </r>
       <r>  -21.2800    1.0000 </r>
       <r>  -21.2799    1.0000 </r>
       <r>  -21.2796    1.0000 </r>
       <r>  -21.2796    1.0000 </r>
       <r>  -21.2794    1.0000 </r>
       <r>  -21.2787    1.0000 </r>
       <r>  -21.2785    1.0000 </r>
       <r>  -21.2784    1.0000 </r>
       <r>  -21.2783    1.0000 </r>
       <r>  -21.2782    1.0000 </r>
       <r>  -21.2780    1.0000 </r>
       <r>  -21.2778    1.0000 </r>
       <r>  -21.2778    1.0000 </r>
       <r>  -21.2777    1.0000 </r>
       <r>  -21.2775    1.0000 </r>
       <r>  -21.2770    1.0000 </r>
       <r>  -21.2769    1.0000 </r>
       <r>  -21.2765    1.0000 </r>
       <r>  -21.2765    1.0000 </r>
       <r>  -21.2764    1.0000 </r>
       <r>  -21.2758    1.0000 </r>
       <r>  -21.2757    1.0000 </r>
       <r>  -21.2756    1.0000 </r>
       <r>  -21.2754    1.0000 </r>
       <r>  -21.2748    1.0000 </r>
       <r>  -21.2748    1.0000 </r>
       <r>  -21.2745    1.0000 </r>
       <r>  -21.2742    1.0000 </r>
       <r>  -21.2741    1.0000 </r>
       <r>  -21.2739    1.0000 </r>
       <r>  -21.2738    1.0000 </r>
       <r>  -21.2738    1.0000 </r>
       <r>  -21.2737    1.0000 </r>
       <r>  -21.2735    1.0000 </r>
       <r>  -21.2735    1.0000 </r>
[...]
      </set>
     </set>
    </set>
   </array>
  </eigenvalues>
  <separator name="orbital magnetization" >
   <v name="MAGDIPOLOUT">      0.00000000      0.00000000      0.00000000</v>
  </separator>
  <dos>
   <i name="efermi">     -0.54985688 </i>
   <total>
    <array>
     <dimension dim="1">gridpoints</dimension>
     <dimension dim="2">spin</dimension>
     <field>energy</field>
     <field>total</field>
     <field>integrated</field>
     <set>
      <set comment="spin 1">
       <r>   -22.8460     0.0000     0.0000 </r>
       <r>   -22.7329     0.0000     0.0000 </r>
       <r>   -22.6199     0.0000     0.0000 </r>
       <r>   -22.5069     0.0000     0.0000 </r>
       <r>   -22.3938     0.0000     0.0000 </r>
       <r>   -22.2808     0.0000     0.0000 </r>
       <r>   -22.1678     0.0000     0.0000 </r>
       <r>   -22.0547     0.0000     0.0000 </r>
       <r>   -21.9417     0.0000     0.0000 </r>
       <r>   -21.8287     0.0000     0.0000 </r>
       <r>   -21.7156     0.0000     0.0000 </r>
       <r>   -21.6026     0.0000     0.0000 </r>
       <r>   -21.4895     0.0000     0.0000 </r>
       <r>   -21.3765     0.0000     0.0000 </r>
       <r>   -21.2635  1449.5984   163.8550 </r>
       <r>   -21.1504   248.9942   192.0000 </r>
       <r>   -21.0374     0.0000   192.0000 </r>
       <r>   -20.9244     0.0000   192.0000 </r>
       <r>   -20.8113     0.0000   192.0000 </r>
       <r>   -20.6983     0.0000   192.0000 </r>
       <r>   -20.5853     0.0000   192.0000 </r>
       <r>   -20.4722     0.0000   192.0000 </r>
       <r>   -20.3592     0.0000   192.0000 </r>
       <r>   -20.2462     0.0000   192.0000 </r>
       <r>   -20.1331     0.0000   192.0000 </r>
       <r>   -20.0201     0.0000   192.0000 </r>
       <r>   -19.9071     0.0000   192.0000 </r>
       <r>   -19.7940     0.0000   192.0000 </r>
       <r>   -19.6810     0.0000   192.0000 </r>
       <r>   -19.5680     0.0000   192.0000 </r>
       <r>   -19.4549     0.0000   192.0000 </r>
       <r>   -19.3419     0.0000   192.0000 </r>
       <r>   -19.2289     0.0000   192.0000 </r>
       <r>   -19.1158     0.0000   192.0000 </r>
       <r>   -19.0028     0.0000   192.0000 </r>
       <r>   -18.8897     0.0000   192.0000 </r>
       <r>   -18.7767     0.0000   192.0000 </r>
       <r>   -18.6637     0.0000   192.0000 </r>
       <r>   -18.5506     0.0000   192.0000 </r>
       <r>   -18.4376     0.0000   192.0000 </r>
       <r>   -18.3246     0.0000   192.0000 </r>
       <r>   -18.2115     0.0000   192.0000 </r>
       <r>   -18.0985     0.0000   192.0000 </r>
       <r>   -17.9855     0.0000   192.0000 </r>
       <r>   -17.8724     0.0000   192.0000 </r>
       <r>   -17.7594     0.0000   192.0000 </r>
       <r>   -17.6464     0.0000   192.0000 </r>
       <r>   -17.5333     0.0000   192.0000 </r>
       <r>   -17.4203     0.0000   192.0000 </r>
       <r>   -17.3073     0.0000   192.0000 </r>
       <r>   -17.1942     0.0000   192.0000 </r>
       <r>   -17.0812     0.0000   192.0000 </r>
       <r>   -16.9682     0.0000   192.0000 </r>
       <r>   -16.8551     0.0000   192.0000 </r>
       <r>   -16.7421     0.0000   192.0000 </r>
       <r>   -16.6291     0.0000   192.0000 </r>
       <r>   -16.5160     0.0000   192.0000 </r>
       <r>   -16.4030     0.0000   192.0000 </r>
       <r>   -16.2899     0.0000   192.0000 </r>
       <r>   -16.1769     0.0000   192.0000 </r>
       <r>   -16.0639     0.0000   192.0000 </r>
       <r>   -15.9508     0.0000   192.0000 </r>
       <r>   -15.8378     0.0000   192.0000 </r>
       <r>   -15.7248     0.0000   192.0000 </r>
       <r>   -15.6117     0.0000   192.0000 </r>
       <r>   -15.4987     0.0000   192.0000 </r>
       <r>   -15.3857     0.0000   192.0000 </r>
       <r>   -15.2726     0.0000   192.0000 </r>
       <r>   -15.1596     0.0000   192.0000 </r>
       <r>   -15.0466     0.0000   192.0000 </r>
       <r>   -14.9335     0.0000   192.0000 </r>
       <r>   -14.8205     0.0000   192.0000 </r>
       <r>   -14.7075     0.0000   192.0000 </r>
       <r>   -14.5944     0.0000   192.0000 </r>
       <r>   -14.4814     0.0000   192.0000 </r>
       <r>   -14.3684     0.0000   192.0000 </r>
       <r>   -14.2553     0.0000   192.0000 </r>
       <r>   -14.1423     0.0000   192.0000 </r>
       <r>   -14.0293     0.0000   192.0000 </r>
       <r>   -13.9162     0.0000   192.0000 </r>
       <r>   -13.8032     0.0000   192.0000 </r>
       <r>   -13.6901     0.0000   192.0000 </r>
       <r>   -13.5771     0.0000   192.0000 </r>
       <r>   -13.4641     0.0000   192.0000 </r>
       <r>   -13.3510     1.5258   192.1725 </r>
       <r>   -13.2380    22.7684   194.7461 </r>
       <r>   -13.1250    47.6192   200.1288 </r>
       <r>   -13.0119   134.6471   215.3488 </r>
       <r>   -12.8989   357.8766   255.8020 </r>
       <r>   -12.7859     1.7472   256.0000 </r>
       <r>   -12.6728     0.0000   256.0000 </r>
       <r>   -12.5598     0.0000   256.0000 </r>
       <r>   -12.4468     0.0000   256.0000 </r>
       <r>   -12.3337     0.0000   256.0000 </r>
       <r>   -12.2207     0.0000   256.0000 </r>
       <r>   -12.1077     0.0000   256.0000 </r>
       <r>   -11.9946     0.0000   256.0000 </r>
       <r>   -11.8816     0.0000   256.0000 </r>
       <r>   -11.7686     0.0000   256.0000 </r>
       <r>   -11.6555     0.0000   256.0000 </r>
       <r>   -11.5425     0.0000   256.0000 </r>
       <r>   -11.4295     0.0000   256.0000 </r>
       <r>   -11.3164     0.0000   256.0000 </r>
       <r>   -11.2034     0.0000   256.0000 </r>
       <r>   -11.0903     0.0000   256.0000 </r>
       <r>   -10.9773     0.0000   256.0000 </r>
       <r>   -10.8643     0.0000   256.0000 </r>
       <r>   -10.7512     0.0000   256.0000 </r>
       <r>   -10.6382     0.0000   256.0000 </r>
       <r>   -10.5252     0.0000   256.0000 </r>
       <r>   -10.4121     0.0000   256.0000 </r>
       <r>   -10.2991     0.0000   256.0000 </r>
       <r>   -10.1861     0.0000   256.0000 </r>
       <r>   -10.0730     0.0000   256.0000 </r>
       <r>    -9.9600     0.0000   256.0000 </r>
       <r>    -9.8470     0.0000   256.0000 </r>
       <r>    -9.7339     0.0000   256.0000 </r>
       <r>    -9.6209     0.0000   256.0000 </r>
       <r>    -9.5079     0.0000   256.0000 </r>
       <r>    -9.3948     0.0000   256.0000 </r>
       <r>    -9.2818     0.0000   256.0000 </r>
       <r>    -9.1688     0.0000   256.0000 </r>
       <r>    -9.0557     0.0000   256.0000 </r>
       <r>    -8.9427     0.0000   256.0000 </r>
       <r>    -8.8297     0.0000   256.0000 </r>
       <r>    -8.7166     0.0000   256.0000 </r>
       <r>    -8.6036     0.0000   256.0000 </r>
       <r>    -8.4905     0.0000   256.0000 </r>
       <r>    -8.3775     0.0000   256.0000 </r>
       <r>    -8.2645     0.0000   256.0000 </r>
       <r>    -8.1514     0.0000   256.0000 </r>
       <r>    -8.0384     0.0000   256.0000 </r>
       <r>    -7.9254     0.0000   256.0000 </r>
       <r>    -7.8123     0.0000   256.0000 </r>
       <r>    -7.6993     0.0000   256.0000 </r>
       <r>    -7.5863     0.0000   256.0000 </r>
       <r>    -7.4732     0.0000   256.0000 </r>
       <r>    -7.3602     0.0000   256.0000 </r>
       <r>    -7.2472     0.0000   256.0000 </r>
       <r>    -7.1341     0.0000   256.0000 </r>
       <r>    -7.0211     0.0000   256.0000 </r>
       <r>    -6.9081     0.0000   256.0000 </r>
       <r>    -6.7950     0.0000   256.0000 </r>
       <r>    -6.6820     0.0000   256.0000 </r>
       <r>    -6.5690     0.0000   256.0000 </r>
       <r>    -6.4559     0.0000   256.0000 </r>
       <r>    -6.3429     0.0000   256.0000 </r>
       <r>    -6.2299     0.0000   256.0000 </r>
       <r>    -6.1168     0.0000   256.0000 </r>
       <r>    -6.0038     0.0000   256.0000 </r>
       <r>    -5.8907     0.0000   256.0000 </r>
       <r>    -5.7777     0.0000   256.0000 </r>
       <r>    -5.6647     0.0000   256.0000 </r>
       <r>    -5.5516     0.0000   256.0000 </r>
       <r>    -5.4386     0.0000   256.0000 </r>
       <r>    -5.3256     0.0000   256.0000 </r>
       <r>    -5.2125     0.0000   256.0000 </r>
       <r>    -5.0995     0.0000   256.0000 </r>
       <r>    -4.9865     0.0000   256.0000 </r>
       <r>    -4.8734     0.0000   256.0000 </r>
       <r>    -4.7604     0.0000   256.0000 </r>
       <r>    -4.6474     0.0000   256.0000 </r>
       <r>    -4.5343     0.0000   256.0000 </r>
       <r>    -4.4213     0.0000   256.0000 </r>
       <r>    -4.3083     0.0000   256.0000 </r>
       <r>    -4.1952     0.0000   256.0000 </r>
       <r>    -4.0822     0.0000   256.0000 </r>
       <r>    -3.9692     0.0000   256.0000 </r>
       <r>    -3.8561     0.0000   256.0000 </r>
       <r>    -3.7431     0.0000   256.0000 </r>
       <r>    -3.6301     0.0000   256.0000 </r>
       <r>    -3.5170     0.0000   256.0000 </r>
       <r>    -3.4040     0.0000   256.0000 </r>
       <r>    -3.2909     0.0000   256.0000 </r>
       <r>    -3.1779     0.0000   256.0000 </r>
       <r>    -3.0649     0.0000   256.0000 </r>
       <r>    -2.9518     0.0000   256.0000 </r>
       <r>    -2.8388     0.0000   256.0000 </r>
       <r>    -2.7258     0.3026   256.0342 </r>
       <r>    -2.6127     8.5442   257.0000 </r>
       <r>    -2.4997    33.3675   260.7717 </r>
       <r>    -2.3867    77.6886   269.5532 </r>
       <r>    -2.2736    87.7181   279.4684 </r>
       <r>    -2.1606   152.1603   296.6681 </r>
       <r>    -2.0476    67.0761   304.2500 </r>
       <r>    -1.9345    59.5601   310.9824 </r>
       <r>    -1.8215    68.2834   318.7018 </r>
       <r>    -1.7085    62.3543   325.7500 </r>
       <r>    -1.5954     0.0000   325.7500 </r>
       <r>    -1.4824    93.7749   336.3498 </r>
       <r>    -1.3694   178.6061   356.5385 </r>
       <r>    -1.2563    20.5774   358.8645 </r>
       <r>    -1.1433   264.1280   388.7201 </r>
       <r>    -1.0303   130.6101   403.4852 </r>
       <r>    -0.9172   263.2154   433.2379 </r>
       <r>    -0.8042    58.7681   439.8810 </r>
       <r>    -0.6912    65.3926   447.2726 </r>
       <r>    -0.5781     6.4299   448.0000 </r>
       <r>    -0.4651     0.0000   448.0000 </r>
       <r>    -0.3520     0.0000   448.0000 </r>
       <r>    -0.2390     0.0000   448.0000 </r>
       <r>    -0.1260     0.0000   448.0000 </r>
       <r>    -0.0129     0.0000   448.0000 </r>
       <r>     0.1001     0.0000   448.0000 </r>
       <r>     0.2131     0.0000   448.0000 </r>
       <r>     0.3262     0.0000   448.0000 </r>
       <r>     0.4392     0.0000   448.0000 </r>
       <r>     0.5522     0.0000   448.0000 </r>
       <r>     0.6653     0.0000   448.0000 </r>
       <r>     0.7783     0.0000   448.0000 </r>
       <r>     0.8913     0.0000   448.0000 </r>
       <r>     1.0044     0.0000   448.0000 </r>
       <r>     1.1174     0.0000   448.0000 </r>
       <r>     1.2304     0.0000   448.0000 </r>
       <r>     1.3435     0.0000   448.0000 </r>
       <r>     1.4565     0.0000   448.0000 </r>
       <r>     1.5695     0.0000   448.0000 </r>
       <r>     1.6826     0.0000   448.0000 </r>
       <r>     1.7956     0.0000   448.0000 </r>
       <r>     1.9086     0.0000   448.0000 </r>
       <r>     2.0217     0.0000   448.0000 </r>
       <r>     2.1347     0.0000   448.0000 </r>
       <r>     2.2478     0.0000   448.0000 </r>
       <r>     2.3608     0.0000   448.0000 </r>
       <r>     2.4738     0.0000   448.0000 </r>
       <r>     2.5869     0.0000   448.0000 </r>
       <r>     2.6999     0.0000   448.0000 </r>
       <r>     2.8129     0.0000   448.0000 </r>
       <r>     2.9260     0.0000   448.0000 </r>
       <r>     3.0390     0.0000   448.0000 </r>
       <r>     3.1520     0.0000   448.0000 </r>
       <r>     3.2651     0.0000   448.0000 </r>
       <r>     3.3781     0.0000   448.0000 </r>
       <r>     3.4911     0.0000   448.0000 </r>
       <r>     3.6042     0.0000   448.0000 </r>
       <r>     3.7172     0.0000   448.0000 </r>
       <r>     3.8302     0.0000   448.0000 </r>
       <r>     3.9433     0.0000   448.0000 </r>
       <r>     4.0563     0.0000   448.0000 </r>
       <r>     4.1693     0.0000   448.0000 </r>
       <r>     4.2824     0.0000   448.0000 </r>
       <r>     4.3954     2.2116   448.2500 </r>
       <r>     4.5084     0.0000   448.2500 </r>
       <r>     4.6215     0.0000   448.2500 </r>
       <r>     4.7345     0.0000   448.2500 </r>
       <r>     4.8476     0.0000   448.2500 </r>
       <r>     4.9606     0.0001   448.2500 </r>
       <r>     5.0736    13.2682   449.7498 </r>
       <r>     5.1867     0.0000   449.7500 </r>
       <r>     5.2997     0.0000   449.7500 </r>
       <r>     5.4127     0.0000   449.7500 </r>
       <r>     5.5258     4.4481   450.2528 </r>
       <r>     5.6388    22.0924   452.7500 </r>
       <r>     5.7518     0.0000   452.7500 </r>
       <r>     5.8649    17.5185   454.7302 </r>
       <r>     5.9779     0.1752   454.7500 </r>
       <r>     6.0909     0.0000   454.7500 </r>
       <r>     6.2040     0.0000   454.7500 </r>
       <r>     6.3170     0.0021   454.7502 </r>
       <r>     6.4300    14.6059   456.4012 </r>
       <r>     6.5431     7.5090   457.2500 </r>
       <r>     6.6561    46.9218   462.5538 </r>
       <r>     6.7691    59.2307   469.2489 </r>
       <r>     6.8822    59.5539   475.9817 </r>
       <r>     6.9952    12.8459   477.4338 </r>
       <r>     7.1082     0.5861   477.5000 </r>
       <r>     7.2213     5.6134   478.1345 </r>
       <r>     7.3343     1.6443   478.3204 </r>
       <r>     7.4474    82.9888   487.7010 </r>
       <r>     7.5604   167.4054   506.6249 </r>
       <r>     7.6734     1.1580   506.7558 </r>
       <r>     7.7865    26.4894   509.7500 </r>
       <r>     7.8995     0.4295   509.7985 </r>
       <r>     8.0125    52.6515   515.7500 </r>
       <r>     8.1256     0.0167   515.7519 </r>
       <r>     8.2386    14.7472   517.4188 </r>
       <r>     8.3516    91.3962   527.7498 </r>
       <r>     8.4647     0.0000   527.7500 </r>
       <r>     8.5777   154.7164   545.2383 </r>
       <r>     8.6907     4.5267   545.7500 </r>
       <r>     8.8038     0.0000   545.7500 </r>
       <r>     8.9168    88.2515   555.7255 </r>
       <r>     9.0298   120.1609   569.3078 </r>
       <r>     9.1429     1.7000   569.5000 </r>
       <r>     9.2559    28.6610   572.7397 </r>
       <r>     9.3689    15.5732   574.5000 </r>
       <r>     9.4820     1.3916   574.6573 </r>
       <r>     9.5950    11.8786   576.0000 </r>
       <r>     9.7080     0.0000   576.0000 </r>
       <r>     9.8211     0.0000   576.0000 </r>
       <r>     9.9341     0.0000   576.0000 </r>
       <r>    10.0472     0.0000   576.0000 </r>
       <r>    10.1602     0.0000   576.0000 </r>
       <r>    10.2732     0.0000   576.0000 </r>
       <r>    10.3863     0.0000   576.0000 </r>
       <r>    10.4993     0.0000   576.0000 </r>
       <r>    10.6123     0.0000   576.0000 </r>
       <r>    10.7254     0.0000   576.0000 </r>
       <r>    10.8384     0.0000   576.0000 </r>
       <r>    10.9514     0.0000   576.0000 </r>
       <r>    11.0645     0.0000   576.0000 </r>
      </set>
     </set>
    </array>
   </total>
  </dos>
 </calculation>
 <structure name="finalpos" >
  <crystal>
   <varray name="basis" >
    <v>      11.20400236       0.00000000       0.00000000 </v>
    <v>       0.00000000      11.20400236       0.00000000 </v>
    <v>       0.00000000       0.00000000      11.20400236 </v>
   </varray>
   <i name="volume">   1406.43470641 </i>
   <varray name="rec_basis" >
    <v>       0.08925382       0.00000000       0.00000000 </v>
    <v>       0.00000000       0.08925382       0.00000000 </v>
    <v>       0.00000000       0.00000000       0.08925382 </v>
   </varray>
  </crystal>
  <varray name="positions" >
   <v>       0.00267761       0.00000000       0.00000000 </v>
   <v>       0.25000000       0.25000000       0.00000000 </v>
   <v>       0.25000000       0.00000000       0.25000000 </v>
   <v>       0.00000000       0.25000000       0.25000000 </v>
   <v>       0.00000000       0.00000000       0.50000000 </v>
   <v>       0.25000000       0.25000000       0.50000000 </v>
   <v>       0.25000000       0.00000000       0.75000000 </v>
   <v>       0.00000000       0.25000000       0.75000000 </v>
   <v>       0.00000000       0.50000000       0.00000000 </v>
   <v>       0.25000000       0.75000000       0.00000000 </v>
   <v>       0.25000000       0.50000000       0.25000000 </v>
   <v>       0.00000000       0.75000000       0.25000000 </v>
   <v>       0.00000000       0.50000000       0.50000000 </v>
   <v>       0.25000000       0.75000000       0.50000000 </v>
   <v>       0.25000000       0.50000000       0.75000000 </v>
   <v>       0.00000000       0.75000000       0.75000000 </v>
   <v>       0.50000000       0.00000000       0.00000000 </v>
   <v>       0.75000000       0.25000000       0.00000000 </v>
   <v>       0.75000000       0.00000000       0.25000000 </v>
   <v>       0.50000000       0.25000000       0.25000000 </v>
   <v>       0.50000000       0.00000000       0.50000000 </v>
   <v>       0.75000000       0.25000000       0.50000000 </v>
   <v>       0.75000000       0.00000000       0.75000000 </v>
   <v>       0.50000000       0.25000000       0.75000000 </v>
   <v>       0.50000000       0.50000000       0.00000000 </v>
   <v>       0.75000000       0.75000000       0.00000000 </v>
   <v>       0.75000000       0.50000000       0.25000000 </v>
   <v>       0.50000000       0.75000000       0.25000000 </v>
   <v>       0.50000000       0.50000000       0.50000000 </v>
   <v>       0.75000000       0.75000000       0.50000000 </v>
   <v>       0.75000000       0.50000000       0.75000000 </v>
   <v>       0.50000000       0.75000000       0.75000000 </v>
   <v>       0.25000000       0.25000000       0.25000000 </v>
   <v>       0.00000000       0.00000000       0.25000000 </v>
   <v>       0.00000000       0.25000000       0.00000000 </v>
   <v>       0.25000000       0.00000000       0.00000000 </v>
   <v>       0.25000000       0.25000000       0.75000000 </v>
   <v>       0.00000000       0.00000000       0.75000000 </v>
   <v>       0.00000000       0.25000000       0.50000000 </v>
   <v>       0.25000000       0.00000000       0.50000000 </v>
   <v>       0.25000000       0.75000000       0.25000000 </v>
   <v>       0.00000000       0.50000000       0.25000000 </v>
   <v>       0.00000000       0.75000000       0.00000000 </v>
   <v>       0.25000000       0.50000000       0.00000000 </v>
   <v>       0.25000000       0.75000000       0.75000000 </v>
   <v>       0.00000000       0.50000000       0.75000000 </v>
   <v>       0.00000000       0.75000000       0.50000000 </v>
   <v>       0.25000000       0.50000000       0.50000000 </v>
   <v>       0.75000000       0.25000000       0.25000000 </v>
   <v>       0.50000000       0.00000000       0.25000000 </v>
   <v>       0.50000000       0.25000000       0.00000000 </v>
   <v>       0.75000000       0.00000000       0.00000000 </v>
   <v>       0.75000000       0.25000000       0.75000000 </v>
   <v>       0.50000000       0.00000000       0.75000000 </v>
   <v>       0.50000000       0.25000000       0.50000000 </v>
   <v>       0.75000000       0.00000000       0.50000000 </v>
   <v>       0.75000000       0.75000000       0.25000000 </v>
   <v>       0.50000000       0.50000000       0.25000000 </v>
   <v>       0.50000000       0.75000000       0.00000000 </v>
   <v>       0.75000000       0.50000000       0.00000000 </v>
   <v>       0.75000000       0.75000000       0.75000000 </v>
   <v>       0.50000000       0.50000000       0.75000000 </v>
   <v>       0.50000000       0.75000000       0.50000000 </v>
   <v>       0.75000000       0.50000000       0.50000000 </v>
  </varray>
 </structure>
</modeling>
