<?xml version="1.0" encoding="ISO-8859-1"?>
<modeling>
 <generator>
  <i name="program" type="string">vasp </i>
  <i name="version" type="string">6.3.2  </i>
  <i name="subversion" type="string">27Jun22 (build Oct 14 2022 12:13:54) complex                          parallel </i>
  <i name="platform" type="string">LinuxIFC </i>
  <i name="date" type="string">2023 04 03 </i>
  <i name="time" type="string">14:25:48 </i>
 </generator>
 <incar>
  <i type="string" name="PREC">Accurate</i>
  <i type="int" name="IALGO">    38</i>
  <i type="logical" name="ADDGRID"> T  </i>
  <i type="int" name="NELMIN">     5</i>
  <i type="int" name="IBRION">    -1</i>
  <i name="EDIFF">      0.00000001</i>
  <i name="ENCUT">    318.00000000</i>
  <i type="logical" name="LREAL"> F  </i>
  <i type="int" name="ISMEAR">     0</i>
  <i name="SIGMA">      0.02000000</i>
  <i type="logical" name="LWAVE"> F  </i>
  <i type="logical" name="LCHARG"> F  </i>
  <i type="string" name="GGA">Ps</i>
 </incar>
 <primitive_cell>
  <structure name="primitive_cell" >
   <crystal>
    <varray name="basis" >
     <v>      10.86914512      -0.00000000      -0.00000000 </v>
     <v>      -0.00000000      10.86914512       0.00000000 </v>
     <v>       0.00000000       0.00000000      10.86914512 </v>
    </varray>
    <i name="volume">   1284.06249692 </i>
    <varray name="rec_basis" >
     <v>       0.09200356       0.00000000      -0.00000000 </v>
     <v>       0.00000000       0.09200356      -0.00000000 </v>
     <v>       0.00000000      -0.00000000       0.09200356 </v>
    </varray>
   </crystal>
   <varray name="positions" >
    <v>       0.25092004       0.25000000       0.25000000 </v>
    <v>       0.75000000       0.25000000       0.25000000 </v>
    <v>       0.25000000       0.75000000       0.25000000 </v>
    <v>       0.75000000       0.75000000       0.25000000 </v>
    <v>       0.25000000       0.25000000       0.75000000 </v>
    <v>       0.75000000       0.25000000       0.75000000 </v>
    <v>       0.25000000       0.75000000       0.75000000 </v>
    <v>       0.75000000       0.75000000       0.75000000 </v>
    <v>       0.25000000       1.00000000       1.00000000 </v>
    <v>       0.75000000       1.00000000       1.00000000 </v>
    <v>       0.25000000       0.50000000       0.00000000 </v>
    <v>       0.75000000       0.50000000       1.00000000 </v>
    <v>       0.25000000       0.00000000       0.50000000 </v>
    <v>       0.75000000       1.00000000       0.50000000 </v>
    <v>       0.25000000       0.50000000       0.50000000 </v>
    <v>       0.75000000       0.50000000       0.50000000 </v>
    <v>       1.00000000       0.25000000       0.00000000 </v>
    <v>       0.50000000       0.25000000       1.00000000 </v>
    <v>       1.00000000       0.75000000       0.00000000 </v>
    <v>       0.50000000       0.75000000       0.00000000 </v>
    <v>       0.00000000       0.25000000       0.50000000 </v>
    <v>       0.50000000       0.25000000       0.50000000 </v>
    <v>       1.00000000       0.75000000       0.50000000 </v>
    <v>       0.50000000       0.75000000       0.50000000 </v>
    <v>       0.00000000       0.00000000       0.25000000 </v>
    <v>       0.50000000       1.00000000       0.25000000 </v>
    <v>       1.00000000       0.50000000       0.25000000 </v>
    <v>       0.50000000       0.50000000       0.25000000 </v>
    <v>       0.00000000       0.00000000       0.75000000 </v>
    <v>       0.50000000       0.00000000       0.75000000 </v>
    <v>       0.00000000       0.50000000       0.75000000 </v>
    <v>       0.50000000       0.50000000       0.75000000 </v>
    <v>       0.37500000       0.37500000       0.37500000 </v>
    <v>       0.87500000       0.37500000       0.37500000 </v>
    <v>       0.37500000       0.87500000       0.37500000 </v>
    <v>       0.87500000       0.87500000       0.37500000 </v>
    <v>       0.37500000       0.37500000       0.87500000 </v>
    <v>       0.87500000       0.37500000       0.87500000 </v>
    <v>       0.37500000       0.87500000       0.87500000 </v>
    <v>       0.87500000       0.87500000       0.87500000 </v>
    <v>       0.37500000       0.12500000       0.12500000 </v>
    <v>       0.87500000       0.12500000       0.12500000 </v>
    <v>       0.37500000       0.62500000       0.12500000 </v>
    <v>       0.87500000       0.62500000       0.12500000 </v>
    <v>       0.37500000       0.12500000       0.62500000 </v>
    <v>       0.87500000       0.12500000       0.62500000 </v>
    <v>       0.37500000       0.62500000       0.62500000 </v>
    <v>       0.87500000       0.62500000       0.62500000 </v>
    <v>       0.12500000       0.37500000       0.12500000 </v>
    <v>       0.62500000       0.37500000       0.12500000 </v>
    <v>       0.12500000       0.87500000       0.12500000 </v>
    <v>       0.62500000       0.87500000       0.12500000 </v>
    <v>       0.12500000       0.37500000       0.62500000 </v>
    <v>       0.62500000       0.37500000       0.62500000 </v>
    <v>       0.12500000       0.87500000       0.62500000 </v>
    <v>       0.62500000       0.87500000       0.62500000 </v>
    <v>       0.12500000       0.12500000       0.37500000 </v>
    <v>       0.62500000       0.12500000       0.37500000 </v>
    <v>       0.12500000       0.62500000       0.37500000 </v>
    <v>       0.62500000       0.62500000       0.37500000 </v>
    <v>       0.12500000       0.12500000       0.87500000 </v>
    <v>       0.62500000       0.12500000       0.87500000 </v>
    <v>       0.12500000       0.62500000       0.87500000 </v>
    <v>       0.62500000       0.62500000       0.87500000 </v>
   </varray>
  </structure>
  <varray name="primitive_index" >
   <v type="int" >        1 </v>
   <v type="int" >        2 </v>
   <v type="int" >        3 </v>
   <v type="int" >        4 </v>
   <v type="int" >        5 </v>
   <v type="int" >        6 </v>
   <v type="int" >        7 </v>
   <v type="int" >        8 </v>
   <v type="int" >        9 </v>
   <v type="int" >       10 </v>
   <v type="int" >       11 </v>
   <v type="int" >       12 </v>
   <v type="int" >       13 </v>
   <v type="int" >       14 </v>
   <v type="int" >       15 </v>
   <v type="int" >       16 </v>
   <v type="int" >       17 </v>
   <v type="int" >       18 </v>
   <v type="int" >       19 </v>
   <v type="int" >       20 </v>
   <v type="int" >       21 </v>
   <v type="int" >       22 </v>
   <v type="int" >       23 </v>
   <v type="int" >       24 </v>
   <v type="int" >       25 </v>
   <v type="int" >       26 </v>
   <v type="int" >       27 </v>
   <v type="int" >       28 </v>
   <v type="int" >       29 </v>
   <v type="int" >       30 </v>
   <v type="int" >       31 </v>
   <v type="int" >       32 </v>
   <v type="int" >       33 </v>
   <v type="int" >       34 </v>
   <v type="int" >       35 </v>
   <v type="int" >       36 </v>
   <v type="int" >       37 </v>
   <v type="int" >       38 </v>
   <v type="int" >       39 </v>
   <v type="int" >       40 </v>
   <v type="int" >       41 </v>
   <v type="int" >       42 </v>
   <v type="int" >       43 </v>
   <v type="int" >       44 </v>
   <v type="int" >       45 </v>
   <v type="int" >       46 </v>
   <v type="int" >       47 </v>
   <v type="int" >       48 </v>
   <v type="int" >       49 </v>
   <v type="int" >       50 </v>
   <v type="int" >       51 </v>
   <v type="int" >       52 </v>
   <v type="int" >       53 </v>
   <v type="int" >       54 </v>
   <v type="int" >       55 </v>
   <v type="int" >       56 </v>
   <v type="int" >       57 </v>
   <v type="int" >       58 </v>
   <v type="int" >       59 </v>
   <v type="int" >       60 </v>
   <v type="int" >       61 </v>
   <v type="int" >       62 </v>
   <v type="int" >       63 </v>
   <v type="int" >       64 </v>
  </varray>
 </primitive_cell>
 <kpoints>
  <generation param="Gamma">
   <v type="int" name="divisions">       2        2        2 </v>
   <v name="usershift">      0.00000000       0.00000000       0.00000000 </v>
   <v name="genvec1">      0.50000000      -0.00000000       0.00000000 </v>
   <v name="genvec2">     -0.00000000       0.50000000       0.00000000 </v>
   <v name="genvec3">     -0.00000000       0.00000000       0.50000000 </v>
   <v name="shift">      0.00000000       0.00000000       0.00000000 </v>
  </generation>
  <varray name="kpointlist" >
   <v>       0.00000000       0.00000000       0.00000000 </v>
   <v>       0.50000000       0.00000000       0.00000000 </v>
   <v>      -0.00000000       0.50000000       0.00000000 </v>
   <v>       0.50000000       0.50000000       0.00000000 </v>
   <v>       0.00000000       0.50000000       0.50000000 </v>
   <v>       0.50000000       0.50000000       0.50000000 </v>
  </varray>
  <varray name="weights" >
   <v>       0.12500000 </v>
   <v>       0.12500000 </v>
   <v>       0.25000000 </v>
   <v>       0.25000000 </v>
   <v>       0.12500000 </v>
   <v>       0.12500000 </v>
  </varray>
 </kpoints>
 <parameters>
  <separator name="general" >
   <i type="string" name="SYSTEM">unknown system</i>
   <i type="logical" name="LCOMPAT"> F  </i>
  </separator>
  <separator name="electronic" >
   <i type="string" name="PREC">accura</i>
   <i name="ENMAX">    318.00000000</i>
   <i name="ENAUG">    322.06900000</i>
   <i name="EDIFF">      0.00000001</i>
   <i type="int" name="IALGO">    38</i>
   <i type="int" name="IWAVPR">    10</i>
   <i type="int" name="NBANDS">   168</i>
   <i type="int" name="NBANDSLOW">    -1</i>
   <i type="int" name="NBANDSHIGH">    -1</i>
   <i name="NELECT">    256.00000000</i>
   <i type="int" name="TURBO">     0</i>
   <i type="int" name="IRESTART">     0</i>
   <i type="int" name="NREBOOT">     0</i>
   <i type="int" name="NMIN">     0</i>
   <i name="EREF">      0.00000000</i>
   <separator name="electronic smearing" >
    <i type="int" name="ISMEAR">     0</i>
    <i name="SIGMA">      0.02000000</i>
    <i name="KSPACING">      0.50000000</i>
    <i type="logical" name="KGAMMA"> T  </i>
    <i type="logical" name="KBLOWUP"> T  </i>
   </separator>
   <separator name="electronic projectors" >
    <i type="logical" name="LREAL"> F  </i>
    <v name="ROPT">      0.00000000</v>
    <i type="int" name="LMAXPAW">  -100</i>
    <i type="int" name="LMAXMIX">     2</i>
    <i type="logical" name="NLSPLINE"> F  </i>
   </separator>
   <separator name="electronic startup" >
    <i type="int" name="ISTART">     0</i>
    <i type="int" name="ICHARG">     2</i>
    <i type="int" name="INIWAV">     1</i>
   </separator>
   <separator name="electronic spin" >
    <i type="int" name="ISPIN">     1</i>
    <i type="logical" name="LNONCOLLINEAR"> F  </i>
    <v name="MAGMOM">      1.00000000      1.00000000      1.00000000      1.00000000      1.00000000      1.00000000      1.00000000      1.00000000      1.00000000      1.00000000      1.00000000      1.00000000      1.00000000      1.00000000      1.00000000      1.00000000      1.00000000      1.00000000      1.00000000      1.00000000
      1.00000000      1.00000000      1.00000000      1.00000000      1.00000000      1.00000000      1.00000000      1.00000000      1.00000000      1.00000000      1.00000000      1.00000000      1.00000000      1.00000000      1.00000000      1.00000000      1.00000000      1.00000000      1.00000000      1.00000000
      1.00000000      1.00000000      1.00000000      1.00000000      1.00000000      1.00000000      1.00000000      1.00000000      1.00000000      1.00000000      1.00000000      1.00000000      1.00000000      1.00000000      1.00000000      1.00000000      1.00000000      1.00000000      1.00000000      1.00000000
      1.00000000      1.00000000      1.00000000      1.00000000</v>
    <i name="NUPDOWN">     -1.00000000</i>
    <i type="logical" name="LSORBIT"> F  </i>
    <v name="SAXIS">      0.00000000      0.00000000      1.00000000</v>
    <i type="logical" name="LSPIRAL"> F  </i>
    <v name="QSPIRAL">      0.00000000      0.00000000      0.00000000</v>
    <i type="logical" name="LZEROZ"> F  </i>
   </separator>
   <separator name="electronic exchange-correlation" >
    <i type="logical" name="LASPH"> F  </i>
    <i type="logical" name="LMETAGGA"> F  </i>
   </separator>
   <separator name="electronic convergence" >
    <i type="int" name="NELM">    60</i>
    <i type="int" name="NELMDL">    -5</i>
    <i type="int" name="NELMIN">     5</i>
    <i name="ENINI">    318.00000000</i>
    <separator name="electronic convergence detail" >
     <i type="logical" name="LDIAG"> T  </i>
     <i type="logical" name="LSUBROT"> F  </i>
     <i name="WEIMIN">      0.00000000</i>
     <i name="EBREAK">      0.00000000</i>
     <i name="DEPER">      0.30000000</i>
     <i type="int" name="NRMM">     4</i>
     <i name="TIME">      0.40000000</i>
    </separator>
   </separator>
   <separator name="electronic mixer" >
    <i name="AMIX">      0.40000000</i>
    <i name="BMIX">      1.00000000</i>
    <i name="AMIN">      0.10000000</i>
    <i name="AMIX_MAG">      1.60000000</i>
    <i name="BMIX_MAG">      1.00000000</i>
    <separator name="electronic mixer details" >
     <i type="int" name="IMIX">     4</i>
     <i type="logical" name="MIXFIRST"> F  </i>
     <i type="int" name="MAXMIX">   -45</i>
     <i name="WC">    100.00000000</i>
     <i type="int" name="INIMIX">     1</i>
     <i type="int" name="MIXPRE">     1</i>
     <i type="int" name="MREMOVE">     5</i>
    </separator>
   </separator>
   <separator name="electronic dipolcorrection" >
    <i type="logical" name="LDIPOL"> F  </i>
    <i type="logical" name="LMONO"> F  </i>
    <i type="int" name="IDIPOL">     0</i>
    <i name="EPSILON">      1.00000000</i>
    <v name="DIPOL">   -100.00000000   -100.00000000   -100.00000000</v>
    <i name="EFIELD">      0.00000000</i>
   </separator>
  </separator>
  <separator name="grids" >
   <i type="int" name="NGX">    64</i>
   <i type="int" name="NGY">    64</i>
   <i type="int" name="NGZ">    64</i>
   <i type="int" name="NGXF">   128</i>
   <i type="int" name="NGYF">   128</i>
   <i type="int" name="NGZF">   128</i>
   <i type="logical" name="ADDGRID"> T  </i>
  </separator>
  <separator name="ionic" >
   <i type="int" name="NSW">     0</i>
   <i type="int" name="IBRION">    -1</i>
   <i type="int" name="MDALGO">     0</i>
   <i type="int" name="ISIF">     2</i>
   <i name="PSTRESS">      0.00000000</i>
   <i name="EDIFFG">      0.00000010</i>
   <i type="int" name="NFREE">     0</i>
   <i name="POTIM">      0.50000000</i>
   <i name="SMASS">     -3.00000000</i>
   <i name="SCALEE">      1.00000000</i>
  </separator>
  <separator name="ionic md" >
   <i name="TEBEG">      0.00010000</i>
   <i name="TEEND">      0.00010000</i>
   <i type="int" name="NBLOCK">     1</i>
   <i type="int" name="KBLOCK">     1</i>
   <i type="int" name="NPACO">   256</i>
   <i name="APACO">     10.00000000</i>
  </separator>
  <separator name="symmetry" >
   <i type="int" name="ISYM">     2</i>
   <i name="SYMPREC">      0.00001000</i>
  </separator>
  <separator name="dos" >
   <i type="int" name="LORBIT">     0</i>
   <v name="RWIGS">     -1.00000000</v>
   <i type="int" name="NEDOS">   301</i>
   <i name="EMIN">     10.00000000</i>
   <i name="EMAX">    -10.00000000</i>
   <i name="EFERMI">      0.00000000</i>
  </separator>
  <separator name="writing" >
   <i type="int" name="NWRITE">     2</i>
   <i type="logical" name="LWAVE"> F  </i>
   <i type="logical" name="LDOWNSAMPLE"> F  </i>
   <i type="logical" name="LCHARG"> F  </i>
   <i type="logical" name="LPARD"> F  </i>
   <i type="logical" name="LVTOT"> F  </i>
   <i type="logical" name="LVHAR"> F  </i>
   <i type="logical" name="LELF"> F  </i>
   <i type="logical" name="LOPTICS"> F  </i>
   <v name="STM">      0.00000000      0.00000000      0.00000000      0.00000000      0.00000000      0.00000000      0.00000000</v>
  </separator>
  <separator name="performance" >
   <i type="int" name="NPAR">     8</i>
   <i type="int" name="NSIM">     4</i>
   <i type="int" name="NBLK">    -1</i>
   <i type="logical" name="LPLANE"> T  </i>
   <i type="logical" name="LSCALAPACK"> T  </i>
   <i type="logical" name="LSCAAWARE"> F  </i>
   <i type="logical" name="LSCALU"> F  </i>
   <i type="logical" name="LASYNC"> F  </i>
   <i type="logical" name="LORBITALREAL"> F  </i>
  </separator>
  <separator name="miscellaneous" >
   <i type="int" name="IDIOT">     3</i>
   <i type="int" name="PHON_NSTRUCT">    -1</i>
   <i type="logical" name="LMUSIC"> F  </i>
   <v name="POMASS">     28.08500000</v>
   <v name="DARWINR">      0.00000000</v>
   <v name="DARWINV">      1.00000000</v>
   <i type="logical" name="LCORR"> T  </i>
  </separator>
  <i type="logical" name="GGA_COMPAT"> T  </i>
  <i type="logical" name="LBERRY"> F  </i>
  <i type="int" name="ICORELEVEL">     0</i>
  <i type="logical" name="LDAU"> F  </i>
  <i type="int" name="I_CONSTRAINED_M">     0</i>
  <separator name="electronic exchange-correlation" >
   <i type="string" name="GGA">PS</i>
   <i type="int" name="VOSKOWN">     0</i>
   <i type="logical" name="LHFCALC"> F  </i>
   <i type="string" name="PRECFOCK"></i>
   <i type="logical" name="LSYMGRAD"> F  </i>
   <i type="logical" name="LHFONE"> F  </i>
   <i type="logical" name="LRHFCALC"> F  </i>
   <i type="logical" name="LTHOMAS"> F  </i>
   <i type="logical" name="LMODELHF"> F  </i>
   <i type="logical" name="LFOCKACE"> F  </i>
   <i name="ENCUT4O">     -1.00000000</i>
   <i type="int" name="EXXOEP">     0</i>
   <i type="int" name="FOURORBIT">     0</i>
   <i name="AEXX">      0.00000000</i>
   <i name="HFALPHA">      0.00000000</i>
   <i name="MCALPHA">      0.00000000</i>
   <i name="ALDAX">      1.00000000</i>
   <i name="AGGAX">      1.00000000</i>
   <i name="ALDAC">      1.00000000</i>
   <i name="AGGAC">      1.00000000</i>
   <i type="int" name="NKREDX">     1</i>
   <i type="int" name="NKREDY">     1</i>
   <i type="int" name="NKREDZ">     1</i>
   <i type="logical" name="SHIFTRED"> F  </i>
   <i type="logical" name="ODDONLY"> F  </i>
   <i type="logical" name="EVENONLY"> F  </i>
   <i type="int" name="LMAXFOCK">     0</i>
   <i type="int" name="NMAXFOCKAE">     0</i>
   <i type="logical" name="LFOCKAEDFT"> F  </i>
   <i name="HFSCREEN">      0.00000000</i>
   <i name="HFSCREENC">      0.00000000</i>
   <i type="int" name="NBANDSGWLOW">     0</i>
  </separator>
  <separator name="vdW DFT" >
   <i type="logical" name="LUSE_VDW"> F  </i>
   <i name="Zab_VDW">     -0.84910000</i>
   <i name="PARAM1">      0.12340000</i>
   <i name="PARAM2">      1.00000000</i>
   <i name="PARAM3">      0.00000000</i>
  </separator>
  <separator name="model GW" >
   <i type="int" name="MODEL_GW">     0</i>
   <i name="MODEL_EPS0">     12.03808591</i>
   <i name="MODEL_ALPHA">      1.00000000</i>
  </separator>
  <separator name="linear response parameters" >
   <i type="logical" name="LEPSILON"> F  </i>
   <i type="logical" name="LRPA"> F  </i>
   <i type="logical" name="LNABLA"> F  </i>
   <i type="logical" name="LVEL"> F  </i>
   <i name="CSHIFT">      0.10000000</i>
   <i name="OMEGAMAX">     -1.00000000</i>
   <i name="DEG_THRESHOLD">      0.00200000</i>
   <i name="RTIME">     -0.10000000</i>
   <i name="WPLASMAI">      0.00000000</i>
   <v name="DFIELD">      0.00000000      0.00000000      0.00000000</v>
   <v name="WPLASMA">      0.00000000      0.00000000      0.00000000      0.00000000      0.00000000      0.00000000      0.00000000      0.00000000      0.00000000</v>
  </separator>
  <separator name="orbital magnetization" >
   <i type="logical" name="NUCIND"> F  </i>
   <v name="MAGPOS">      0.00000000      0.00000000      0.00000000</v>
   <i type="logical" name="LNICSALL"> T  </i>
   <i type="logical" name="ORBITALMAG"> F  </i>
   <i type="logical" name="LMAGBLOCH"> F  </i>
   <i type="logical" name="LCHIMAG"> F  </i>
   <i type="logical" name="LGAUGE"> T  </i>
   <i type="int" name="MAGATOM">     0</i>
   <v name="MAGDIPOL">      0.00000000      0.00000000      0.00000000</v>
   <v name="AVECCONST">      0.00000000      0.00000000      0.00000000</v>
  </separator>
  <separator name="response functions" >
   <i type="logical" name="LFINITE_TEMPERATURE"> F  </i>
   <i type="logical" name="LADDER"> F  </i>
   <i type="logical" name="LRPAFORCE"> F  </i>
   <i type="logical" name="LFXC"> F  </i>
   <i type="logical" name="LHARTREE"> T  </i>
   <i type="int" name="IBSE">     0</i>
   <v type="int" name="KPOINT">    -1     0     0     0</v>
   <i type="logical" name="LTCTC"> F  </i>
   <i type="logical" name="LTCTE"> F  </i>
   <i type="logical" name="LTETE"> F  </i>
   <i type="logical" name="LTRIPLET"> F  </i>
   <i type="logical" name="LFXCEPS"> F  </i>
   <i type="logical" name="LFXHEG"> F  </i>
   <i type="int" name="NATURALO">     2</i>
   <i type="logical" name="LHOLEGF"> F  </i>
   <i type="logical" name="L2ORDER"> F  </i>
   <i type="logical" name="LDMP1"> F  </i>
   <i type="logical" name="LMP2LT"> F  </i>
   <i type="logical" name="LSMP2LT"> F  </i>
   <i type="logical" name="LGWLF"> F  </i>
   <i name="ENCUTGW">     -2.00000000</i>
   <i name="ENCUTGWSOFT">     -2.00000000</i>
   <i name="ENCUTLF">     -1.00000000</i>
   <i type="logical" name="LESF_SPLINES"> F  </i>
   <i type="int" name="LMAXMP2">    -1</i>
   <i name="SCISSOR">      0.00000000</i>
   <i type="int" name="NOMEGA">     0</i>
   <i type="int" name="NOMEGAR">     0</i>
   <i type="int" name="NBANDSGW">    -1</i>
   <i type="int" name="NBANDSO">    -1</i>
   <i type="int" name="NBANDSV">    -1</i>
   <i type="int" name="NELMGW">     1</i>
   <i type="int" name="NELMHF">     1</i>
   <i type="int" name="DIM">     3</i>
   <i type="int" name="IESPILON">     4</i>
   <i type="int" name="ANTIRES">     0</i>
   <i name="OMEGAMAX">    -30.00000000</i>
   <i name="OMEGAMIN">    -30.00000000</i>
   <i name="OMEGATL">   -200.00000000</i>
   <i type="int" name="OMEGAGRID">     0</i>
   <i name="CSHIFT">     -0.10000000</i>
   <i type="logical" name="LSELFENERGY"> F  </i>
   <i type="logical" name="LSPECTRAL"> F  </i>
   <i type="logical" name="LSPECTRALGW"> F  </i>
   <i type="logical" name="LSINGLES"> F  </i>
   <i type="logical" name="LFERMIGW"> F  </i>
   <i type="logical" name="ODDONLYGW"> F  </i>
   <i type="logical" name="EVENONLYGW"> F  </i>
   <i type="int" name="NKREDLFX">     1</i>
   <i type="int" name="NKREDLFY">     1</i>
   <i type="int" name="NKREDLFZ">     1</i>
   <i type="int" name="MAXMEM">  2800</i>
   <i type="int" name="TELESCOPE">     0</i>
   <i type="int" name="NTAUPAR">    -1</i>
   <i type="int" name="NOMEGAPAR">    -1</i>
   <i name="DAMP_NEWTON">      0.80000001</i>
   <i name="LAMBDA">      1.00000000</i>
  </separator>
  <separator name="External order field" >
   <i name="OFIELD_KAPPA">      0.00000000</i>
   <v name="OFIELD_K">      0.00000000      0.00000000      0.00000000</v>
   <i name="OFIELD_Q6_NEAR">      0.00000000</i>
   <i name="OFIELD_Q6_FAR">      0.00000000</i>
   <i name="OFIELD_A">      0.00000000</i>
  </separator>
  <separator name="optional k-points parameters" >
   <i type="int" name="KPOINTS_OPT_MODE">     1</i>
   <i type="logical" name="LKPOINTS_OPT"> F  </i>
  </separator>
 </parameters>
 <atominfo>
  <atoms>      64 </atoms>
  <types>       1 </types>
  <array name="atoms" >
   <dimension dim="1">ion</dimension>
   <field type="string">element</field>
   <field type="int">atomtype</field>
   <set>
    <rc><c>Si</c><c>   1</c></rc>
    <rc><c>Si</c><c>   1</c></rc>
    <rc><c>Si</c><c>   1</c></rc>
    <rc><c>Si</c><c>   1</c></rc>
    <rc><c>Si</c><c>   1</c></rc>
    <rc><c>Si</c><c>   1</c></rc>
    <rc><c>Si</c><c>   1</c></rc>
    <rc><c>Si</c><c>   1</c></rc>
    <rc><c>Si</c><c>   1</c></rc>
    <rc><c>Si</c><c>   1</c></rc>
    <rc><c>Si</c><c>   1</c></rc>
    <rc><c>Si</c><c>   1</c></rc>
    <rc><c>Si</c><c>   1</c></rc>
    <rc><c>Si</c><c>   1</c></rc>
    <rc><c>Si</c><c>   1</c></rc>
    <rc><c>Si</c><c>   1</c></rc>
    <rc><c>Si</c><c>   1</c></rc>
    <rc><c>Si</c><c>   1</c></rc>
    <rc><c>Si</c><c>   1</c></rc>
    <rc><c>Si</c><c>   1</c></rc>
    <rc><c>Si</c><c>   1</c></rc>
    <rc><c>Si</c><c>   1</c></rc>
    <rc><c>Si</c><c>   1</c></rc>
    <rc><c>Si</c><c>   1</c></rc>
    <rc><c>Si</c><c>   1</c></rc>
    <rc><c>Si</c><c>   1</c></rc>
    <rc><c>Si</c><c>   1</c></rc>
    <rc><c>Si</c><c>   1</c></rc>
    <rc><c>Si</c><c>   1</c></rc>
    <rc><c>Si</c><c>   1</c></rc>
    <rc><c>Si</c><c>   1</c></rc>
    <rc><c>Si</c><c>   1</c></rc>
    <rc><c>Si</c><c>   1</c></rc>
    <rc><c>Si</c><c>   1</c></rc>
    <rc><c>Si</c><c>   1</c></rc>
    <rc><c>Si</c><c>   1</c></rc>
    <rc><c>Si</c><c>   1</c></rc>
    <rc><c>Si</c><c>   1</c></rc>
    <rc><c>Si</c><c>   1</c></rc>
    <rc><c>Si</c><c>   1</c></rc>
    <rc><c>Si</c><c>   1</c></rc>
    <rc><c>Si</c><c>   1</c></rc>
    <rc><c>Si</c><c>   1</c></rc>
    <rc><c>Si</c><c>   1</c></rc>
    <rc><c>Si</c><c>   1</c></rc>
    <rc><c>Si</c><c>   1</c></rc>
    <rc><c>Si</c><c>   1</c></rc>
    <rc><c>Si</c><c>   1</c></rc>
    <rc><c>Si</c><c>   1</c></rc>
    <rc><c>Si</c><c>   1</c></rc>
    <rc><c>Si</c><c>   1</c></rc>
    <rc><c>Si</c><c>   1</c></rc>
    <rc><c>Si</c><c>   1</c></rc>
    <rc><c>Si</c><c>   1</c></rc>
    <rc><c>Si</c><c>   1</c></rc>
    <rc><c>Si</c><c>   1</c></rc>
    <rc><c>Si</c><c>   1</c></rc>
    <rc><c>Si</c><c>   1</c></rc>
    <rc><c>Si</c><c>   1</c></rc>
    <rc><c>Si</c><c>   1</c></rc>
    <rc><c>Si</c><c>   1</c></rc>
    <rc><c>Si</c><c>   1</c></rc>
    <rc><c>Si</c><c>   1</c></rc>
    <rc><c>Si</c><c>   1</c></rc>
   </set>
  </array>
  <array name="atomtypes" >
   <dimension dim="1">type</dimension>
   <field type="int">atomspertype</field>
   <field type="string">element</field>
   <field>mass</field>
   <field>valence</field>
   <field type="string">pseudopotential</field>
   <set>
    <rc><c>  64</c><c>Si</c><c>     28.08500000</c><c>      4.00000000</c><c>  PAW_PBE Si 05Jan2001                  </c></rc>
   </set>
  </array>
 </atominfo>
 <structure name="initialpos" >
  <crystal>
   <varray name="basis" >
    <v>      10.86914512      -0.00000000      -0.00000000 </v>
    <v>      -0.00000000      10.86914512       0.00000000 </v>
    <v>       0.00000000       0.00000000      10.86914512 </v>
   </varray>
   <i name="volume">   1284.06249692 </i>
   <varray name="rec_basis" >
    <v>       0.09200356       0.00000000      -0.00000000 </v>
    <v>       0.00000000       0.09200356      -0.00000000 </v>
    <v>       0.00000000      -0.00000000       0.09200356 </v>
   </varray>
  </crystal>
  <varray name="positions" >
   <v>       0.25092004       0.25000000       0.25000000 </v>
   <v>       0.75000000       0.25000000       0.25000000 </v>
   <v>       0.25000000       0.75000000       0.25000000 </v>
   <v>       0.75000000       0.75000000       0.25000000 </v>
   <v>       0.25000000       0.25000000       0.75000000 </v>
   <v>       0.75000000       0.25000000       0.75000000 </v>
   <v>       0.25000000       0.75000000       0.75000000 </v>
   <v>       0.75000000       0.75000000       0.75000000 </v>
   <v>       0.25000000       0.00000000       0.00000000 </v>
   <v>       0.75000000       0.00000000       0.00000000 </v>
   <v>       0.25000000       0.50000000       0.00000000 </v>
   <v>       0.75000000       0.50000000       0.00000000 </v>
   <v>       0.25000000       0.00000000       0.50000000 </v>
   <v>       0.75000000       0.00000000       0.50000000 </v>
   <v>       0.25000000       0.50000000       0.50000000 </v>
   <v>       0.75000000       0.50000000       0.50000000 </v>
   <v>       0.00000000       0.25000000       0.00000000 </v>
   <v>       0.50000000       0.25000000       0.00000000 </v>
   <v>       0.00000000       0.75000000       0.00000000 </v>
   <v>       0.50000000       0.75000000       0.00000000 </v>
   <v>       0.00000000       0.25000000       0.50000000 </v>
   <v>       0.50000000       0.25000000       0.50000000 </v>
   <v>       0.00000000       0.75000000       0.50000000 </v>
   <v>       0.50000000       0.75000000       0.50000000 </v>
   <v>       0.00000000       0.00000000       0.25000000 </v>
   <v>       0.50000000       0.00000000       0.25000000 </v>
   <v>       0.00000000       0.50000000       0.25000000 </v>
   <v>       0.50000000       0.50000000       0.25000000 </v>
   <v>       0.00000000       0.00000000       0.75000000 </v>
   <v>       0.50000000       0.00000000       0.75000000 </v>
   <v>       0.00000000       0.50000000       0.75000000 </v>
   <v>       0.50000000       0.50000000       0.75000000 </v>
   <v>       0.37500000       0.37500000       0.37500000 </v>
   <v>       0.87500000       0.37500000       0.37500000 </v>
   <v>       0.37500000       0.87500000       0.37500000 </v>
   <v>       0.87500000       0.87500000       0.37500000 </v>
   <v>       0.37500000       0.37500000       0.87500000 </v>
   <v>       0.87500000       0.37500000       0.87500000 </v>
   <v>       0.37500000       0.87500000       0.87500000 </v>
   <v>       0.87500000       0.87500000       0.87500000 </v>
   <v>       0.37500000       0.12500000       0.12500000 </v>
   <v>       0.87500000       0.12500000       0.12500000 </v>
   <v>       0.37500000       0.62500000       0.12500000 </v>
   <v>       0.87500000       0.62500000       0.12500000 </v>
   <v>       0.37500000       0.12500000       0.62500000 </v>
   <v>       0.87500000       0.12500000       0.62500000 </v>
   <v>       0.37500000       0.62500000       0.62500000 </v>
   <v>       0.87500000       0.62500000       0.62500000 </v>
   <v>       0.12500000       0.37500000       0.12500000 </v>
   <v>       0.62500000       0.37500000       0.12500000 </v>
   <v>       0.12500000       0.87500000       0.12500000 </v>
   <v>       0.62500000       0.87500000       0.12500000 </v>
   <v>       0.12500000       0.37500000       0.62500000 </v>
   <v>       0.62500000       0.37500000       0.62500000 </v>
   <v>       0.12500000       0.87500000       0.62500000 </v>
   <v>       0.62500000       0.87500000       0.62500000 </v>
   <v>       0.12500000       0.12500000       0.37500000 </v>
   <v>       0.62500000       0.12500000       0.37500000 </v>
   <v>       0.12500000       0.62500000       0.37500000 </v>
   <v>       0.62500000       0.62500000       0.37500000 </v>
   <v>       0.12500000       0.12500000       0.87500000 </v>
   <v>       0.62500000       0.12500000       0.87500000 </v>
   <v>       0.12500000       0.62500000       0.87500000 </v>
   <v>       0.62500000       0.62500000       0.87500000 </v>
  </varray>
 </structure>
 <calculation>
  <scstep>
   <time name="dav">    1.72    1.72</time>
   <time name="total">    1.76    1.77</time>
   <energy>
    <i name="alphaZ">    107.38120932 </i>
    <i name="ewald">  -7307.87773540 </i>
    <i name="hartreedc">   -353.24965879 </i>
    <i name="XCdc">   -558.85372956 </i>
    <i name="pawpsdc">   5598.62625415 </i>
    <i name="pawaedc">  -4492.17844134 </i>
    <i name="eentropy">     -0.00539248 </i>
    <i name="bandstr">    896.72704951 </i>
    <i name="atom">   6564.76702419 </i>
    <i name="e_fr_energy">    455.33657960 </i>
    <i name="e_wo_entrp">    455.34197208 </i>
    <i name="e_0_energy">    455.33927584 </i>
   </energy>
  </scstep>
  <scstep>
   <time name="dav">    1.97    1.98</time>
   <time name="total">    1.97    1.98</time>
   <energy>
    <i name="e_fr_energy">   -321.17629903 </i>
    <i name="e_wo_entrp">   -321.17629903 </i>
    <i name="e_0_energy">   -321.17629903 </i>
   </energy>
  </scstep>
  <scstep>
   <time name="dav">    2.00    2.01</time>
   <time name="total">    2.00    2.01</time>
   <energy>
    <i name="e_fr_energy">   -373.43213936 </i>
    <i name="e_wo_entrp">   -373.43213936 </i>
    <i name="e_0_energy">   -373.43213936 </i>
   </energy>
  </scstep>
  <scstep>
   <time name="dav">    1.96    1.97</time>
   <time name="total">    1.96    1.97</time>
   <energy>
    <i name="e_fr_energy">   -374.59982810 </i>
    <i name="e_wo_entrp">   -374.59982810 </i>
    <i name="e_0_energy">   -374.59982810 </i>
   </energy>
  </scstep>
  <scstep>
   <time name="dav">    1.95    1.96</time>
   <time name="total">    2.03    2.04</time>
   <energy>
    <i name="e_fr_energy">   -374.64143253 </i>
    <i name="e_wo_entrp">   -374.64143253 </i>
    <i name="e_0_energy">   -374.64143253 </i>
   </energy>
  </scstep>
  <scstep>
   <time name="dav">    1.87    1.88</time>
   <time name="total">    2.00    2.01</time>
   <energy>
    <i name="e_fr_energy">   -369.72230443 </i>
    <i name="e_wo_entrp">   -369.72230443 </i>
    <i name="e_0_energy">   -369.72230443 </i>
   </energy>
  </scstep>
  <scstep>
   <time name="dav">    1.87    1.87</time>
   <time name="total">    1.99    2.00</time>
   <energy>
    <i name="e_fr_energy">   -367.49095735 </i>
    <i name="e_wo_entrp">   -367.49095735 </i>
    <i name="e_0_energy">   -367.49095735 </i>
   </energy>
  </scstep>
  <scstep>
   <time name="dav">    1.89    1.90</time>
   <time name="total">    2.01    2.02</time>
   <energy>
    <i name="e_fr_energy">   -367.49817544 </i>
    <i name="e_wo_entrp">   -367.49817544 </i>
    <i name="e_0_energy">   -367.49817544 </i>
   </energy>
  </scstep>
  <scstep>
   <time name="dav">    1.99    2.00</time>
   <time name="total">    2.11    2.12</time>
   <energy>
    <i name="e_fr_energy">   -367.49962692 </i>
    <i name="e_wo_entrp">   -367.49962692 </i>
    <i name="e_0_energy">   -367.49962692 </i>
   </energy>
  </scstep>
  <scstep>
   <time name="dav">    1.85    1.86</time>
   <time name="total">    1.97    1.98</time>
   <energy>
    <i name="e_fr_energy">   -367.50048706 </i>
    <i name="e_wo_entrp">   -367.50048706 </i>
    <i name="e_0_energy">   -367.50048706 </i>
   </energy>
  </scstep>
  <scstep>
   <time name="dav">    1.92    1.93</time>
   <time name="total">    2.04    2.05</time>
   <energy>
    <i name="e_fr_energy">   -367.50052908 </i>
    <i name="e_wo_entrp">   -367.50052908 </i>
    <i name="e_0_energy">   -367.50052908 </i>
   </energy>
  </scstep>
  <scstep>
   <time name="dav">    1.93    1.94</time>
   <time name="total">    2.06    2.07</time>
   <energy>
    <i name="e_fr_energy">   -367.50053125 </i>
    <i name="e_wo_entrp">   -367.50053125 </i>
    <i name="e_0_energy">   -367.50053125 </i>
   </energy>
  </scstep>
  <scstep>
   <time name="dav">    1.87    1.88</time>
   <time name="total">    2.00    2.01</time>
   <energy>
    <i name="e_fr_energy">   -367.50053012 </i>
    <i name="e_wo_entrp">   -367.50053012 </i>
    <i name="e_0_energy">   -367.50053012 </i>
   </energy>
  </scstep>
  <scstep>
   <time name="dav">    1.52    1.53</time>
   <time name="total">    1.64    1.65</time>
   <energy>
    <i name="e_fr_energy">   -367.50053003 </i>
    <i name="e_wo_entrp">   -367.50053003 </i>
    <i name="e_0_energy">   -367.50053003 </i>
   </energy>
  </scstep>
  <scstep>
   <time name="dav">    1.33    1.33</time>
   <time name="total">    1.37    1.38</time>
   <energy>
    <i name="alphaZ">    107.38120932 </i>
    <i name="ewald">  -7307.87773540 </i>
    <i name="hartreedc">   -468.78475053 </i>
    <i name="XCdc">   -539.35381267 </i>
    <i name="pawpsdc">  28474.86463196 </i>
    <i name="pawaedc"> -27375.29136443 </i>
    <i name="eentropy">     -0.00000000 </i>
    <i name="bandstr">    176.79426755 </i>
    <i name="atom">   6564.76702419 </i>
    <i name="e_fr_energy">   -367.50053002 </i>
    <i name="e_wo_entrp">   -367.50053002 </i>
    <i name="e_0_energy">   -367.50053002 </i>
   </energy>
  </scstep>
  <structure>
   <crystal>
    <varray name="basis" >
     <v>      10.86914512      -0.00000000      -0.00000000 </v>
     <v>      -0.00000000      10.86914512       0.00000000 </v>
     <v>       0.00000000       0.00000000      10.86914512 </v>
    </varray>
    <i name="volume">   1284.06249692 </i>
    <varray name="rec_basis" >
     <v>       0.09200356       0.00000000      -0.00000000 </v>
     <v>       0.00000000       0.09200356      -0.00000000 </v>
     <v>       0.00000000      -0.00000000       0.09200356 </v>
    </varray>
   </crystal>
   <varray name="positions" >
    <v>       0.25092004       0.25000000       0.25000000 </v>
    <v>       0.75000000       0.25000000       0.25000000 </v>
    <v>       0.25000000       0.75000000       0.25000000 </v>
    <v>       0.75000000       0.75000000       0.25000000 </v>
    <v>       0.25000000       0.25000000       0.75000000 </v>
    <v>       0.75000000       0.25000000       0.75000000 </v>
    <v>       0.25000000       0.75000000       0.75000000 </v>
    <v>       0.75000000       0.75000000       0.75000000 </v>
    <v>       0.25000000       0.00000000       0.00000000 </v>
    <v>       0.75000000       0.00000000       0.00000000 </v>
    <v>       0.25000000       0.50000000       0.00000000 </v>
    <v>       0.75000000       0.50000000       0.00000000 </v>
    <v>       0.25000000       0.00000000       0.50000000 </v>
    <v>       0.75000000       0.00000000       0.50000000 </v>
    <v>       0.25000000       0.50000000       0.50000000 </v>
    <v>       0.75000000       0.50000000       0.50000000 </v>
    <v>       0.00000000       0.25000000       0.00000000 </v>
    <v>       0.50000000       0.25000000       0.00000000 </v>
    <v>       0.00000000       0.75000000       0.00000000 </v>
    <v>       0.50000000       0.75000000       0.00000000 </v>
    <v>       0.00000000       0.25000000       0.50000000 </v>
    <v>       0.50000000       0.25000000       0.50000000 </v>
    <v>       0.00000000       0.75000000       0.50000000 </v>
    <v>       0.50000000       0.75000000       0.50000000 </v>
    <v>       0.00000000       0.00000000       0.25000000 </v>
    <v>       0.50000000       0.00000000       0.25000000 </v>
    <v>       0.00000000       0.50000000       0.25000000 </v>
    <v>       0.50000000       0.50000000       0.25000000 </v>
    <v>       0.00000000       0.00000000       0.75000000 </v>
    <v>       0.50000000       0.00000000       0.75000000 </v>
    <v>       0.00000000       0.50000000       0.75000000 </v>
    <v>       0.50000000       0.50000000       0.75000000 </v>
    <v>       0.37500000       0.37500000       0.37500000 </v>
    <v>       0.87500000       0.37500000       0.37500000 </v>
    <v>       0.37500000       0.87500000       0.37500000 </v>
    <v>       0.87500000       0.87500000       0.37500000 </v>
    <v>       0.37500000       0.37500000       0.87500000 </v>
    <v>       0.87500000       0.37500000       0.87500000 </v>
    <v>       0.37500000       0.87500000       0.87500000 </v>
    <v>       0.87500000       0.87500000       0.87500000 </v>
    <v>       0.37500000       0.12500000       0.12500000 </v>
    <v>       0.87500000       0.12500000       0.12500000 </v>
    <v>       0.37500000       0.62500000       0.12500000 </v>
    <v>       0.87500000       0.62500000       0.12500000 </v>
    <v>       0.37500000       0.12500000       0.62500000 </v>
    <v>       0.87500000       0.12500000       0.62500000 </v>
    <v>       0.37500000       0.62500000       0.62500000 </v>
    <v>       0.87500000       0.62500000       0.62500000 </v>
    <v>       0.12500000       0.37500000       0.12500000 </v>
    <v>       0.62500000       0.37500000       0.12500000 </v>
    <v>       0.12500000       0.87500000       0.12500000 </v>
    <v>       0.62500000       0.87500000       0.12500000 </v>
    <v>       0.12500000       0.37500000       0.62500000 </v>
    <v>       0.62500000       0.37500000       0.62500000 </v>
    <v>       0.12500000       0.87500000       0.62500000 </v>
    <v>       0.62500000       0.87500000       0.62500000 </v>
    <v>       0.12500000       0.12500000       0.37500000 </v>
    <v>       0.62500000       0.12500000       0.37500000 </v>
    <v>       0.12500000       0.62500000       0.37500000 </v>
    <v>       0.62500000       0.62500000       0.37500000 </v>
    <v>       0.12500000       0.12500000       0.87500000 </v>
    <v>       0.62500000       0.12500000       0.87500000 </v>
    <v>       0.12500000       0.62500000       0.87500000 </v>
    <v>       0.62500000       0.62500000       0.87500000 </v>
   </varray>
  </structure>
  <varray name="forces" >
   <v>      -0.13213582       0.00000000       0.00000000 </v>
   <v>       0.00017859      -0.00000000      -0.00000000 </v>
   <v>       0.00048072      -0.00000000      -0.00000000 </v>
   <v>       0.00004784      -0.00000000      -0.00000000 </v>
   <v>       0.00048072      -0.00000000      -0.00000000 </v>
   <v>       0.00004784      -0.00000000      -0.00000000 </v>
   <v>      -0.00392749       0.00000000       0.00000000 </v>
   <v>       0.00022631      -0.00000000      -0.00000000 </v>
   <v>      -0.00427701       0.00095317       0.00095317 </v>
   <v>      -0.00004034       0.00007718       0.00007718 </v>
   <v>      -0.00426575       0.00094083      -0.00094083 </v>
   <v>      -0.00003712       0.00007617      -0.00007617 </v>
   <v>      -0.00426575      -0.00094083       0.00094083 </v>
   <v>      -0.00003712      -0.00007617       0.00007617 </v>
   <v>      -0.00427701      -0.00095317      -0.00095317 </v>
   <v>      -0.00004034      -0.00007718      -0.00007718 </v>
   <v>       0.00185997      -0.00094116       0.00185315 </v>
   <v>       0.00187780      -0.00095420      -0.00186627 </v>
   <v>       0.00032573      -0.00007668      -0.00060364 </v>
   <v>       0.00032659      -0.00007682       0.00060245 </v>
   <v>       0.00185997       0.00094116      -0.00185315 </v>
   <v>       0.00187780       0.00095420       0.00186627 </v>
   <v>       0.00032573       0.00007668       0.00060364 </v>
   <v>       0.00032659       0.00007682      -0.00060245 </v>
   <v>       0.00185997       0.00185315      -0.00094116 </v>
   <v>       0.00187780      -0.00186627      -0.00095420 </v>
   <v>       0.00185997      -0.00185315       0.00094116 </v>
   <v>       0.00187780       0.00186627       0.00095420 </v>
   <v>       0.00032573      -0.00060364      -0.00007668 </v>
   <v>       0.00032659       0.00060245      -0.00007682 </v>
   <v>       0.00032573       0.00060364       0.00007668 </v>
   <v>       0.00032659      -0.00060245       0.00007682 </v>
   <v>       0.03248907       0.02300384       0.02300384 </v>
   <v>      -0.00008964       0.00034012       0.00034012 </v>
   <v>      -0.00051539       0.00034433       0.00040645 </v>
   <v>       0.00021832       0.00021150       0.00025004 </v>
   <v>      -0.00051539       0.00040645       0.00034433 </v>
   <v>       0.00021832       0.00025004       0.00021150 </v>
   <v>       0.00208809       0.00025411       0.00025411 </v>
   <v>      -0.00017653       0.00027113       0.00027113 </v>
   <v>       0.03248907      -0.02300384      -0.02300384 </v>
   <v>      -0.00008964      -0.00034012      -0.00034012 </v>
   <v>      -0.00051539      -0.00034433      -0.00040645 </v>
   <v>       0.00021832      -0.00021150      -0.00025004 </v>
   <v>      -0.00051539      -0.00040645      -0.00034433 </v>
   <v>       0.00021832      -0.00025004      -0.00021150 </v>
   <v>       0.00208809      -0.00025411      -0.00025411 </v>
   <v>      -0.00017653      -0.00027113      -0.00027113 </v>
   <v>       0.03218140      -0.02240038       0.02240038 </v>
   <v>      -0.00008519      -0.00034049       0.00034049 </v>
   <v>      -0.00051111      -0.00033870       0.00040911 </v>
   <v>       0.00022381      -0.00021489       0.00025691 </v>
   <v>      -0.00051111      -0.00040911       0.00033870 </v>
   <v>       0.00022381      -0.00025691       0.00021489 </v>
   <v>       0.00207872      -0.00025179       0.00025179 </v>
   <v>      -0.00017648      -0.00026850       0.00026850 </v>
   <v>       0.03218140       0.02240038      -0.02240038 </v>
   <v>      -0.00008519       0.00034049      -0.00034049 </v>
   <v>      -0.00051111       0.00033870      -0.00040911 </v>
   <v>       0.00022381       0.00021489      -0.00025691 </v>
   <v>      -0.00051111       0.00040911      -0.00033870 </v>
   <v>       0.00022381       0.00025691      -0.00021489 </v>
   <v>       0.00207872       0.00025179      -0.00025179 </v>
   <v>      -0.00017648       0.00026850      -0.00026850 </v>
  </varray>
  <varray name="stress" >
   <v>      -0.03294403       0.00000000      -0.00000000 </v>
   <v>       0.00000000      -0.03063447       0.12328241 </v>
   <v>      -0.00000000       0.12328241      -0.03063447 </v>
  </varray>
  <energy>
   <i name="e_fr_energy">   -367.50053002 </i>
   <i name="e_wo_entrp">   -367.50053002 </i>
   <i name="e_0_energy">   -367.50053002 </i>
  </energy>
  <time name="totalsc">   31.72   31.89</time>
  <eigenvalues>
   <array>
    <dimension dim="1">band</dimension>
    <dimension dim="2">kpoint</dimension>
    <dimension dim="3">spin</dimension>
    <field>eigene</field>
    <field>occ</field>
    <set>
     <set comment="spin 1">
      <set comment="kpoint 1">
       <r>   -6.2055    1.0000 </r>
       <r>   -5.1231    1.0000 </r>
       <r>   -5.1218    1.0000 </r>
       <r>   -5.1213    1.0000 </r>
       <r>   -5.1213    1.0000 </r>
       <r>   -5.1208    1.0000 </r>
       <r>   -5.1195    1.0000 </r>
       <r>   -4.1591    1.0000 </r>
       <r>   -4.1564    1.0000 </r>
       <r>   -4.1553    1.0000 </r>
       <r>   -4.1551    1.0000 </r>
       <r>   -4.1551    1.0000 </r>
       <r>   -4.1551    1.0000 </r>
       <r>   -4.1550    1.0000 </r>
       <r>   -4.1550    1.0000 </r>
       <r>   -4.1549    1.0000 </r>
       <r>   -4.1548    1.0000 </r>
       <r>   -4.1537    1.0000 </r>
       <r>   -4.1511    1.0000 </r>
       <r>   -3.8618    1.0000 </r>
       <r>   -3.8611    1.0000 </r>
       <r>   -3.8602    1.0000 </r>
       <r>   -3.8594    1.0000 </r>
       <r>   -2.0540    1.0000 </r>
       <r>   -2.0529    1.0000 </r>
       <r>   -2.0519    1.0000 </r>
       <r>   -2.0519    1.0000 </r>
       <r>   -2.0509    1.0000 </r>
       <r>   -2.0500    1.0000 </r>
       <r>   -1.8865    1.0000 </r>
       <r>   -1.8849    1.0000 </r>
       <r>   -1.8831    1.0000 </r>
       <r>   -1.8829    1.0000 </r>
       <r>   -1.8828    1.0000 </r>
       <r>   -1.8827    1.0000 </r>
       <r>   -1.8827    1.0000 </r>
       <r>   -1.8826    1.0000 </r>
       <r>   -1.8825    1.0000 </r>
       <r>   -1.8824    1.0000 </r>
       <r>   -1.8805    1.0000 </r>
       <r>   -1.8788    1.0000 </r>
       <r>   -1.2360    1.0000 </r>
       <r>   -1.2349    1.0000 </r>
       <r>   -1.2345    1.0000 </r>
       <r>   -1.2334    1.0000 </r>
       <r>    0.2790    1.0000 </r>
       <r>    0.2792    1.0000 </r>
       <r>    0.2817    1.0000 </r>
       <r>    0.2818    1.0000 </r>
       <r>    0.2818    1.0000 </r>
       <r>    0.2819    1.0000 </r>
       <r>    0.2820    1.0000 </r>
       <r>    0.2821    1.0000 </r>
       <r>    0.2821    1.0000 </r>
       <r>    0.2822    1.0000 </r>
       <r>    0.2847    1.0000 </r>
       <r>    0.2850    1.0000 </r>
       <r>    1.8689    1.0000 </r>
       <r>    1.8705    1.0000 </r>
       <r>    1.8707    1.0000 </r>
       <r>    1.8708    1.0000 </r>
       <r>    1.8711    1.0000 </r>
       <r>    1.8712    1.0000 </r>
       <r>    1.8712    1.0000 </r>
       <r>    1.8713    1.0000 </r>
       <r>    1.8716    1.0000 </r>
       <r>    1.8717    1.0000 </r>
       <r>    1.8719    1.0000 </r>
       <r>    1.8734    1.0000 </r>
       <r>    1.9716    1.0000 </r>
       <r>    1.9717    1.0000 </r>
       <r>    1.9720    1.0000 </r>
       <r>    1.9731    1.0000 </r>
       <r>    1.9733    1.0000 </r>
       <r>    1.9733    1.0000 </r>
       <r>    1.9733    1.0000 </r>
       <r>    1.9733    1.0000 </r>
       <r>    1.9735    1.0000 </r>
       <r>    1.9746    1.0000 </r>
       <r>    1.9749    1.0000 </r>
       <r>    1.9751    1.0000 </r>
       <r>    2.2495    1.0000 </r>
       <r>    2.2505    1.0000 </r>
       <r>    2.2514    1.0000 </r>
       <r>    2.2514    1.0000 </r>
       <r>    2.2524    1.0000 </r>
       <r>    2.2533    1.0000 </r>
       <r>    2.9008    1.0000 </r>
       <r>    2.9016    1.0000 </r>
       <r>    2.9017    1.0000 </r>
       <r>    2.9017    1.0000 </r>
       <r>    2.9018    1.0000 </r>
       <r>    2.9026    1.0000 </r>
       <r>    3.8634    1.0000 </r>
       <r>    3.8658    1.0000 </r>
       <r>    3.8665    1.0000 </r>
       <r>    3.8665    1.0000 </r>
       <r>    3.8667    1.0000 </r>
       <r>    3.8667    1.0000 </r>
       <r>    3.8667    1.0000 </r>
       <r>    3.8667    1.0000 </r>
       <r>    3.8668    1.0000 </r>
       <r>    3.8669    1.0000 </r>
       <r>    3.8675    1.0000 </r>
       <r>    3.8699    1.0000 </r>
       <r>    4.4335    1.0000 </r>
       <r>    4.4354    1.0000 </r>
       <r>    4.4365    1.0000 </r>
       <r>    4.4367    1.0000 </r>
       <r>    4.4369    1.0000 </r>
       <r>    4.4370    1.0000 </r>
       <r>    4.4371    1.0000 </r>
       <r>    4.4372    1.0000 </r>
       <r>    4.4373    1.0000 </r>
       <r>    4.4375    1.0000 </r>
       <r>    4.4386    1.0000 </r>
       <r>    4.4404    1.0000 </r>
       <r>    4.5673    1.0000 </r>
       <r>    4.5691    1.0000 </r>
       <r>    4.5695    1.0000 </r>
       <r>    4.5697    1.0000 </r>
       <r>    4.5699    1.0000 </r>
       <r>    4.5701    1.0000 </r>
       <r>    4.5706    1.0000 </r>
       <r>    4.5725    1.0000 </r>
       <r>    5.7705    1.0000 </r>
       <r>    5.7719    1.0000 </r>
       <r>    5.7735    1.0000 </r>
       <r>    6.3643    0.0000 </r>
       <r>    6.3649    0.0000 </r>
       <r>    6.3658    0.0000 </r>
       <r>    6.3658    0.0000 </r>
       <r>    6.3667    0.0000 </r>
       <r>    6.3672    0.0000 </r>
       <r>    6.8067    0.0000 </r>
       <r>    6.8069    0.0000 </r>
       <r>    6.8081    0.0000 </r>
       <r>    6.8081    0.0000 </r>
       <r>    6.8092    0.0000 </r>
       <r>    6.8095    0.0000 </r>
       <r>    7.2317    0.0000 </r>
       <r>    7.2319    0.0000 </r>
       <r>    7.2321    0.0000 </r>
       <r>    7.2323    0.0000 </r>
       <r>    8.1355    0.0000 </r>
       <r>    8.1356    0.0000 </r>
       <r>    8.1376    0.0000 </r>
       <r>    8.1377    0.0000 </r>
       <r>    8.1379    0.0000 </r>
       <r>    8.1379    0.0000 </r>
       <r>    8.1379    0.0000 </r>
       <r>    8.1380    0.0000 </r>
       <r>    8.1381    0.0000 </r>
       <r>    8.1382    0.0000 </r>
       <r>    8.1402    0.0000 </r>
       <r>    8.1403    0.0000 </r>
       <r>    8.2881    0.0000 </r>
       <r>    8.2889    0.0000 </r>
       <r>    8.2898    0.0000 </r>
       <r>    8.7968    0.0000 </r>
       <r>    8.7975    0.0000 </r>
       <r>    8.7979    0.0000 </r>
       <r>    8.7979    0.0000 </r>
       <r>    8.7984    0.0000 </r>
       <r>    8.7991    0.0000 </r>
       <r>    9.0493    0.0000 </r>
       <r>    9.0505    0.0000 </r>
       <r>    9.0523    0.0000 </r>
      </set>
      <set comment="kpoint 2">
       <r>   -5.9327    1.0000 </r>
       <r>   -5.9313    1.0000 </r>
       <r>   -4.8747    1.0000 </r>
       <r>   -4.8739    1.0000 </r>
       <r>   -4.8729    1.0000 </r>
       <r>   -4.8727    1.0000 </r>
       <r>   -4.8727    1.0000 </r>
       <r>   -4.8726    1.0000 </r>
       <r>   -4.8716    1.0000 </r>
       <r>   -4.8708    1.0000 </r>
       <r>   -4.0248    1.0000 </r>
       <r>   -4.0237    1.0000 </r>
       <r>   -4.0228    1.0000 </r>
       <r>   -4.0227    1.0000 </r>
       <r>   -4.0227    1.0000 </r>
       <r>   -4.0225    1.0000 </r>
       <r>   -4.0217    1.0000 </r>
       <r>   -4.0207    1.0000 </r>
       <r>   -3.8068    1.0000 </r>
       <r>   -3.8045    1.0000 </r>
       <r>   -3.0799    1.0000 </r>
       <r>   -3.0775    1.0000 </r>
       <r>   -3.0767    1.0000 </r>
       <r>   -3.0765    1.0000 </r>
       <r>   -3.0763    1.0000 </r>
       <r>   -3.0761    1.0000 </r>
       <r>   -3.0753    1.0000 </r>
       <r>   -3.0729    1.0000 </r>
       <r>   -1.9736    1.0000 </r>
       <r>   -1.9717    1.0000 </r>
       <r>   -1.9717    1.0000 </r>
       <r>   -1.9715    1.0000 </r>
       <r>   -1.9714    1.0000 </r>
       <r>   -1.9713    1.0000 </r>
       <r>   -1.9712    1.0000 </r>
       <r>   -1.9693    1.0000 </r>
       <r>   -0.8053    1.0000 </r>
       <r>   -0.8044    1.0000 </r>
       <r>   -0.8033    1.0000 </r>
       <r>   -0.8032    1.0000 </r>
       <r>   -0.8028    1.0000 </r>
       <r>   -0.8027    1.0000 </r>
       <r>   -0.8016    1.0000 </r>
       <r>   -0.8008    1.0000 </r>
       <r>   -0.6363    1.0000 </r>
       <r>   -0.6352    1.0000 </r>
       <r>   -0.6345    1.0000 </r>
       <r>   -0.6340    1.0000 </r>
       <r>   -0.6340    1.0000 </r>
       <r>   -0.6335    1.0000 </r>
       <r>   -0.6327    1.0000 </r>
       <r>   -0.6315    1.0000 </r>
       <r>    0.0225    1.0000 </r>
       <r>    0.0240    1.0000 </r>
       <r>    1.4713    1.0000 </r>
       <r>    1.4730    1.0000 </r>
       <r>    1.4742    1.0000 </r>
       <r>    1.4743    1.0000 </r>
       <r>    1.4744    1.0000 </r>
       <r>    1.4744    1.0000 </r>
       <r>    1.4753    1.0000 </r>
       <r>    1.4769    1.0000 </r>
       <r>    1.4917    1.0000 </r>
       <r>    1.4926    1.0000 </r>
       <r>    1.4929    1.0000 </r>
       <r>    1.4930    1.0000 </r>
       <r>    1.4936    1.0000 </r>
       <r>    1.4936    1.0000 </r>
       <r>    1.4943    1.0000 </r>
       <r>    1.4952    1.0000 </r>
       <r>    2.3174    1.0000 </r>
       <r>    2.3176    1.0000 </r>
       <r>    2.3176    1.0000 </r>
       <r>    2.3180    1.0000 </r>
       <r>    2.3181    1.0000 </r>
       <r>    2.3185    1.0000 </r>
       <r>    2.3185    1.0000 </r>
       <r>    2.3187    1.0000 </r>
       <r>    3.0225    1.0000 </r>
       <r>    3.0241    1.0000 </r>
       <r>    3.0242    1.0000 </r>
       <r>    3.0247    1.0000 </r>
       <r>    3.0250    1.0000 </r>
       <r>    3.0254    1.0000 </r>
       <r>    3.0255    1.0000 </r>
       <r>    3.0271    1.0000 </r>
       <r>    3.1465    1.0000 </r>
       <r>    3.1478    1.0000 </r>
       <r>    3.1485    1.0000 </r>
       <r>    3.1495    1.0000 </r>
       <r>    3.1575    1.0000 </r>
       <r>    3.1581    1.0000 </r>
       <r>    3.1589    1.0000 </r>
       <r>    3.1590    1.0000 </r>
       <r>    3.1593    1.0000 </r>
       <r>    3.1595    1.0000 </r>
       <r>    3.1606    1.0000 </r>
       <r>    3.1609    1.0000 </r>
       <r>    3.2847    1.0000 </r>
       <r>    3.2850    1.0000 </r>
       <r>    3.2851    1.0000 </r>
       <r>    3.2856    1.0000 </r>
       <r>    3.2858    1.0000 </r>
       <r>    3.2864    1.0000 </r>
       <r>    3.2865    1.0000 </r>
       <r>    3.2869    1.0000 </r>
       <r>    4.3309    1.0000 </r>
       <r>    4.3309    1.0000 </r>
       <r>    4.3315    1.0000 </r>
       <r>    4.3318    1.0000 </r>
       <r>    4.3319    1.0000 </r>
       <r>    4.3321    1.0000 </r>
       <r>    4.3327    1.0000 </r>
       <r>    4.3328    1.0000 </r>
       <r>    4.4330    1.0000 </r>
       <r>    4.4330    1.0000 </r>
       <r>    4.4966    1.0000 </r>
       <r>    4.5002    1.0000 </r>
       <r>    4.5008    1.0000 </r>
       <r>    4.5009    1.0000 </r>
       <r>    4.5009    1.0000 </r>
       <r>    4.5010    1.0000 </r>
       <r>    4.5016    1.0000 </r>
       <r>    4.5051    1.0000 </r>
       <r>    4.9528    1.0000 </r>
       <r>    4.9547    1.0000 </r>
       <r>    4.9557    1.0000 </r>
       <r>    4.9576    1.0000 </r>
       <r>    6.2790    0.0000 </r>
       <r>    6.2804    0.0000 </r>
       <r>    7.1933    0.0000 </r>
       <r>    7.1946    0.0000 </r>
       <r>    7.6437    0.0000 </r>
       <r>    7.6451    0.0000 </r>
       <r>    7.6453    0.0000 </r>
       <r>    7.6459    0.0000 </r>
       <r>    7.6459    0.0000 </r>
       <r>    7.6465    0.0000 </r>
       <r>    7.6466    0.0000 </r>
       <r>    7.6480    0.0000 </r>
       <r>    7.7139    0.0000 </r>
       <r>    7.7144    0.0000 </r>
       <r>    8.0572    0.0000 </r>
       <r>    8.0591    0.0000 </r>
       <r>    8.0596    0.0000 </r>
       <r>    8.0597    0.0000 </r>
       <r>    8.0598    0.0000 </r>
       <r>    8.0599    0.0000 </r>
       <r>    8.0603    0.0000 </r>
       <r>    8.0622    0.0000 </r>
       <r>    8.1436    0.0000 </r>
       <r>    8.1451    0.0000 </r>
       <r>    8.1453    0.0000 </r>
       <r>    8.1454    0.0000 </r>
       <r>    8.1459    0.0000 </r>
       <r>    8.1460    0.0000 </r>
       <r>    8.1462    0.0000 </r>
       <r>    8.1476    0.0000 </r>
       <r>    8.5509    0.0000 </r>
       <r>    8.5518    0.0000 </r>
       <r>    8.5521    0.0000 </r>
       <r>    8.5522    0.0000 </r>
       <r>    8.5534    0.0000 </r>
       <r>    8.5535    0.0000 </r>
       <r>    8.5537    0.0000 </r>
       <r>    8.5546    0.0000 </r>
       <r>    9.3196    0.0000 </r>
       <r>    9.3244    0.0000 </r>
      </set>
      <set comment="kpoint 3">
       <r>   -5.9320    1.0000 </r>
       <r>   -5.9320    1.0000 </r>
       <r>   -4.8757    1.0000 </r>
       <r>   -4.8733    1.0000 </r>
       <r>   -4.8730    1.0000 </r>
       <r>   -4.8728    1.0000 </r>
       <r>   -4.8726    1.0000 </r>
       <r>   -4.8724    1.0000 </r>
       <r>   -4.8721    1.0000 </r>
       <r>   -4.8698    1.0000 </r>
       <r>   -4.0254    1.0000 </r>
       <r>   -4.0235    1.0000 </r>
       <r>   -4.0229    1.0000 </r>
       <r>   -4.0228    1.0000 </r>
       <r>   -4.0226    1.0000 </r>
       <r>   -4.0225    1.0000 </r>
       <r>   -4.0219    1.0000 </r>
       <r>   -4.0200    1.0000 </r>
       <r>   -3.8057    1.0000 </r>
       <r>   -3.8057    1.0000 </r>
       <r>   -3.0784    1.0000 </r>
       <r>   -3.0776    1.0000 </r>
       <r>   -3.0766    1.0000 </r>
       <r>   -3.0764    1.0000 </r>
       <r>   -3.0764    1.0000 </r>
       <r>   -3.0762    1.0000 </r>
       <r>   -3.0752    1.0000 </r>
       <r>   -3.0744    1.0000 </r>
       <r>   -1.9745    1.0000 </r>
       <r>   -1.9715    1.0000 </r>
       <r>   -1.9715    1.0000 </r>
       <r>   -1.9715    1.0000 </r>
       <r>   -1.9715    1.0000 </r>
       <r>   -1.9715    1.0000 </r>
       <r>   -1.9714    1.0000 </r>
       <r>   -1.9684    1.0000 </r>
       <r>   -0.8055    1.0000 </r>
       <r>   -0.8047    1.0000 </r>
       <r>   -0.8031    1.0000 </r>
       <r>   -0.8031    1.0000 </r>
       <r>   -0.8029    1.0000 </r>
       <r>   -0.8029    1.0000 </r>
       <r>   -0.8013    1.0000 </r>
       <r>   -0.8005    1.0000 </r>
       <r>   -0.6363    1.0000 </r>
       <r>   -0.6350    1.0000 </r>
       <r>   -0.6341    1.0000 </r>
       <r>   -0.6341    1.0000 </r>
       <r>   -0.6339    1.0000 </r>
       <r>   -0.6339    1.0000 </r>
       <r>   -0.6329    1.0000 </r>
       <r>   -0.6316    1.0000 </r>
       <r>    0.0232    1.0000 </r>
       <r>    0.0232    1.0000 </r>
       <r>    1.4723    1.0000 </r>
       <r>    1.4726    1.0000 </r>
       <r>    1.4741    1.0000 </r>
       <r>    1.4742    1.0000 </r>
       <r>    1.4744    1.0000 </r>
       <r>    1.4745    1.0000 </r>
       <r>    1.4757    1.0000 </r>
       <r>    1.4762    1.0000 </r>
       <r>    1.4919    1.0000 </r>
       <r>    1.4929    1.0000 </r>
       <r>    1.4930    1.0000 </r>
       <r>    1.4931    1.0000 </r>
       <r>    1.4935    1.0000 </r>
       <r>    1.4935    1.0000 </r>
       <r>    1.4938    1.0000 </r>
       <r>    1.4949    1.0000 </r>
       <r>    2.3169    1.0000 </r>
       <r>    2.3172    1.0000 </r>
       <r>    2.3180    1.0000 </r>
       <r>    2.3180    1.0000 </r>
       <r>    2.3181    1.0000 </r>
       <r>    2.3181    1.0000 </r>
       <r>    2.3189    1.0000 </r>
       <r>    2.3192    1.0000 </r>
       <r>    3.0238    1.0000 </r>
       <r>    3.0241    1.0000 </r>
       <r>    3.0246    1.0000 </r>
       <r>    3.0248    1.0000 </r>
       <r>    3.0249    1.0000 </r>
       <r>    3.0251    1.0000 </r>
       <r>    3.0255    1.0000 </r>
       <r>    3.0259    1.0000 </r>
       <r>    3.1480    1.0000 </r>
       <r>    3.1481    1.0000 </r>
       <r>    3.1481    1.0000 </r>
       <r>    3.1481    1.0000 </r>
       <r>    3.1578    1.0000 </r>
       <r>    3.1581    1.0000 </r>
       <r>    3.1590    1.0000 </r>
       <r>    3.1590    1.0000 </r>
       <r>    3.1593    1.0000 </r>
       <r>    3.1593    1.0000 </r>
       <r>    3.1603    1.0000 </r>
       <r>    3.1606    1.0000 </r>
       <r>    3.2837    1.0000 </r>
       <r>    3.2847    1.0000 </r>
       <r>    3.2856    1.0000 </r>
       <r>    3.2857    1.0000 </r>
       <r>    3.2858    1.0000 </r>
       <r>    3.2859    1.0000 </r>
       <r>    3.2869    1.0000 </r>
       <r>    3.2879    1.0000 </r>
       <r>    4.3291    1.0000 </r>
       <r>    4.3308    1.0000 </r>
       <r>    4.3317    1.0000 </r>
       <r>    4.3317    1.0000 </r>
       <r>    4.3320    1.0000 </r>
       <r>    4.3320    1.0000 </r>
       <r>    4.3329    1.0000 </r>
       <r>    4.3345    1.0000 </r>
       <r>    4.4329    1.0000 </r>
       <r>    4.4330    1.0000 </r>
       <r>    4.4993    1.0000 </r>
       <r>    4.5007    1.0000 </r>
       <r>    4.5009    1.0000 </r>
       <r>    4.5009    1.0000 </r>
       <r>    4.5009    1.0000 </r>
       <r>    4.5009    1.0000 </r>
       <r>    4.5013    1.0000 </r>
       <r>    4.5025    1.0000 </r>
       <r>    4.9552    1.0000 </r>
       <r>    4.9552    1.0000 </r>
       <r>    4.9552    1.0000 </r>
       <r>    4.9552    1.0000 </r>
       <r>    6.2797    0.0000 </r>
       <r>    6.2797    0.0000 </r>
       <r>    7.1939    0.0000 </r>
       <r>    7.1939    0.0000 </r>
       <r>    7.6445    0.0000 </r>
       <r>    7.6445    0.0000 </r>
       <r>    7.6457    0.0000 </r>
       <r>    7.6458    0.0000 </r>
       <r>    7.6459    0.0000 </r>
       <r>    7.6460    0.0000 </r>
       <r>    7.6472    0.0000 </r>
       <r>    7.6472    0.0000 </r>
       <r>    7.7141    0.0000 </r>
       <r>    7.7142    0.0000 </r>
       <r>    8.0591    0.0000 </r>
       <r>    8.0592    0.0000 </r>
       <r>    8.0595    0.0000 </r>
       <r>    8.0597    0.0000 </r>
       <r>    8.0598    0.0000 </r>
       <r>    8.0599    0.0000 </r>
       <r>    8.0602    0.0000 </r>
       <r>    8.0603    0.0000 </r>
       <r>    8.1443    0.0000 </r>
       <r>    8.1444    0.0000 </r>
       <r>    8.1453    0.0000 </r>
       <r>    8.1456    0.0000 </r>
       <r>    8.1458    0.0000 </r>
       <r>    8.1460    0.0000 </r>
       <r>    8.1470    0.0000 </r>
       <r>    8.1470    0.0000 </r>
       <r>    8.5515    0.0000 </r>
       <r>    8.5521    0.0000 </r>
       <r>    8.5523    0.0000 </r>
       <r>    8.5526    0.0000 </r>
       <r>    8.5530    0.0000 </r>
       <r>    8.5533    0.0000 </r>
       <r>    8.5534    0.0000 </r>
       <r>    8.5541    0.0000 </r>
       <r>    9.3207    0.0000 </r>
       <r>    9.3228    0.0000 </r>
      </set>
      <set comment="kpoint 4">
       <r>   -5.6651    1.0000 </r>
       <r>   -5.6641    1.0000 </r>
       <r>   -5.6637    1.0000 </r>
       <r>   -5.6627    1.0000 </r>
       <r>   -4.6460    1.0000 </r>
       <r>   -4.6448    1.0000 </r>
       <r>   -4.6443    1.0000 </r>
       <r>   -4.6442    1.0000 </r>
       <r>   -4.6440    1.0000 </r>
       <r>   -4.6440    1.0000 </r>
       <r>   -4.6435    1.0000 </r>
       <r>   -4.6423    1.0000 </r>
       <r>   -3.6086    1.0000 </r>
       <r>   -3.6061    1.0000 </r>
       <r>   -3.6055    1.0000 </r>
       <r>   -3.6054    1.0000 </r>
       <r>   -3.6053    1.0000 </r>
       <r>   -3.6052    1.0000 </r>
       <r>   -3.6046    1.0000 </r>
       <r>   -3.6022    1.0000 </r>
       <r>   -3.3244    1.0000 </r>
       <r>   -3.3225    1.0000 </r>
       <r>   -3.3218    1.0000 </r>
       <r>   -3.3217    1.0000 </r>
       <r>   -3.3216    1.0000 </r>
       <r>   -3.3215    1.0000 </r>
       <r>   -3.3208    1.0000 </r>
       <r>   -3.3188    1.0000 </r>
       <r>   -2.4607    1.0000 </r>
       <r>   -2.4603    1.0000 </r>
       <r>   -2.4592    1.0000 </r>
       <r>   -2.4589    1.0000 </r>
       <r>   -1.4635    1.0000 </r>
       <r>   -1.4634    1.0000 </r>
       <r>   -1.4620    1.0000 </r>
       <r>   -1.4619    1.0000 </r>
       <r>   -1.0409    1.0000 </r>
       <r>   -1.0392    1.0000 </r>
       <r>   -1.0384    1.0000 </r>
       <r>   -1.0384    1.0000 </r>
       <r>   -1.0383    1.0000 </r>
       <r>   -1.0383    1.0000 </r>
       <r>   -1.0375    1.0000 </r>
       <r>   -1.0357    1.0000 </r>
       <r>   -0.1975    1.0000 </r>
       <r>   -0.1965    1.0000 </r>
       <r>   -0.1953    1.0000 </r>
       <r>   -0.1953    1.0000 </r>
       <r>   -0.1952    1.0000 </r>
       <r>   -0.1952    1.0000 </r>
       <r>   -0.1940    1.0000 </r>
       <r>   -0.1929    1.0000 </r>
       <r>    0.4630    1.0000 </r>
       <r>    0.4633    1.0000 </r>
       <r>    0.4646    1.0000 </r>
       <r>    0.4649    1.0000 </r>
       <r>    0.4651    1.0000 </r>
       <r>    0.4654    1.0000 </r>
       <r>    0.4666    1.0000 </r>
       <r>    0.4669    1.0000 </r>
       <r>    1.4165    1.0000 </r>
       <r>    1.4169    1.0000 </r>
       <r>    1.4171    1.0000 </r>
       <r>    1.4175    1.0000 </r>
       <r>    2.2860    1.0000 </r>
       <r>    2.2866    1.0000 </r>
       <r>    2.2871    1.0000 </r>
       <r>    2.2872    1.0000 </r>
       <r>    2.2874    1.0000 </r>
       <r>    2.2875    1.0000 </r>
       <r>    2.2880    1.0000 </r>
       <r>    2.2886    1.0000 </r>
       <r>    2.3711    1.0000 </r>
       <r>    2.3713    1.0000 </r>
       <r>    2.3720    1.0000 </r>
       <r>    2.3720    1.0000 </r>
       <r>    2.3723    1.0000 </r>
       <r>    2.3724    1.0000 </r>
       <r>    2.3731    1.0000 </r>
       <r>    2.3733    1.0000 </r>
       <r>    2.9821    1.0000 </r>
       <r>    2.9826    1.0000 </r>
       <r>    2.9831    1.0000 </r>
       <r>    2.9832    1.0000 </r>
       <r>    2.9832    1.0000 </r>
       <r>    2.9833    1.0000 </r>
       <r>    2.9838    1.0000 </r>
       <r>    2.9843    1.0000 </r>
       <r>    3.0763    1.0000 </r>
       <r>    3.0763    1.0000 </r>
       <r>    3.0771    1.0000 </r>
       <r>    3.0771    1.0000 </r>
       <r>    3.3306    1.0000 </r>
       <r>    3.3314    1.0000 </r>
       <r>    3.3314    1.0000 </r>
       <r>    3.3322    1.0000 </r>
       <r>    3.5893    1.0000 </r>
       <r>    3.5901    1.0000 </r>
       <r>    3.5910    1.0000 </r>
       <r>    3.5910    1.0000 </r>
       <r>    3.5912    1.0000 </r>
       <r>    3.5912    1.0000 </r>
       <r>    3.5921    1.0000 </r>
       <r>    3.5929    1.0000 </r>
       <r>    3.9158    1.0000 </r>
       <r>    3.9173    1.0000 </r>
       <r>    3.9179    1.0000 </r>
       <r>    3.9182    1.0000 </r>
       <r>    3.9182    1.0000 </r>
       <r>    3.9186    1.0000 </r>
       <r>    3.9192    1.0000 </r>
       <r>    3.9206    1.0000 </r>
       <r>    4.1182    1.0000 </r>
       <r>    4.1183    1.0000 </r>
       <r>    4.1186    1.0000 </r>
       <r>    4.1187    1.0000 </r>
       <r>    4.1731    1.0000 </r>
       <r>    4.1738    1.0000 </r>
       <r>    4.1741    1.0000 </r>
       <r>    4.1741    1.0000 </r>
       <r>    4.1741    1.0000 </r>
       <r>    4.1742    1.0000 </r>
       <r>    4.1745    1.0000 </r>
       <r>    4.1751    1.0000 </r>
       <r>    5.4798    1.0000 </r>
       <r>    5.4800    1.0000 </r>
       <r>    5.4804    1.0000 </r>
       <r>    5.4807    1.0000 </r>
       <r>    6.8653    0.0000 </r>
       <r>    6.8657    0.0000 </r>
       <r>    6.8659    0.0000 </r>
       <r>    6.8663    0.0000 </r>
       <r>    7.6301    0.0000 </r>
       <r>    7.6307    0.0000 </r>
       <r>    7.6313    0.0000 </r>
       <r>    7.6314    0.0000 </r>
       <r>    7.6318    0.0000 </r>
       <r>    7.6319    0.0000 </r>
       <r>    7.6326    0.0000 </r>
       <r>    7.6331    0.0000 </r>
       <r>    7.9394    0.0000 </r>
       <r>    7.9395    0.0000 </r>
       <r>    7.9397    0.0000 </r>
       <r>    7.9398    0.0000 </r>
       <r>    7.9402    0.0000 </r>
       <r>    7.9403    0.0000 </r>
       <r>    7.9405    0.0000 </r>
       <r>    7.9406    0.0000 </r>
       <r>    8.3142    0.0000 </r>
       <r>    8.3146    0.0000 </r>
       <r>    8.3150    0.0000 </r>
       <r>    8.3152    0.0000 </r>
       <r>    8.3152    0.0000 </r>
       <r>    8.3154    0.0000 </r>
       <r>    8.3158    0.0000 </r>
       <r>    8.3162    0.0000 </r>
       <r>    8.7651    0.0000 </r>
       <r>    8.7669    0.0000 </r>
       <r>    8.7690    0.0000 </r>
       <r>    8.7699    0.0000 </r>
       <r>    8.7716    0.0000 </r>
       <r>    8.7729    0.0000 </r>
       <r>    8.7738    0.0000 </r>
       <r>    8.7783    0.0000 </r>
       <r>    8.7859    0.0000 </r>
       <r>    8.7910    0.0000 </r>
       <r>    8.8044    0.0000 </r>
       <r>    8.8107    0.0000 </r>
      </set>
      <set comment="kpoint 5">
       <r>   -5.6642    1.0000 </r>
       <r>   -5.6641    1.0000 </r>
       <r>   -5.6637    1.0000 </r>
       <r>   -5.6636    1.0000 </r>
       <r>   -4.6477    1.0000 </r>
       <r>   -4.6446    1.0000 </r>
       <r>   -4.6443    1.0000 </r>
       <r>   -4.6441    1.0000 </r>
       <r>   -4.6441    1.0000 </r>
       <r>   -4.6440    1.0000 </r>
       <r>   -4.6436    1.0000 </r>
       <r>   -4.6406    1.0000 </r>
       <r>   -3.6065    1.0000 </r>
       <r>   -3.6064    1.0000 </r>
       <r>   -3.6056    1.0000 </r>
       <r>   -3.6054    1.0000 </r>
       <r>   -3.6053    1.0000 </r>
       <r>   -3.6051    1.0000 </r>
       <r>   -3.6043    1.0000 </r>
       <r>   -3.6042    1.0000 </r>
       <r>   -3.3232    1.0000 </r>
       <r>   -3.3230    1.0000 </r>
       <r>   -3.3219    1.0000 </r>
       <r>   -3.3216    1.0000 </r>
       <r>   -3.3216    1.0000 </r>
       <r>   -3.3214    1.0000 </r>
       <r>   -3.3203    1.0000 </r>
       <r>   -3.3201    1.0000 </r>
       <r>   -2.4617    1.0000 </r>
       <r>   -2.4602    1.0000 </r>
       <r>   -2.4594    1.0000 </r>
       <r>   -2.4578    1.0000 </r>
       <r>   -1.4642    1.0000 </r>
       <r>   -1.4631    1.0000 </r>
       <r>   -1.4623    1.0000 </r>
       <r>   -1.4611    1.0000 </r>
       <r>   -1.0409    1.0000 </r>
       <r>   -1.0397    1.0000 </r>
       <r>   -1.0386    1.0000 </r>
       <r>   -1.0384    1.0000 </r>
       <r>   -1.0383    1.0000 </r>
       <r>   -1.0381    1.0000 </r>
       <r>   -1.0370    1.0000 </r>
       <r>   -1.0357    1.0000 </r>
       <r>   -0.1976    1.0000 </r>
       <r>   -0.1973    1.0000 </r>
       <r>   -0.1954    1.0000 </r>
       <r>   -0.1954    1.0000 </r>
       <r>   -0.1951    1.0000 </r>
       <r>   -0.1951    1.0000 </r>
       <r>   -0.1932    1.0000 </r>
       <r>   -0.1929    1.0000 </r>
       <r>    0.4631    1.0000 </r>
       <r>    0.4637    1.0000 </r>
       <r>    0.4647    1.0000 </r>
       <r>    0.4649    1.0000 </r>
       <r>    0.4651    1.0000 </r>
       <r>    0.4653    1.0000 </r>
       <r>    0.4663    1.0000 </r>
       <r>    0.4669    1.0000 </r>
       <r>    1.4162    1.0000 </r>
       <r>    1.4170    1.0000 </r>
       <r>    1.4171    1.0000 </r>
       <r>    1.4179    1.0000 </r>
       <r>    2.2853    1.0000 </r>
       <r>    2.2858    1.0000 </r>
       <r>    2.2869    1.0000 </r>
       <r>    2.2870    1.0000 </r>
       <r>    2.2877    1.0000 </r>
       <r>    2.2877    1.0000 </r>
       <r>    2.2887    1.0000 </r>
       <r>    2.2893    1.0000 </r>
       <r>    2.3713    1.0000 </r>
       <r>    2.3715    1.0000 </r>
       <r>    2.3718    1.0000 </r>
       <r>    2.3719    1.0000 </r>
       <r>    2.3724    1.0000 </r>
       <r>    2.3725    1.0000 </r>
       <r>    2.3729    1.0000 </r>
       <r>    2.3731    1.0000 </r>
       <r>    2.9815    1.0000 </r>
       <r>    2.9817    1.0000 </r>
       <r>    2.9828    1.0000 </r>
       <r>    2.9831    1.0000 </r>
       <r>    2.9833    1.0000 </r>
       <r>    2.9836    1.0000 </r>
       <r>    2.9847    1.0000 </r>
       <r>    2.9848    1.0000 </r>
       <r>    3.0752    1.0000 </r>
       <r>    3.0762    1.0000 </r>
       <r>    3.0773    1.0000 </r>
       <r>    3.0783    1.0000 </r>
       <r>    3.3300    1.0000 </r>
       <r>    3.3312    1.0000 </r>
       <r>    3.3316    1.0000 </r>
       <r>    3.3328    1.0000 </r>
       <r>    3.5900    1.0000 </r>
       <r>    3.5904    1.0000 </r>
       <r>    3.5909    1.0000 </r>
       <r>    3.5910    1.0000 </r>
       <r>    3.5912    1.0000 </r>
       <r>    3.5913    1.0000 </r>
       <r>    3.5918    1.0000 </r>
       <r>    3.5923    1.0000 </r>
       <r>    3.9170    1.0000 </r>
       <r>    3.9173    1.0000 </r>
       <r>    3.9180    1.0000 </r>
       <r>    3.9181    1.0000 </r>
       <r>    3.9184    1.0000 </r>
       <r>    3.9185    1.0000 </r>
       <r>    3.9192    1.0000 </r>
       <r>    3.9195    1.0000 </r>
       <r>    4.1180    1.0000 </r>
       <r>    4.1184    1.0000 </r>
       <r>    4.1185    1.0000 </r>
       <r>    4.1189    1.0000 </r>
       <r>    4.1699    1.0000 </r>
       <r>    4.1734    1.0000 </r>
       <r>    4.1737    1.0000 </r>
       <r>    4.1740    1.0000 </r>
       <r>    4.1742    1.0000 </r>
       <r>    4.1744    1.0000 </r>
       <r>    4.1748    1.0000 </r>
       <r>    4.1784    1.0000 </r>
       <r>    5.4773    1.0000 </r>
       <r>    5.4800    1.0000 </r>
       <r>    5.4805    1.0000 </r>
       <r>    5.4832    1.0000 </r>
       <r>    6.8642    0.0000 </r>
       <r>    6.8657    0.0000 </r>
       <r>    6.8659    0.0000 </r>
       <r>    6.8674    0.0000 </r>
       <r>    7.6294    0.0000 </r>
       <r>    7.6309    0.0000 </r>
       <r>    7.6311    0.0000 </r>
       <r>    7.6314    0.0000 </r>
       <r>    7.6319    0.0000 </r>
       <r>    7.6321    0.0000 </r>
       <r>    7.6323    0.0000 </r>
       <r>    7.6337    0.0000 </r>
       <r>    7.9368    0.0000 </r>
       <r>    7.9393    0.0000 </r>
       <r>    7.9398    0.0000 </r>
       <r>    7.9399    0.0000 </r>
       <r>    7.9401    0.0000 </r>
       <r>    7.9402    0.0000 </r>
       <r>    7.9407    0.0000 </r>
       <r>    7.9432    0.0000 </r>
       <r>    8.3131    0.0000 </r>
       <r>    8.3141    0.0000 </r>
       <r>    8.3145    0.0000 </r>
       <r>    8.3150    0.0000 </r>
       <r>    8.3154    0.0000 </r>
       <r>    8.3159    0.0000 </r>
       <r>    8.3163    0.0000 </r>
       <r>    8.3172    0.0000 </r>
       <r>    8.7645    0.0000 </r>
       <r>    8.7659    0.0000 </r>
       <r>    8.7687    0.0000 </r>
       <r>    8.7710    0.0000 </r>
       <r>    8.7717    0.0000 </r>
       <r>    8.7733    0.0000 </r>
       <r>    8.7774    0.0000 </r>
       <r>    8.7842    0.0000 </r>
       <r>    8.7868    0.0000 </r>
       <r>    8.8004    0.0000 </r>
       <r>    8.8085    0.0000 </r>
       <r>    8.8234    0.0000 </r>
      </set>
      <set comment="kpoint 6">
       <r>   -5.4060    1.0000 </r>
       <r>   -5.4043    1.0000 </r>
       <r>   -5.4039    1.0000 </r>
       <r>   -5.4038    1.0000 </r>
       <r>   -5.4037    1.0000 </r>
       <r>   -5.4035    1.0000 </r>
       <r>   -5.4032    1.0000 </r>
       <r>   -5.4015    1.0000 </r>
       <r>   -3.4858    1.0000 </r>
       <r>   -3.4810    1.0000 </r>
       <r>   -3.4785    1.0000 </r>
       <r>   -3.4783    1.0000 </r>
       <r>   -3.4781    1.0000 </r>
       <r>   -3.4780    1.0000 </r>
       <r>   -3.4780    1.0000 </r>
       <r>   -3.4779    1.0000 </r>
       <r>   -3.4779    1.0000 </r>
       <r>   -3.4778    1.0000 </r>
       <r>   -3.4778    1.0000 </r>
       <r>   -3.4778    1.0000 </r>
       <r>   -3.4778    1.0000 </r>
       <r>   -3.4777    1.0000 </r>
       <r>   -3.4777    1.0000 </r>
       <r>   -3.4777    1.0000 </r>
       <r>   -3.4776    1.0000 </r>
       <r>   -3.4775    1.0000 </r>
       <r>   -3.4775    1.0000 </r>
       <r>   -3.4774    1.0000 </r>
       <r>   -3.4772    1.0000 </r>
       <r>   -3.4770    1.0000 </r>
       <r>   -3.4746    1.0000 </r>
       <r>   -3.4698    1.0000 </r>
       <r>   -0.6318    1.0000 </r>
       <r>   -0.6292    1.0000 </r>
       <r>   -0.6253    1.0000 </r>
       <r>   -0.6252    1.0000 </r>
       <r>   -0.6250    1.0000 </r>
       <r>   -0.6249    1.0000 </r>
       <r>   -0.6248    1.0000 </r>
       <r>   -0.6248    1.0000 </r>
       <r>   -0.6248    1.0000 </r>
       <r>   -0.6247    1.0000 </r>
       <r>   -0.6247    1.0000 </r>
       <r>   -0.6246    1.0000 </r>
       <r>   -0.6246    1.0000 </r>
       <r>   -0.6245    1.0000 </r>
       <r>   -0.6244    1.0000 </r>
       <r>   -0.6244    1.0000 </r>
       <r>   -0.6244    1.0000 </r>
       <r>   -0.6244    1.0000 </r>
       <r>   -0.6243    1.0000 </r>
       <r>   -0.6241    1.0000 </r>
       <r>   -0.6240    1.0000 </r>
       <r>   -0.6239    1.0000 </r>
       <r>   -0.6200    1.0000 </r>
       <r>   -0.6173    1.0000 </r>
       <r>    1.8207    1.0000 </r>
       <r>    1.8213    1.0000 </r>
       <r>    1.8221    1.0000 </r>
       <r>    1.8226    1.0000 </r>
       <r>    1.8228    1.0000 </r>
       <r>    1.8232    1.0000 </r>
       <r>    1.8240    1.0000 </r>
       <r>    1.8246    1.0000 </r>
       <r>    2.1938    1.0000 </r>
       <r>    2.1950    1.0000 </r>
       <r>    2.1968    1.0000 </r>
       <r>    2.1978    1.0000 </r>
       <r>    2.1978    1.0000 </r>
       <r>    2.1980    1.0000 </r>
       <r>    2.1981    1.0000 </r>
       <r>    2.1981    1.0000 </r>
       <r>    2.1981    1.0000 </r>
       <r>    2.1983    1.0000 </r>
       <r>    2.1983    1.0000 </r>
       <r>    2.1983    1.0000 </r>
       <r>    2.1984    1.0000 </r>
       <r>    2.1984    1.0000 </r>
       <r>    2.1985    1.0000 </r>
       <r>    2.1986    1.0000 </r>
       <r>    2.1987    1.0000 </r>
       <r>    2.1987    1.0000 </r>
       <r>    2.1987    1.0000 </r>
       <r>    2.1989    1.0000 </r>
       <r>    2.1990    1.0000 </r>
       <r>    2.2000    1.0000 </r>
       <r>    2.2018    1.0000 </r>
       <r>    2.2030    1.0000 </r>
       <r>    3.5472    1.0000 </r>
       <r>    3.5499    1.0000 </r>
       <r>    3.5517    1.0000 </r>
       <r>    3.5517    1.0000 </r>
       <r>    3.5518    1.0000 </r>
       <r>    3.5521    1.0000 </r>
       <r>    3.5522    1.0000 </r>
       <r>    3.5523    1.0000 </r>
       <r>    3.5523    1.0000 </r>
       <r>    3.5523    1.0000 </r>
       <r>    3.5524    1.0000 </r>
       <r>    3.5524    1.0000 </r>
       <r>    3.5525    1.0000 </r>
       <r>    3.5525    1.0000 </r>
       <r>    3.5526    1.0000 </r>
       <r>    3.5526    1.0000 </r>
       <r>    3.5526    1.0000 </r>
       <r>    3.5527    1.0000 </r>
       <r>    3.5528    1.0000 </r>
       <r>    3.5532    1.0000 </r>
       <r>    3.5532    1.0000 </r>
       <r>    3.5533    1.0000 </r>
       <r>    3.5550    1.0000 </r>
       <r>    3.5577    1.0000 </r>
       <r>    5.0014    1.0000 </r>
       <r>    5.0068    1.0000 </r>
       <r>    5.0070    1.0000 </r>
       <r>    5.0072    1.0000 </r>
       <r>    5.0073    1.0000 </r>
       <r>    5.0075    1.0000 </r>
[...]
      </set>
     </set>
    </set>
   </array>
  </eigenvalues>
  <separator name="orbital magnetization" >
   <v name="MAGDIPOLOUT">      0.00000000      0.00000000      0.00000000</v>
  </separator>
  <dos>
   <i name="efermi">      5.89421249 </i>
   <total>
    <array>
     <dimension dim="1">gridpoints</dimension>
     <dimension dim="2">spin</dimension>
     <field>energy</field>
     <field>total</field>
     <field>integrated</field>
     <set>
      <set comment="spin 1">
       <r>    -6.9820     0.0000     0.0000 </r>
       <r>    -6.9251     0.0000     0.0000 </r>
       <r>    -6.8681     0.0000     0.0000 </r>
       <r>    -6.8112     0.0000     0.0000 </r>
       <r>    -6.7542     0.0000     0.0000 </r>
       <r>    -6.6973     0.0000     0.0000 </r>
       <r>    -6.6403     0.0000     0.0000 </r>
       <r>    -6.5834     0.0000     0.0000 </r>
       <r>    -6.5265     0.0000     0.0000 </r>
       <r>    -6.4695     0.0000     0.0000 </r>
       <r>    -6.4126     0.0000     0.0000 </r>
       <r>    -6.3556     0.0000     0.0000 </r>
       <r>    -6.2987     0.0000     0.0000 </r>
       <r>    -6.2417     0.0228     0.0013 </r>
       <r>    -6.1848     4.0533     0.2321 </r>
       <r>    -6.1279     0.3142     0.2500 </r>
       <r>    -6.0709     0.0000     0.2500 </r>
       <r>    -6.0140     0.0000     0.2500 </r>
       <r>    -5.9570     1.0149     0.3078 </r>
       <r>    -5.9001    25.0109     1.7320 </r>
       <r>    -5.8431     0.3163     1.7500 </r>
       <r>    -5.7862     0.0000     1.7500 </r>
       <r>    -5.7293     0.0001     1.7500 </r>
       <r>    -5.6723    14.5606     2.5791 </r>
       <r>    -5.6154    38.1076     4.7491 </r>
       <r>    -5.5584     0.0160     4.7500 </r>
       <r>    -5.5015     0.0000     4.7500 </r>
       <r>    -5.4445     0.0708     4.7540 </r>
       <r>    -5.3876    30.5613     6.4943 </r>
       <r>    -5.3307     4.4908     6.7500 </r>
       <r>    -5.2737     0.0000     6.7500 </r>
       <r>    -5.2168     0.0000     6.7500 </r>
       <r>    -5.1598     0.0862     6.7549 </r>
       <r>    -5.1029    23.6851     8.1036 </r>
       <r>    -5.0459     2.5709     8.2500 </r>
       <r>    -4.9890     0.0000     8.2500 </r>
       <r>    -4.9321     0.0016     8.2501 </r>
       <r>    -4.8751    45.6541    10.8498 </r>
       <r>    -4.8182    59.7065    14.2496 </r>
       <r>    -4.7612     0.0065    14.2500 </r>
       <r>    -4.7043     0.0012    14.2501 </r>
       <r>    -4.6473    43.2536    16.7131 </r>
       <r>    -4.5904    62.1057    20.2495 </r>
       <r>    -4.5335     0.0082    20.2500 </r>
       <r>    -4.4765     0.0000    20.2500 </r>
       <r>    -4.4196     0.0000    20.2500 </r>
       <r>    -4.3626     0.0000    20.2500 </r>
       <r>    -4.3057     0.0000    20.2500 </r>
       <r>    -4.2487     0.0000    20.2500 </r>
       <r>    -4.1918     0.2601    20.2648 </r>
       <r>    -4.1349    48.2982    23.0151 </r>
       <r>    -4.0779     4.1314    23.2503 </r>
       <r>    -4.0210    57.7808    26.5405 </r>
       <r>    -3.9640    47.5806    29.2499 </r>
       <r>    -3.9071     0.0111    29.2505 </r>
       <r>    -3.8501    13.5449    30.0218 </r>
       <r>    -3.7932    25.3601    31.4659 </r>
       <r>    -3.7363     4.9895    31.7500 </r>
       <r>    -3.6793     0.0000    31.7500 </r>
       <r>    -3.6224    12.1914    32.4442 </r>
       <r>    -3.5654    92.9159    37.7351 </r>
       <r>    -3.5085     1.9746    37.8476 </r>
       <r>    -3.4515   100.0808    43.5465 </r>
       <r>    -3.3946     3.5746    43.7500 </r>
       <r>    -3.3377    13.6432    44.5269 </r>
       <r>    -3.2807    91.5160    49.7381 </r>
       <r>    -3.2238     0.2095    49.7500 </r>
       <r>    -3.1668     0.0000    49.7500 </r>
       <r>    -3.1099     0.9721    49.8054 </r>
       <r>    -3.0529    99.1778    55.4528 </r>
       <r>    -2.9960     5.2187    55.7500 </r>
       <r>    -2.9391     0.0000    55.7500 </r>
       <r>    -2.8821     0.0000    55.7500 </r>
       <r>    -2.8252     0.0000    55.7500 </r>
       <r>    -2.7682     0.0000    55.7500 </r>
       <r>    -2.7113     0.0000    55.7500 </r>
       <r>    -2.6543     0.0000    55.7500 </r>
       <r>    -2.5974     0.0000    55.7500 </r>
       <r>    -2.5405     0.0000    55.7500 </r>
       <r>    -2.4835     2.4721    55.8908 </r>
       <r>    -2.4266    49.7052    58.7211 </r>
       <r>    -2.3696     0.5070    58.7500 </r>
       <r>    -2.3127     0.0000    58.7500 </r>
       <r>    -2.2557     0.0000    58.7500 </r>
       <r>    -2.1988     0.0000    58.7500 </r>
       <r>    -2.1419     0.0000    58.7500 </r>
       <r>    -2.0849     0.2667    58.7652 </r>
       <r>    -2.0280    24.8757    60.1817 </r>
       <r>    -1.9710    55.1807    63.3238 </r>
       <r>    -1.9141    52.1158    66.2915 </r>
       <r>    -1.8571    50.0326    69.1405 </r>
       <r>    -1.8002     1.9237    69.2500 </r>
       <r>    -1.7433     0.0000    69.2500 </r>
       <r>    -1.6863     0.0000    69.2500 </r>
       <r>    -1.6294     0.0000    69.2500 </r>
       <r>    -1.5724     0.0000    69.2500 </r>
       <r>    -1.5155     0.0051    69.2503 </r>
       <r>    -1.4585    32.3729    71.0937 </r>
       <r>    -1.4016    20.3059    72.2500 </r>
       <r>    -1.3447     0.0004    72.2500 </r>
       <r>    -1.2877     0.0016    72.2501 </r>
       <r>    -1.2308    10.6961    72.8592 </r>
       <r>    -1.1738     6.8636    73.2500 </r>
       <r>    -1.1169     0.0002    73.2500 </r>
       <r>    -1.0599     6.7716    73.6356 </r>
       <r>    -1.0030    97.9179    79.2113 </r>
       <r>    -0.9461     0.6792    79.2500 </r>
       <r>    -0.8891     0.0000    79.2500 </r>
       <r>    -0.8322     2.1205    79.3707 </r>
       <r>    -0.7752   100.5769    85.0979 </r>
       <r>    -0.7183     2.6714    85.2500 </r>
       <r>    -0.6613     3.3946    85.4433 </r>
       <r>    -0.6044   196.9596    96.6587 </r>
       <r>    -0.5475    10.3832    97.2500 </r>
       <r>    -0.4905     0.0000    97.2500 </r>
       <r>    -0.4336     0.0000    97.2500 </r>
       <r>    -0.3766     0.0000    97.2500 </r>
       <r>    -0.3197     0.0000    97.2500 </r>
       <r>    -0.2627     0.0001    97.2500 </r>
       <r>    -0.2058    24.1263    98.6238 </r>
       <r>    -0.1489    81.1846   103.2467 </r>
       <r>    -0.0919     0.0577   103.2500 </r>
       <r>    -0.0350     0.0005   103.2500 </r>
       <r>     0.0220    12.2333   103.9466 </r>
       <r>     0.0789    14.1073   104.7499 </r>
       <r>     0.1359     0.0011   104.7500 </r>
       <r>     0.1928     0.0000   104.7500 </r>
       <r>     0.2497     0.6250   104.7856 </r>
       <r>     0.3067    49.8914   107.6266 </r>
       <r>     0.3636     2.1679   107.7500 </r>
       <r>     0.4206     0.0928   107.7553 </r>
       <r>     0.4775    85.4058   112.6185 </r>
       <r>     0.5345    19.8701   113.7500 </r>
       <r>     0.5914     0.0001   113.7500 </r>
       <r>     0.6483     0.0000   113.7500 </r>
       <r>     0.7053     0.0000   113.7500 </r>
       <r>     0.7622     0.0000   113.7500 </r>
       <r>     0.8192     0.0000   113.7500 </r>
       <r>     0.8761     0.0000   113.7500 </r>
       <r>     0.9331     0.0000   113.7500 </r>
       <r>     0.9900     0.0000   113.7500 </r>
       <r>     1.0469     0.0000   113.7500 </r>
       <r>     1.1039     0.0000   113.7500 </r>
       <r>     1.1608     0.0000   113.7500 </r>
       <r>     1.2178     0.0000   113.7500 </r>
       <r>     1.2747     0.0000   113.7500 </r>
       <r>     1.3317     0.0000   113.7500 </r>
       <r>     1.3886     1.1767   113.8170 </r>
       <r>     1.4455    52.6774   116.8166 </r>
       <r>     1.5025   179.7705   127.0533 </r>
       <r>     1.5594    29.7970   128.7500 </r>
       <r>     1.6164     0.0002   128.7500 </r>
       <r>     1.6733     0.0000   128.7500 </r>
       <r>     1.7303     0.0000   128.7500 </r>
       <r>     1.7872     0.2184   128.7624 </r>
       <r>     1.8441    34.1019   130.7043 </r>
       <r>     1.9011    52.5663   133.6976 </r>
       <r>     1.9580     8.3404   134.1725 </r>
       <r>     2.0150    45.1774   136.7450 </r>
       <r>     2.0719     0.0872   136.7500 </r>
       <r>     2.1289     0.0001   136.7500 </r>
       <r>     2.1858    19.8898   137.8826 </r>
       <r>     2.2427    92.6038   143.1557 </r>
       <r>     2.2997   114.6986   149.6870 </r>
       <r>     2.3566   129.2517   157.0470 </r>
       <r>     2.4136    91.1905   162.2396 </r>
       <r>     2.4705     0.1824   162.2500 </r>
       <r>     2.5275     0.0000   162.2500 </r>
       <r>     2.5844     0.0000   162.2500 </r>
       <r>     2.6413     0.0000   162.2500 </r>
       <r>     2.6983     0.0000   162.2500 </r>
       <r>     2.7552     0.0000   162.2500 </r>
       <r>     2.8122     0.0000   162.2500 </r>
       <r>     2.8691     0.2799   162.2659 </r>
       <r>     2.9261    24.9408   163.6861 </r>
       <r>     2.9830    53.3872   166.7262 </r>
       <r>     3.0399   143.6719   174.9073 </r>
       <r>     3.0969    63.4215   178.5187 </r>
       <r>     3.1538    75.8673   182.8388 </r>
       <r>     3.2108    86.2336   187.7492 </r>
       <r>     3.2677    10.7406   188.3608 </r>
       <r>     3.3247   111.0265   194.6829 </r>
       <r>     3.3816    36.2903   196.7494 </r>
       <r>     3.4385     0.0103   196.7500 </r>
       <r>     3.4955     0.0034   196.7502 </r>
       <r>     3.5524    52.9236   199.7638 </r>
       <r>     3.6094   147.4094   208.1577 </r>
       <r>     3.6663    10.4010   208.7500 </r>
       <r>     3.7233     0.0000   208.7500 </r>
       <r>     3.7802     0.0000   208.7500 </r>
       <r>     3.8371     0.9946   208.8066 </r>
       <r>     3.8941    54.9613   211.9363 </r>
       <r>     3.9510   101.0029   217.6877 </r>
       <r>     4.0080     1.0941   217.7500 </r>
       <r>     4.0649     0.0041   217.7502 </r>
       <r>     4.1219    31.3798   219.5371 </r>
       <r>     4.1788    87.6027   224.5254 </r>
       <r>     4.2358    39.0657   226.7500 </r>
       <r>     4.2927     0.3095   226.7676 </r>
       <r>     4.3496    94.0265   232.1217 </r>
       <r>     4.4066    12.7084   232.8454 </r>
       <r>     4.4635    75.7537   237.1590 </r>
       <r>     4.5205    98.0882   242.7444 </r>
       <r>     4.5774    33.5670   244.6558 </r>
       <r>     4.6344    10.4342   245.2500 </r>
       <r>     4.6913     0.0001   245.2500 </r>
       <r>     4.7482     0.0000   245.2500 </r>
       <r>     4.8052     0.0000   245.2500 </r>
       <r>     4.8621     0.0000   245.2500 </r>
       <r>     4.9191     0.2844   245.2662 </r>
       <r>     4.9760    49.6070   248.0910 </r>
       <r>     5.0330    70.3290   252.0957 </r>
       <r>     5.0899     2.7097   252.2500 </r>
       <r>     5.1468     0.0000   252.2500 </r>
       <r>     5.2038     0.0000   252.2500 </r>
       <r>     5.2607     0.0000   252.2500 </r>
       <r>     5.3177     0.0000   252.2500 </r>
       <r>     5.3746     0.0000   252.2500 </r>
       <r>     5.4316     0.0160   252.2509 </r>
       <r>     5.4885    37.9042   254.4093 </r>
       <r>     5.5454    14.7641   255.2500 </r>
       <r>     5.6024     0.0001   255.2500 </r>
       <r>     5.6593     0.0000   255.2500 </r>
       <r>     5.7163     0.0006   255.2500 </r>
       <r>     5.7732     7.0497   255.6515 </r>
       <r>     5.8302     6.1206   256.0000 </r>
       <r>     5.8871     0.0003   256.0000 </r>
       <r>     5.9440     0.0000   256.0000 </r>
       <r>     6.0010     0.0000   256.0000 </r>
       <r>     6.0579     0.0000   256.0000 </r>
       <r>     6.1149     0.0000   256.0000 </r>
       <r>     6.1718     0.0000   256.0000 </r>
       <r>     6.2288     0.0041   256.0002 </r>
       <r>     6.2857    17.4716   256.9951 </r>
       <r>     6.3426    10.2187   257.5770 </r>
       <r>     6.3996    24.7650   258.9872 </r>
       <r>     6.4565     0.2249   259.0000 </r>
       <r>     6.5135     0.0000   259.0000 </r>
       <r>     6.5704     0.0000   259.0000 </r>
       <r>     6.6274     0.0000   259.0000 </r>
       <r>     6.6843     0.0000   259.0000 </r>
       <r>     6.7412     0.0000   259.0000 </r>
       <r>     6.7982     6.3964   259.3642 </r>
       <r>     6.8551    31.8016   261.1751 </r>
       <r>     6.9121    40.7998   263.4984 </r>
       <r>     6.9690     0.0287   263.5000 </r>
       <r>     7.0260     0.0000   263.5000 </r>
       <r>     7.0829     0.0000   263.5000 </r>
       <r>     7.1398     0.0346   263.5020 </r>
       <r>     7.1968    90.4717   268.6537 </r>
       <r>     7.2537    57.6737   271.9378 </r>
       <r>     7.3107     1.0923   272.0000 </r>
       <r>     7.3676     0.0000   272.0000 </r>
       <r>     7.4246     0.0000   272.0000 </r>
       <r>     7.4815     0.0000   272.0000 </r>
       <r>     7.5384     0.0000   272.0000 </r>
       <r>     7.5954     0.5785   272.0329 </r>
       <r>     7.6523   168.3784   281.6209 </r>
       <r>     7.7093    55.4619   284.7791 </r>
       <r>     7.7662    47.6970   287.4951 </r>
       <r>     7.8232     0.0866   287.5000 </r>
       <r>     7.8801     0.0013   287.5001 </r>
       <r>     7.9370    43.9598   290.0033 </r>
       <r>     7.9940    61.4004   293.4996 </r>
       <r>     8.0509    28.2050   295.1057 </r>
       <r>     8.1079    78.4473   299.5727 </r>
       <r>     8.1648   145.9355   307.8827 </r>
       <r>     8.2218    10.8412   308.5000 </r>
       <r>     8.2787     3.6220   308.7062 </r>
       <r>     8.3356   107.0701   314.8031 </r>
       <r>     8.3926     7.8476   315.2500 </r>
       <r>     8.4495     0.0000   315.2500 </r>
       <r>     8.5065     0.0569   315.2532 </r>
       <r>     8.5634    81.3988   319.8883 </r>
       <r>     8.6204    23.9130   321.2500 </r>
       <r>     8.6773     0.0001   321.2500 </r>
       <r>     8.7342     0.6454   321.2867 </r>
       <r>     8.7912   120.1466   328.1282 </r>
       <r>     8.8481    63.3638   331.7364 </r>
       <r>     8.9051     0.2395   331.7500 </r>
       <r>     8.9620     0.0000   331.7500 </r>
       <r>     9.0190     0.1670   331.7595 </r>
       <r>     9.0759    12.5041   332.4715 </r>
       <r>     9.1328     0.5000   332.5000 </r>
       <r>     9.1898     0.0693   332.5039 </r>
       <r>     9.2467    30.5280   334.2423 </r>
       <r>     9.3037     7.1835   334.6513 </r>
       <r>     9.3606    23.5992   335.9952 </r>
       <r>     9.4176     0.0851   336.0000 </r>
       <r>     9.4745     0.0000   336.0000 </r>
       <r>     9.5314     0.0000   336.0000 </r>
       <r>     9.5884     0.0000   336.0000 </r>
       <r>     9.6453     0.0000   336.0000 </r>
       <r>     9.7023     0.0000   336.0000 </r>
       <r>     9.7592     0.0000   336.0000 </r>
       <r>     9.8162     0.0000   336.0000 </r>
       <r>     9.8731     0.0000   336.0000 </r>
       <r>     9.9300     0.0000   336.0000 </r>
       <r>     9.9870     0.0000   336.0000 </r>
       <r>    10.0439     0.0000   336.0000 </r>
       <r>    10.1009     0.0000   336.0000 </r>
      </set>
     </set>
    </array>
   </total>
  </dos>
 </calculation>
 <structure name="finalpos" >
  <crystal>
   <varray name="basis" >
    <v>      10.86914512      -0.00000000      -0.00000000 </v>
    <v>      -0.00000000      10.86914512       0.00000000 </v>
    <v>       0.00000000       0.00000000      10.86914512 </v>
   </varray>
   <i name="volume">   1284.06249692 </i>
   <varray name="rec_basis" >
    <v>       0.09200356       0.00000000      -0.00000000 </v>
    <v>       0.00000000       0.09200356      -0.00000000 </v>
    <v>       0.00000000      -0.00000000       0.09200356 </v>
   </varray>
  </crystal>
  <varray name="positions" >
   <v>       0.25092004       0.25000000       0.25000000 </v>
   <v>       0.75000000       0.25000000       0.25000000 </v>
   <v>       0.25000000       0.75000000       0.25000000 </v>
   <v>       0.75000000       0.75000000       0.25000000 </v>
   <v>       0.25000000       0.25000000       0.75000000 </v>
   <v>       0.75000000       0.25000000       0.75000000 </v>
   <v>       0.25000000       0.75000000       0.75000000 </v>
   <v>       0.75000000       0.75000000       0.75000000 </v>
   <v>       0.25000000       0.00000000       0.00000000 </v>
   <v>       0.75000000       0.00000000       0.00000000 </v>
   <v>       0.25000000       0.50000000       0.00000000 </v>
   <v>       0.75000000       0.50000000       0.00000000 </v>
   <v>       0.25000000       0.00000000       0.50000000 </v>
   <v>       0.75000000       0.00000000       0.50000000 </v>
   <v>       0.25000000       0.50000000       0.50000000 </v>
   <v>       0.75000000       0.50000000       0.50000000 </v>
   <v>       0.00000000       0.25000000       0.00000000 </v>
   <v>       0.50000000       0.25000000       0.00000000 </v>
   <v>       0.00000000       0.75000000       0.00000000 </v>
   <v>       0.50000000       0.75000000       0.00000000 </v>
   <v>       0.00000000       0.25000000       0.50000000 </v>
   <v>       0.50000000       0.25000000       0.50000000 </v>
   <v>       0.00000000       0.75000000       0.50000000 </v>
   <v>       0.50000000       0.75000000       0.50000000 </v>
   <v>       0.00000000       0.00000000       0.25000000 </v>
   <v>       0.50000000       0.00000000       0.25000000 </v>
   <v>       0.00000000       0.50000000       0.25000000 </v>
   <v>       0.50000000       0.50000000       0.25000000 </v>
   <v>       0.00000000       0.00000000       0.75000000 </v>
   <v>       0.50000000       0.00000000       0.75000000 </v>
   <v>       0.00000000       0.50000000       0.75000000 </v>
   <v>       0.50000000       0.50000000       0.75000000 </v>
   <v>       0.37500000       0.37500000       0.37500000 </v>
   <v>       0.87500000       0.37500000       0.37500000 </v>
   <v>       0.37500000       0.87500000       0.37500000 </v>
   <v>       0.87500000       0.87500000       0.37500000 </v>
   <v>       0.37500000       0.37500000       0.87500000 </v>
   <v>       0.87500000       0.37500000       0.87500000 </v>
   <v>       0.37500000       0.87500000       0.87500000 </v>
   <v>       0.87500000       0.87500000       0.87500000 </v>
   <v>       0.37500000       0.12500000       0.12500000 </v>
   <v>       0.87500000       0.12500000       0.12500000 </v>
   <v>       0.37500000       0.62500000       0.12500000 </v>
   <v>       0.87500000       0.62500000       0.12500000 </v>
   <v>       0.37500000       0.12500000       0.62500000 </v>
   <v>       0.87500000       0.12500000       0.62500000 </v>
   <v>       0.37500000       0.62500000       0.62500000 </v>
   <v>       0.87500000       0.62500000       0.62500000 </v>
   <v>       0.12500000       0.37500000       0.12500000 </v>
   <v>       0.62500000       0.37500000       0.12500000 </v>
   <v>       0.12500000       0.87500000       0.12500000 </v>
   <v>       0.62500000       0.87500000       0.12500000 </v>
   <v>       0.12500000       0.37500000       0.62500000 </v>
   <v>       0.62500000       0.37500000       0.62500000 </v>
   <v>       0.12500000       0.87500000       0.62500000 </v>
   <v>       0.62500000       0.87500000       0.62500000 </v>
   <v>       0.12500000       0.12500000       0.37500000 </v>
   <v>       0.62500000       0.12500000       0.37500000 </v>
   <v>       0.12500000       0.62500000       0.37500000 </v>
   <v>       0.62500000       0.62500000       0.37500000 </v>
   <v>       0.12500000       0.12500000       0.87500000 </v>
   <v>       0.62500000       0.12500000       0.87500000 </v>
   <v>       0.12500000       0.62500000       0.87500000 </v>
   <v>       0.62500000       0.62500000       0.87500000 </v>
  </varray>
 </structure>
</modeling>
