  64  64   0   0
  0.2006348E+02  0.1086915E-08  0.1086915E-08  0.1086915E-08  0.5000000E-15
  1.000000000000000E-004
  CAR 
 unknown system                          
     10.10087019     -6.98200374  301      5.89421249      1.00000000
     -6.982  0.0000E+00  0.0000E+00
     -6.925  0.0000E+00  0.0000E+00
     -6.868  0.0000E+00  0.0000E+00
     -6.811  0.0000E+00  0.0000E+00
     -6.754  0.0000E+00  0.0000E+00
     -6.697  0.0000E+00  0.0000E+00
     -6.640  0.0000E+00  0.0000E+00
     -6.583  0.0000E+00  0.0000E+00
     -6.526  0.0000E+00  0.0000E+00
     -6.470  0.0000E+00  0.0000E+00
     -6.413  0.0000E+00  0.0000E+00
     -6.356  0.0000E+00  0.0000E+00
     -6.299  0.9735E-10  0.5543E-11
     -6.242  0.2283E-01  0.1300E-02
     -6.185  0.4053E+01  0.2321E+00
     -6.128  0.3142E+00  0.2500E+00
     -6.071  0.8791E-07  0.2500E+00
     -6.014  0.9111E-07  0.2500E+00
     -5.957  0.1015E+01  0.3078E+00
     -5.900  0.2501E+02  0.1732E+01
     -5.843  0.3163E+00  0.1750E+01
     -5.786  0.4409E-08  0.1750E+01
     -5.729  0.1036E-03  0.1750E+01
     -5.672  0.1456E+02  0.2579E+01
     -5.615  0.3811E+02  0.4749E+01
     -5.558  0.1603E-01  0.4750E+01
     -5.501  0.9952E-10  0.4750E+01
     -5.445  0.7078E-01  0.4754E+01
     -5.388  0.3056E+02  0.6494E+01
     -5.331  0.4491E+01  0.6750E+01
     -5.274  0.4601E-05  0.6750E+01
     -5.217  0.2176E-09  0.6750E+01
     -5.160  0.8619E-01  0.6755E+01
     -5.103  0.2369E+02  0.8104E+01
     -5.046  0.2571E+01  0.8250E+01
     -4.989  0.1443E-05  0.8250E+01
     -4.932  0.1571E-02  0.8250E+01
     -4.875  0.4565E+02  0.1085E+02
     -4.818  0.5971E+02  0.1425E+02
     -4.761  0.6507E-02  0.1425E+02
     -4.704  0.1202E-02  0.1425E+02
     -4.647  0.4325E+02  0.1671E+02
     -4.590  0.6211E+02  0.2025E+02
     -4.533  0.8160E-02  0.2025E+02
     -4.477  0.0000E+00  0.2025E+02
     -4.420  0.0000E+00  0.2025E+02
     -4.363  0.0000E+00  0.2025E+02
     -4.306  0.0000E+00  0.2025E+02
     -4.249  0.1299E-08  0.2025E+02
     -4.192  0.2601E+00  0.2026E+02
     -4.135  0.4830E+02  0.2302E+02
     -4.078  0.4131E+01  0.2325E+02
     -4.021  0.5778E+02  0.2654E+02
     -3.964  0.4758E+02  0.2925E+02
     -3.907  0.1110E-01  0.2925E+02
     -3.850  0.1354E+02  0.3002E+02
     -3.793  0.2536E+02  0.3147E+02
     -3.736  0.4989E+01  0.3175E+02
     -3.679  0.2286E-04  0.3175E+02
     -3.622  0.1219E+02  0.3244E+02
     -3.565  0.9292E+02  0.3774E+02
     -3.508  0.1975E+01  0.3785E+02
     -3.452  0.1001E+03  0.4355E+02
     -3.395  0.3575E+01  0.4375E+02
     -3.338  0.1364E+02  0.4453E+02
     -3.281  0.9152E+02  0.4974E+02
     -3.224  0.2095E+00  0.4975E+02
     -3.167  0.1081E-07  0.4975E+02
     -3.110  0.9721E+00  0.4981E+02
     -3.053  0.9918E+02  0.5545E+02
     -2.996  0.5219E+01  0.5575E+02
     -2.939  0.8218E-06  0.5575E+02
     -2.882  0.0000E+00  0.5575E+02
     -2.825  0.0000E+00  0.5575E+02
     -2.768  0.0000E+00  0.5575E+02
     -2.711  0.0000E+00  0.5575E+02
     -2.654  0.0000E+00  0.5575E+02
     -2.597  0.0000E+00  0.5575E+02
     -2.540  0.3313E-06  0.5575E+02
     -2.484  0.2472E+01  0.5589E+02
     -2.427  0.4971E+02  0.5872E+02
     -2.370  0.5070E+00  0.5875E+02
     -2.313  0.5422E-08  0.5875E+02
     -2.256  0.0000E+00  0.5875E+02
     -2.199  0.0000E+00  0.5875E+02
     -2.142  0.3187E-08  0.5875E+02
     -2.085  0.2667E+00  0.5877E+02
     -2.028  0.2488E+02  0.6018E+02
     -1.971  0.5518E+02  0.6332E+02
     -1.914  0.5212E+02  0.6629E+02
     -1.857  0.5003E+02  0.6914E+02
     -1.800  0.1924E+01  0.6925E+02
     -1.743  0.1914E-06  0.6925E+02
     -1.686  0.0000E+00  0.6925E+02
     -1.629  0.0000E+00  0.6925E+02
     -1.572  0.2503E-12  0.6925E+02
     -1.515  0.5100E-02  0.6925E+02
     -1.459  0.3237E+02  0.7109E+02
     -1.402  0.2031E+02  0.7225E+02
     -1.345  0.4306E-03  0.7225E+02
     -1.288  0.1612E-02  0.7225E+02
     -1.231  0.1070E+02  0.7286E+02
     -1.174  0.6864E+01  0.7325E+02
     -1.117  0.1552E-03  0.7325E+02
     -1.060  0.6772E+01  0.7364E+02
     -1.003  0.9792E+02  0.7921E+02
     -0.946  0.6792E+00  0.7925E+02
     -0.889  0.7756E-07  0.7925E+02
     -0.832  0.2120E+01  0.7937E+02
     -0.775  0.1006E+03  0.8510E+02
     -0.718  0.2671E+01  0.8525E+02
     -0.661  0.3395E+01  0.8544E+02
     -0.604  0.1970E+03  0.9666E+02
     -0.547  0.1038E+02  0.9725E+02
     -0.491  0.4604E-05  0.9725E+02
     -0.434  0.0000E+00  0.9725E+02
     -0.377  0.0000E+00  0.9725E+02
     -0.320  0.0000E+00  0.9725E+02
     -0.263  0.1075E-03  0.9725E+02
     -0.206  0.2413E+02  0.9862E+02
     -0.149  0.8118E+02  0.1032E+03
     -0.092  0.5773E-01  0.1032E+03
     -0.035  0.5119E-03  0.1033E+03
      0.022  0.1223E+02  0.1039E+03
      0.079  0.1411E+02  0.1047E+03
      0.136  0.1094E-02  0.1048E+03
      0.193  0.1010E-07  0.1048E+03
      0.250  0.6250E+00  0.1048E+03
      0.307  0.4989E+02  0.1076E+03
      0.364  0.2168E+01  0.1077E+03
      0.421  0.9277E-01  0.1078E+03
      0.478  0.8541E+02  0.1126E+03
      0.534  0.1987E+02  0.1137E+03
      0.591  0.5197E-04  0.1138E+03
      0.648  0.0000E+00  0.1138E+03
      0.705  0.0000E+00  0.1138E+03
      0.762  0.0000E+00  0.1138E+03
      0.819  0.0000E+00  0.1138E+03
      0.876  0.0000E+00  0.1138E+03
      0.933  0.0000E+00  0.1138E+03
      0.990  0.0000E+00  0.1138E+03
      1.047  0.0000E+00  0.1138E+03
      1.104  0.0000E+00  0.1138E+03
      1.161  0.0000E+00  0.1138E+03
      1.218  0.0000E+00  0.1138E+03
      1.275  0.0000E+00  0.1138E+03
      1.332  0.4261E-07  0.1138E+03
      1.389  0.1177E+01  0.1138E+03
      1.446  0.5268E+02  0.1168E+03
      1.502  0.1798E+03  0.1271E+03
      1.559  0.2980E+02  0.1287E+03
      1.616  0.1638E-03  0.1288E+03
      1.673  0.0000E+00  0.1288E+03
      1.730  0.1304E-08  0.1288E+03
      1.787  0.2184E+00  0.1288E+03
      1.844  0.3410E+02  0.1307E+03
      1.901  0.5257E+02  0.1337E+03
      1.958  0.8340E+01  0.1342E+03
      2.015  0.4518E+02  0.1367E+03
      2.072  0.8720E-01  0.1367E+03
      2.129  0.5679E-04  0.1368E+03
      2.186  0.1989E+02  0.1379E+03
      2.243  0.9260E+02  0.1432E+03
      2.300  0.1147E+03  0.1497E+03
      2.357  0.1293E+03  0.1570E+03
      2.414  0.9119E+02  0.1622E+03
      2.471  0.1824E+00  0.1622E+03
      2.527  0.1993E-09  0.1622E+03
      2.584  0.0000E+00  0.1622E+03
      2.641  0.0000E+00  0.1622E+03
      2.698  0.0000E+00  0.1622E+03
      2.755  0.0000E+00  0.1622E+03
      2.812  0.3288E-08  0.1623E+03
      2.869  0.2799E+00  0.1623E+03
      2.926  0.2494E+02  0.1637E+03
      2.983  0.5339E+02  0.1667E+03
      3.040  0.1437E+03  0.1749E+03
      3.097  0.6342E+02  0.1785E+03
      3.154  0.7587E+02  0.1828E+03
      3.211  0.8623E+02  0.1877E+03
      3.268  0.1074E+02  0.1884E+03
      3.325  0.1110E+03  0.1947E+03
      3.382  0.3629E+02  0.1967E+03
      3.439  0.1033E-01  0.1967E+03
      3.495  0.3381E-02  0.1968E+03
      3.552  0.5292E+02  0.1998E+03
      3.609  0.1474E+03  0.2082E+03
      3.666  0.1040E+02  0.2087E+03
      3.723  0.5880E-05  0.2088E+03
      3.780  0.3109E-07  0.2088E+03
      3.837  0.9946E+00  0.2088E+03
      3.894  0.5496E+02  0.2119E+03
      3.951  0.1010E+03  0.2177E+03
      4.008  0.1094E+01  0.2177E+03
      4.065  0.4062E-02  0.2178E+03
      4.122  0.3138E+02  0.2195E+03
      4.179  0.8760E+02  0.2245E+03
      4.236  0.3907E+02  0.2267E+03
      4.293  0.3095E+00  0.2268E+03
      4.350  0.9403E+02  0.2321E+03
      4.407  0.1271E+02  0.2328E+03
      4.464  0.7575E+02  0.2372E+03
      4.520  0.9809E+02  0.2427E+03
      4.577  0.3357E+02  0.2447E+03
      4.634  0.1043E+02  0.2452E+03
      4.691  0.9864E-04  0.2452E+03
      4.748  0.0000E+00  0.2452E+03
      4.805  0.0000E+00  0.2452E+03
      4.862  0.1370E-08  0.2453E+03
      4.919  0.2844E+00  0.2453E+03
      4.976  0.4961E+02  0.2481E+03
      5.033  0.7033E+02  0.2521E+03
      5.090  0.2710E+01  0.2522E+03
      5.147  0.3610E-06  0.2522E+03
      5.204  0.0000E+00  0.2522E+03
      5.261  0.0000E+00  0.2522E+03
      5.318  0.0000E+00  0.2522E+03
      5.375  0.2675E-11  0.2523E+03
      5.432  0.1595E-01  0.2523E+03
      5.488  0.3790E+02  0.2544E+03
      5.545  0.1476E+02  0.2552E+03
      5.602  0.1151E-03  0.2552E+03
      5.659  0.1365E-13  0.2552E+03
      5.716  0.5757E-03  0.2553E+03
      5.773  0.7050E+01  0.2557E+03
      5.830  0.6121E+01  0.2560E+03
      5.887  0.2718E-03  0.2560E+03
      5.944  0.0000E+00  0.2560E+03
      6.001  0.0000E+00  0.2560E+03
      6.058  0.0000E+00  0.2560E+03
      6.115  0.0000E+00  0.2560E+03
      6.172  0.3146E-12  0.2560E+03
      6.229  0.4143E-02  0.2560E+03
      6.286  0.1747E+02  0.2570E+03
      6.343  0.1022E+02  0.2576E+03
      6.400  0.2477E+02  0.2590E+03
      6.457  0.2249E+00  0.2590E+03
      6.513  0.2014E-08  0.2590E+03
      6.570  0.0000E+00  0.2590E+03
      6.627  0.0000E+00  0.2590E+03
      6.684  0.0000E+00  0.2590E+03
      6.741  0.3213E-04  0.2590E+03
      6.798  0.6396E+01  0.2594E+03
      6.855  0.3180E+02  0.2612E+03
      6.912  0.4080E+02  0.2635E+03
      6.969  0.2869E-01  0.2635E+03
      7.026  0.3207E-11  0.2635E+03
      7.083  0.7634E-11  0.2635E+03
      7.140  0.3457E-01  0.2635E+03
      7.197  0.9047E+02  0.2687E+03
      7.254  0.5767E+02  0.2719E+03
      7.311  0.1092E+01  0.2720E+03
      7.368  0.2330E-06  0.2720E+03
      7.425  0.0000E+00  0.2720E+03
      7.481  0.0000E+00  0.2720E+03
      7.538  0.2624E-08  0.2720E+03
      7.595  0.5785E+00  0.2720E+03
      7.652  0.1684E+03  0.2816E+03
      7.709  0.5546E+02  0.2848E+03
      7.766  0.4770E+02  0.2875E+03
      7.823  0.8657E-01  0.2875E+03
      7.880  0.1259E-02  0.2875E+03
      7.937  0.4396E+02  0.2900E+03
      7.994  0.6140E+02  0.2935E+03
      8.051  0.2820E+02  0.2951E+03
      8.108  0.7845E+02  0.2996E+03
      8.165  0.1459E+03  0.3079E+03
      8.222  0.1084E+02  0.3085E+03
      8.279  0.3622E+01  0.3087E+03
      8.336  0.1071E+03  0.3148E+03
      8.393  0.7848E+01  0.3152E+03
      8.450  0.2469E-05  0.3153E+03
      8.506  0.5686E-01  0.3153E+03
      8.563  0.8140E+02  0.3199E+03
      8.620  0.2391E+02  0.3212E+03
      8.677  0.9854E-04  0.3213E+03
      8.734  0.6454E+00  0.3213E+03
      8.791  0.1201E+03  0.3281E+03
      8.848  0.6336E+02  0.3317E+03
      8.905  0.2395E+00  0.3317E+03
      8.962  0.1984E-07  0.3318E+03
      9.019  0.1670E+00  0.3318E+03
      9.076  0.1250E+02  0.3325E+03
      9.133  0.5000E+00  0.3325E+03
      9.190  0.6933E-01  0.3325E+03
      9.247  0.3053E+02  0.3342E+03
      9.304  0.7183E+01  0.3347E+03
      9.361  0.2360E+02  0.3360E+03
      9.418  0.8509E-01  0.3360E+03
      9.474  0.2321E-09  0.3360E+03
      9.531  0.0000E+00  0.3360E+03
      9.588  0.0000E+00  0.3360E+03
      9.645  0.0000E+00  0.3360E+03
      9.702  0.0000E+00  0.3360E+03
      9.759  0.0000E+00  0.3360E+03
      9.816  0.0000E+00  0.3360E+03
      9.873  0.0000E+00  0.3360E+03
      9.930  0.0000E+00  0.3360E+03
      9.987  0.0000E+00  0.3360E+03
     10.044  0.0000E+00  0.3360E+03
     10.101  0.0000E+00  0.3360E+03
