       N       E                     dE             d eps       ncg     rms          rms(c)
DAV:   1     0.455336579597E+03    0.45534E+03   -0.72719E+04  2016   0.852E+02
DAV:   2    -0.321176299027E+03   -0.77651E+03   -0.73330E+03  2424   0.156E+02
DAV:   3    -0.373432139360E+03   -0.52256E+02   -0.51442E+02  2472   0.369E+01
DAV:   4    -0.374599828095E+03   -0.11677E+01   -0.11595E+01  2416   0.670E+00
DAV:   5    -0.374641432527E+03   -0.41604E-01   -0.41554E-01  2392   0.112E+00    0.285E+01
DAV:   6    -0.369722304430E+03    0.49191E+01   -0.25901E+00  2288   0.242E+00    0.172E+01
DAV:   7    -0.367490957349E+03    0.22313E+01   -0.52389E+00  2264   0.349E+00    0.996E-01
DAV:   8    -0.367498175440E+03   -0.72181E-02   -0.28297E-01  2288   0.969E-01    0.351E-01
DAV:   9    -0.367499626922E+03   -0.14515E-02   -0.72453E-03  2472   0.163E-01    0.309E-01
DAV:  10    -0.367500487063E+03   -0.86014E-03   -0.21178E-03  2240   0.840E-02    0.232E-01
DAV:  11    -0.367500529082E+03   -0.42019E-04   -0.90953E-05  2344   0.192E-02    0.800E-03
DAV:  12    -0.367500531247E+03   -0.21652E-05   -0.31488E-06  2384   0.352E-03    0.824E-03
DAV:  13    -0.367500530122E+03    0.11255E-05   -0.87318E-07  2272   0.196E-03    0.155E-03
DAV:  14    -0.367500530025E+03    0.97035E-07   -0.19659E-08  1688   0.323E-04    0.456E-04
DAV:  15    -0.367500530016E+03    0.90749E-08   -0.10652E-08  1384   0.188E-04
   1 F= -.36750053E+03 E0= -.36750053E+03  d E =-.323239E-18
