 vasp.6.3.2 27Jun22 (build Oct 14 2022 12:13:54) complex                        
  
 executed on             LinuxIFC date 2023.04.03  14:31:41
 running on   32 total cores
 distrk:  each k-point on   32 cores,    1 groups
 distr:  one band on NCORE=   4 cores,    8 groups


--------------------------------------------------------------------------------------------------------


 INCAR:
   ADDGRID = True
   EDIFF = 1e-08
   ENCUT = 318
   GGA = Ps
   IALGO = 38
   IBRION = -1
   ISMEAR = 0
   LCHARG = False
   LREAL = False
   LWAVE = False
   NELMIN = 5
   NPAR = 8
   PREC = Accurate
   SIGMA = 0.02

 POTCAR:    PAW_PBE Si 05Jan2001                  
 POTCAR:    PAW_PBE Si 05Jan2001                  
   SHA256 =  79d9987ad8750f624c4d6acb2a16d13abf6a777132adc04dc6c8399be72b42bb Si/POTCAR             
   COPYR  = (c) Copyright 05Jan2001 Georg Kresse                                                    
   COPYR  = This file is part of the software VASP. Any use, copying, and all other rights are regul
   COPYR  = If you do not have a valid VASP license, you may not use, copy or distribute this file. 
   VRHFIN =Si: s2p2                                                                                 
   LEXCH  = PE                                                                                      
   EATOM  =   103.0669 eV,    7.5752 Ry                                                             
                                                                                                    
   TITEL  = PAW_PBE Si 05Jan2001                                                                    
   LULTRA =        F    use ultrasoft PP ?                                                          
   IUNSCR =        1    unscreen: 0-lin 1-nonlin 2-no                                               
   RPACOR =    1.500    partial core radius                                                         
   POMASS =   28.085; ZVAL   =    4.000    mass and valenz                                          
   RCORE  =    1.900    outmost cutoff radius                                                       
   RWIGS  =    2.480; RWIGS  =    1.312    wigner-seitz radius (au A)                               
   ENMAX  =  245.345; ENMIN  =  184.009 eV                                                          
   ICORE  =        2    local potential                                                             
   LCOR   =        T    correct aug charges                                                         
   LPAW   =        T    paw PP                                                                      
   EAUG   =  322.069                                                                                
   DEXC   =    0.000                                                                                
   RMAX   =    1.950    core radius for proj-oper                                                   
   RAUG   =    1.300    factor for augmentation sphere                                              
   RDEP   =    1.993    radius for radial grids                                                     
   RDEPT  =    1.837    core radius for aug-charge                                                  
                                                                                                    
   Atomic configuration                                                                             
    6 entries                                                                                       
     n  l   j            E        occ.                                                              
     1  0  0.50     -1785.8828   2.0000                                                             
     2  0  0.50      -139.4969   2.0000                                                             
     2  1  1.50       -95.5546   6.0000                                                             
     3  0  0.50       -10.8127   2.0000                                                             
     3  1  0.50        -4.0811   2.0000                                                             
     3  2  1.50        -4.0817   0.0000                                                             
   Description                                                                                      
     l       E           TYP  RCUT    TYP  RCUT                                                     
     0    -10.8127223     23  1.900                                                                 
     0     -7.6451159     23  1.900                                                                 
     1     -4.0811372     23  1.900                                                                 
     1      2.4879257     23  1.900                                                                 
     2     -4.0817478      7  1.900                                                                 
  local pseudopotential read in
  partial core-charges read in
  partial kinetic energy density read in
  atomic valenz-charges read in
  non local Contribution for L=           0  read in
    real space projection operators read in
  non local Contribution for L=           0  read in
    real space projection operators read in
  non local Contribution for L=           1  read in
    real space projection operators read in
  non local Contribution for L=           1  read in
    real space projection operators read in
    PAW grid and wavefunctions read in
 
   number of l-projection  operators is LMAX  =           4
   number of lm-projection operators is LMMAX =           8
 
 -----------------------------------------------------------------------------
|                                                                             |
|               ----> ADVICE to this user running VASP <----                  |
|                                                                             |
|     You have a (more or less) 'large supercell' and for larger cells it     |
|     might be more efficient to use real-space projection operators.         |
|     Therefore, try LREAL= Auto in the INCAR file.                           |
|     Mind: For very accurate calculation, you might also keep the            |
|     reciprocal projection scheme (i.e. LREAL=.FALSE.).                      |
|                                                                             |
 -----------------------------------------------------------------------------

 -----------------------------------------------------------------------------
|                                                                             |
|               ----> ADVICE to this user running VASP <----                  |
|                                                                             |
|     You enforced a specific xc type in the INCAR file but a different       |
|     type was found in the POTCAR file.                                      |
|     I HOPE YOU KNOW WHAT YOU ARE DOING!                                     |
|                                                                             |
 -----------------------------------------------------------------------------

  PAW_PBE Si 05Jan2001                  :
 energy of atom  1       EATOM= -103.0669
 kinetic energy error for atom=    0.0016 (will be added to EATOM!!)
 
 
 POSCAR: Si
  positions in cartesian coordinates
  No initial velocities read in
 exchange correlation table for  LEXCH =       14
   RHO(1)=    0.500       N(1)  =     2000
   RHO(2)=  100.500       N(2)  =     4000
 


--------------------------------------------------------------------------------------------------------


 ion  position               nearest neighbor table
   1  0.251  0.250  0.250-  33 2.35  41 2.35  49 2.36  57 2.36
   2  0.750  0.250  0.250-  34 2.35  42 2.35  50 2.35  58 2.35
   3  0.250  0.750  0.250-  35 2.35  43 2.35  51 2.35  59 2.35
   4  0.750  0.750  0.250-  36 2.35  44 2.35  52 2.35  60 2.35
   5  0.250  0.250  0.750-  37 2.35  45 2.35  53 2.35  61 2.35
   6  0.750  0.250  0.750-  38 2.35  46 2.35  54 2.35  62 2.35
   7  0.250  0.750  0.750-  39 2.35  47 2.35  55 2.35  63 2.35
   8  0.750  0.750  0.750-  40 2.35  48 2.35  56 2.35  64 2.35
   9  0.250  0.000  0.000-  39 2.35  41 2.35  51 2.35  61 2.35
  10  0.750  0.000  0.000-  40 2.35  42 2.35  52 2.35  62 2.35
  11  0.250  0.500  0.000-  37 2.35  43 2.35  49 2.35  63 2.35
  12  0.750  0.500  0.000-  38 2.35  44 2.35  50 2.35  64 2.35
  13  0.250  0.000  0.500-  35 2.35  45 2.35  55 2.35  57 2.35
  14  0.750  0.000  0.500-  36 2.35  46 2.35  56 2.35  58 2.35
  15  0.250  0.500  0.500-  33 2.35  47 2.35  53 2.35  59 2.35
  16  0.750  0.500  0.500-  34 2.35  48 2.35  54 2.35  60 2.35
  17  0.000  0.250  0.000-  38 2.35  42 2.35  49 2.35  61 2.35
  18  0.500  0.250  0.000-  37 2.35  41 2.35  50 2.35  62 2.35
  19  0.000  0.750  0.000-  40 2.35  44 2.35  51 2.35  63 2.35
  20  0.500  0.750  0.000-  39 2.35  43 2.35  52 2.35  64 2.35
  21  0.000  0.250  0.500-  34 2.35  46 2.35  53 2.35  57 2.35
  22  0.500  0.250  0.500-  33 2.35  45 2.35  54 2.35  58 2.35
  23  0.000  0.750  0.500-  36 2.35  48 2.35  55 2.35  59 2.35
  24  0.500  0.750  0.500-  35 2.35  47 2.35  56 2.35  60 2.35
  25  0.000  0.000  0.250-  36 2.35  42 2.35  51 2.35  57 2.35
  26  0.500  0.000  0.250-  35 2.35  41 2.35  52 2.35  58 2.35
  27  0.000  0.500  0.250-  34 2.35  44 2.35  49 2.35  59 2.35
  28  0.500  0.500  0.250-  33 2.35  43 2.35  50 2.35  60 2.35
  29  0.000  0.000  0.750-  40 2.35  46 2.35  55 2.35  61 2.35
  30  0.500  0.000  0.750-  39 2.35  45 2.35  56 2.35  62 2.35
  31  0.000  0.500  0.750-  38 2.35  48 2.35  53 2.35  63 2.35
  32  0.500  0.500  0.750-  37 2.35  47 2.35  54 2.35  64 2.35
  33  0.375  0.375  0.375-   1 2.35  15 2.35  22 2.35  28 2.35
  34  0.875  0.375  0.375-   2 2.35  16 2.35  21 2.35  27 2.35
  35  0.375  0.875  0.375-   3 2.35  13 2.35  24 2.35  26 2.35
  36  0.875  0.875  0.375-   4 2.35  14 2.35  23 2.35  25 2.35
  37  0.375  0.375  0.875-   5 2.35  11 2.35  18 2.35  32 2.35
  38  0.875  0.375  0.875-   6 2.35  12 2.35  17 2.35  31 2.35
  39  0.375  0.875  0.875-   7 2.35   9 2.35  20 2.35  30 2.35
  40  0.875  0.875  0.875-   8 2.35  10 2.35  19 2.35  29 2.35
  41  0.375  0.125  0.125-   1 2.35   9 2.35  18 2.35  26 2.35
  42  0.875  0.125  0.125-   2 2.35  10 2.35  17 2.35  25 2.35
  43  0.375  0.625  0.125-   3 2.35  11 2.35  20 2.35  28 2.35
  44  0.875  0.625  0.125-   4 2.35  12 2.35  19 2.35  27 2.35
  45  0.375  0.125  0.625-   5 2.35  13 2.35  22 2.35  30 2.35
  46  0.875  0.125  0.625-   6 2.35  14 2.35  21 2.35  29 2.35
  47  0.375  0.625  0.625-   7 2.35  15 2.35  24 2.35  32 2.35
  48  0.875  0.625  0.625-   8 2.35  16 2.35  23 2.35  31 2.35
  49  0.125  0.375  0.125-  11 2.35  17 2.35  27 2.35   1 2.36
  50  0.625  0.375  0.125-   2 2.35  12 2.35  18 2.35  28 2.35
  51  0.125  0.875  0.125-   3 2.35   9 2.35  19 2.35  25 2.35
  52  0.625  0.875  0.125-   4 2.35  10 2.35  20 2.35  26 2.35
  53  0.125  0.375  0.625-   5 2.35  15 2.35  21 2.35  31 2.35
  54  0.625  0.375  0.625-   6 2.35  16 2.35  22 2.35  32 2.35
  55  0.125  0.875  0.625-   7 2.35  13 2.35  23 2.35  29 2.35
  56  0.625  0.875  0.625-   8 2.35  14 2.35  24 2.35  30 2.35
  57  0.125  0.125  0.375-  13 2.35  21 2.35  25 2.35   1 2.36
  58  0.625  0.125  0.375-   2 2.35  14 2.35  22 2.35  26 2.35
  59  0.125  0.625  0.375-   3 2.35  15 2.35  23 2.35  27 2.35
  60  0.625  0.625  0.375-   4 2.35  16 2.35  24 2.35  28 2.35
  61  0.125  0.125  0.875-   5 2.35   9 2.35  17 2.35  29 2.35
  62  0.625  0.125  0.875-   6 2.35  10 2.35  18 2.35  30 2.35
  63  0.125  0.625  0.875-   7 2.35  11 2.35  19 2.35  31 2.35
  64  0.625  0.625  0.875-   8 2.35  12 2.35  20 2.35  32 2.35
 
  LATTYP: Found a simple cubic cell.
 ALAT       =    10.8691451200
  
  Lattice vectors:
  
 A1 = (  10.8691451200,  -0.0000000000,  -0.0000000000)
 A2 = (  -0.0000000000,  10.8691451200,   0.0000000000)
 A3 = (   0.0000000000,   0.0000000000,  10.8691451200)


Analysis of symmetry for initial positions (statically):
=====================================================================
 Subroutine PRICEL returns:
 Original cell was already a primitive cell.
 

 Routine SETGRP: Setting up the symmetry group for a 
 simple cubic supercell.


 Subroutine GETGRP returns: Found  4 space group operations
 (whereof  2 operations were pure point group operations)
 out of a pool of 48 trial point group operations.


The static configuration has the point symmetry C_1h.
 The point group associated with its full space group is C_2v.


Analysis of symmetry for dynamics (positions and initial velocities):
=====================================================================
 Subroutine PRICEL returns:
 Original cell was already a primitive cell.
 

 Routine SETGRP: Setting up the symmetry group for a 
 simple cubic supercell.


 Subroutine GETGRP returns: Found  4 space group operations
 (whereof  2 operations were pure point group operations)
 out of a pool of 48 trial point group operations.


The dynamic configuration has the point symmetry C_1h.
 The point group associated with its full space group is C_2v.


 Subroutine INISYM returns: Found  4 space group operations
 (whereof  2 operations are pure point group operations),
 and found     1 'primitive' translations


----------------------------------------------------------------------------------------

                                     Primitive cell                                     

  volume of cell :    1284.0625

  direct lattice vectors                    reciprocal lattice vectors
    10.869145120 -0.000000000 -0.000000000     0.092003556  0.000000000 -0.000000000
    -0.000000000 10.869145120  0.000000000     0.000000000  0.092003556 -0.000000000
     0.000000000  0.000000000 10.869145120     0.000000000 -0.000000000  0.092003556

  length of vectors
    10.869145120 10.869145120 10.869145120     0.092003556  0.092003556  0.092003556

  position of ions in fractional coordinates (direct lattice)
     0.250920036  0.250000000  0.250000000
     0.750000000  0.250000000  0.250000000
     0.250000000  0.750000000  0.250000000
     0.750000000  0.750000000  0.250000000
     0.250000000  0.250000000  0.750000000
     0.750000000  0.250000000  0.750000000
     0.250000000  0.750000000  0.750000000
     0.750000000  0.750000000  0.750000000
     0.250000000  1.000000000  1.000000000
     0.750000000  1.000000000  1.000000000
     0.250000000  0.500000000  0.000000000
     0.750000000  0.500000000  1.000000000
     0.250000000  0.000000000  0.500000000
     0.750000000  1.000000000  0.500000000
     0.250000000  0.500000000  0.500000000
     0.750000000  0.500000000  0.500000000
     1.000000000  0.250000000  0.000000000
     0.500000000  0.250000000  1.000000000
     1.000000000  0.750000000  0.000000000
     0.500000000  0.750000000  0.000000000
     0.000000000  0.250000000  0.500000000
     0.500000000  0.250000000  0.500000000
     1.000000000  0.750000000  0.500000000
     0.500000000  0.750000000  0.500000000
     0.000000000  0.000000000  0.250000000
     0.500000000  1.000000000  0.250000000
     1.000000000  0.500000000  0.250000000
     0.500000000  0.500000000  0.250000000
     0.000000000  0.000000000  0.750000000
     0.500000000  0.000000000  0.750000000
     0.000000000  0.500000000  0.750000000
     0.500000000  0.500000000  0.750000000
     0.375000000  0.375000000  0.375000000
     0.875000000  0.375000000  0.375000000
     0.375000000  0.875000000  0.375000000
     0.875000000  0.875000000  0.375000000
     0.375000000  0.375000000  0.875000000
     0.875000000  0.375000000  0.875000000
     0.375000000  0.875000000  0.875000000
     0.875000000  0.875000000  0.875000000
     0.375000000  0.125000000  0.125000000
     0.875000000  0.125000000  0.125000000
     0.375000000  0.625000000  0.125000000
     0.875000000  0.625000000  0.125000000
     0.375000000  0.125000000  0.625000000
     0.875000000  0.125000000  0.625000000
     0.375000000  0.625000000  0.625000000
     0.875000000  0.625000000  0.625000000
     0.125000000  0.375000000  0.125000000
     0.625000000  0.375000000  0.125000000
     0.125000000  0.875000000  0.125000000
     0.625000000  0.875000000  0.125000000
     0.125000000  0.375000000  0.625000000
     0.625000000  0.375000000  0.625000000
     0.125000000  0.875000000  0.625000000
     0.625000000  0.875000000  0.625000000
     0.125000000  0.125000000  0.375000000
     0.625000000  0.125000000  0.375000000
     0.125000000  0.625000000  0.375000000
     0.625000000  0.625000000  0.375000000
     0.125000000  0.125000000  0.875000000
     0.625000000  0.125000000  0.875000000
     0.125000000  0.625000000  0.875000000
     0.625000000  0.625000000  0.875000000

  ion indices of the primitive-cell ions
   primitive index   ion index
                 1           1
                 2           2
                 3           3
                 4           4
                 5           5
                 6           6
                 7           7
                 8           8
                 9           9
                10          10
                11          11
                12          12
                13          13
                14          14
                15          15
                16          16
                17          17
                18          18
                19          19
                20          20
                21          21
                22          22
                23          23
                24          24
                25          25
                26          26
                27          27
                28          28
                29          29
                30          30
                31          31
                32          32
                33          33
                34          34
                35          35
                36          36
                37          37
                38          38
                39          39
                40          40
                41          41
                42          42
                43          43
                44          44
                45          45
                46          46
                47          47
                48          48
                49          49
                50          50
                51          51
                52          52
                53          53
                54          54
                55          55
                56          56
                57          57
                58          58
                59          59
                60          60
                61          61
                62          62
                63          63
                64          64

----------------------------------------------------------------------------------------

 
 
 KPOINTS: KPOINTS created by Atomic Simulation Env

Automatic generation of k-mesh.
 Grid dimensions read from file:
 generate k-points for:    2    2    2

 Generating k-lattice:

  Cartesian coordinates                     Fractional coordinates (reciprocal lattice)
     0.046001778  0.000000000 -0.000000000     0.500000000 -0.000000000  0.000000000
     0.000000000  0.046001778 -0.000000000    -0.000000000  0.500000000  0.000000000
     0.000000000 -0.000000000  0.046001778    -0.000000000  0.000000000  0.500000000

  Length of vectors
     0.046001778  0.046001778  0.046001778

  Shift w.r.t. Gamma in fractional coordinates (k-lattice)
     0.000000000  0.000000000  0.000000000

 
 Subroutine IBZKPT returns following result:
 ===========================================
 
 Found      6 irreducible k-points:
 
 Following reciprocal coordinates:
            Coordinates               Weight
  0.000000  0.000000  0.000000      1.000000
  0.500000  0.000000  0.000000      1.000000
 -0.000000  0.500000  0.000000      2.000000
  0.500000  0.500000  0.000000      2.000000
  0.000000  0.500000  0.500000      1.000000
  0.500000  0.500000  0.500000      1.000000
 
 Following cartesian coordinates:
            Coordinates               Weight
  0.000000  0.000000  0.000000      1.000000
  0.046002  0.000000  0.000000      1.000000
  0.000000  0.046002  0.000000      2.000000
  0.046002  0.046002  0.000000      2.000000
  0.000000  0.046002  0.046002      1.000000
  0.046002  0.046002  0.046002      1.000000
 


--------------------------------------------------------------------------------------------------------




 Dimension of arrays:
   k-points           NKPTS =      6   k-points in BZ     NKDIM =      6   number of bands    NBANDS=    168
   number of dos      NEDOS =    301   number of ions     NIONS =     64
   non local maximal  LDIM  =      4   non local SUM 2l+1 LMDIM =      8
   total plane-waves  NPLWV = 262144
   max r-space proj   IRMAX =      1   max aug-charges    IRDMAX=  54800
   dimension x,y,z NGX =    64 NGY =   64 NGZ =   64
   dimension x,y,z NGXF=   128 NGYF=  128 NGZF=  128
   support grid    NGXF=   256 NGYF=  256 NGZF=  256
   ions per type =              64
   NGX,Y,Z   is equivalent  to a cutoff of   9.79,  9.79,  9.79 a.u.
   NGXF,Y,Z  is equivalent  to a cutoff of  19.58, 19.58, 19.58 a.u.

 SYSTEM =  unknown system                          
 POSCAR =  Si                                      

 Startparameter for this run:
   NWRITE =      2    write-flag & timer
   PREC   = accura    normal or accurate (medium, high low for compatibility)
   ISTART =      0    job   : 0-new  1-cont  2-samecut
   ICHARG =      2    charge: 1-file 2-atom 10-const
   ISPIN  =      1    spin polarized calculation?
   LNONCOLLINEAR =      F non collinear calculations
   LSORBIT =      F    spin-orbit coupling
   INIWAV =      1    electr: 0-lowe 1-rand  2-diag
   LASPH  =      F    aspherical Exc in radial PAW
 Electronic Relaxation 1
   ENCUT  =  318.0 eV  23.37 Ry    4.83 a.u.  15.80 15.80 15.80*2*pi/ulx,y,z
   ENINI  =  318.0     initial cutoff
   ENAUG  =  322.1 eV  augmentation charge cutoff
   NELM   =     60;   NELMIN=  5; NELMDL= -5     # of ELM steps 
   EDIFF  = 0.1E-07   stopping-criterion for ELM
   LREAL  =      F    real-space projection
   NLSPLINE    = F    spline interpolate recip. space projectors
   LCOMPAT=      F    compatible to vasp.4.4
   GGA_COMPAT  = T    GGA compatible to vasp.4.4-vasp.4.6
   LMAXPAW     = -100 max onsite density
   LMAXMIX     =    2 max onsite mixed and CHGCAR
   VOSKOWN=      0    Vosko Wilk Nusair interpolation
   ROPT   =    0.00000
 Ionic relaxation
   EDIFFG = 0.1E-06   stopping-criterion for IOM
   NSW    =      0    number of steps for IOM
   NBLOCK =      1;   KBLOCK =      1    inner block; outer block 
   IBRION =     -1    ionic relax: 0-MD 1-quasi-New 2-CG
   NFREE  =      0    steps in history (QN), initial steepest desc. (CG)
   ISIF   =      2    stress and relaxation
   IWAVPR =     10    prediction:  0-non 1-charg 2-wave 3-comb
   ISYM   =      2    0-nonsym 1-usesym 2-fastsym
   LCORR  =      T    Harris-Foulkes like correction to forces

   POTIM  = 0.5000    time-step for ionic-motion
   TEIN   =    0.0    initial temperature
   TEBEG  =    0.0;   TEEND  =   0.0 temperature during run
   SMASS  =  -3.00    Nose mass-parameter (am)
   estimated Nose-frequenzy (Omega)   =  0.10E-29 period in steps = 0.13E+47 mass=  -0.270E-26a.u.
   SCALEE = 1.0000    scale energy and forces
   NPACO  =    256;   APACO  = 10.0  distance and # of slots for P.C.
   PSTRESS=    0.0 pullay stress

  Mass of Ions in am
   POMASS =  28.09
  Ionic Valenz
   ZVAL   =   4.00
  Atomic Wigner-Seitz radii
   RWIGS  =  -1.00
  virtual crystal weights 
   VCA    =   1.00
   NELECT =     256.0000    total number of electrons
   NUPDOWN=      -1.0000    fix difference up-down

 DOS related values:
   EMIN   =  10.00;   EMAX   =-10.00  energy-range for DOS
   EFERMI =   0.00
   ISMEAR =     0;   SIGMA  =   0.02  broadening in eV -4-tet -1-fermi 0-gaus

 Electronic relaxation 2 (details)
   IALGO  =     38    algorithm
   LDIAG  =      T    sub-space diagonalisation (order eigenvalues)
   LSUBROT=      F    optimize rotation matrix (better conditioning)
   TURBO    =      0    0=normal 1=particle mesh
   IRESTART =      0    0=no restart 2=restart with 2 vectors
   NREBOOT  =      0    no. of reboots
   NMIN     =      0    reboot dimension
   EREF     =   0.00    reference energy to select bands
   IMIX   =      4    mixing-type and parameters
     AMIX     =   0.40;   BMIX     =  1.00
     AMIX_MAG =   1.60;   BMIX_MAG =  1.00
     AMIN     =   0.10
     WC   =   100.;   INIMIX=   1;  MIXPRE=   1;  MAXMIX= -45

 Intra band minimization:
   WEIMIN = 0.0000     energy-eigenvalue tresh-hold
   EBREAK =  0.15E-10  absolut break condition
   DEPER  =   0.30     relativ break condition  

   TIME   =   0.40     timestep for ELM

  volume/ion in A,a.u.               =      20.06       135.40
  Fermi-wavevector in a.u.,A,eV,Ry     =   0.956370  1.807278 12.444490  0.914644
  Thomas-Fermi vector in A             =   2.085292
 
 Write flags
   LWAVE        =      F    write WAVECAR
   LDOWNSAMPLE  =      F    k-point downsampling of WAVECAR
   LCHARG       =      F    write CHGCAR
   LVTOT        =      F    write LOCPOT, total local potential
   LVHAR        =      F    write LOCPOT, Hartree potential only
   LELF         =      F    write electronic localiz. function (ELF)
   LORBIT       =      0    0 simple, 1 ext, 2 COOP (PROOUT), +10 PAW based schemes


 Dipole corrections
   LMONO  =      F    monopole corrections only (constant potential shift)
   LDIPOL =      F    correct potential (dipole corrections)
   IDIPOL =      0    1-x, 2-y, 3-z, 4-all directions 
   EPSILON=  1.0000000 bulk dielectric constant

 Exchange correlation treatment:
   GGA     =    PS    GGA type
   LEXCH   =    14    internal setting for exchange type
   LIBXC   =     F    Libxc                    
   VOSKOWN =     0    Vosko Wilk Nusair interpolation
   LHFCALC =     F    Hartree Fock is set to
   LHFONE  =     F    Hartree Fock one center treatment
   AEXX    =    0.0000 exact exchange contribution

 Linear response parameters
   LEPSILON=     F    determine dielectric tensor
   LRPA    =     F    only Hartree local field effects (RPA)
   LNABLA  =     F    use nabla operator in PAW spheres
   LVEL    =     F    velocity operator in full k-point grid
   CSHIFT  =0.1000    complex shift for real part using Kramers Kronig
   OMEGAMAX=  -1.0    maximum frequency
   DEG_THRESHOLD= 0.2000000E-02 threshold for treating states as degnerate
   RTIME   =   -0.100 relaxation time in fs
  (WPLASMAI=    0.000 imaginary part of plasma frequency in eV, 0.658/RTIME)
   DFIELD  = 0.0000000 0.0000000 0.0000000 field for delta impulse in time
 
  Optional k-point grid parameters
   LKPOINTS_OPT  =     F    use optional k-point grid
   KPOINTS_OPT_MODE=     1    mode for optional k-point grid
 
 Orbital magnetization related:
   ORBITALMAG=     F  switch on orbital magnetization
   LCHIMAG   =     F  perturbation theory with respect to B field
   DQ        =  0.001000  dq finite difference perturbation B field
   LLRAUG    =     F  two centre corrections for induced B field



--------------------------------------------------------------------------------------------------------


 Static calculation
 charge density and potential will be updated during run
 non-spin polarized calculation
 Variant of blocked Davidson
 Davidson routine will perform the subspace rotation
 perform sub-space diagonalisation
    after iterative eigenvector-optimisation
 modified Broyden-mixing scheme, WC =      100.0
 initial mixing is a Kerker type mixing with AMIX =  0.4000 and BMIX =      1.0000
 Hartree-type preconditioning will be used
 using additional bands           40
 reciprocal scheme for non local part
 use partial core corrections
 calculate Harris-corrections to forces 
   (improved forces if not selfconsistent)
 use gradient corrections 
 use of overlap-Matrix (Vanderbilt PP)
 Gauss-broadening in eV      SIGMA  =   0.02


--------------------------------------------------------------------------------------------------------


  energy-cutoff  :      318.00
  volume of cell :     1284.06
      direct lattice vectors                 reciprocal lattice vectors
    10.869145120 -0.000000000 -0.000000000     0.092003556  0.000000000 -0.000000000
    -0.000000000 10.869145120  0.000000000     0.000000000  0.092003556 -0.000000000
     0.000000000  0.000000000 10.869145120     0.000000000 -0.000000000  0.092003556

  length of vectors
    10.869145120 10.869145120 10.869145120     0.092003556  0.092003556  0.092003556


 
 k-points in units of 2pi/SCALE and weight: KPOINTS created by Atomic Simulation Env
   0.00000000  0.00000000  0.00000000       0.125
   0.04600178  0.00000000  0.00000000       0.125
   0.00000000  0.04600178  0.00000000       0.250
   0.04600178  0.04600178  0.00000000       0.250
   0.00000000  0.04600178  0.04600178       0.125
   0.04600178  0.04600178  0.04600178       0.125
 
 k-points in reciprocal lattice and weights: KPOINTS created by Atomic Simulation Env
   0.00000000  0.00000000  0.00000000       0.125
   0.50000000  0.00000000  0.00000000       0.125
  -0.00000000  0.50000000  0.00000000       0.250
   0.50000000  0.50000000  0.00000000       0.250
   0.00000000  0.50000000  0.50000000       0.125
   0.50000000  0.50000000  0.50000000       0.125
 
 position of ions in fractional coordinates (direct lattice) 
   0.25092004  0.25000000  0.25000000
   0.75000000  0.25000000  0.25000000
   0.25000000  0.75000000  0.25000000
   0.75000000  0.75000000  0.25000000
   0.25000000  0.25000000  0.75000000
   0.75000000  0.25000000  0.75000000
   0.25000000  0.75000000  0.75000000
   0.75000000  0.75000000  0.75000000
   0.25000000  0.00000000  0.00000000
   0.75000000  0.00000000  0.00000000
   0.25000000  0.50000000  0.00000000
   0.75000000  0.50000000  0.00000000
   0.25000000  0.00000000  0.50000000
   0.75000000  0.00000000  0.50000000
   0.25000000  0.50000000  0.50000000
   0.75000000  0.50000000  0.50000000
   0.00000000  0.25000000  0.00000000
   0.50000000  0.25000000  0.00000000
   0.00000000  0.75000000  0.00000000
   0.50000000  0.75000000  0.00000000
   0.00000000  0.25000000  0.50000000
   0.50000000  0.25000000  0.50000000
   0.00000000  0.75000000  0.50000000
   0.50000000  0.75000000  0.50000000
   0.00000000  0.00000000  0.25000000
   0.50000000  0.00000000  0.25000000
   0.00000000  0.50000000  0.25000000
   0.50000000  0.50000000  0.25000000
   0.00000000  0.00000000  0.75000000
   0.50000000  0.00000000  0.75000000
   0.00000000  0.50000000  0.75000000
   0.50000000  0.50000000  0.75000000
   0.37500000  0.37500000  0.37500000
   0.87500000  0.37500000  0.37500000
   0.37500000  0.87500000  0.37500000
   0.87500000  0.87500000  0.37500000
   0.37500000  0.37500000  0.87500000
   0.87500000  0.37500000  0.87500000
   0.37500000  0.87500000  0.87500000
   0.87500000  0.87500000  0.87500000
   0.37500000  0.12500000  0.12500000
   0.87500000  0.12500000  0.12500000
   0.37500000  0.62500000  0.12500000
   0.87500000  0.62500000  0.12500000
   0.37500000  0.12500000  0.62500000
   0.87500000  0.12500000  0.62500000
   0.37500000  0.62500000  0.62500000
   0.87500000  0.62500000  0.62500000
   0.12500000  0.37500000  0.12500000
   0.62500000  0.37500000  0.12500000
   0.12500000  0.87500000  0.12500000
   0.62500000  0.87500000  0.12500000
   0.12500000  0.37500000  0.62500000
   0.62500000  0.37500000  0.62500000
   0.12500000  0.87500000  0.62500000
   0.62500000  0.87500000  0.62500000
   0.12500000  0.12500000  0.37500000
   0.62500000  0.12500000  0.37500000
   0.12500000  0.62500000  0.37500000
   0.62500000  0.62500000  0.37500000
   0.12500000  0.12500000  0.87500000
   0.62500000  0.12500000  0.87500000
   0.12500000  0.62500000  0.87500000
   0.62500000  0.62500000  0.87500000
 
 position of ions in cartesian coordinates  (Angst):
   2.72728628  2.71728628  2.71728628
   8.15185884  2.71728628  2.71728628
   2.71728628  8.15185884  2.71728628
   8.15185884  8.15185884  2.71728628
   2.71728628  2.71728628  8.15185884
   8.15185884  2.71728628  8.15185884
   2.71728628  8.15185884  8.15185884
   8.15185884  8.15185884  8.15185884
   2.71728628 -0.00000000 -0.00000000
   8.15185884 -0.00000000 -0.00000000
   2.71728628  5.43457256  0.00000000
   8.15185884  5.43457256 -0.00000000
   2.71728628  0.00000000  5.43457256
   8.15185884 -0.00000000  5.43457256
   2.71728628  5.43457256  5.43457256
   8.15185884  5.43457256  5.43457256
  -0.00000000  2.71728628  0.00000000
   5.43457256  2.71728628 -0.00000000
  -0.00000000  8.15185884  0.00000000
   5.43457256  8.15185884  0.00000000
   0.00000000  2.71728628  5.43457256
   5.43457256  2.71728628  5.43457256
  -0.00000000  8.15185884  5.43457256
   5.43457256  8.15185884  5.43457256
   0.00000000  0.00000000  2.71728628
   5.43457256 -0.00000000  2.71728628
  -0.00000000  5.43457256  2.71728628
   5.43457256  5.43457256  2.71728628
   0.00000000  0.00000000  8.15185884
   5.43457256  0.00000000  8.15185884
   0.00000000  5.43457256  8.15185884
   5.43457256  5.43457256  8.15185884
   4.07592942  4.07592942  4.07592942
   9.51050198  4.07592942  4.07592942
   4.07592942  9.51050198  4.07592942
   9.51050198  9.51050198  4.07592942
   4.07592942  4.07592942  9.51050198
   9.51050198  4.07592942  9.51050198
   4.07592942  9.51050198  9.51050198
   9.51050198  9.51050198  9.51050198
   4.07592942  1.35864314  1.35864314
   9.51050198  1.35864314  1.35864314
   4.07592942  6.79321570  1.35864314
   9.51050198  6.79321570  1.35864314
   4.07592942  1.35864314  6.79321570
   9.51050198  1.35864314  6.79321570
   4.07592942  6.79321570  6.79321570
   9.51050198  6.79321570  6.79321570
   1.35864314  4.07592942  1.35864314
   6.79321570  4.07592942  1.35864314
   1.35864314  9.51050198  1.35864314
   6.79321570  9.51050198  1.35864314
   1.35864314  4.07592942  6.79321570
   6.79321570  4.07592942  6.79321570
   1.35864314  9.51050198  6.79321570
   6.79321570  9.51050198  6.79321570
   1.35864314  1.35864314  4.07592942
   6.79321570  1.35864314  4.07592942
   1.35864314  6.79321570  4.07592942
   6.79321570  6.79321570  4.07592942
   1.35864314  1.35864314  9.51050198
   6.79321570  1.35864314  9.51050198
   1.35864314  6.79321570  9.51050198
   6.79321570  6.79321570  9.51050198
 


--------------------------------------------------------------------------------------------------------


 k-point   1 :   0.0000 0.0000 0.0000  plane waves:   16519
 k-point   2 :   0.5000 0.0000 0.0000  plane waves:   16488
 k-point   3 :  -0.0000 0.5000 0.0000  plane waves:   16488
 k-point   4 :   0.5000 0.5000 0.0000  plane waves:   16588
 k-point   5 :   0.0000 0.5000 0.5000  plane waves:   16588
 k-point   6 :   0.5000 0.5000 0.5000  plane waves:   16560

 maximum and minimum number of plane-waves per node :      4170     4090

 maximum number of plane-waves:     16588
 maximum index in each direction: 
   IXMAX=   15   IYMAX=   15   IZMAX=   15
   IXMIN=  -16   IYMIN=  -16   IZMIN=  -16


 parallel 3D FFT for wavefunctions:
    minimum data exchange during FFTs selected (reduces bandwidth)
 parallel 3D FFT for charge:
    minimum data exchange during FFTs selected (reduces bandwidth)


 total amount of memory used by VASP MPI-rank0    61993. kBytes
=======================================================================

   base      :      30000. kBytes
   nonl-proj :       5879. kBytes
   fftplans  :      11573. kBytes
   grid      :       5816. kBytes
   one-center:         49. kBytes
   wavefun   :       8676. kBytes
 
     INWAV:  cpu time      0.0000: real time      0.0000
 Broyden mixing: mesh for mixing (old mesh)
   NGX = 31   NGY = 31   NGZ = 31
  (NGX  =128   NGY  =128   NGZ  =128)
  gives a total of  29791 points

 initial charge density was supplied:
 charge density of overlapping atoms calculated
 number of electron     256.0000000 magnetization 
 keeping initial charge density in first step


--------------------------------------------------------------------------------------------------------


 Maximum index for augmentation-charges         1701 (set IRDMAX)


--------------------------------------------------------------------------------------------------------


 First call to EWALD:  gamma=   0.163
 Maximum number of real-space cells 3x 3x 3
 Maximum number of reciprocal cells 3x 3x 3

    FEWALD:  cpu time      0.0015: real time      0.0016


--------------------------------------- Iteration      1(   1)  ---------------------------------------


    POTLOK:  cpu time      0.0230: real time      0.0232
    SETDIJ:  cpu time      0.0226: real time      0.0227
     EDDAV:  cpu time      1.7102: real time      1.7192
       DOS:  cpu time      0.0005: real time      0.0005
    --------------------------------------------
      LOOP:  cpu time      1.7563: real time      1.7657

 eigenvalue-minimisations  :  2016
 total energy-change (2. order) : 0.4553366E+03  (-0.7271907E+04)
 number of electron     256.0000000 magnetization 
 augmentation part      256.0000000 magnetization 

 Free energy of the ion-electron system (eV)
  ---------------------------------------------------
  alpha Z        PSCENC =       107.38120932
  Ewald energy   TEWEN  =     -7307.87773540
  -Hartree energ DENC   =      -353.24965879
  -exchange      EXHF   =         0.00000000
  -V(xc)+E(xc)   XCENC  =      -558.85372956
  PAW double counting   =      5598.62625415    -4492.17844134
  entropy T*S    EENTRO =        -0.00539248
  eigenvalues    EBANDS =       896.72704951
  atomic energy  EATOM  =      6564.76702419
  Solvation  Ediel_sol  =         0.00000000
  ---------------------------------------------------
  free energy    TOTEN  =       455.33657960 eV

  energy without entropy =      455.34197208  energy(sigma->0) =      455.33927584


--------------------------------------------------------------------------------------------------------




--------------------------------------- Iteration      1(   2)  ---------------------------------------


     EDDAV:  cpu time      1.9650: real time      1.9761
       DOS:  cpu time      0.0002: real time      0.0002
    --------------------------------------------
      LOOP:  cpu time      1.9652: real time      1.9763

 eigenvalue-minimisations  :  2424
 total energy-change (2. order) :-0.7765129E+03  (-0.7332998E+03)
 number of electron     256.0000000 magnetization 
 augmentation part      256.0000000 magnetization 

 Free energy of the ion-electron system (eV)
  ---------------------------------------------------
  alpha Z        PSCENC =       107.38120932
  Ewald energy   TEWEN  =     -7307.87773540
  -Hartree energ DENC   =      -353.24965879
  -exchange      EXHF   =         0.00000000
  -V(xc)+E(xc)   XCENC  =      -558.85372956
  PAW double counting   =      5598.62625415    -4492.17844134
  entropy T*S    EENTRO =        -0.00000000
  eigenvalues    EBANDS =       120.20877840
  atomic energy  EATOM  =      6564.76702419
  Solvation  Ediel_sol  =         0.00000000
  ---------------------------------------------------
  free energy    TOTEN  =      -321.17629903 eV

  energy without entropy =     -321.17629903  energy(sigma->0) =     -321.17629903


--------------------------------------------------------------------------------------------------------




--------------------------------------- Iteration      1(   3)  ---------------------------------------


     EDDAV:  cpu time      1.9947: real time      2.0057
       DOS:  cpu time      0.0002: real time      0.0002
    --------------------------------------------
      LOOP:  cpu time      1.9949: real time      2.0059

 eigenvalue-minimisations  :  2472
 total energy-change (2. order) :-0.5225584E+02  (-0.5144171E+02)
 number of electron     256.0000000 magnetization 
 augmentation part      256.0000000 magnetization 

 Free energy of the ion-electron system (eV)
  ---------------------------------------------------
  alpha Z        PSCENC =       107.38120932
  Ewald energy   TEWEN  =     -7307.87773540
  -Hartree energ DENC   =      -353.24965879
  -exchange      EXHF   =         0.00000000
  -V(xc)+E(xc)   XCENC  =      -558.85372956
  PAW double counting   =      5598.62625415    -4492.17844134
  entropy T*S    EENTRO =        -0.00000000
  eigenvalues    EBANDS =        67.95293807
  atomic energy  EATOM  =      6564.76702419
  Solvation  Ediel_sol  =         0.00000000
  ---------------------------------------------------
  free energy    TOTEN  =      -373.43213936 eV

  energy without entropy =     -373.43213936  energy(sigma->0) =     -373.43213936


--------------------------------------------------------------------------------------------------------




--------------------------------------- Iteration      1(   4)  ---------------------------------------


     EDDAV:  cpu time      1.9564: real time      1.9671
       DOS:  cpu time      0.0002: real time      0.0002
    --------------------------------------------
      LOOP:  cpu time      1.9566: real time      1.9673

 eigenvalue-minimisations  :  2416
 total energy-change (2. order) :-0.1167689E+01  (-0.1159498E+01)
 number of electron     256.0000000 magnetization 
 augmentation part      256.0000000 magnetization 

 Free energy of the ion-electron system (eV)
  ---------------------------------------------------
  alpha Z        PSCENC =       107.38120932
  Ewald energy   TEWEN  =     -7307.87773540
  -Hartree energ DENC   =      -353.24965879
  -exchange      EXHF   =         0.00000000
  -V(xc)+E(xc)   XCENC  =      -558.85372956
  PAW double counting   =      5598.62625415    -4492.17844134
  entropy T*S    EENTRO =        -0.00000000
  eigenvalues    EBANDS =        66.78524934
  atomic energy  EATOM  =      6564.76702419
  Solvation  Ediel_sol  =         0.00000000
  ---------------------------------------------------
  free energy    TOTEN  =      -374.59982810 eV

  energy without entropy =     -374.59982810  energy(sigma->0) =     -374.59982810


--------------------------------------------------------------------------------------------------------




--------------------------------------- Iteration      1(   5)  ---------------------------------------


     EDDAV:  cpu time      1.9380: real time      1.9533
       DOS:  cpu time      0.0002: real time      0.0002
    CHARGE:  cpu time      0.0802: real time      0.0806
    MIXING:  cpu time      0.0012: real time      0.0012
    --------------------------------------------
      LOOP:  cpu time      2.0196: real time      2.0352

 eigenvalue-minimisations  :  2392
 total energy-change (2. order) :-0.4160443E-01  (-0.4155351E-01)
 number of electron     255.9999994 magnetization 
 augmentation part      -14.9588489 magnetization 

 Broyden mixing:
  rms(total) = 0.28468E+01    rms(broyden)= 0.28467E+01
  rms(prec ) = 0.31323E+01
  weight for this iteration     100.00

 Free energy of the ion-electron system (eV)
  ---------------------------------------------------
  alpha Z        PSCENC =       107.38120932
  Ewald energy   TEWEN  =     -7307.87773540
  -Hartree energ DENC   =      -353.24965879
  -exchange      EXHF   =         0.00000000
  -V(xc)+E(xc)   XCENC  =      -558.85372956
  PAW double counting   =      5598.62625415    -4492.17844134
  entropy T*S    EENTRO =        -0.00000000
  eigenvalues    EBANDS =        66.74364491
  atomic energy  EATOM  =      6564.76702419
  Solvation  Ediel_sol  =         0.00000000
  ---------------------------------------------------
  free energy    TOTEN  =      -374.64143253 eV

  energy without entropy =     -374.64143253  energy(sigma->0) =     -374.64143253


--------------------------------------------------------------------------------------------------------




--------------------------------------- Iteration      1(   6)  ---------------------------------------


    POTLOK:  cpu time      0.0230: real time      0.0235
    SETDIJ:  cpu time      0.0220: real time      0.0221
     EDDAV:  cpu time      1.8726: real time      1.8841
       DOS:  cpu time      0.0005: real time      0.0005
    CHARGE:  cpu time      0.0816: real time      0.0820
    MIXING:  cpu time      0.0010: real time      0.0010
    --------------------------------------------
      LOOP:  cpu time      2.0007: real time      2.0132

 eigenvalue-minimisations  :  2288
 total energy-change (2. order) : 0.4919128E+01  (-0.2590099E+00)
 number of electron     255.9999994 magnetization 
 augmentation part      -14.7997162 magnetization 

 Broyden mixing:
  rms(total) = 0.17162E+01    rms(broyden)= 0.17162E+01
  rms(prec ) = 0.18754E+01
  weight for this iteration     100.00

 eigenvalues of (default mixing * dielectric matrix)
  average eigenvalue GAMMA=   2.5106
  2.5106

 Free energy of the ion-electron system (eV)
  ---------------------------------------------------
  alpha Z        PSCENC =       107.38120932
  Ewald energy   TEWEN  =     -7307.87773540
  -Hartree energ DENC   =      -399.23323377
  -exchange      EXHF   =         0.00000000
  -V(xc)+E(xc)   XCENC  =      -551.57550044
  PAW double counting   =     12483.57216989   -11380.36977595
  entropy T*S    EENTRO =        -0.00000000
  eigenvalues    EBANDS =       113.61353772
  atomic energy  EATOM  =      6564.76702419
  Solvation  Ediel_sol  =         0.00000000
  ---------------------------------------------------
  free energy    TOTEN  =      -369.72230443 eV

  energy without entropy =     -369.72230443  energy(sigma->0) =     -369.72230443


--------------------------------------------------------------------------------------------------------




--------------------------------------- Iteration      1(   7)  ---------------------------------------


    POTLOK:  cpu time      0.0219: real time      0.0223
    SETDIJ:  cpu time      0.0219: real time      0.0220
     EDDAV:  cpu time      1.8570: real time      1.8685
       DOS:  cpu time      0.0002: real time      0.0002
    CHARGE:  cpu time      0.0801: real time      0.0806
    MIXING:  cpu time      0.0011: real time      0.0012
    --------------------------------------------
      LOOP:  cpu time      1.9823: real time      1.9947

 eigenvalue-minimisations  :  2264
 total energy-change (2. order) : 0.2231347E+01  (-0.5238868E+00)
 number of electron     255.9999994 magnetization 
 augmentation part      -14.5985600 magnetization 

 Broyden mixing:
  rms(total) = 0.99598E-01    rms(broyden)= 0.99598E-01
  rms(prec ) = 0.12382E+00
  weight for this iteration     100.00

 eigenvalues of (default mixing * dielectric matrix)
  average eigenvalue GAMMA=   2.2528
  2.2528  2.2528

 Free energy of the ion-electron system (eV)
  ---------------------------------------------------
  alpha Z        PSCENC =       107.38120932
  Ewald energy   TEWEN  =     -7307.87773540
  -Hartree energ DENC   =      -473.64073317
  -exchange      EXHF   =         0.00000000
  -V(xc)+E(xc)   XCENC  =      -539.13875198
  PAW double counting   =     29119.71516589   -28020.88425159
  entropy T*S    EENTRO =        -0.00000000
  eigenvalues    EBANDS =       182.18711540
  atomic energy  EATOM  =      6564.76702419
  Solvation  Ediel_sol  =         0.00000000
  ---------------------------------------------------
  free energy    TOTEN  =      -367.49095735 eV

  energy without entropy =     -367.49095735  energy(sigma->0) =     -367.49095735


--------------------------------------------------------------------------------------------------------




--------------------------------------- Iteration      1(   8)  ---------------------------------------


    POTLOK:  cpu time      0.0222: real time      0.0226
    SETDIJ:  cpu time      0.0219: real time      0.0220
     EDDAV:  cpu time      1.8741: real time      1.8854
       DOS:  cpu time      0.0002: real time      0.0002
    CHARGE:  cpu time      0.0806: real time      0.0813
    MIXING:  cpu time      0.0010: real time      0.0010
    --------------------------------------------
      LOOP:  cpu time      2.0000: real time      2.0125

 eigenvalue-minimisations  :  2288
 total energy-change (2. order) :-0.7218091E-02  (-0.2829708E-01)
 number of electron     255.9999994 magnetization 
 augmentation part      -14.6403830 magnetization 

 Broyden mixing:
  rms(total) = 0.35150E-01    rms(broyden)= 0.35149E-01
  rms(prec ) = 0.40473E-01
  weight for this iteration     100.00

 eigenvalues of (default mixing * dielectric matrix)
  average eigenvalue GAMMA=   2.4234
  2.8001  2.2351  2.2351

 Free energy of the ion-electron system (eV)
  ---------------------------------------------------
  alpha Z        PSCENC =       107.38120932
  Ewald energy   TEWEN  =     -7307.87773540
  -Hartree energ DENC   =      -466.68638551
  -exchange      EXHF   =         0.00000000
  -V(xc)+E(xc)   XCENC  =      -539.74218040
  PAW double counting   =     28624.98291639   -27525.35120267
  entropy T*S    EENTRO =        -0.00000000
  eigenvalues    EBANDS =       175.02817865
  atomic energy  EATOM  =      6564.76702419
  Solvation  Ediel_sol  =         0.00000000
  ---------------------------------------------------
  free energy    TOTEN  =      -367.49817544 eV

  energy without entropy =     -367.49817544  energy(sigma->0) =     -367.49817544


--------------------------------------------------------------------------------------------------------




--------------------------------------- Iteration      1(   9)  ---------------------------------------


    POTLOK:  cpu time      0.0211: real time      0.0213
    SETDIJ:  cpu time      0.0220: real time      0.0221
     EDDAV:  cpu time      1.9834: real time      1.9957
       DOS:  cpu time      0.0002: real time      0.0002
    CHARGE:  cpu time      0.0804: real time      0.0810
    MIXING:  cpu time      0.0011: real time      0.0011
    --------------------------------------------
      LOOP:  cpu time      2.1082: real time      2.1214

 eigenvalue-minimisations  :  2472
 total energy-change (2. order) :-0.1451482E-02  (-0.7245310E-03)
 number of electron     255.9999994 magnetization 
 augmentation part      -14.6409433 magnetization 

 Broyden mixing:
  rms(total) = 0.30946E-01    rms(broyden)= 0.30946E-01
  rms(prec ) = 0.32065E-01
  weight for this iteration     100.00

 eigenvalues of (default mixing * dielectric matrix)
  average eigenvalue GAMMA=   2.3688
  3.8503  2.3883  2.3883  0.8482

 Free energy of the ion-electron system (eV)
  ---------------------------------------------------
  alpha Z        PSCENC =       107.38120932
  Ewald energy   TEWEN  =     -7307.87773540
  -Hartree energ DENC   =      -468.63655402
  -exchange      EXHF   =         0.00000000
  -V(xc)+E(xc)   XCENC  =      -539.41552999
  PAW double counting   =     28766.62371064   -27667.09720771
  entropy T*S    EENTRO =        -0.00000000
  eigenvalues    EBANDS =       176.75545605
  atomic energy  EATOM  =      6564.76702419
  Solvation  Ediel_sol  =         0.00000000
  ---------------------------------------------------
  free energy    TOTEN  =      -367.49962692 eV

  energy without entropy =     -367.49962692  energy(sigma->0) =     -367.49962692


--------------------------------------------------------------------------------------------------------




--------------------------------------- Iteration      1(  10)  ---------------------------------------


    POTLOK:  cpu time      0.0212: real time      0.0214
    SETDIJ:  cpu time      0.0219: real time      0.0220
     EDDAV:  cpu time      1.8426: real time      1.8539
       DOS:  cpu time      0.0002: real time      0.0002
    CHARGE:  cpu time      0.0808: real time      0.0813
    MIXING:  cpu time      0.0010: real time      0.0010
    --------------------------------------------
      LOOP:  cpu time      1.9676: real time      1.9798

 eigenvalue-minimisations  :  2240
 total energy-change (2. order) :-0.8601405E-03  (-0.2117843E-03)
 number of electron     255.9999994 magnetization 
 augmentation part      -14.6429187 magnetization 

 Broyden mixing:
  rms(total) = 0.23244E-01    rms(broyden)= 0.23244E-01
  rms(prec ) = 0.23363E-01
  weight for this iteration     100.00

 eigenvalues of (default mixing * dielectric matrix)
  average eigenvalue GAMMA=   1.8672
  2.8698  2.2528  2.2528  0.9802  0.9802

 Free energy of the ion-electron system (eV)
  ---------------------------------------------------
  alpha Z        PSCENC =       107.38120932
  Ewald energy   TEWEN  =     -7307.87773540
  -Hartree energ DENC   =      -468.88619115
  -exchange      EXHF   =         0.00000000
  -V(xc)+E(xc)   XCENC  =      -539.33902605
  PAW double counting   =     28250.68312968   -27151.12555922
  entropy T*S    EENTRO =        -0.00000000
  eigenvalues    EBANDS =       176.89666156
  atomic energy  EATOM  =      6564.76702419
  Solvation  Ediel_sol  =         0.00000000
  ---------------------------------------------------
  free energy    TOTEN  =      -367.50048706 eV

  energy without entropy =     -367.50048706  energy(sigma->0) =     -367.50048706


--------------------------------------------------------------------------------------------------------




--------------------------------------- Iteration      1(  11)  ---------------------------------------


    POTLOK:  cpu time      0.0211: real time      0.0213
    SETDIJ:  cpu time      0.0220: real time      0.0221
     EDDAV:  cpu time      1.9080: real time      1.9200
       DOS:  cpu time      0.0002: real time      0.0002
    CHARGE:  cpu time      0.0798: real time      0.0802
    MIXING:  cpu time      0.0022: real time      0.0022
    --------------------------------------------
      LOOP:  cpu time      2.0333: real time      2.0460

 eigenvalue-minimisations  :  2344
 total energy-change (2. order) :-0.4201917E-04  (-0.9095309E-05)
 number of electron     255.9999994 magnetization 
 augmentation part      -14.6438039 magnetization 

 Broyden mixing:
  rms(total) = 0.80040E-03    rms(broyden)= 0.80038E-03
  rms(prec ) = 0.89874E-03
  weight for this iteration     100.00

 eigenvalues of (default mixing * dielectric matrix)
  average eigenvalue GAMMA=   1.7696
  2.8866  2.2553  2.2553  1.2912  1.1457  0.7838

 Free energy of the ion-electron system (eV)
  ---------------------------------------------------
  alpha Z        PSCENC =       107.38120932
  Ewald energy   TEWEN  =     -7307.87773540
  -Hartree energ DENC   =      -468.75108278
  -exchange      EXHF   =         0.00000000
  -V(xc)+E(xc)   XCENC  =      -539.35249986
  PAW double counting   =     28478.50040468   -27378.93063825
  entropy T*S    EENTRO =        -0.00000000
  eigenvalues    EBANDS =       176.76278902
  atomic energy  EATOM  =      6564.76702419
  Solvation  Ediel_sol  =         0.00000000
  ---------------------------------------------------
  free energy    TOTEN  =      -367.50052908 eV

  energy without entropy =     -367.50052908  energy(sigma->0) =     -367.50052908


--------------------------------------------------------------------------------------------------------




--------------------------------------- Iteration      1(  12)  ---------------------------------------


    POTLOK:  cpu time      0.0215: real time      0.0217
    SETDIJ:  cpu time      0.0219: real time      0.0220
     EDDAV:  cpu time      1.9292: real time      1.9413
       DOS:  cpu time      0.0002: real time      0.0002
    CHARGE:  cpu time      0.0785: real time      0.0789
    MIXING:  cpu time      0.0031: real time      0.0031
    --------------------------------------------
      LOOP:  cpu time      2.0543: real time      2.0672

 eigenvalue-minimisations  :  2384
 total energy-change (2. order) :-0.2165213E-05  (-0.3148752E-06)
 number of electron     255.9999994 magnetization 
 augmentation part      -14.6436811 magnetization 

 Broyden mixing:
  rms(total) = 0.82435E-03    rms(broyden)= 0.82435E-03
  rms(prec ) = 0.85384E-03
  weight for this iteration     100.00

 eigenvalues of (default mixing * dielectric matrix)
  average eigenvalue GAMMA=   1.8593
  3.0319  2.5213  2.4561  2.2218  0.9722  0.9060  0.9060

 Free energy of the ion-electron system (eV)
  ---------------------------------------------------
  alpha Z        PSCENC =       107.38120932
  Ewald energy   TEWEN  =     -7307.87773540
  -Hartree energ DENC   =      -468.78322914
  -exchange      EXHF   =         0.00000000
  -V(xc)+E(xc)   XCENC  =      -539.35101832
  PAW double counting   =     28482.12921446   -27382.55848609
  entropy T*S    EENTRO =        -0.00000000
  eigenvalues    EBANDS =       176.79248972
  atomic energy  EATOM  =      6564.76702419
  Solvation  Ediel_sol  =         0.00000000
  ---------------------------------------------------
  free energy    TOTEN  =      -367.50053125 eV

  energy without entropy =     -367.50053125  energy(sigma->0) =     -367.50053125


--------------------------------------------------------------------------------------------------------




--------------------------------------- Iteration      1(  13)  ---------------------------------------


    POTLOK:  cpu time      0.0211: real time      0.0213
    SETDIJ:  cpu time      0.0222: real time      0.0224
     EDDAV:  cpu time      1.8602: real time      1.8720
       DOS:  cpu time      0.0002: real time      0.0002
    CHARGE:  cpu time      0.0796: real time      0.0800
    MIXING:  cpu time      0.0028: real time      0.0028
    --------------------------------------------
      LOOP:  cpu time      1.9862: real time      1.9987

 eigenvalue-minimisations  :  2272
 total energy-change (2. order) : 0.1125502E-05  (-0.8731814E-07)
 number of electron     255.9999994 magnetization 
 augmentation part      -14.6436469 magnetization 

 Broyden mixing:
  rms(total) = 0.15506E-03    rms(broyden)= 0.15506E-03
  rms(prec ) = 0.16034E-03
  weight for this iteration     100.00

 eigenvalues of (default mixing * dielectric matrix)
  average eigenvalue GAMMA=   1.7883
  3.0651  2.6470  2.3544  2.2219  0.9518  0.9518  1.0574  1.0574

 Free energy of the ion-electron system (eV)
  ---------------------------------------------------
  alpha Z        PSCENC =       107.38120932
  Ewald energy   TEWEN  =     -7307.87773540
  -Hartree energ DENC   =      -468.78555168
  -exchange      EXHF   =         0.00000000
  -V(xc)+E(xc)   XCENC  =      -539.35340978
  PAW double counting   =     28476.12928678   -27376.55608245
  entropy T*S    EENTRO =        -0.00000000
  eigenvalues    EBANDS =       176.79472890
  atomic energy  EATOM  =      6564.76702419
  Solvation  Ediel_sol  =         0.00000000
  ---------------------------------------------------
  free energy    TOTEN  =      -367.50053012 eV

  energy without entropy =     -367.50053012  energy(sigma->0) =     -367.50053012


--------------------------------------------------------------------------------------------------------




--------------------------------------- Iteration      1(  14)  ---------------------------------------


    POTLOK:  cpu time      0.0215: real time      0.0217
    SETDIJ:  cpu time      0.0219: real time      0.0220
     EDDAV:  cpu time      1.5090: real time      1.5182
       DOS:  cpu time      0.0002: real time      0.0002
    CHARGE:  cpu time      0.0796: real time      0.0800
    MIXING:  cpu time      0.0024: real time      0.0024
    --------------------------------------------
      LOOP:  cpu time      1.6346: real time      1.6444

 eigenvalue-minimisations  :  1688
 total energy-change (2. order) : 0.9703490E-07  (-0.1965865E-08)
 number of electron     255.9999994 magnetization 
 augmentation part      -14.6436426 magnetization 

 Broyden mixing:
  rms(total) = 0.45607E-04    rms(broyden)= 0.45607E-04
  rms(prec ) = 0.47556E-04
  weight for this iteration     100.00

 eigenvalues of (default mixing * dielectric matrix)
  average eigenvalue GAMMA=   1.8360
  3.0904  2.5344  2.5344  2.1952  2.1952  1.1322  0.9310  0.9310  0.9804

 Free energy of the ion-electron system (eV)
  ---------------------------------------------------
  alpha Z        PSCENC =       107.38120932
  Ewald energy   TEWEN  =     -7307.87773540
  -Hartree energ DENC   =      -468.78524326
  -exchange      EXHF   =         0.00000000
  -V(xc)+E(xc)   XCENC  =      -539.35376086
  PAW double counting   =     28475.03665495   -27375.46333210
  entropy T*S    EENTRO =        -0.00000000
  eigenvalues    EBANDS =       176.79465313
  atomic energy  EATOM  =      6564.76702419
  Solvation  Ediel_sol  =         0.00000000
  ---------------------------------------------------
  free energy    TOTEN  =      -367.50053002 eV

  energy without entropy =     -367.50053002  energy(sigma->0) =     -367.50053002


--------------------------------------------------------------------------------------------------------




--------------------------------------- Iteration      1(  15)  ---------------------------------------


    POTLOK:  cpu time      0.0217: real time      0.0220
    SETDIJ:  cpu time      0.0218: real time      0.0219
     EDDAV:  cpu time      1.3242: real time      1.3327
       DOS:  cpu time      0.0002: real time      0.0002
    --------------------------------------------
      LOOP:  cpu time      1.3680: real time      1.3768

 eigenvalue-minimisations  :  1384
 total energy-change (2. order) : 0.9074938E-08  (-0.1065212E-08)
 number of electron     255.9999994 magnetization 
 augmentation part      -14.6436426 magnetization 

 Free energy of the ion-electron system (eV)
  ---------------------------------------------------
  alpha Z        PSCENC =       107.38120932
  Ewald energy   TEWEN  =     -7307.87773540
  -Hartree energ DENC   =      -468.78475053
  -exchange      EXHF   =         0.00000000
  -V(xc)+E(xc)   XCENC  =      -539.35381267
  PAW double counting   =     28474.86463198   -27375.29136446
  entropy T*S    EENTRO =        -0.00000000
  eigenvalues    EBANDS =       176.79426755
  atomic energy  EATOM  =      6564.76702419
  Solvation  Ediel_sol  =         0.00000000
  ---------------------------------------------------
  free energy    TOTEN  =      -367.50053002 eV

  energy without entropy =     -367.50053002  energy(sigma->0) =     -367.50053002


--------------------------------------------------------------------------------------------------------




 average (electrostatic) potential at core
  the test charge radii are     0.9892
  (the norm of the test charge is              1.0000)
       1 -83.0574       2 -83.0573       3 -83.0573       4 -83.0573       5 -83.0573
       6 -83.0573       7 -83.0573       8 -83.0573       9 -83.0594      10 -83.0570
      11 -83.0552      12 -83.0576      13 -83.0552      14 -83.0576      15 -83.0594
      16 -83.0570      17 -83.0574      18 -83.0572      19 -83.0572      20 -83.0574
      21 -83.0574      22 -83.0572      23 -83.0572      24 -83.0574      25 -83.0574
      26 -83.0572      27 -83.0574      28 -83.0572      29 -83.0572      30 -83.0574
      31 -83.0572      32 -83.0574      33 -83.0571      34 -83.0570      35 -83.0571
      36 -83.0575      37 -83.0571      38 -83.0575      39 -83.0586      40 -83.0571
      41 -83.0571      42 -83.0570      43 -83.0571      44 -83.0575      45 -83.0571
      46 -83.0575      47 -83.0586      48 -83.0571      49 -83.0576      50 -83.0576
      51 -83.0575      52 -83.0571      53 -83.0575      54 -83.0571      55 -83.0560
      56 -83.0575      57 -83.0576      58 -83.0576      59 -83.0575      60 -83.0571
      61 -83.0575      62 -83.0571      63 -83.0560      64 -83.0575
 
 
 
 E-fermi :   5.8942     XC(G=0):  -9.5445     alpha+bet :-11.9543

 Fermi energy:         5.8942124860

 k-point     1 :       0.0000    0.0000    0.0000
  band No.  band energies     occupation 
      1      -6.2055      2.00000
      2      -5.1231      2.00000
      3      -5.1218      2.00000
      4      -5.1213      2.00000
      5      -5.1213      2.00000
      6      -5.1208      2.00000
      7      -5.1195      2.00000
      8      -4.1591      2.00000
      9      -4.1564      2.00000
     10      -4.1553      2.00000
     11      -4.1551      2.00000
     12      -4.1551      2.00000
     13      -4.1551      2.00000
     14      -4.1550      2.00000
     15      -4.1550      2.00000
     16      -4.1549      2.00000
     17      -4.1548      2.00000
     18      -4.1537      2.00000
     19      -4.1511      2.00000
     20      -3.8618      2.00000
     21      -3.8611      2.00000
     22      -3.8602      2.00000
     23      -3.8594      2.00000
     24      -2.0540      2.00000
     25      -2.0529      2.00000
     26      -2.0519      2.00000
     27      -2.0519      2.00000
     28      -2.0509      2.00000
     29      -2.0500      2.00000
     30      -1.8865      2.00000
     31      -1.8849      2.00000
     32      -1.8831      2.00000
     33      -1.8829      2.00000
     34      -1.8828      2.00000
     35      -1.8827      2.00000
     36      -1.8827      2.00000
     37      -1.8826      2.00000
     38      -1.8825      2.00000
     39      -1.8824      2.00000
     40      -1.8805      2.00000
     41      -1.8788      2.00000
     42      -1.2360      2.00000
     43      -1.2349      2.00000
     44      -1.2345      2.00000
     45      -1.2334      2.00000
     46       0.2790      2.00000
     47       0.2792      2.00000
     48       0.2817      2.00000
     49       0.2818      2.00000
     50       0.2818      2.00000
     51       0.2819      2.00000
     52       0.2820      2.00000
     53       0.2821      2.00000
     54       0.2821      2.00000
     55       0.2822      2.00000
     56       0.2847      2.00000
     57       0.2850      2.00000
     58       1.8689      2.00000
     59       1.8705      2.00000
     60       1.8707      2.00000
     61       1.8708      2.00000
     62       1.8711      2.00000
     63       1.8712      2.00000
     64       1.8712      2.00000
     65       1.8713      2.00000
     66       1.8716      2.00000
     67       1.8717      2.00000
     68       1.8719      2.00000
     69       1.8734      2.00000
     70       1.9716      2.00000
     71       1.9717      2.00000
     72       1.9720      2.00000
     73       1.9731      2.00000
     74       1.9733      2.00000
     75       1.9733      2.00000
     76       1.9733      2.00000
     77       1.9733      2.00000
     78       1.9735      2.00000
     79       1.9746      2.00000
     80       1.9749      2.00000
     81       1.9751      2.00000
     82       2.2495      2.00000
     83       2.2505      2.00000
     84       2.2514      2.00000
     85       2.2514      2.00000
     86       2.2524      2.00000
     87       2.2533      2.00000
     88       2.9008      2.00000
     89       2.9016      2.00000
     90       2.9017      2.00000
     91       2.9017      2.00000
     92       2.9018      2.00000
     93       2.9026      2.00000
     94       3.8634      2.00000
     95       3.8658      2.00000
     96       3.8665      2.00000
     97       3.8665      2.00000
     98       3.8667      2.00000
     99       3.8667      2.00000
    100       3.8667      2.00000
    101       3.8667      2.00000
    102       3.8668      2.00000
    103       3.8669      2.00000
    104       3.8675      2.00000
    105       3.8699      2.00000
    106       4.4335      2.00000
    107       4.4354      2.00000
    108       4.4365      2.00000
    109       4.4367      2.00000
    110       4.4369      2.00000
    111       4.4370      2.00000
    112       4.4371      2.00000
    113       4.4372      2.00000
    114       4.4373      2.00000
    115       4.4375      2.00000
    116       4.4386      2.00000
    117       4.4404      2.00000
    118       4.5673      2.00000
    119       4.5691      2.00000
    120       4.5695      2.00000
    121       4.5697      2.00000
    122       4.5699      2.00000
    123       4.5701      2.00000
    124       4.5706      2.00000
    125       4.5725      2.00000
    126       5.7705      2.00000
    127       5.7719      2.00000
    128       5.7735      2.00000
    129       6.3643      0.00000
    130       6.3649      0.00000
    131       6.3658      0.00000
    132       6.3658      0.00000
    133       6.3667      0.00000
    134       6.3672      0.00000
    135       6.8067      0.00000
    136       6.8069      0.00000
    137       6.8081      0.00000
    138       6.8081      0.00000
    139       6.8092      0.00000
    140       6.8095      0.00000
    141       7.2317      0.00000
    142       7.2319      0.00000
    143       7.2321      0.00000
    144       7.2323      0.00000
    145       8.1355      0.00000
    146       8.1356      0.00000
    147       8.1376      0.00000
    148       8.1377      0.00000
    149       8.1379      0.00000
    150       8.1379      0.00000
    151       8.1379      0.00000
    152       8.1380      0.00000
    153       8.1381      0.00000
    154       8.1382      0.00000
    155       8.1402      0.00000
    156       8.1403      0.00000
    157       8.2881      0.00000
    158       8.2889      0.00000
    159       8.2898      0.00000
    160       8.7968      0.00000
    161       8.7975      0.00000
    162       8.7979      0.00000
    163       8.7979      0.00000
    164       8.7984      0.00000
    165       8.7991      0.00000
    166       9.0493      0.00000
    167       9.0505      0.00000
    168       9.0523      0.00000

 k-point     2 :       0.5000    0.0000    0.0000
  band No.  band energies     occupation 
      1      -5.9327      2.00000
      2      -5.9313      2.00000
      3      -4.8747      2.00000
      4      -4.8739      2.00000
      5      -4.8729      2.00000
      6      -4.8727      2.00000
      7      -4.8727      2.00000
      8      -4.8726      2.00000
      9      -4.8716      2.00000
     10      -4.8708      2.00000
     11      -4.0248      2.00000
     12      -4.0237      2.00000
     13      -4.0228      2.00000
     14      -4.0227      2.00000
     15      -4.0227      2.00000
     16      -4.0225      2.00000
     17      -4.0217      2.00000
     18      -4.0207      2.00000
     19      -3.8068      2.00000
     20      -3.8045      2.00000
     21      -3.0799      2.00000
     22      -3.0775      2.00000
     23      -3.0767      2.00000
     24      -3.0765      2.00000
     25      -3.0763      2.00000
     26      -3.0761      2.00000
     27      -3.0753      2.00000
     28      -3.0729      2.00000
     29      -1.9736      2.00000
     30      -1.9717      2.00000
     31      -1.9717      2.00000
     32      -1.9715      2.00000
     33      -1.9714      2.00000
     34      -1.9713      2.00000
     35      -1.9712      2.00000
     36      -1.9693      2.00000
     37      -0.8053      2.00000
     38      -0.8044      2.00000
     39      -0.8033      2.00000
     40      -0.8032      2.00000
     41      -0.8028      2.00000
     42      -0.8027      2.00000
     43      -0.8016      2.00000
     44      -0.8008      2.00000
     45      -0.6363      2.00000
     46      -0.6352      2.00000
     47      -0.6345      2.00000
     48      -0.6340      2.00000
     49      -0.6340      2.00000
     50      -0.6335      2.00000
     51      -0.6327      2.00000
     52      -0.6315      2.00000
     53       0.0225      2.00000
     54       0.0240      2.00000
     55       1.4713      2.00000
     56       1.4730      2.00000
     57       1.4742      2.00000
     58       1.4743      2.00000
     59       1.4744      2.00000
     60       1.4744      2.00000
     61       1.4753      2.00000
     62       1.4769      2.00000
     63       1.4917      2.00000
     64       1.4926      2.00000
     65       1.4929      2.00000
     66       1.4930      2.00000
     67       1.4936      2.00000
     68       1.4936      2.00000
     69       1.4943      2.00000
     70       1.4952      2.00000
     71       2.3174      2.00000
     72       2.3176      2.00000
     73       2.3176      2.00000
     74       2.3180      2.00000
     75       2.3181      2.00000
     76       2.3185      2.00000
     77       2.3185      2.00000
     78       2.3187      2.00000
     79       3.0225      2.00000
     80       3.0241      2.00000
     81       3.0242      2.00000
     82       3.0247      2.00000
     83       3.0250      2.00000
     84       3.0254      2.00000
     85       3.0255      2.00000
     86       3.0271      2.00000
     87       3.1465      2.00000
     88       3.1478      2.00000
     89       3.1485      2.00000
     90       3.1495      2.00000
     91       3.1575      2.00000
     92       3.1581      2.00000
     93       3.1589      2.00000
     94       3.1590      2.00000
     95       3.1593      2.00000
     96       3.1595      2.00000
     97       3.1606      2.00000
     98       3.1609      2.00000
     99       3.2847      2.00000
    100       3.2850      2.00000
    101       3.2851      2.00000
    102       3.2856      2.00000
    103       3.2858      2.00000
    104       3.2864      2.00000
    105       3.2865      2.00000
    106       3.2869      2.00000
    107       4.3309      2.00000
    108       4.3309      2.00000
    109       4.3315      2.00000
    110       4.3318      2.00000
    111       4.3319      2.00000
    112       4.3321      2.00000
    113       4.3327      2.00000
    114       4.3328      2.00000
    115       4.4330      2.00000
    116       4.4330      2.00000
    117       4.4966      2.00000
    118       4.5002      2.00000
    119       4.5008      2.00000
    120       4.5009      2.00000
    121       4.5009      2.00000
    122       4.5010      2.00000
    123       4.5016      2.00000
    124       4.5051      2.00000
    125       4.9528      2.00000
    126       4.9547      2.00000
    127       4.9557      2.00000
    128       4.9576      2.00000
    129       6.2790      0.00000
    130       6.2804      0.00000
    131       7.1933      0.00000
    132       7.1946      0.00000
    133       7.6437      0.00000
    134       7.6451      0.00000
    135       7.6453      0.00000
    136       7.6459      0.00000
    137       7.6459      0.00000
    138       7.6465      0.00000
    139       7.6466      0.00000
    140       7.6480      0.00000
    141       7.7139      0.00000
    142       7.7144      0.00000
    143       8.0572      0.00000
    144       8.0591      0.00000
    145       8.0596      0.00000
    146       8.0597      0.00000
    147       8.0598      0.00000
    148       8.0599      0.00000
    149       8.0603      0.00000
    150       8.0622      0.00000
    151       8.1436      0.00000
    152       8.1451      0.00000
    153       8.1453      0.00000
    154       8.1454      0.00000
    155       8.1459      0.00000
    156       8.1460      0.00000
    157       8.1462      0.00000
    158       8.1476      0.00000
    159       8.5509      0.00000
    160       8.5518      0.00000
    161       8.5521      0.00000
    162       8.5522      0.00000
    163       8.5534      0.00000
    164       8.5535      0.00000
    165       8.5537      0.00000
    166       8.5546      0.00000
    167       9.3196      0.00000
    168       9.3244      0.00000

 k-point     3 :      -0.0000    0.5000    0.0000
  band No.  band energies     occupation 
      1      -5.9320      2.00000
      2      -5.9320      2.00000
      3      -4.8757      2.00000
      4      -4.8733      2.00000
      5      -4.8730      2.00000
      6      -4.8728      2.00000
      7      -4.8726      2.00000
      8      -4.8724      2.00000
      9      -4.8721      2.00000
     10      -4.8698      2.00000
     11      -4.0254      2.00000
     12      -4.0235      2.00000
     13      -4.0229      2.00000
     14      -4.0228      2.00000
     15      -4.0226      2.00000
     16      -4.0225      2.00000
     17      -4.0219      2.00000
     18      -4.0200      2.00000
     19      -3.8057      2.00000
     20      -3.8057      2.00000
     21      -3.0784      2.00000
     22      -3.0776      2.00000
     23      -3.0766      2.00000
     24      -3.0764      2.00000
     25      -3.0764      2.00000
     26      -3.0762      2.00000
     27      -3.0752      2.00000
     28      -3.0744      2.00000
     29      -1.9745      2.00000
     30      -1.9715      2.00000
     31      -1.9715      2.00000
     32      -1.9715      2.00000
     33      -1.9715      2.00000
     34      -1.9715      2.00000
     35      -1.9714      2.00000
     36      -1.9684      2.00000
     37      -0.8055      2.00000
     38      -0.8047      2.00000
     39      -0.8031      2.00000
     40      -0.8031      2.00000
     41      -0.8029      2.00000
     42      -0.8029      2.00000
     43      -0.8013      2.00000
     44      -0.8005      2.00000
     45      -0.6363      2.00000
     46      -0.6350      2.00000
     47      -0.6341      2.00000
     48      -0.6341      2.00000
     49      -0.6339      2.00000
     50      -0.6339      2.00000
     51      -0.6329      2.00000
     52      -0.6316      2.00000
     53       0.0232      2.00000
     54       0.0232      2.00000
     55       1.4723      2.00000
     56       1.4726      2.00000
     57       1.4741      2.00000
     58       1.4742      2.00000
     59       1.4744      2.00000
     60       1.4745      2.00000
     61       1.4757      2.00000
     62       1.4762      2.00000
     63       1.4919      2.00000
     64       1.4929      2.00000
     65       1.4930      2.00000
     66       1.4931      2.00000
     67       1.4935      2.00000
     68       1.4935      2.00000
     69       1.4938      2.00000
     70       1.4949      2.00000
     71       2.3169      2.00000
     72       2.3172      2.00000
     73       2.3180      2.00000
     74       2.3180      2.00000
     75       2.3181      2.00000
     76       2.3181      2.00000
     77       2.3189      2.00000
     78       2.3192      2.00000
     79       3.0238      2.00000
     80       3.0241      2.00000
     81       3.0246      2.00000
     82       3.0248      2.00000
     83       3.0249      2.00000
     84       3.0251      2.00000
     85       3.0255      2.00000
     86       3.0259      2.00000
     87       3.1480      2.00000
     88       3.1481      2.00000
     89       3.1481      2.00000
     90       3.1481      2.00000
     91       3.1578      2.00000
     92       3.1581      2.00000
     93       3.1590      2.00000
     94       3.1590      2.00000
     95       3.1593      2.00000
     96       3.1593      2.00000
     97       3.1603      2.00000
     98       3.1606      2.00000
     99       3.2837      2.00000
    100       3.2847      2.00000
    101       3.2856      2.00000
    102       3.2857      2.00000
    103       3.2858      2.00000
    104       3.2859      2.00000
    105       3.2869      2.00000
    106       3.2879      2.00000
    107       4.3291      2.00000
    108       4.3308      2.00000
    109       4.3317      2.00000
    110       4.3317      2.00000
    111       4.3320      2.00000
    112       4.3320      2.00000
    113       4.3329      2.00000
    114       4.3345      2.00000
    115       4.4329      2.00000
    116       4.4330      2.00000
    117       4.4993      2.00000
    118       4.5007      2.00000
    119       4.5009      2.00000
    120       4.5009      2.00000
    121       4.5009      2.00000
    122       4.5009      2.00000
    123       4.5013      2.00000
    124       4.5025      2.00000
    125       4.9552      2.00000
    126       4.9552      2.00000
    127       4.9552      2.00000
    128       4.9552      2.00000
[...]
         0         1         2         3         4         5         6         7         8         9
 total charge-density along one line
 
 pseudopotential strength for first ion, spin component:           1
 18.404  25.676   0.000   0.000   0.000   0.000   0.000   0.000
 25.676  35.825   0.000   0.000   0.000   0.000   0.000   0.001
  0.000   0.000   4.177   0.000  -0.000   7.782   0.000  -0.000
  0.000   0.000   0.000   4.177  -0.000   0.000   7.782  -0.000
  0.000   0.000  -0.000  -0.000   4.177  -0.000  -0.000   7.782
  0.000   0.000   7.782   0.000  -0.000  14.509   0.000  -0.000
  0.000   0.000   0.000   7.782  -0.000   0.000  14.509  -0.000
  0.000   0.001  -0.000  -0.000   7.782  -0.000  -0.000  14.509
 total augmentation occupancy for first ion, spin component:           1
  5.948  -2.288  -0.000  -0.000   0.019   0.000   0.000  -0.006
 -2.288   0.989   0.000   0.000  -0.009  -0.000  -0.000   0.003
 -0.000   0.000   3.001   0.022  -0.000  -0.681  -0.006   0.000
 -0.000   0.000   0.022   3.001  -0.000  -0.006  -0.681   0.000
  0.019  -0.009  -0.000  -0.000   3.000   0.000   0.000  -0.681
  0.000  -0.000  -0.681  -0.006   0.000   0.164   0.002  -0.000
  0.000  -0.000  -0.006  -0.681   0.000   0.002   0.164  -0.000
 -0.006   0.003   0.000   0.000  -0.681  -0.000  -0.000   0.164


------------------------ aborting loop because EDIFF is reached ----------------------------------------


    CHARGE:  cpu time      0.0788: real time      0.0792
    FORLOC:  cpu time      0.0092: real time      0.0092
    FORNL :  cpu time      0.8299: real time      0.8337
    STRESS:  cpu time      1.7117: real time      1.7201
    FORCOR:  cpu time      0.0283: real time      0.0284
    FORHAR:  cpu time      0.0115: real time      0.0115
    MIXING:  cpu time      0.0009: real time      0.0009
    OFIELD:  cpu time      0.0000: real time      0.0000

  FORCE on cell =-STRESS in cart. coord.  units (eV):
  Direction    XX          YY          ZZ          XY          YZ          ZX
  --------------------------------------------------------------------------------------
  Alpha Z   107.38121   107.38121   107.38121
  Ewald   -2435.98095 -2435.97133 -2435.97133    -0.00000     0.78458     0.00000
  Hartree   156.26032   156.26214   156.26214    -0.00000     0.08694    -0.00000
  E(xc)    -817.39770  -817.39783  -817.39783     0.00000    -0.01015    -0.00000
  Local    -931.45164  -931.46261  -931.46261    -0.00000    -0.81826    -0.00000
  n-local  2483.02266  2483.30747  2482.74184     0.00000     0.16276     0.00000
  augment  -368.16877  -368.16888  -368.16888    -0.00000    -0.00718     0.00000
  Kinetic  1806.30848  1807.67075  1804.94542     0.00000    -0.09988    -0.00000
  Fock        0.00000     0.00000     0.00000     0.00000     0.00000     0.00000
  -------------------------------------------------------------------------------------
  Total      -0.02640    -0.02455    -0.02455     0.00000     0.09880    -0.00000
  in kB      -0.03294    -0.03063    -0.03063     0.00000     0.12328    -0.00000
  external pressure =       -0.03 kB  Pullay stress =        0.00 kB


 VOLUME and BASIS-vectors are now :
 -----------------------------------------------------------------------------
  energy-cutoff  :      318.00
  volume of cell :     1284.06
      direct lattice vectors                 reciprocal lattice vectors
    10.869145120 -0.000000000 -0.000000000     0.092003556  0.000000000 -0.000000000
    -0.000000000 10.869145120  0.000000000     0.000000000  0.092003556 -0.000000000
     0.000000000  0.000000000 10.869145120     0.000000000 -0.000000000  0.092003556

  length of vectors
    10.869145120 10.869145120 10.869145120     0.092003556  0.092003556  0.092003556


 FORCES acting on ions
    electron-ion (+dipol)            ewald-force                    non-local-force                 convergence-correction
 -----------------------------------------------------------------------------------------------
   0.521E+00 -.355E-10 0.291E-07   -.473E+00 -.118E-13 -.164E-13   -.179E+00 0.495E-17 0.495E-17   0.650E-04 -.612E-14 -.136E-12
   -.608E-01 -.348E-10 -.255E-07   0.615E-01 -.102E-13 0.000E+00   -.478E-03 0.132E-19 0.132E-19   0.873E-06 -.287E-13 -.179E-12
   0.208E-01 0.315E-12 -.630E-11   -.195E-01 -.107E-13 0.666E-14   -.851E-03 0.235E-19 0.235E-19   0.203E-05 0.680E-14 -.120E-12
   -.162E-01 0.283E-12 -.660E-11   0.153E-01 -.355E-14 0.266E-14   0.953E-03 -.263E-19 -.263E-19   0.193E-04 0.293E-13 -.160E-12
   0.208E-01 0.225E-12 0.589E-10   -.195E-01 -.622E-14 -.577E-14   -.851E-03 0.235E-19 0.235E-19   0.203E-05 -.174E-13 0.142E-12
   -.162E-01 0.522E-12 0.583E-10   0.153E-01 -.622E-14 -.844E-14   0.953E-03 -.263E-19 -.263E-19   0.193E-04 -.246E-13 0.186E-12
   -.248E-02 -.181E-12 -.511E-10   -.804E-02 -.622E-14 0.266E-14   0.664E-02 -.183E-18 -.183E-18   -.510E-04 0.171E-13 0.125E-12
   -.703E-02 0.435E-12 -.500E-10   0.752E-02 -.142E-13 -.711E-14   -.293E-03 0.809E-20 0.810E-20   0.289E-04 0.268E-13 0.167E-12
   0.265E-01 -.498E-02 -.498E-02   -.367E-01 0.106E-03 0.106E-03   0.593E-02 0.580E-02 0.580E-02   0.304E-05 0.254E-04 0.254E-04
   -.201E-01 0.102E-03 0.102E-03   0.207E-01 -.318E-04 -.318E-04   -.580E-03 -.274E-05 -.274E-05   0.222E-04 0.100E-04 0.100E-04
   0.266E-01 -.470E-02 0.470E-02   -.367E-01 -.106E-03 0.106E-03   0.591E-02 0.574E-02 -.574E-02   -.696E-05 0.120E-04 -.120E-04
   -.201E-01 0.538E-04 -.538E-04   0.207E-01 0.318E-04 -.318E-04   -.587E-03 0.269E-05 -.269E-05   0.189E-04 -.121E-04 0.121E-04
   0.266E-01 0.470E-02 -.470E-02   -.367E-01 0.106E-03 -.106E-03   0.591E-02 -.574E-02 0.574E-02   -.696E-05 -.120E-04 0.120E-04
   -.201E-01 -.538E-04 0.538E-04   0.207E-01 -.318E-04 0.318E-04   -.587E-03 -.269E-05 0.269E-05   0.189E-04 0.121E-04 -.121E-04
   0.265E-01 0.498E-02 0.498E-02   -.367E-01 -.106E-03 -.106E-03   0.593E-02 -.580E-02 -.580E-02   0.304E-05 -.254E-04 -.254E-04
   -.201E-01 -.102E-03 -.102E-03   0.207E-01 0.318E-04 0.318E-04   -.580E-03 0.274E-05 0.274E-05   0.222E-04 -.100E-04 -.100E-04
   -.300E-01 -.165E-02 -.557E-01   0.297E-01 0.000E+00 0.564E-01   0.224E-02 0.712E-03 0.118E-02   -.417E-04 -.331E-05 -.105E-04
   -.299E-01 -.172E-02 0.560E-01   0.296E-01 0.000E+00 -.567E-01   0.224E-02 0.759E-03 -.119E-02   -.374E-06 0.692E-05 0.355E-04
   -.661E-03 -.496E-03 -.606E-02   0.980E-03 -.577E-14 0.466E-02   0.209E-04 0.441E-03 0.806E-03   -.134E-04 -.222E-04 -.762E-05
   -.606E-03 -.491E-03 0.605E-02   0.911E-03 -.355E-14 -.467E-02   0.588E-05 0.428E-03 -.806E-03   0.161E-04 -.144E-04 0.215E-04
   -.300E-01 0.165E-02 0.557E-01   0.297E-01 -.755E-14 -.564E-01   0.224E-02 -.712E-03 -.118E-02   -.417E-04 0.331E-05 0.105E-04
   -.299E-01 0.172E-02 -.560E-01   0.296E-01 -.400E-14 0.567E-01   0.224E-02 -.759E-03 0.119E-02   -.374E-06 -.692E-05 -.355E-04
   -.661E-03 0.496E-03 0.606E-02   0.980E-03 -.131E-13 -.466E-02   0.209E-04 -.441E-03 -.806E-03   -.134E-04 0.222E-04 0.762E-05
   -.606E-03 0.491E-03 -.605E-02   0.911E-03 0.311E-14 0.467E-02   0.588E-05 -.428E-03 0.806E-03   0.161E-04 0.144E-04 -.215E-04
   -.300E-01 -.557E-01 -.165E-02   0.297E-01 0.564E-01 -.289E-14   0.224E-02 0.118E-02 0.712E-03   -.417E-04 -.105E-04 -.331E-05
   -.299E-01 0.560E-01 -.172E-02   0.296E-01 -.567E-01 0.444E-15   0.224E-02 -.119E-02 0.759E-03   -.374E-06 0.355E-04 0.692E-05
   -.300E-01 0.557E-01 0.165E-02   0.297E-01 -.564E-01 -.755E-14   0.224E-02 -.118E-02 -.712E-03   -.417E-04 0.105E-04 0.331E-05
   -.299E-01 -.560E-01 0.172E-02   0.296E-01 0.567E-01 -.622E-14   0.224E-02 0.119E-02 -.759E-03   -.374E-06 -.355E-04 -.692E-05
   -.661E-03 -.606E-02 -.496E-03   0.980E-03 0.466E-02 -.466E-14   0.209E-04 0.806E-03 0.441E-03   -.134E-04 -.762E-05 -.222E-04
   -.606E-03 0.605E-02 -.491E-03   0.911E-03 -.467E-02 -.311E-14   0.588E-05 -.806E-03 0.428E-03   0.161E-04 0.215E-04 -.144E-04
   -.661E-03 0.606E-02 0.496E-03   0.980E-03 -.466E-02 -.533E-14   0.209E-04 -.806E-03 -.441E-03   -.134E-04 0.762E-05 0.222E-04
   -.606E-03 -.605E-02 0.491E-03   0.911E-03 0.467E-02 0.000E+00   0.588E-05 0.806E-03 -.428E-03   0.161E-04 -.215E-04 0.144E-04
   -.857E-02 -.203E+00 -.203E+00   0.664E-02 0.176E+00 0.176E+00   0.344E-01 0.493E-01 0.493E-01   0.306E-04 -.245E-04 -.245E-04
   -.517E-01 0.173E-01 0.173E-01   0.522E-01 -.167E-01 -.167E-01   -.592E-03 -.275E-03 -.275E-03   -.634E-05 -.119E-05 -.119E-05
   0.131E-01 0.178E-01 -.520E-02   -.149E-01 -.167E-01 0.667E-02   0.127E-02 -.774E-03 -.105E-02   0.104E-04 0.108E-04 -.188E-04
   -.155E-01 -.878E-02 0.372E-02   0.151E-01 0.805E-02 -.360E-02   0.660E-03 0.930E-03 0.131E-03   -.403E-05 0.976E-05 0.484E-05
   0.131E-01 -.520E-02 0.178E-01   -.149E-01 0.667E-02 -.167E-01   0.127E-02 -.105E-02 -.774E-03   0.104E-04 -.188E-04 0.108E-04
   -.155E-01 0.372E-02 -.878E-02   0.151E-01 -.360E-02 0.805E-02   0.660E-03 0.131E-03 0.930E-03   -.403E-05 0.484E-05 0.976E-05
   0.137E-01 0.848E-03 0.848E-03   -.754E-02 -.361E-02 -.361E-02   -.411E-02 0.302E-02 0.302E-02   -.671E-05 -.957E-05 -.957E-05
   -.763E-02 -.215E-02 -.215E-02   0.753E-02 0.261E-02 0.261E-02   -.868E-04 -.187E-03 -.187E-03   0.844E-05 -.169E-05 -.169E-05
   -.857E-02 0.203E+00 0.203E+00   0.664E-02 -.176E+00 -.176E+00   0.344E-01 -.493E-01 -.493E-01   0.306E-04 0.245E-04 0.245E-04
   -.517E-01 -.173E-01 -.173E-01   0.522E-01 0.167E-01 0.167E-01   -.592E-03 0.275E-03 0.275E-03   -.634E-05 0.119E-05 0.119E-05
   0.131E-01 -.178E-01 0.520E-02   -.149E-01 0.167E-01 -.667E-02   0.127E-02 0.774E-03 0.105E-02   0.104E-04 -.108E-04 0.188E-04
   -.155E-01 0.878E-02 -.372E-02   0.151E-01 -.805E-02 0.360E-02   0.660E-03 -.930E-03 -.131E-03   -.403E-05 -.976E-05 -.484E-05
   0.131E-01 0.520E-02 -.178E-01   -.149E-01 -.667E-02 0.167E-01   0.127E-02 0.105E-02 0.774E-03   0.104E-04 0.188E-04 -.108E-04
   -.155E-01 -.372E-02 0.878E-02   0.151E-01 0.360E-02 -.805E-02   0.660E-03 -.131E-03 -.930E-03   -.403E-05 -.484E-05 -.976E-05
   0.137E-01 -.848E-03 -.848E-03   -.754E-02 0.361E-02 0.361E-02   -.411E-02 -.302E-02 -.302E-02   -.671E-05 0.957E-05 0.957E-05
   -.763E-02 0.215E-02 0.215E-02   0.753E-02 -.261E-02 -.261E-02   -.868E-04 0.187E-03 0.187E-03   0.844E-05 0.169E-05 0.169E-05
   -.106E-01 0.202E+00 -.202E+00   0.839E-02 -.175E+00 0.175E+00   0.344E-01 -.486E-01 0.486E-01   -.119E-04 0.375E-05 -.375E-05
   -.518E-01 -.175E-01 0.175E-01   0.523E-01 0.168E-01 -.168E-01   -.585E-03 0.276E-03 -.276E-03   -.103E-04 -.208E-05 0.208E-05
   0.130E-01 -.179E-01 -.525E-02   -.148E-01 0.168E-01 0.670E-02   0.128E-02 0.781E-03 -.105E-02   -.244E-04 -.111E-04 0.128E-04
   -.155E-01 0.883E-02 0.377E-02   0.150E-01 -.811E-02 -.363E-02   0.660E-03 -.944E-03 0.975E-04   0.152E-04 0.652E-05 0.183E-04
   0.130E-01 0.525E-02 0.179E-01   -.148E-01 -.670E-02 -.168E-01   0.128E-02 0.105E-02 -.781E-03   -.244E-04 -.128E-04 0.111E-04
   -.155E-01 -.377E-02 -.883E-02   0.150E-01 0.363E-02 0.811E-02   0.660E-03 -.975E-04 0.944E-03   0.152E-04 -.183E-04 -.652E-05
   0.137E-01 -.847E-03 0.847E-03   -.748E-02 0.363E-02 -.363E-02   -.412E-02 -.303E-02 0.303E-02   -.242E-04 -.644E-05 0.644E-05
   -.761E-02 0.216E-02 -.216E-02   0.750E-02 -.263E-02 0.263E-02   -.891E-04 0.178E-03 -.178E-03   0.257E-04 0.159E-04 -.159E-04
   -.106E-01 -.202E+00 0.202E+00   0.839E-02 0.175E+00 -.175E+00   0.344E-01 0.486E-01 -.486E-01   -.119E-04 -.375E-05 0.375E-05
   -.518E-01 0.175E-01 -.175E-01   0.523E-01 -.168E-01 0.168E-01   -.585E-03 -.276E-03 0.276E-03   -.103E-04 0.208E-05 -.208E-05
   0.130E-01 0.179E-01 0.525E-02   -.148E-01 -.168E-01 -.670E-02   0.128E-02 -.781E-03 0.105E-02   -.244E-04 0.111E-04 -.128E-04
   -.155E-01 -.883E-02 -.377E-02   0.150E-01 0.811E-02 0.363E-02   0.660E-03 0.944E-03 -.975E-04   0.152E-04 -.652E-05 -.183E-04
   0.130E-01 -.525E-02 -.179E-01   -.148E-01 0.670E-02 0.168E-01   0.128E-02 -.105E-02 0.781E-03   -.244E-04 0.128E-04 -.111E-04
   -.155E-01 0.377E-02 0.883E-02   0.150E-01 -.363E-02 -.811E-02   0.660E-03 0.975E-04 -.944E-03   0.152E-04 0.183E-04 0.652E-05
   0.137E-01 0.847E-03 -.847E-03   -.748E-02 -.363E-02 0.363E-02   -.412E-02 0.303E-02 -.303E-02   -.242E-04 0.644E-05 -.644E-05
   -.761E-02 -.216E-02 0.216E-02   0.750E-02 0.263E-02 -.263E-02   -.891E-04 -.178E-03 0.178E-03   0.257E-04 -.159E-04 0.159E-04
 -----------------------------------------------------------------------------------------------
   0.102E-05 -.666E-10 0.227E-08   -.471E-14 -.208E-14 0.439E-13   0.741E-06 -.160E-16 -.439E-17   0.243E-05 -.483E-13 -.730E-13
 
 
 POSITION                                       TOTAL-FORCE (eV/Angst)
 -----------------------------------------------------------------------------------
      2.72729      2.71729      2.71729        -0.132136      0.000000      0.000000
      8.15186      2.71729      2.71729         0.000179     -0.000000     -0.000000
      2.71729      8.15186      2.71729         0.000481     -0.000000     -0.000000
      8.15186      8.15186      2.71729         0.000048     -0.000000     -0.000000
      2.71729      2.71729      8.15186         0.000481     -0.000000     -0.000000
      8.15186      2.71729      8.15186         0.000048     -0.000000     -0.000000
      2.71729      8.15186      8.15186        -0.003927      0.000000     -0.000000
      8.15186      8.15186      8.15186         0.000226     -0.000000     -0.000000
      2.71729     -0.00000     -0.00000        -0.004277      0.000953      0.000953
      8.15186     -0.00000     -0.00000        -0.000040      0.000077      0.000077
      2.71729      5.43457      0.00000        -0.004266      0.000941     -0.000941
      8.15186      5.43457     -0.00000        -0.000037      0.000076     -0.000076
      2.71729      0.00000      5.43457        -0.004266     -0.000941      0.000941
      8.15186     -0.00000      5.43457        -0.000037     -0.000076      0.000076
      2.71729      5.43457      5.43457        -0.004277     -0.000953     -0.000953
      8.15186      5.43457      5.43457        -0.000040     -0.000077     -0.000077
     -0.00000      2.71729      0.00000         0.001860     -0.000941      0.001853
      5.43457      2.71729     -0.00000         0.001878     -0.000954     -0.001866
     -0.00000      8.15186      0.00000         0.000326     -0.000077     -0.000604
      5.43457      8.15186      0.00000         0.000327     -0.000077      0.000602
      0.00000      2.71729      5.43457         0.001860      0.000941     -0.001853
      5.43457      2.71729      5.43457         0.001878      0.000954      0.001866
     -0.00000      8.15186      5.43457         0.000326      0.000077      0.000604
      5.43457      8.15186      5.43457         0.000327      0.000077     -0.000602
      0.00000      0.00000      2.71729         0.001860      0.001853     -0.000941
      5.43457     -0.00000      2.71729         0.001878     -0.001866     -0.000954
     -0.00000      5.43457      2.71729         0.001860     -0.001853      0.000941
      5.43457      5.43457      2.71729         0.001878      0.001866      0.000954
      0.00000      0.00000      8.15186         0.000326     -0.000604     -0.000077
      5.43457      0.00000      8.15186         0.000327      0.000602     -0.000077
      0.00000      5.43457      8.15186         0.000326      0.000604      0.000077
      5.43457      5.43457      8.15186         0.000327     -0.000602      0.000077
      4.07593      4.07593      4.07593         0.032489      0.023004      0.023004
      9.51050      4.07593      4.07593        -0.000090      0.000340      0.000340
      4.07593      9.51050      4.07593        -0.000515      0.000344      0.000406
      9.51050      9.51050      4.07593         0.000218      0.000212      0.000250
      4.07593      4.07593      9.51050        -0.000515      0.000406      0.000344
      9.51050      4.07593      9.51050         0.000218      0.000250      0.000212
      4.07593      9.51050      9.51050         0.002088      0.000254      0.000254
      9.51050      9.51050      9.51050        -0.000177      0.000271      0.000271
      4.07593      1.35864      1.35864         0.032489     -0.023004     -0.023004
      9.51050      1.35864      1.35864        -0.000090     -0.000340     -0.000340
      4.07593      6.79322      1.35864        -0.000515     -0.000344     -0.000406
      9.51050      6.79322      1.35864         0.000218     -0.000212     -0.000250
      4.07593      1.35864      6.79322        -0.000515     -0.000406     -0.000344
      9.51050      1.35864      6.79322         0.000218     -0.000250     -0.000212
      4.07593      6.79322      6.79322         0.002088     -0.000254     -0.000254
      9.51050      6.79322      6.79322        -0.000177     -0.000271     -0.000271
      1.35864      4.07593      1.35864         0.032181     -0.022400      0.022400
      6.79322      4.07593      1.35864        -0.000085     -0.000340      0.000340
      1.35864      9.51050      1.35864        -0.000511     -0.000339      0.000409
      6.79322      9.51050      1.35864         0.000224     -0.000215      0.000257
      1.35864      4.07593      6.79322        -0.000511     -0.000409      0.000339
      6.79322      4.07593      6.79322         0.000224     -0.000257      0.000215
      1.35864      9.51050      6.79322         0.002079     -0.000252      0.000252
      6.79322      9.51050      6.79322        -0.000176     -0.000268      0.000268
      1.35864      1.35864      4.07593         0.032181      0.022400     -0.022400
      6.79322      1.35864      4.07593        -0.000085      0.000340     -0.000340
      1.35864      6.79322      4.07593        -0.000511      0.000339     -0.000409
      6.79322      6.79322      4.07593         0.000224      0.000215     -0.000257
      1.35864      1.35864      9.51050        -0.000511      0.000409     -0.000339
      6.79322      1.35864      9.51050         0.000224      0.000257     -0.000215
      1.35864      6.79322      9.51050         0.002079      0.000252     -0.000252
      6.79322      6.79322      9.51050        -0.000176      0.000268     -0.000268
 -----------------------------------------------------------------------------------
    total drift:                                0.000004     -0.000000      0.000000


--------------------------------------------------------------------------------------------------------



  FREE ENERGIE OF THE ION-ELECTRON SYSTEM (eV)
  ---------------------------------------------------
  free  energy   TOTEN  =      -367.50053002 eV

  energy  without entropy=     -367.50053002  energy(sigma->0) =     -367.50053002
 


--------------------------------------------------------------------------------------------------------


    POTLOK:  cpu time      0.0424: real time      0.0427


--------------------------------------------------------------------------------------------------------


     LOOP+:  cpu time     31.5675: real time     31.7668
    4ORBIT:  cpu time      0.0000: real time      0.0000

 total amount of memory used by VASP MPI-rank0    61993. kBytes
=======================================================================

   base      :      30000. kBytes
   nonl-proj :       5879. kBytes
   fftplans  :      11573. kBytes
   grid      :       5816. kBytes
   one-center:         49. kBytes
   wavefun   :       8676. kBytes
 
  
  
 General timing and accounting informations for this job:
 ========================================================
  
                  Total CPU time used (sec):       33.294
                            User time (sec):       32.326
                          System time (sec):        0.968
                         Elapsed time (sec):       33.664
  
                   Maximum memory used (kb):      218408.
                   Average memory used (kb):          N/A
  
                          Minor page faults:        73411
                          Major page faults:            0
                 Voluntary context switches:          777
