  64  64   0   0
  0.2197554E+02  0.1120400E-08  0.1120400E-08  0.1120400E-08  0.5000000E-15
  1.000000000000000E-004
  CAR 
 unknown system                          
     11.06098624    -22.85362143  301     -0.55476689      1.00000000
    -22.854  0.0000E+00  0.0000E+00
    -22.741  0.0000E+00  0.0000E+00
    -22.628  0.0000E+00  0.0000E+00
    -22.514  0.0000E+00  0.0000E+00
    -22.401  0.0000E+00  0.0000E+00
    -22.288  0.0000E+00  0.0000E+00
    -22.175  0.0000E+00  0.0000E+00
    -22.062  0.0000E+00  0.0000E+00
    -21.949  0.0000E+00  0.0000E+00
    -21.836  0.0000E+00  0.0000E+00
    -21.723  0.0000E+00  0.0000E+00
    -21.610  0.0000E+00  0.0000E+00
    -21.497  0.0000E+00  0.0000E+00
    -21.384  0.5272E-05  0.5960E-06
    -21.271  0.1202E+04  0.1358E+03
    -21.158  0.4968E+03  0.1920E+03
    -21.045  0.0000E+00  0.1920E+03
    -20.932  0.0000E+00  0.1920E+03
    -20.819  0.0000E+00  0.1920E+03
    -20.706  0.0000E+00  0.1920E+03
    -20.593  0.0000E+00  0.1920E+03
    -20.480  0.0000E+00  0.1920E+03
    -20.367  0.0000E+00  0.1920E+03
    -20.254  0.0000E+00  0.1920E+03
    -20.140  0.0000E+00  0.1920E+03
    -20.027  0.0000E+00  0.1920E+03
    -19.914  0.0000E+00  0.1920E+03
    -19.801  0.0000E+00  0.1920E+03
    -19.688  0.0000E+00  0.1920E+03
    -19.575  0.0000E+00  0.1920E+03
    -19.462  0.0000E+00  0.1920E+03
    -19.349  0.0000E+00  0.1920E+03
    -19.236  0.0000E+00  0.1920E+03
    -19.123  0.0000E+00  0.1920E+03
    -19.010  0.0000E+00  0.1920E+03
    -18.897  0.0000E+00  0.1920E+03
    -18.784  0.0000E+00  0.1920E+03
    -18.671  0.0000E+00  0.1920E+03
    -18.558  0.0000E+00  0.1920E+03
    -18.445  0.0000E+00  0.1920E+03
    -18.332  0.0000E+00  0.1920E+03
    -18.219  0.0000E+00  0.1920E+03
    -18.106  0.0000E+00  0.1920E+03
    -17.993  0.0000E+00  0.1920E+03
    -17.879  0.0000E+00  0.1920E+03
    -17.766  0.0000E+00  0.1920E+03
    -17.653  0.0000E+00  0.1920E+03
    -17.540  0.0000E+00  0.1920E+03
    -17.427  0.0000E+00  0.1920E+03
    -17.314  0.0000E+00  0.1920E+03
    -17.201  0.0000E+00  0.1920E+03
    -17.088  0.0000E+00  0.1920E+03
    -16.975  0.0000E+00  0.1920E+03
    -16.862  0.0000E+00  0.1920E+03
    -16.749  0.0000E+00  0.1920E+03
    -16.636  0.0000E+00  0.1920E+03
    -16.523  0.0000E+00  0.1920E+03
    -16.410  0.0000E+00  0.1920E+03
    -16.297  0.0000E+00  0.1920E+03
    -16.184  0.0000E+00  0.1920E+03
    -16.071  0.0000E+00  0.1920E+03
    -15.958  0.0000E+00  0.1920E+03
    -15.845  0.0000E+00  0.1920E+03
    -15.732  0.0000E+00  0.1920E+03
    -15.619  0.0000E+00  0.1920E+03
    -15.505  0.0000E+00  0.1920E+03
    -15.392  0.0000E+00  0.1920E+03
    -15.279  0.0000E+00  0.1920E+03
    -15.166  0.0000E+00  0.1920E+03
    -15.053  0.0000E+00  0.1920E+03
    -14.940  0.0000E+00  0.1920E+03
    -14.827  0.0000E+00  0.1920E+03
    -14.714  0.0000E+00  0.1920E+03
    -14.601  0.0000E+00  0.1920E+03
    -14.488  0.0000E+00  0.1920E+03
    -14.375  0.0000E+00  0.1920E+03
    -14.262  0.0000E+00  0.1920E+03
    -14.149  0.0000E+00  0.1920E+03
    -14.036  0.0000E+00  0.1920E+03
    -13.923  0.0000E+00  0.1920E+03
    -13.810  0.0000E+00  0.1920E+03
    -13.697  0.0000E+00  0.1920E+03
    -13.584  0.0000E+00  0.1920E+03
    -13.471  0.1841E-14  0.1920E+03
    -13.358  0.1133E+01  0.1921E+03
    -13.244  0.1925E+02  0.1943E+03
    -13.131  0.4854E+02  0.1998E+03
    -13.018  0.1254E+03  0.2140E+03
    -12.905  0.3675E+03  0.2555E+03
    -12.792  0.4259E+01  0.2560E+03
    -12.679  0.0000E+00  0.2560E+03
    -12.566  0.0000E+00  0.2560E+03
    -12.453  0.0000E+00  0.2560E+03
    -12.340  0.0000E+00  0.2560E+03
    -12.227  0.0000E+00  0.2560E+03
    -12.114  0.0000E+00  0.2560E+03
    -12.001  0.0000E+00  0.2560E+03
    -11.888  0.0000E+00  0.2560E+03
    -11.775  0.0000E+00  0.2560E+03
    -11.662  0.0000E+00  0.2560E+03
    -11.549  0.0000E+00  0.2560E+03
    -11.436  0.0000E+00  0.2560E+03
    -11.323  0.0000E+00  0.2560E+03
    -11.210  0.0000E+00  0.2560E+03
    -11.097  0.0000E+00  0.2560E+03
    -10.984  0.0000E+00  0.2560E+03
    -10.870  0.0000E+00  0.2560E+03
    -10.757  0.0000E+00  0.2560E+03
    -10.644  0.0000E+00  0.2560E+03
    -10.531  0.0000E+00  0.2560E+03
    -10.418  0.0000E+00  0.2560E+03
    -10.305  0.0000E+00  0.2560E+03
    -10.192  0.0000E+00  0.2560E+03
    -10.079  0.0000E+00  0.2560E+03
     -9.966  0.0000E+00  0.2560E+03
     -9.853  0.0000E+00  0.2560E+03
     -9.740  0.0000E+00  0.2560E+03
     -9.627  0.0000E+00  0.2560E+03
     -9.514  0.0000E+00  0.2560E+03
     -9.401  0.0000E+00  0.2560E+03
     -9.288  0.0000E+00  0.2560E+03
     -9.175  0.0000E+00  0.2560E+03
     -9.062  0.0000E+00  0.2560E+03
     -8.949  0.0000E+00  0.2560E+03
     -8.836  0.0000E+00  0.2560E+03
     -8.723  0.0000E+00  0.2560E+03
     -8.609  0.0000E+00  0.2560E+03
     -8.496  0.0000E+00  0.2560E+03
     -8.383  0.0000E+00  0.2560E+03
     -8.270  0.0000E+00  0.2560E+03
     -8.157  0.0000E+00  0.2560E+03
     -8.044  0.0000E+00  0.2560E+03
     -7.931  0.0000E+00  0.2560E+03
     -7.818  0.0000E+00  0.2560E+03
     -7.705  0.0000E+00  0.2560E+03
     -7.592  0.0000E+00  0.2560E+03
     -7.479  0.0000E+00  0.2560E+03
     -7.366  0.0000E+00  0.2560E+03
     -7.253  0.0000E+00  0.2560E+03
     -7.140  0.0000E+00  0.2560E+03
     -7.027  0.0000E+00  0.2560E+03
     -6.914  0.0000E+00  0.2560E+03
     -6.801  0.0000E+00  0.2560E+03
     -6.688  0.0000E+00  0.2560E+03
     -6.575  0.0000E+00  0.2560E+03
     -6.462  0.0000E+00  0.2560E+03
     -6.349  0.0000E+00  0.2560E+03
     -6.235  0.0000E+00  0.2560E+03
     -6.122  0.0000E+00  0.2560E+03
     -6.009  0.0000E+00  0.2560E+03
     -5.896  0.0000E+00  0.2560E+03
     -5.783  0.0000E+00  0.2560E+03
     -5.670  0.0000E+00  0.2560E+03
     -5.557  0.0000E+00  0.2560E+03
     -5.444  0.0000E+00  0.2560E+03
     -5.331  0.0000E+00  0.2560E+03
     -5.218  0.0000E+00  0.2560E+03
     -5.105  0.0000E+00  0.2560E+03
     -4.992  0.0000E+00  0.2560E+03
     -4.879  0.0000E+00  0.2560E+03
     -4.766  0.0000E+00  0.2560E+03
     -4.653  0.0000E+00  0.2560E+03
     -4.540  0.0000E+00  0.2560E+03
     -4.427  0.0000E+00  0.2560E+03
     -4.314  0.0000E+00  0.2560E+03
     -4.201  0.0000E+00  0.2560E+03
     -4.088  0.0000E+00  0.2560E+03
     -3.974  0.0000E+00  0.2560E+03
     -3.861  0.0000E+00  0.2560E+03
     -3.748  0.0000E+00  0.2560E+03
     -3.635  0.0000E+00  0.2560E+03
     -3.522  0.0000E+00  0.2560E+03
     -3.409  0.0000E+00  0.2560E+03
     -3.296  0.0000E+00  0.2560E+03
     -3.183  0.0000E+00  0.2560E+03
     -3.070  0.0000E+00  0.2560E+03
     -2.957  0.0000E+00  0.2560E+03
     -2.844  0.0000E+00  0.2560E+03
     -2.731  0.1253E+00  0.2560E+03
     -2.618  0.8720E+01  0.2570E+03
     -2.505  0.2573E+02  0.2599E+03
     -2.392  0.8334E+02  0.2693E+03
     -2.279  0.8277E+02  0.2787E+03
     -2.166  0.1543E+03  0.2961E+03
     -2.053  0.7186E+02  0.3043E+03
     -1.940  0.5696E+02  0.3107E+03
     -1.827  0.6305E+02  0.3178E+03
     -1.714  0.7017E+02  0.3257E+03
     -1.600  0.6173E-09  0.3258E+03
     -1.487  0.7435E+02  0.3342E+03
     -1.374  0.1941E+03  0.3561E+03
     -1.261  0.2380E+02  0.3588E+03
     -1.148  0.2550E+03  0.3876E+03
     -1.035  0.1357E+03  0.4030E+03
     -0.922  0.2600E+03  0.4324E+03
     -0.809  0.6174E+02  0.4393E+03
     -0.696  0.7006E+02  0.4473E+03
     -0.583  0.6578E+01  0.4480E+03
     -0.470  0.0000E+00  0.4480E+03
     -0.357  0.0000E+00  0.4480E+03
     -0.244  0.0000E+00  0.4480E+03
     -0.131  0.0000E+00  0.4480E+03
     -0.018  0.0000E+00  0.4480E+03
      0.095  0.0000E+00  0.4480E+03
      0.208  0.0000E+00  0.4480E+03
      0.321  0.0000E+00  0.4480E+03
      0.434  0.0000E+00  0.4480E+03
      0.547  0.0000E+00  0.4480E+03
      0.661  0.0000E+00  0.4480E+03
      0.774  0.0000E+00  0.4480E+03
      0.887  0.0000E+00  0.4480E+03
      1.000  0.0000E+00  0.4480E+03
      1.113  0.0000E+00  0.4480E+03
      1.226  0.0000E+00  0.4480E+03
      1.339  0.0000E+00  0.4480E+03
      1.452  0.0000E+00  0.4480E+03
      1.565  0.0000E+00  0.4480E+03
      1.678  0.0000E+00  0.4480E+03
      1.791  0.0000E+00  0.4480E+03
      1.904  0.0000E+00  0.4480E+03
      2.017  0.0000E+00  0.4480E+03
      2.130  0.0000E+00  0.4480E+03
      2.243  0.0000E+00  0.4480E+03
      2.356  0.0000E+00  0.4480E+03
      2.469  0.0000E+00  0.4480E+03
      2.582  0.0000E+00  0.4480E+03
      2.695  0.0000E+00  0.4480E+03
      2.808  0.0000E+00  0.4480E+03
      2.921  0.0000E+00  0.4480E+03
      3.035  0.0000E+00  0.4480E+03
      3.148  0.0000E+00  0.4480E+03
      3.261  0.0000E+00  0.4480E+03
      3.374  0.0000E+00  0.4480E+03
      3.487  0.0000E+00  0.4480E+03
      3.600  0.0000E+00  0.4480E+03
      3.713  0.0000E+00  0.4480E+03
      3.826  0.0000E+00  0.4480E+03
      3.939  0.0000E+00  0.4480E+03
      4.052  0.0000E+00  0.4480E+03
      4.165  0.0000E+00  0.4480E+03
      4.278  0.1219E-04  0.4480E+03
      4.391  0.2211E+01  0.4482E+03
      4.504  0.0000E+00  0.4482E+03
      4.617  0.0000E+00  0.4482E+03
      4.730  0.0000E+00  0.4482E+03
      4.843  0.0000E+00  0.4482E+03
      4.956  0.3342E-04  0.4483E+03
      5.069  0.1326E+02  0.4497E+03
      5.182  0.3274E-02  0.4498E+03
      5.296  0.0000E+00  0.4498E+03
      5.409  0.0000E+00  0.4498E+03
      5.522  0.3152E+01  0.4501E+03
      5.635  0.2339E+02  0.4527E+03
      5.748  0.4188E-06  0.4528E+03
      5.861  0.1716E+02  0.4547E+03
      5.974  0.5288E+00  0.4548E+03
      6.087  0.0000E+00  0.4548E+03
      6.200  0.0000E+00  0.4548E+03
      6.313  0.2221E-02  0.4548E+03
      6.426  0.1408E+02  0.4563E+03
      6.539  0.8035E+01  0.4573E+03
      6.652  0.4284E+02  0.4621E+03
      6.765  0.6325E+02  0.4692E+03
      6.878  0.5924E+02  0.4759E+03
      6.991  0.1270E+02  0.4774E+03
      7.104  0.1087E+01  0.4775E+03
      7.217  0.5121E+01  0.4781E+03
      7.330  0.1879E+01  0.4783E+03
      7.443  0.8261E+02  0.4876E+03
      7.556  0.1666E+03  0.5065E+03
      7.670  0.2585E+01  0.5068E+03
      7.783  0.2651E+02  0.5097E+03
      7.896  0.3089E+00  0.5098E+03
      8.009  0.5277E+02  0.5157E+03
      8.122  0.1104E-01  0.5158E+03
      8.235  0.1449E+02  0.5174E+03
      8.348  0.9164E+02  0.5277E+03
      8.461  0.5803E-02  0.5278E+03
      8.574  0.1486E+03  0.5446E+03
      8.687  0.1061E+02  0.5458E+03
      8.800  0.4697E-05  0.5458E+03
      8.913  0.8324E+02  0.5552E+03
      9.026  0.1230E+03  0.5691E+03
      9.139  0.3827E+01  0.5695E+03
      9.252  0.2439E+02  0.5723E+03
      9.365  0.1984E+02  0.5745E+03
      9.478  0.9847E+00  0.5746E+03
      9.591  0.1228E+02  0.5760E+03
      9.704  0.0000E+00  0.5760E+03
      9.817  0.0000E+00  0.5760E+03
      9.930  0.0000E+00  0.5760E+03
     10.044  0.0000E+00  0.5760E+03
     10.157  0.0000E+00  0.5760E+03
     10.270  0.0000E+00  0.5760E+03
     10.383  0.0000E+00  0.5760E+03
     10.496  0.0000E+00  0.5760E+03
     10.609  0.0000E+00  0.5760E+03
     10.722  0.0000E+00  0.5760E+03
     10.835  0.0000E+00  0.5760E+03
     10.948  0.0000E+00  0.5760E+03
     11.061  0.0000E+00  0.5760E+03
