       N       E                     dE             d eps       ncg     rms          rms(c)
DAV:   1     0.439876278092E+04    0.43988E+04   -0.17102E+05  4864   0.125E+03
DAV:   2     0.367034705066E+03   -0.40317E+04   -0.38330E+04  5152   0.367E+02
DAV:   3    -0.204879594689E+03   -0.57191E+03   -0.56748E+03  5568   0.156E+02
DAV:   4    -0.228128377151E+03   -0.23249E+02   -0.23133E+02  5536   0.335E+01
DAV:   5    -0.229000621587E+03   -0.87224E+00   -0.87068E+00  5760   0.633E+00    0.106E+01
DAV:   6    -0.224139197343E+03    0.48614E+01   -0.94504E+00  5696   0.531E+00    0.774E+00
DAV:   7    -0.223777380215E+03    0.36182E+00   -0.20872E+00  6240   0.236E+00    0.533E+00
DAV:   8    -0.223902892150E+03   -0.12551E+00   -0.26855E-01  5376   0.125E+00    0.146E+00
DAV:   9    -0.223896951817E+03    0.59403E-02   -0.11633E-02  5632   0.267E-01    0.628E-01
DAV:  10    -0.223901123543E+03   -0.41717E-02   -0.19394E-02  5440   0.240E-01    0.295E-01
DAV:  11    -0.223900350101E+03    0.77344E-03   -0.17470E-03  5920   0.883E-02    0.941E-02
DAV:  12    -0.223900309267E+03    0.40834E-04   -0.14556E-04  6016   0.241E-02    0.241E-02
DAV:  13    -0.223900303162E+03    0.61049E-05   -0.34386E-05  5536   0.995E-03    0.376E-03
DAV:  14    -0.223900305104E+03   -0.19418E-05   -0.30733E-06  5536   0.410E-03    0.786E-03
DAV:  15    -0.223900306193E+03   -0.10888E-05   -0.34989E-07  6048   0.198E-03    0.364E-03
DAV:  16    -0.223900306666E+03   -0.47324E-06   -0.15486E-07  5632   0.976E-04    0.114E-03
DAV:  17    -0.223900306716E+03   -0.49964E-07   -0.95607E-09  3712   0.674E-04    0.556E-04
DAV:  18    -0.223900306902E+03   -0.18620E-06   -0.24564E-08  4544   0.891E-04    0.609E-04
DAV:  19    -0.223900306898E+03    0.43074E-08   -0.89181E-09  3040   0.298E-04
   1 F= -.22390031E+03 E0= -.22390031E+03  d E =-.297240E-15
