<?xml version="1.0" encoding="ISO-8859-1"?>
<modeling>
 <generator>
  <i name="program" type="string">vasp </i>
  <i name="version" type="string">6.3.2  </i>
  <i name="subversion" type="string">27Jun22 (build Oct 14 2022 12:13:54) complex                          parallel </i>
  <i name="platform" type="string">LinuxIFC </i>
  <i name="date" type="string">2025 08 28 </i>
  <i name="time" type="string">22:09:04 </i>
 </generator>
 <incar>
  <i type="string" name="PREC">Accurate</i>
  <i type="int" name="IALGO">    38</i>
  <i type="logical" name="ADDGRID"> T  </i>
  <i type="int" name="NELMIN">     5</i>
  <i type="int" name="IBRION">    -1</i>
  <i name="EDIFF">      0.00000001</i>
  <i name="ENCUT">    341.21360000</i>
  <i type="logical" name="LREAL"> F  </i>
  <i type="int" name="ISMEAR">     0</i>
  <i name="SIGMA">      0.02000000</i>
  <i type="logical" name="LWAVE"> F  </i>
  <i type="logical" name="LCHARG"> F  </i>
  <i type="string" name="GGA">PS</i>
 </incar>
 <primitive_cell>
  <structure name="primitive_cell" >
   <crystal>
    <varray name="basis" >
     <v>      11.20400236       0.00000000       0.00000000 </v>
     <v>       0.00000000      11.20400236       0.00000000 </v>
     <v>       0.00000000       0.00000000      11.20400236 </v>
    </varray>
    <i name="volume">   1406.43470641 </i>
    <varray name="rec_basis" >
     <v>       0.08925382       0.00000000       0.00000000 </v>
     <v>       0.00000000       0.08925382       0.00000000 </v>
     <v>       0.00000000       0.00000000       0.08925382 </v>
    </varray>
   </crystal>
   <varray name="positions" >
    <v>       0.00000000       0.00000000       0.00000000 </v>
    <v>       0.25000000       0.25000000       0.00000000 </v>
    <v>       0.25000000       0.00000000       0.25000000 </v>
    <v>       0.00000000       0.25000000       0.25000000 </v>
    <v>       0.00000000       0.00000000       0.50000000 </v>
    <v>       0.25000000       0.25000000       0.50000000 </v>
    <v>       0.25000000       0.00000000       0.75000000 </v>
    <v>       0.00000000       0.25000000       0.75000000 </v>
    <v>       0.00000000       0.50000000       0.00000000 </v>
    <v>       0.25000000       0.75000000       0.00000000 </v>
    <v>       0.25000000       0.50000000       0.25000000 </v>
    <v>       0.00000000       0.75000000       0.25000000 </v>
    <v>       0.00000000       0.50000000       0.50000000 </v>
    <v>       0.25000000       0.75000000       0.50000000 </v>
    <v>       0.25000000       0.50000000       0.75000000 </v>
    <v>       0.00000000       0.75000000       0.75000000 </v>
    <v>       0.50000000       0.00000000       0.00000000 </v>
    <v>       0.75000000       0.25000000       0.00000000 </v>
    <v>       0.75000000       0.00000000       0.25000000 </v>
    <v>       0.50000000       0.25000000       0.25000000 </v>
    <v>       0.50000000       0.00000000       0.50000000 </v>
    <v>       0.75000000       0.25000000       0.50000000 </v>
    <v>       0.75000000       0.00000000       0.75000000 </v>
    <v>       0.50000000       0.25000000       0.75000000 </v>
    <v>       0.50000000       0.50000000       0.00000000 </v>
    <v>       0.75000000       0.75000000       0.00000000 </v>
    <v>       0.75000000       0.50000000       0.25000000 </v>
    <v>       0.50000000       0.75000000       0.25000000 </v>
    <v>       0.50000000       0.50000000       0.50000000 </v>
    <v>       0.75000000       0.75000000       0.50000000 </v>
    <v>       0.75000000       0.50000000       0.75000000 </v>
    <v>       0.50000000       0.75000000       0.75000000 </v>
    <v>       0.25267761       0.25000000       0.25000000 </v>
    <v>       0.99732239       0.00000000       0.25000000 </v>
    <v>       0.00000000       0.25000000       0.00000000 </v>
    <v>       0.25000000       0.00000000       0.00000000 </v>
    <v>       0.25000000       0.25000000       0.75000000 </v>
    <v>       0.00000000       0.00000000       0.75000000 </v>
    <v>       0.00000000       0.25000000       0.50000000 </v>
    <v>       0.25000000       0.00000000       0.50000000 </v>
    <v>       0.25000000       0.75000000       0.25000000 </v>
    <v>       0.00000000       0.50000000       0.25000000 </v>
    <v>       0.00000000       0.75000000       0.00000000 </v>
    <v>       0.25000000       0.50000000       0.00000000 </v>
    <v>       0.25000000       0.75000000       0.75000000 </v>
    <v>       0.00000000       0.50000000       0.75000000 </v>
    <v>       0.00000000       0.75000000       0.50000000 </v>
    <v>       0.25000000       0.50000000       0.50000000 </v>
    <v>       0.75000000       0.25000000       0.25000000 </v>
    <v>       0.50000000       0.00000000       0.25000000 </v>
    <v>       0.50000000       0.25000000       0.00000000 </v>
    <v>       0.75000000       0.00000000       0.00000000 </v>
    <v>       0.75000000       0.25000000       0.75000000 </v>
    <v>       0.50000000       0.00000000       0.75000000 </v>
    <v>       0.50000000       0.25000000       0.50000000 </v>
    <v>       0.75000000       0.00000000       0.50000000 </v>
    <v>       0.75000000       0.75000000       0.25000000 </v>
    <v>       0.50000000       0.50000000       0.25000000 </v>
    <v>       0.50000000       0.75000000       0.00000000 </v>
    <v>       0.75000000       0.50000000       0.00000000 </v>
    <v>       0.75000000       0.75000000       0.75000000 </v>
    <v>       0.50000000       0.50000000       0.75000000 </v>
    <v>       0.50000000       0.75000000       0.50000000 </v>
    <v>       0.75000000       0.50000000       0.50000000 </v>
   </varray>
  </structure>
  <varray name="primitive_index" >
   <v type="int" >        1 </v>
   <v type="int" >        2 </v>
   <v type="int" >        3 </v>
   <v type="int" >        4 </v>
   <v type="int" >        5 </v>
   <v type="int" >        6 </v>
   <v type="int" >        7 </v>
   <v type="int" >        8 </v>
   <v type="int" >        9 </v>
   <v type="int" >       10 </v>
   <v type="int" >       11 </v>
   <v type="int" >       12 </v>
   <v type="int" >       13 </v>
   <v type="int" >       14 </v>
   <v type="int" >       15 </v>
   <v type="int" >       16 </v>
   <v type="int" >       17 </v>
   <v type="int" >       18 </v>
   <v type="int" >       19 </v>
   <v type="int" >       20 </v>
   <v type="int" >       21 </v>
   <v type="int" >       22 </v>
   <v type="int" >       23 </v>
   <v type="int" >       24 </v>
   <v type="int" >       25 </v>
   <v type="int" >       26 </v>
   <v type="int" >       27 </v>
   <v type="int" >       28 </v>
   <v type="int" >       29 </v>
   <v type="int" >       30 </v>
   <v type="int" >       31 </v>
   <v type="int" >       32 </v>
   <v type="int" >       33 </v>
   <v type="int" >       34 </v>
   <v type="int" >       35 </v>
   <v type="int" >       36 </v>
   <v type="int" >       37 </v>
   <v type="int" >       38 </v>
   <v type="int" >       39 </v>
   <v type="int" >       40 </v>
   <v type="int" >       41 </v>
   <v type="int" >       42 </v>
   <v type="int" >       43 </v>
   <v type="int" >       44 </v>
   <v type="int" >       45 </v>
   <v type="int" >       46 </v>
   <v type="int" >       47 </v>
   <v type="int" >       48 </v>
   <v type="int" >       49 </v>
   <v type="int" >       50 </v>
   <v type="int" >       51 </v>
   <v type="int" >       52 </v>
   <v type="int" >       53 </v>
   <v type="int" >       54 </v>
   <v type="int" >       55 </v>
   <v type="int" >       56 </v>
   <v type="int" >       57 </v>
   <v type="int" >       58 </v>
   <v type="int" >       59 </v>
   <v type="int" >       60 </v>
   <v type="int" >       61 </v>
   <v type="int" >       62 </v>
   <v type="int" >       63 </v>
   <v type="int" >       64 </v>
  </varray>
 </primitive_cell>
 <kpoints>
  <generation param="Gamma">
   <v type="int" name="divisions">       2        2        2 </v>
   <v name="usershift">      0.00000000       0.00000000       0.00000000 </v>
   <v name="genvec1">      0.50000000       0.00000000       0.00000000 </v>
   <v name="genvec2">      0.00000000       0.50000000       0.00000000 </v>
   <v name="genvec3">      0.00000000       0.00000000       0.50000000 </v>
   <v name="shift">      0.00000000       0.00000000       0.00000000 </v>
  </generation>
  <varray name="kpointlist" >
   <v>       0.00000000       0.00000000       0.00000000 </v>
   <v>       0.50000000       0.00000000       0.00000000 </v>
   <v>       0.00000000       0.50000000       0.00000000 </v>
   <v>       0.00000000       0.00000000       0.50000000 </v>
   <v>       0.50000000       0.50000000       0.00000000 </v>
   <v>       0.00000000       0.50000000       0.50000000 </v>
   <v>       0.50000000       0.00000000       0.50000000 </v>
   <v>       0.50000000       0.50000000       0.50000000 </v>
  </varray>
  <varray name="weights" >
   <v>       0.12500000 </v>
   <v>       0.12500000 </v>
   <v>       0.12500000 </v>
   <v>       0.12500000 </v>
   <v>       0.12500000 </v>
   <v>       0.12500000 </v>
   <v>       0.12500000 </v>
   <v>       0.12500000 </v>
  </varray>
 </kpoints>
 <parameters>
  <separator name="general" >
   <i type="string" name="SYSTEM">unknown system</i>
   <i type="logical" name="LCOMPAT"> F  </i>
  </separator>
  <separator name="electronic" >
   <i type="string" name="PREC">accura</i>
   <i name="ENMAX">    341.21360000</i>
   <i name="ENAUG">    368.05600000</i>
   <i name="EDIFF">      0.00000001</i>
   <i type="int" name="IALGO">    38</i>
   <i type="int" name="IWAVPR">    10</i>
   <i type="int" name="NBANDS">   288</i>
   <i type="int" name="NBANDSLOW">    -1</i>
   <i type="int" name="NBANDSHIGH">    -1</i>
   <i name="NELECT">    448.00000000</i>
   <i type="int" name="TURBO">     0</i>
   <i type="int" name="IRESTART">     0</i>
   <i type="int" name="NREBOOT">     0</i>
   <i type="int" name="NMIN">     0</i>
   <i name="EREF">      0.00000000</i>
   <separator name="electronic smearing" >
    <i type="int" name="ISMEAR">     0</i>
    <i name="SIGMA">      0.02000000</i>
    <i name="KSPACING">      0.50000000</i>
    <i type="logical" name="KGAMMA"> T  </i>
    <i type="logical" name="KBLOWUP"> T  </i>
   </separator>
   <separator name="electronic projectors" >
    <i type="logical" name="LREAL"> F  </i>
    <v name="ROPT">      0.00000000      0.00000000</v>
    <i type="int" name="LMAXPAW">  -100</i>
    <i type="int" name="LMAXMIX">     2</i>
    <i type="logical" name="NLSPLINE"> F  </i>
   </separator>
   <separator name="electronic startup" >
    <i type="int" name="ISTART">     0</i>
    <i type="int" name="ICHARG">     2</i>
    <i type="int" name="INIWAV">     1</i>
   </separator>
   <separator name="electronic spin" >
    <i type="int" name="ISPIN">     1</i>
    <i type="logical" name="LNONCOLLINEAR"> F  </i>
    <v name="MAGMOM">      1.00000000      1.00000000      1.00000000      1.00000000      1.00000000      1.00000000      1.00000000      1.00000000      1.00000000      1.00000000      1.00000000      1.00000000      1.00000000      1.00000000      1.00000000      1.00000000      1.00000000      1.00000000      1.00000000      1.00000000
      1.00000000      1.00000000      1.00000000      1.00000000      1.00000000      1.00000000      1.00000000      1.00000000      1.00000000      1.00000000      1.00000000      1.00000000      1.00000000      1.00000000      1.00000000      1.00000000      1.00000000      1.00000000      1.00000000      1.00000000
      1.00000000      1.00000000      1.00000000      1.00000000      1.00000000      1.00000000      1.00000000      1.00000000      1.00000000      1.00000000      1.00000000      1.00000000      1.00000000      1.00000000      1.00000000      1.00000000      1.00000000      1.00000000      1.00000000      1.00000000
      1.00000000      1.00000000      1.00000000      1.00000000</v>
    <i name="NUPDOWN">     -1.00000000</i>
    <i type="logical" name="LSORBIT"> F  </i>
    <v name="SAXIS">      0.00000000      0.00000000      1.00000000</v>
    <i type="logical" name="LSPIRAL"> F  </i>
    <v name="QSPIRAL">      0.00000000      0.00000000      0.00000000</v>
    <i type="logical" name="LZEROZ"> F  </i>
   </separator>
   <separator name="electronic exchange-correlation" >
    <i type="logical" name="LASPH"> F  </i>
    <i type="logical" name="LMETAGGA"> F  </i>
   </separator>
   <separator name="electronic convergence" >
    <i type="int" name="NELM">    60</i>
    <i type="int" name="NELMDL">    -5</i>
    <i type="int" name="NELMIN">     5</i>
    <i name="ENINI">    341.21360000</i>
    <separator name="electronic convergence detail" >
     <i type="logical" name="LDIAG"> T  </i>
     <i type="logical" name="LSUBROT"> F  </i>
     <i name="WEIMIN">      0.00000000</i>
     <i name="EBREAK">      0.00000000</i>
     <i name="DEPER">      0.30000000</i>
     <i type="int" name="NRMM">     4</i>
     <i name="TIME">      0.40000000</i>
    </separator>
   </separator>
   <separator name="electronic mixer" >
    <i name="AMIX">      0.40000000</i>
    <i name="BMIX">      1.00000000</i>
    <i name="AMIN">      0.10000000</i>
    <i name="AMIX_MAG">      1.60000000</i>
    <i name="BMIX_MAG">      1.00000000</i>
    <separator name="electronic mixer details" >
     <i type="int" name="IMIX">     4</i>
     <i type="logical" name="MIXFIRST"> F  </i>
     <i type="int" name="MAXMIX">   -45</i>
     <i name="WC">    100.00000000</i>
     <i type="int" name="INIMIX">     1</i>
     <i type="int" name="MIXPRE">     1</i>
     <i type="int" name="MREMOVE">     5</i>
    </separator>
   </separator>
   <separator name="electronic dipolcorrection" >
    <i type="logical" name="LDIPOL"> F  </i>
    <i type="logical" name="LMONO"> F  </i>
    <i type="int" name="IDIPOL">     0</i>
    <i name="EPSILON">      1.00000000</i>
    <v name="DIPOL">   -100.00000000   -100.00000000   -100.00000000</v>
    <i name="EFIELD">      0.00000000</i>
   </separator>
  </separator>
  <separator name="grids" >
   <i type="int" name="NGX">    70</i>
   <i type="int" name="NGY">    70</i>
   <i type="int" name="NGZ">    70</i>
   <i type="int" name="NGXF">   140</i>
   <i type="int" name="NGYF">   140</i>
   <i type="int" name="NGZF">   140</i>
   <i type="logical" name="ADDGRID"> T  </i>
  </separator>
  <separator name="ionic" >
   <i type="int" name="NSW">     0</i>
   <i type="int" name="IBRION">    -1</i>
   <i type="int" name="MDALGO">     0</i>
   <i type="int" name="ISIF">     2</i>
   <i name="PSTRESS">      0.00000000</i>
   <i name="EDIFFG">      0.00000010</i>
   <i type="int" name="NFREE">     0</i>
   <i name="POTIM">      0.50000000</i>
   <i name="SMASS">     -3.00000000</i>
   <i name="SCALEE">      1.00000000</i>
  </separator>
  <separator name="ionic md" >
   <i name="TEBEG">      0.00010000</i>
   <i name="TEEND">      0.00010000</i>
   <i type="int" name="NBLOCK">     1</i>
   <i type="int" name="KBLOCK">     1</i>
   <i type="int" name="NPACO">   256</i>
   <i name="APACO">     10.00000000</i>
  </separator>
  <separator name="symmetry" >
   <i type="int" name="ISYM">     2</i>
   <i name="SYMPREC">      0.00001000</i>
  </separator>
  <separator name="dos" >
   <i type="int" name="LORBIT">     0</i>
   <v name="RWIGS">     -1.00000000     -1.00000000</v>
   <i type="int" name="NEDOS">   301</i>
   <i name="EMIN">     10.00000000</i>
   <i name="EMAX">    -10.00000000</i>
   <i name="EFERMI">      0.00000000</i>
  </separator>
  <separator name="writing" >
   <i type="int" name="NWRITE">     2</i>
   <i type="logical" name="LWAVE"> F  </i>
   <i type="logical" name="LDOWNSAMPLE"> F  </i>
   <i type="logical" name="LCHARG"> F  </i>
   <i type="logical" name="LPARD"> F  </i>
   <i type="logical" name="LVTOT"> F  </i>
   <i type="logical" name="LVHAR"> F  </i>
   <i type="logical" name="LELF"> F  </i>
   <i type="logical" name="LOPTICS"> F  </i>
   <v name="STM">      0.00000000      0.00000000      0.00000000      0.00000000      0.00000000      0.00000000      0.00000000</v>
  </separator>
  <separator name="performance" >
   <i type="int" name="NPAR">    32</i>
   <i type="int" name="NSIM">     4</i>
   <i type="int" name="NBLK">    -1</i>
   <i type="logical" name="LPLANE"> T  </i>
   <i type="logical" name="LSCALAPACK"> T  </i>
   <i type="logical" name="LSCAAWARE"> F  </i>
   <i type="logical" name="LSCALU"> F  </i>
   <i type="logical" name="LASYNC"> F  </i>
   <i type="logical" name="LORBITALREAL"> F  </i>
  </separator>
  <separator name="miscellaneous" >
   <i type="int" name="IDIOT">     3</i>
   <i type="int" name="PHON_NSTRUCT">    -1</i>
   <i type="logical" name="LMUSIC"> F  </i>
   <v name="POMASS">     22.99000000     35.45300000</v>
   <v name="DARWINR">      0.00000000      0.00000000</v>
   <v name="DARWINV">      1.00000000      1.00000000</v>
   <i type="logical" name="LCORR"> T  </i>
  </separator>
  <i type="logical" name="GGA_COMPAT"> T  </i>
  <i type="logical" name="LBERRY"> F  </i>
  <i type="int" name="ICORELEVEL">     0</i>
  <i type="logical" name="LDAU"> F  </i>
  <i type="int" name="I_CONSTRAINED_M">     0</i>
  <separator name="electronic exchange-correlation" >
   <i type="string" name="GGA">PS</i>
   <i type="int" name="VOSKOWN">     0</i>
   <i type="logical" name="LHFCALC"> F  </i>
   <i type="string" name="PRECFOCK"></i>
   <i type="logical" name="LSYMGRAD"> F  </i>
   <i type="logical" name="LHFONE"> F  </i>
   <i type="logical" name="LRHFCALC"> F  </i>
   <i type="logical" name="LTHOMAS"> F  </i>
   <i type="logical" name="LMODELHF"> F  </i>
   <i type="logical" name="LFOCKACE"> F  </i>
   <i name="ENCUT4O">     -1.00000000</i>
   <i type="int" name="EXXOEP">     0</i>
   <i type="int" name="FOURORBIT">     0</i>
   <i name="AEXX">      0.00000000</i>
   <i name="HFALPHA">      0.00000000</i>
   <i name="MCALPHA">      0.00000000</i>
   <i name="ALDAX">      1.00000000</i>
   <i name="AGGAX">      1.00000000</i>
   <i name="ALDAC">      1.00000000</i>
   <i name="AGGAC">      1.00000000</i>
   <i type="int" name="NKREDX">     1</i>
   <i type="int" name="NKREDY">     1</i>
   <i type="int" name="NKREDZ">     1</i>
   <i type="logical" name="SHIFTRED"> F  </i>
   <i type="logical" name="ODDONLY"> F  </i>
   <i type="logical" name="EVENONLY"> F  </i>
   <i type="int" name="LMAXFOCK">     0</i>
   <i type="int" name="NMAXFOCKAE">     0</i>
   <i type="logical" name="LFOCKAEDFT"> F  </i>
   <i name="HFSCREEN">      0.00000000</i>
   <i name="HFSCREENC">      0.00000000</i>
   <i type="int" name="NBANDSGWLOW">     0</i>
  </separator>
  <separator name="vdW DFT" >
   <i type="logical" name="LUSE_VDW"> F  </i>
   <i name="Zab_VDW">     -0.84910000</i>
   <i name="PARAM1">      0.12340000</i>
   <i name="PARAM2">      1.00000000</i>
   <i name="PARAM3">      0.00000000</i>
  </separator>
  <separator name="model GW" >
   <i type="int" name="MODEL_GW">     0</i>
   <i name="MODEL_EPS0">     13.18532537</i>
   <i name="MODEL_ALPHA">      1.00000000</i>
  </separator>
  <separator name="linear response parameters" >
   <i type="logical" name="LEPSILON"> F  </i>
   <i type="logical" name="LRPA"> F  </i>
   <i type="logical" name="LNABLA"> F  </i>
   <i type="logical" name="LVEL"> F  </i>
   <i name="CSHIFT">      0.10000000</i>
   <i name="OMEGAMAX">     -1.00000000</i>
   <i name="DEG_THRESHOLD">      0.00200000</i>
   <i name="RTIME">     -0.10000000</i>
   <i name="WPLASMAI">      0.00000000</i>
   <v name="DFIELD">      0.00000000      0.00000000      0.00000000</v>
   <v name="WPLASMA">      0.00000000      0.00000000      0.00000000      0.00000000      0.00000000      0.00000000      0.00000000      0.00000000      0.00000000</v>
  </separator>
  <separator name="orbital magnetization" >
   <i type="logical" name="NUCIND"> F  </i>
   <v name="MAGPOS">      0.00000000      0.00000000      0.00000000</v>
   <i type="logical" name="LNICSALL"> T  </i>
   <i type="logical" name="ORBITALMAG"> F  </i>
   <i type="logical" name="LMAGBLOCH"> F  </i>
   <i type="logical" name="LCHIMAG"> F  </i>
   <i type="logical" name="LGAUGE"> T  </i>
   <i type="int" name="MAGATOM">     0</i>
   <v name="MAGDIPOL">      0.00000000      0.00000000      0.00000000</v>
   <v name="AVECCONST">      0.00000000      0.00000000      0.00000000</v>
  </separator>
  <separator name="response functions" >
   <i type="logical" name="LFINITE_TEMPERATURE"> F  </i>
   <i type="logical" name="LADDER"> F  </i>
   <i type="logical" name="LRPAFORCE"> F  </i>
   <i type="logical" name="LFXC"> F  </i>
   <i type="logical" name="LHARTREE"> T  </i>
   <i type="int" name="IBSE">     0</i>
   <v type="int" name="KPOINT">    -1     0     0     0</v>
   <i type="logical" name="LTCTC"> F  </i>
   <i type="logical" name="LTCTE"> F  </i>
   <i type="logical" name="LTETE"> F  </i>
   <i type="logical" name="LTRIPLET"> F  </i>
   <i type="logical" name="LFXCEPS"> F  </i>
   <i type="logical" name="LFXHEG"> F  </i>
   <i type="int" name="NATURALO">     2</i>
   <i type="logical" name="LHOLEGF"> F  </i>
   <i type="logical" name="L2ORDER"> F  </i>
   <i type="logical" name="LDMP1"> F  </i>
   <i type="logical" name="LMP2LT"> F  </i>
   <i type="logical" name="LSMP2LT"> F  </i>
   <i type="logical" name="LGWLF"> F  </i>
   <i name="ENCUTGW">     -2.00000000</i>
   <i name="ENCUTGWSOFT">     -2.00000000</i>
   <i name="ENCUTLF">     -1.00000000</i>
   <i type="logical" name="LESF_SPLINES"> F  </i>
   <i type="int" name="LMAXMP2">    -1</i>
   <i name="SCISSOR">      0.00000000</i>
   <i type="int" name="NOMEGA">     0</i>
   <i type="int" name="NOMEGAR">     0</i>
   <i type="int" name="NBANDSGW">    -1</i>
   <i type="int" name="NBANDSO">    -1</i>
   <i type="int" name="NBANDSV">    -1</i>
   <i type="int" name="NELMGW">     1</i>
   <i type="int" name="NELMHF">     1</i>
   <i type="int" name="DIM">     3</i>
   <i type="int" name="IESPILON">     4</i>
   <i type="int" name="ANTIRES">     0</i>
   <i name="OMEGAMAX">    -30.00000000</i>
   <i name="OMEGAMIN">    -30.00000000</i>
   <i name="OMEGATL">   -200.00000000</i>
   <i type="int" name="OMEGAGRID">     0</i>
   <i name="CSHIFT">     -0.10000000</i>
   <i type="logical" name="LSELFENERGY"> F  </i>
   <i type="logical" name="LSPECTRAL"> F  </i>
   <i type="logical" name="LSPECTRALGW"> F  </i>
   <i type="logical" name="LSINGLES"> F  </i>
   <i type="logical" name="LFERMIGW"> F  </i>
   <i type="logical" name="ODDONLYGW"> F  </i>
   <i type="logical" name="EVENONLYGW"> F  </i>
   <i type="int" name="NKREDLFX">     1</i>
   <i type="int" name="NKREDLFY">     1</i>
   <i type="int" name="NKREDLFZ">     1</i>
   <i type="int" name="MAXMEM">  2800</i>
   <i type="int" name="TELESCOPE">     0</i>
   <i type="int" name="NTAUPAR">    -1</i>
   <i type="int" name="NOMEGAPAR">    -1</i>
   <i name="DAMP_NEWTON">      0.80000001</i>
   <i name="LAMBDA">      1.00000000</i>
  </separator>
  <separator name="External order field" >
   <i name="OFIELD_KAPPA">      0.00000000</i>
   <v name="OFIELD_K">      0.00000000      0.00000000      0.00000000</v>
   <i name="OFIELD_Q6_NEAR">      0.00000000</i>
   <i name="OFIELD_Q6_FAR">      0.00000000</i>
   <i name="OFIELD_A">      0.00000000</i>
  </separator>
  <separator name="optional k-points parameters" >
   <i type="int" name="KPOINTS_OPT_MODE">     1</i>
   <i type="logical" name="LKPOINTS_OPT"> F  </i>
  </separator>
 </parameters>
 <atominfo>
  <atoms>      64 </atoms>
  <types>       2 </types>
  <array name="atoms" >
   <dimension dim="1">ion</dimension>
   <field type="string">element</field>
   <field type="int">atomtype</field>
   <set>
    <rc><c>Na</c><c>   1</c></rc>
    <rc><c>Na</c><c>   1</c></rc>
    <rc><c>Na</c><c>   1</c></rc>
    <rc><c>Na</c><c>   1</c></rc>
    <rc><c>Na</c><c>   1</c></rc>
    <rc><c>Na</c><c>   1</c></rc>
    <rc><c>Na</c><c>   1</c></rc>
    <rc><c>Na</c><c>   1</c></rc>
    <rc><c>Na</c><c>   1</c></rc>
    <rc><c>Na</c><c>   1</c></rc>
    <rc><c>Na</c><c>   1</c></rc>
    <rc><c>Na</c><c>   1</c></rc>
    <rc><c>Na</c><c>   1</c></rc>
    <rc><c>Na</c><c>   1</c></rc>
    <rc><c>Na</c><c>   1</c></rc>
    <rc><c>Na</c><c>   1</c></rc>
    <rc><c>Na</c><c>   1</c></rc>
    <rc><c>Na</c><c>   1</c></rc>
    <rc><c>Na</c><c>   1</c></rc>
    <rc><c>Na</c><c>   1</c></rc>
    <rc><c>Na</c><c>   1</c></rc>
    <rc><c>Na</c><c>   1</c></rc>
    <rc><c>Na</c><c>   1</c></rc>
    <rc><c>Na</c><c>   1</c></rc>
    <rc><c>Na</c><c>   1</c></rc>
    <rc><c>Na</c><c>   1</c></rc>
    <rc><c>Na</c><c>   1</c></rc>
    <rc><c>Na</c><c>   1</c></rc>
    <rc><c>Na</c><c>   1</c></rc>
    <rc><c>Na</c><c>   1</c></rc>
    <rc><c>Na</c><c>   1</c></rc>
    <rc><c>Na</c><c>   1</c></rc>
    <rc><c>Cl</c><c>   2</c></rc>
    <rc><c>Cl</c><c>   2</c></rc>
    <rc><c>Cl</c><c>   2</c></rc>
    <rc><c>Cl</c><c>   2</c></rc>
    <rc><c>Cl</c><c>   2</c></rc>
    <rc><c>Cl</c><c>   2</c></rc>
    <rc><c>Cl</c><c>   2</c></rc>
    <rc><c>Cl</c><c>   2</c></rc>
    <rc><c>Cl</c><c>   2</c></rc>
    <rc><c>Cl</c><c>   2</c></rc>
    <rc><c>Cl</c><c>   2</c></rc>
    <rc><c>Cl</c><c>   2</c></rc>
    <rc><c>Cl</c><c>   2</c></rc>
    <rc><c>Cl</c><c>   2</c></rc>
    <rc><c>Cl</c><c>   2</c></rc>
    <rc><c>Cl</c><c>   2</c></rc>
    <rc><c>Cl</c><c>   2</c></rc>
    <rc><c>Cl</c><c>   2</c></rc>
    <rc><c>Cl</c><c>   2</c></rc>
    <rc><c>Cl</c><c>   2</c></rc>
    <rc><c>Cl</c><c>   2</c></rc>
    <rc><c>Cl</c><c>   2</c></rc>
    <rc><c>Cl</c><c>   2</c></rc>
    <rc><c>Cl</c><c>   2</c></rc>
    <rc><c>Cl</c><c>   2</c></rc>
    <rc><c>Cl</c><c>   2</c></rc>
    <rc><c>Cl</c><c>   2</c></rc>
    <rc><c>Cl</c><c>   2</c></rc>
    <rc><c>Cl</c><c>   2</c></rc>
    <rc><c>Cl</c><c>   2</c></rc>
    <rc><c>Cl</c><c>   2</c></rc>
    <rc><c>Cl</c><c>   2</c></rc>
   </set>
  </array>
  <array name="atomtypes" >
   <dimension dim="1">type</dimension>
   <field type="int">atomspertype</field>
   <field type="string">element</field>
   <field>mass</field>
   <field>valence</field>
   <field type="string">pseudopotential</field>
   <set>
    <rc><c>  32</c><c>Na</c><c>     22.99000000</c><c>      7.00000000</c><c>  PAW_PBE Na_pv 19Sep2006               </c></rc>
    <rc><c>  32</c><c>Cl</c><c>     35.45300000</c><c>      7.00000000</c><c>  PAW_PBE Cl 06Sep2000                  </c></rc>
   </set>
  </array>
 </atominfo>
 <structure name="initialpos" >
  <crystal>
   <varray name="basis" >
    <v>      11.20400236       0.00000000       0.00000000 </v>
    <v>       0.00000000      11.20400236       0.00000000 </v>
    <v>       0.00000000       0.00000000      11.20400236 </v>
   </varray>
   <i name="volume">   1406.43470641 </i>
   <varray name="rec_basis" >
    <v>       0.08925382       0.00000000       0.00000000 </v>
    <v>       0.00000000       0.08925382       0.00000000 </v>
    <v>       0.00000000       0.00000000       0.08925382 </v>
   </varray>
  </crystal>
  <varray name="positions" >
   <v>       0.00000000       0.00000000       0.00000000 </v>
   <v>       0.25000000       0.25000000       0.00000000 </v>
   <v>       0.25000000       0.00000000       0.25000000 </v>
   <v>       0.00000000       0.25000000       0.25000000 </v>
   <v>       0.00000000       0.00000000       0.50000000 </v>
   <v>       0.25000000       0.25000000       0.50000000 </v>
   <v>       0.25000000       0.00000000       0.75000000 </v>
   <v>       0.00000000       0.25000000       0.75000000 </v>
   <v>       0.00000000       0.50000000       0.00000000 </v>
   <v>       0.25000000       0.75000000       0.00000000 </v>
   <v>       0.25000000       0.50000000       0.25000000 </v>
   <v>       0.00000000       0.75000000       0.25000000 </v>
   <v>       0.00000000       0.50000000       0.50000000 </v>
   <v>       0.25000000       0.75000000       0.50000000 </v>
   <v>       0.25000000       0.50000000       0.75000000 </v>
   <v>       0.00000000       0.75000000       0.75000000 </v>
   <v>       0.50000000       0.00000000       0.00000000 </v>
   <v>       0.75000000       0.25000000       0.00000000 </v>
   <v>       0.75000000       0.00000000       0.25000000 </v>
   <v>       0.50000000       0.25000000       0.25000000 </v>
   <v>       0.50000000       0.00000000       0.50000000 </v>
   <v>       0.75000000       0.25000000       0.50000000 </v>
   <v>       0.75000000       0.00000000       0.75000000 </v>
   <v>       0.50000000       0.25000000       0.75000000 </v>
   <v>       0.50000000       0.50000000       0.00000000 </v>
   <v>       0.75000000       0.75000000       0.00000000 </v>
   <v>       0.75000000       0.50000000       0.25000000 </v>
   <v>       0.50000000       0.75000000       0.25000000 </v>
   <v>       0.50000000       0.50000000       0.50000000 </v>
   <v>       0.75000000       0.75000000       0.50000000 </v>
   <v>       0.75000000       0.50000000       0.75000000 </v>
   <v>       0.50000000       0.75000000       0.75000000 </v>
   <v>       0.25267761       0.25000000       0.25000000 </v>
   <v>       0.99732239       0.00000000       0.25000000 </v>
   <v>       0.00000000       0.25000000       0.00000000 </v>
   <v>       0.25000000       0.00000000       0.00000000 </v>
   <v>       0.25000000       0.25000000       0.75000000 </v>
   <v>       0.00000000       0.00000000       0.75000000 </v>
   <v>       0.00000000       0.25000000       0.50000000 </v>
   <v>       0.25000000       0.00000000       0.50000000 </v>
   <v>       0.25000000       0.75000000       0.25000000 </v>
   <v>       0.00000000       0.50000000       0.25000000 </v>
   <v>       0.00000000       0.75000000       0.00000000 </v>
   <v>       0.25000000       0.50000000       0.00000000 </v>
   <v>       0.25000000       0.75000000       0.75000000 </v>
   <v>       0.00000000       0.50000000       0.75000000 </v>
   <v>       0.00000000       0.75000000       0.50000000 </v>
   <v>       0.25000000       0.50000000       0.50000000 </v>
   <v>       0.75000000       0.25000000       0.25000000 </v>
   <v>       0.50000000       0.00000000       0.25000000 </v>
   <v>       0.50000000       0.25000000       0.00000000 </v>
   <v>       0.75000000       0.00000000       0.00000000 </v>
   <v>       0.75000000       0.25000000       0.75000000 </v>
   <v>       0.50000000       0.00000000       0.75000000 </v>
   <v>       0.50000000       0.25000000       0.50000000 </v>
   <v>       0.75000000       0.00000000       0.50000000 </v>
   <v>       0.75000000       0.75000000       0.25000000 </v>
   <v>       0.50000000       0.50000000       0.25000000 </v>
   <v>       0.50000000       0.75000000       0.00000000 </v>
   <v>       0.75000000       0.50000000       0.00000000 </v>
   <v>       0.75000000       0.75000000       0.75000000 </v>
   <v>       0.50000000       0.50000000       0.75000000 </v>
   <v>       0.50000000       0.75000000       0.50000000 </v>
   <v>       0.75000000       0.50000000       0.50000000 </v>
  </varray>
 </structure>
 <calculation>
  <scstep>
   <time name="dav">   10.48   10.54</time>
   <time name="total">   10.56   10.61</time>
   <energy>
    <i name="alphaZ">    751.52672365 </i>
    <i name="ewald"> -22871.33268198 </i>
    <i name="hartreedc">  -8992.25561750 </i>
    <i name="XCdc">   1456.53431089 </i>
    <i name="pawpsdc">  26466.43774078 </i>
    <i name="pawaedc"> -29286.08056155 </i>
    <i name="eentropy">     -0.00435523 </i>
    <i name="bandstr">   -658.24224806 </i>
    <i name="atom">  37532.17946992 </i>
    <i name="e_fr_energy">   4398.76278092 </i>
    <i name="e_wo_entrp">   4398.76713615 </i>
    <i name="e_0_energy">   4398.76495853 </i>
   </energy>
  </scstep>
  <scstep>
   <time name="dav">   11.00   11.06</time>
   <time name="total">   11.00   11.06</time>
   <energy>
    <i name="e_fr_energy">    367.03470507 </i>
    <i name="e_wo_entrp">    367.03470507 </i>
    <i name="e_0_energy">    367.03470507 </i>
   </energy>
  </scstep>
  <scstep>
   <time name="dav">   11.72   11.78</time>
   <time name="total">   11.72   11.78</time>
   <energy>
    <i name="e_fr_energy">   -204.87959469 </i>
    <i name="e_wo_entrp">   -204.87959469 </i>
    <i name="e_0_energy">   -204.87959469 </i>
   </energy>
  </scstep>
  <scstep>
   <time name="dav">   11.68   11.75</time>
   <time name="total">   11.68   11.75</time>
   <energy>
    <i name="e_fr_energy">   -228.12837715 </i>
    <i name="e_wo_entrp">   -228.12837715 </i>
    <i name="e_0_energy">   -228.12837715 </i>
   </energy>
  </scstep>
  <scstep>
   <time name="dav">   12.08   12.14</time>
   <time name="total">   12.42   12.49</time>
   <energy>
    <i name="e_fr_energy">   -229.00062159 </i>
    <i name="e_wo_entrp">   -229.00062159 </i>
    <i name="e_0_energy">   -229.00062159 </i>
   </energy>
  </scstep>
  <scstep>
   <time name="dav">   11.99   12.05</time>
   <time name="total">   12.40   12.47</time>
   <energy>
    <i name="e_fr_energy">   -224.13919734 </i>
    <i name="e_wo_entrp">   -224.13919734 </i>
    <i name="e_0_energy">   -224.13919734 </i>
   </energy>
  </scstep>
  <scstep>
   <time name="dav">   12.90   12.97</time>
   <time name="total">   13.32   13.39</time>
   <energy>
    <i name="e_fr_energy">   -223.77738021 </i>
    <i name="e_wo_entrp">   -223.77738021 </i>
    <i name="e_0_energy">   -223.77738021 </i>
   </energy>
  </scstep>
  <scstep>
   <time name="dav">   11.42   11.48</time>
   <time name="total">   11.83   11.90</time>
   <energy>
    <i name="e_fr_energy">   -223.90289215 </i>
    <i name="e_wo_entrp">   -223.90289215 </i>
    <i name="e_0_energy">   -223.90289215 </i>
   </energy>
  </scstep>
  <scstep>
   <time name="dav">   11.86   11.92</time>
   <time name="total">   12.27   12.33</time>
   <energy>
    <i name="e_fr_energy">   -223.89695182 </i>
    <i name="e_wo_entrp">   -223.89695182 </i>
    <i name="e_0_energy">   -223.89695182 </i>
   </energy>
  </scstep>
  <scstep>
   <time name="dav">   11.54   11.61</time>
   <time name="total">   11.95   12.02</time>
   <energy>
    <i name="e_fr_energy">   -223.90112354 </i>
    <i name="e_wo_entrp">   -223.90112354 </i>
    <i name="e_0_energy">   -223.90112354 </i>
   </energy>
  </scstep>
  <scstep>
   <time name="dav">   12.35   12.42</time>
   <time name="total">   12.76   12.83</time>
   <energy>
    <i name="e_fr_energy">   -223.90035010 </i>
    <i name="e_wo_entrp">   -223.90035010 </i>
    <i name="e_0_energy">   -223.90035010 </i>
   </energy>
  </scstep>
  <scstep>
   <time name="dav">   12.51   12.58</time>
   <time name="total">   12.92   12.99</time>
   <energy>
    <i name="e_fr_energy">   -223.90030927 </i>
    <i name="e_wo_entrp">   -223.90030927 </i>
    <i name="e_0_energy">   -223.90030927 </i>
   </energy>
  </scstep>
  <scstep>
   <time name="dav">   11.72   11.79</time>
   <time name="total">   12.13   12.20</time>
   <energy>
    <i name="e_fr_energy">   -223.90030316 </i>
    <i name="e_wo_entrp">   -223.90030316 </i>
    <i name="e_0_energy">   -223.90030316 </i>
   </energy>
  </scstep>
  <scstep>
   <time name="dav">   11.70   11.77</time>
   <time name="total">   12.11   12.18</time>
   <energy>
    <i name="e_fr_energy">   -223.90030510 </i>
    <i name="e_wo_entrp">   -223.90030510 </i>
    <i name="e_0_energy">   -223.90030510 </i>
   </energy>
  </scstep>
  <scstep>
   <time name="dav">   12.57   12.65</time>
   <time name="total">   12.98   13.06</time>
   <energy>
    <i name="e_fr_energy">   -223.90030619 </i>
    <i name="e_wo_entrp">   -223.90030619 </i>
    <i name="e_0_energy">   -223.90030619 </i>
   </energy>
  </scstep>
  <scstep>
   <time name="dav">   11.86   11.93</time>
   <time name="total">   12.27   12.34</time>
   <energy>
    <i name="e_fr_energy">   -223.90030667 </i>
    <i name="e_wo_entrp">   -223.90030667 </i>
    <i name="e_0_energy">   -223.90030667 </i>
   </energy>
  </scstep>
  <scstep>
   <time name="dav">    8.69    8.73</time>
   <time name="total">    9.10    9.15</time>
   <energy>
    <i name="e_fr_energy">   -223.90030672 </i>
    <i name="e_wo_entrp">   -223.90030672 </i>
    <i name="e_0_energy">   -223.90030672 </i>
   </energy>
  </scstep>
  <scstep>
   <time name="dav">   10.07   10.12</time>
   <time name="total">   10.48   10.54</time>
   <energy>
    <i name="e_fr_energy">   -223.90030690 </i>
    <i name="e_wo_entrp">   -223.90030690 </i>
    <i name="e_0_energy">   -223.90030690 </i>
   </energy>
  </scstep>
  <scstep>
   <time name="dav">    7.55    7.59</time>
   <time name="total">    7.62    7.67</time>
   <energy>
    <i name="alphaZ">    751.52672365 </i>
    <i name="ewald"> -22871.33268198 </i>
    <i name="hartreedc">  -9078.17988199 </i>
    <i name="XCdc">   1472.51365230 </i>
    <i name="pawpsdc">  29498.20811958 </i>
    <i name="pawaedc"> -32317.57261882 </i>
    <i name="eentropy">     -0.00000000 </i>
    <i name="bandstr">  -5211.24308956 </i>
    <i name="atom">  37532.17946992 </i>
    <i name="e_fr_energy">   -223.90030690 </i>
    <i name="e_wo_entrp">   -223.90030690 </i>
    <i name="e_0_energy">   -223.90030690 </i>
   </energy>
  </scstep>
  <structure>
   <crystal>
    <varray name="basis" >
     <v>      11.20400236       0.00000000       0.00000000 </v>
     <v>       0.00000000      11.20400236       0.00000000 </v>
     <v>       0.00000000       0.00000000      11.20400236 </v>
    </varray>
    <i name="volume">   1406.43470641 </i>
    <varray name="rec_basis" >
     <v>       0.08925382       0.00000000       0.00000000 </v>
     <v>       0.00000000       0.08925382       0.00000000 </v>
     <v>       0.00000000       0.00000000       0.08925382 </v>
    </varray>
   </crystal>
   <varray name="positions" >
    <v>       0.00000000       0.00000000       0.00000000 </v>
    <v>       0.25000000       0.25000000       0.00000000 </v>
    <v>       0.25000000       0.00000000       0.25000000 </v>
    <v>       0.00000000       0.25000000       0.25000000 </v>
    <v>       0.00000000       0.00000000       0.50000000 </v>
    <v>       0.25000000       0.25000000       0.50000000 </v>
    <v>       0.25000000       0.00000000       0.75000000 </v>
    <v>       0.00000000       0.25000000       0.75000000 </v>
    <v>       0.00000000       0.50000000       0.00000000 </v>
    <v>       0.25000000       0.75000000       0.00000000 </v>
    <v>       0.25000000       0.50000000       0.25000000 </v>
    <v>       0.00000000       0.75000000       0.25000000 </v>
    <v>       0.00000000       0.50000000       0.50000000 </v>
    <v>       0.25000000       0.75000000       0.50000000 </v>
    <v>       0.25000000       0.50000000       0.75000000 </v>
    <v>       0.00000000       0.75000000       0.75000000 </v>
    <v>       0.50000000       0.00000000       0.00000000 </v>
    <v>       0.75000000       0.25000000       0.00000000 </v>
    <v>       0.75000000       0.00000000       0.25000000 </v>
    <v>       0.50000000       0.25000000       0.25000000 </v>
    <v>       0.50000000       0.00000000       0.50000000 </v>
    <v>       0.75000000       0.25000000       0.50000000 </v>
    <v>       0.75000000       0.00000000       0.75000000 </v>
    <v>       0.50000000       0.25000000       0.75000000 </v>
    <v>       0.50000000       0.50000000       0.00000000 </v>
    <v>       0.75000000       0.75000000       0.00000000 </v>
    <v>       0.75000000       0.50000000       0.25000000 </v>
    <v>       0.50000000       0.75000000       0.25000000 </v>
    <v>       0.50000000       0.50000000       0.50000000 </v>
    <v>       0.75000000       0.75000000       0.50000000 </v>
    <v>       0.75000000       0.50000000       0.75000000 </v>
    <v>       0.50000000       0.75000000       0.75000000 </v>
    <v>       0.25267761       0.25000000       0.25000000 </v>
    <v>       0.99732239       0.00000000       0.25000000 </v>
    <v>       0.00000000       0.25000000       0.00000000 </v>
    <v>       0.25000000       0.00000000       0.00000000 </v>
    <v>       0.25000000       0.25000000       0.75000000 </v>
    <v>       0.00000000       0.00000000       0.75000000 </v>
    <v>       0.00000000       0.25000000       0.50000000 </v>
    <v>       0.25000000       0.00000000       0.50000000 </v>
    <v>       0.25000000       0.75000000       0.25000000 </v>
    <v>       0.00000000       0.50000000       0.25000000 </v>
    <v>       0.00000000       0.75000000       0.00000000 </v>
    <v>       0.25000000       0.50000000       0.00000000 </v>
    <v>       0.25000000       0.75000000       0.75000000 </v>
    <v>       0.00000000       0.50000000       0.75000000 </v>
    <v>       0.00000000       0.75000000       0.50000000 </v>
    <v>       0.25000000       0.50000000       0.50000000 </v>
    <v>       0.75000000       0.25000000       0.25000000 </v>
    <v>       0.50000000       0.00000000       0.25000000 </v>
    <v>       0.50000000       0.25000000       0.00000000 </v>
    <v>       0.75000000       0.00000000       0.00000000 </v>
    <v>       0.75000000       0.25000000       0.75000000 </v>
    <v>       0.50000000       0.00000000       0.75000000 </v>
    <v>       0.50000000       0.25000000       0.50000000 </v>
    <v>       0.75000000       0.00000000       0.50000000 </v>
    <v>       0.75000000       0.75000000       0.25000000 </v>
    <v>       0.50000000       0.50000000       0.25000000 </v>
    <v>       0.50000000       0.75000000       0.00000000 </v>
    <v>       0.75000000       0.50000000       0.00000000 </v>
    <v>       0.75000000       0.75000000       0.75000000 </v>
    <v>       0.50000000       0.50000000       0.75000000 </v>
    <v>       0.50000000       0.75000000       0.50000000 </v>
    <v>       0.75000000       0.50000000       0.50000000 </v>
   </varray>
  </structure>
  <varray name="forces" >
   <v>      -0.00524764      -0.00129892      -0.00119417 </v>
   <v>       0.00524764       0.00129892      -0.00119417 </v>
   <v>      -0.01118419       0.00006854       0.00000000 </v>
   <v>       0.01118419      -0.00006854       0.00000000 </v>
   <v>      -0.00524764      -0.00129892       0.00119417 </v>
   <v>       0.00524764       0.00129892       0.00119417 </v>
   <v>       0.00045678       0.00000143       0.00000000 </v>
   <v>      -0.00045678      -0.00000143       0.00000000 </v>
   <v>      -0.00084082       0.00129305      -0.00128596 </v>
   <v>       0.00084082      -0.00129305      -0.00128596 </v>
   <v>       0.00485274      -0.00010735       0.00000000 </v>
   <v>      -0.00485274       0.00010735       0.00000000 </v>
   <v>      -0.00084082       0.00129305       0.00128596 </v>
   <v>       0.00084082      -0.00129305       0.00128596 </v>
   <v>       0.00061053      -0.00000124       0.00000000 </v>
   <v>      -0.00061053       0.00000124       0.00000000 </v>
   <v>       0.00262288       0.00129844       0.00130208 </v>
   <v>      -0.00262288      -0.00129844       0.00130208 </v>
   <v>      -0.02310995       0.00000375       0.00000000 </v>
   <v>       0.02310995      -0.00000375       0.00000000 </v>
   <v>       0.00262288       0.00129844      -0.00130208 </v>
   <v>      -0.00262288      -0.00129844      -0.00130208 </v>
   <v>      -0.00083738       0.00000205       0.00000000 </v>
   <v>       0.00083738      -0.00000205       0.00000000 </v>
   <v>       0.00045399      -0.00129808       0.00130126 </v>
   <v>      -0.00045399       0.00129808       0.00130126 </v>
   <v>      -0.00300199      -0.00000214       0.00000000 </v>
   <v>       0.00300199       0.00000214       0.00000000 </v>
   <v>       0.00045399      -0.00129808      -0.00130126 </v>
   <v>      -0.00045399       0.00129808      -0.00130126 </v>
   <v>      -0.00067438      -0.00000191       0.00000000 </v>
   <v>       0.00067438       0.00000191       0.00000000 </v>
   <v>      -0.07984831      -0.00556168       0.00000000 </v>
   <v>       0.07984831       0.00556168       0.00000000 </v>
   <v>       0.00619387      -0.00003886       0.00577661 </v>
   <v>      -0.00619387       0.00003886       0.00577661 </v>
   <v>      -0.00150413      -0.00056922       0.00000000 </v>
   <v>       0.00150413       0.00056922       0.00000000 </v>
   <v>       0.00619387      -0.00003886      -0.00577661 </v>
   <v>      -0.00619387       0.00003886      -0.00577661 </v>
   <v>      -0.00539349       0.00573407       0.00000000 </v>
   <v>       0.00539349      -0.00573407       0.00000000 </v>
   <v>       0.00229079       0.00002799       0.00059141 </v>
   <v>      -0.00229079      -0.00002799       0.00059141 </v>
   <v>      -0.00047545       0.00056982       0.00000000 </v>
   <v>       0.00047545      -0.00056982       0.00000000 </v>
   <v>       0.00229079       0.00002799      -0.00059141 </v>
   <v>      -0.00229079      -0.00002799      -0.00059141 </v>
   <v>      -0.00007869       0.00588360       0.00000000 </v>
   <v>       0.00007869      -0.00588360       0.00000000 </v>
   <v>       0.00237507       0.00000237      -0.00588374 </v>
   <v>      -0.00237507      -0.00000237      -0.00588374 </v>
   <v>       0.00200943       0.00057462       0.00000000 </v>
   <v>      -0.00200943      -0.00057462       0.00000000 </v>
   <v>       0.00237507       0.00000237       0.00588374 </v>
   <v>      -0.00237507      -0.00000237       0.00588374 </v>
   <v>      -0.00196219      -0.00587740       0.00000000 </v>
   <v>       0.00196219       0.00587740       0.00000000 </v>
   <v>      -0.00159559      -0.00000173      -0.00057844 </v>
   <v>       0.00159559       0.00000173      -0.00057844 </v>
   <v>       0.00057724      -0.00057435       0.00000000 </v>
   <v>      -0.00057724       0.00057435       0.00000000 </v>
   <v>      -0.00159559      -0.00000173       0.00057844 </v>
   <v>       0.00159559       0.00000173       0.00057844 </v>
  </varray>
  <varray name="stress" >
   <v>      -0.35785090       0.00009183       0.00000000 </v>
   <v>       0.00009175      -0.38020987       0.00000000 </v>
   <v>       0.00000000       0.00000000      -0.38123874 </v>
  </varray>
  <energy>
   <i name="e_fr_energy">   -223.90030690 </i>
   <i name="e_wo_entrp">   -223.90030690 </i>
   <i name="e_0_energy">   -223.90030690 </i>
  </energy>
  <time name="totalsc">  237.24  238.58</time>
  <eigenvalues>
   <array>
    <dimension dim="1">band</dimension>
    <dimension dim="2">kpoint</dimension>
    <dimension dim="3">spin</dimension>
    <field>eigene</field>
    <field>occ</field>
    <set>
     <set comment="spin 1">
      <set comment="kpoint 1">
       <r>  -21.3120    1.0000 </r>
       <r>  -21.3102    1.0000 </r>
       <r>  -21.3094    1.0000 </r>
       <r>  -21.3088    1.0000 </r>
       <r>  -21.3047    1.0000 </r>
       <r>  -21.3025    1.0000 </r>
       <r>  -21.3004    1.0000 </r>
       <r>  -21.3001    1.0000 </r>
       <r>  -21.2996    1.0000 </r>
       <r>  -21.2990    1.0000 </r>
       <r>  -21.2937    1.0000 </r>
       <r>  -21.2937    1.0000 </r>
       <r>  -21.2935    1.0000 </r>
       <r>  -21.2934    1.0000 </r>
       <r>  -21.2929    1.0000 </r>
       <r>  -21.2928    1.0000 </r>
       <r>  -21.2922    1.0000 </r>
       <r>  -21.2918    1.0000 </r>
       <r>  -21.2916    1.0000 </r>
       <r>  -21.2908    1.0000 </r>
       <r>  -21.2906    1.0000 </r>
       <r>  -21.2901    1.0000 </r>
       <r>  -21.2892    1.0000 </r>
       <r>  -21.2879    1.0000 </r>
       <r>  -21.2878    1.0000 </r>
       <r>  -21.2869    1.0000 </r>
       <r>  -21.2862    1.0000 </r>
       <r>  -21.2862    1.0000 </r>
       <r>  -21.2859    1.0000 </r>
       <r>  -21.2848    1.0000 </r>
       <r>  -21.2847    1.0000 </r>
       <r>  -21.2845    1.0000 </r>
       <r>  -21.2842    1.0000 </r>
       <r>  -21.2837    1.0000 </r>
       <r>  -21.2835    1.0000 </r>
       <r>  -21.2835    1.0000 </r>
       <r>  -21.2834    1.0000 </r>
       <r>  -21.2832    1.0000 </r>
       <r>  -21.2830    1.0000 </r>
       <r>  -21.2827    1.0000 </r>
       <r>  -21.2824    1.0000 </r>
       <r>  -21.2818    1.0000 </r>
       <r>  -21.2817    1.0000 </r>
       <r>  -21.2812    1.0000 </r>
       <r>  -21.2811    1.0000 </r>
       <r>  -21.2810    1.0000 </r>
       <r>  -21.2809    1.0000 </r>
       <r>  -21.2806    1.0000 </r>
       <r>  -21.2804    1.0000 </r>
       <r>  -21.2803    1.0000 </r>
       <r>  -21.2800    1.0000 </r>
       <r>  -21.2797    1.0000 </r>
       <r>  -21.2795    1.0000 </r>
       <r>  -21.2787    1.0000 </r>
       <r>  -21.2786    1.0000 </r>
       <r>  -21.2774    1.0000 </r>
       <r>  -21.2771    1.0000 </r>
       <r>  -21.2767    1.0000 </r>
       <r>  -21.2765    1.0000 </r>
       <r>  -21.2764    1.0000 </r>
       <r>  -21.2764    1.0000 </r>
       <r>  -21.2763    1.0000 </r>
       <r>  -21.2758    1.0000 </r>
       <r>  -21.2755    1.0000 </r>
       <r>  -21.2754    1.0000 </r>
       <r>  -21.2754    1.0000 </r>
       <r>  -21.2752    1.0000 </r>
       <r>  -21.2751    1.0000 </r>
       <r>  -21.2748    1.0000 </r>
       <r>  -21.2747    1.0000 </r>
       <r>  -21.2746    1.0000 </r>
       <r>  -21.2733    1.0000 </r>
       <r>  -21.2729    1.0000 </r>
       <r>  -21.2723    1.0000 </r>
       <r>  -21.2717    1.0000 </r>
       <r>  -21.2715    1.0000 </r>
       <r>  -21.2714    1.0000 </r>
       <r>  -21.2713    1.0000 </r>
       <r>  -21.2713    1.0000 </r>
       <r>  -21.2712    1.0000 </r>
       <r>  -21.2708    1.0000 </r>
       <r>  -21.2707    1.0000 </r>
       <r>  -21.2707    1.0000 </r>
       <r>  -21.2707    1.0000 </r>
       <r>  -21.2702    1.0000 </r>
       <r>  -21.2702    1.0000 </r>
       <r>  -21.2698    1.0000 </r>
       <r>  -21.2695    1.0000 </r>
       <r>  -21.2682    1.0000 </r>
       <r>  -21.2682    1.0000 </r>
       <r>  -21.2591    1.0000 </r>
       <r>  -21.2562    1.0000 </r>
       <r>  -21.2557    1.0000 </r>
       <r>  -21.2554    1.0000 </r>
       <r>  -21.2552    1.0000 </r>
       <r>  -21.2528    1.0000 </r>
       <r>  -13.3580    1.0000 </r>
       <r>  -13.1391    1.0000 </r>
       <r>  -13.1384    1.0000 </r>
       <r>  -13.1375    1.0000 </r>
       <r>  -13.1375    1.0000 </r>
       <r>  -13.1370    1.0000 </r>
       <r>  -13.1351    1.0000 </r>
       <r>  -13.0151    1.0000 </r>
       <r>  -13.0149    1.0000 </r>
       <r>  -13.0147    1.0000 </r>
       <r>  -13.0145    1.0000 </r>
       <r>  -13.0124    1.0000 </r>
       <r>  -13.0114    1.0000 </r>
       <r>  -13.0110    1.0000 </r>
       <r>  -13.0093    1.0000 </r>
       <r>  -13.0088    1.0000 </r>
       <r>  -13.0087    1.0000 </r>
       <r>  -13.0087    1.0000 </r>
       <r>  -13.0086    1.0000 </r>
       <r>  -12.9892    1.0000 </r>
       <r>  -12.9891    1.0000 </r>
       <r>  -12.9890    1.0000 </r>
       <r>  -12.9890    1.0000 </r>
       <r>  -12.9416    1.0000 </r>
       <r>  -12.9416    1.0000 </r>
       <r>  -12.9404    1.0000 </r>
       <r>  -12.9234    1.0000 </r>
       <r>  -12.9223    1.0000 </r>
       <r>  -12.9211    1.0000 </r>
       <r>  -12.9210    1.0000 </r>
       <r>  -12.9193    1.0000 </r>
       <r>  -12.9183    1.0000 </r>
       <r>   -2.7000    1.0000 </r>
       <r>   -2.6999    1.0000 </r>
       <r>   -2.6999    1.0000 </r>
       <r>   -2.6999    1.0000 </r>
       <r>   -2.4240    1.0000 </r>
       <r>   -2.4240    1.0000 </r>
       <r>   -2.4239    1.0000 </r>
       <r>   -2.2055    1.0000 </r>
       <r>   -2.2055    1.0000 </r>
       <r>   -2.2050    1.0000 </r>
       <r>   -2.2048    1.0000 </r>
       <r>   -2.2043    1.0000 </r>
       <r>   -2.2043    1.0000 </r>
       <r>   -2.2041    1.0000 </r>
       <r>   -2.2040    1.0000 </r>
       <r>   -2.2039    1.0000 </r>
       <r>   -2.2036    1.0000 </r>
       <r>   -2.2029    1.0000 </r>
       <r>   -2.2028    1.0000 </r>
       <r>   -1.9278    1.0000 </r>
       <r>   -1.9274    1.0000 </r>
       <r>   -1.9268    1.0000 </r>
       <r>   -1.9266    1.0000 </r>
       <r>   -1.9247    1.0000 </r>
       <r>   -1.9247    1.0000 </r>
       <r>   -1.9245    1.0000 </r>
       <r>   -1.9242    1.0000 </r>
       <r>   -1.9234    1.0000 </r>
       <r>   -1.9232    1.0000 </r>
       <r>   -1.9215    1.0000 </r>
       <r>   -1.9211    1.0000 </r>
       <r>   -1.7973    1.0000 </r>
       <r>   -1.7966    1.0000 </r>
       <r>   -1.7966    1.0000 </r>
       <r>   -1.7966    1.0000 </r>
       <r>   -1.7966    1.0000 </r>
       <r>   -1.7959    1.0000 </r>
       <r>   -1.5111    1.0000 </r>
       <r>   -1.5088    1.0000 </r>
       <r>   -1.5086    1.0000 </r>
       <r>   -1.5063    1.0000 </r>
       <r>   -1.5053    1.0000 </r>
       <r>   -1.5053    1.0000 </r>
       <r>   -1.5050    1.0000 </r>
       <r>   -1.5050    1.0000 </r>
       <r>   -1.5047    1.0000 </r>
       <r>   -1.5023    1.0000 </r>
       <r>   -1.5021    1.0000 </r>
       <r>   -1.4999    1.0000 </r>
       <r>   -1.4652    1.0000 </r>
       <r>   -1.4641    1.0000 </r>
       <r>   -1.4628    1.0000 </r>
       <r>   -1.4625    1.0000 </r>
       <r>   -1.4613    1.0000 </r>
       <r>   -1.4603    1.0000 </r>
       <r>   -1.2948    1.0000 </r>
       <r>   -1.2948    1.0000 </r>
       <r>   -1.2946    1.0000 </r>
       <r>   -1.2946    1.0000 </r>
       <r>   -1.2945    1.0000 </r>
       <r>   -1.2945    1.0000 </r>
       <r>   -1.0054    1.0000 </r>
       <r>   -1.0041    1.0000 </r>
       <r>   -1.0028    1.0000 </r>
       <r>   -1.0014    1.0000 </r>
       <r>   -1.0013    1.0000 </r>
       <r>   -1.0010    1.0000 </r>
       <r>   -1.0007    1.0000 </r>
       <r>   -1.0007    1.0000 </r>
       <r>   -0.9990    1.0000 </r>
       <r>   -0.9987    1.0000 </r>
       <r>   -0.9979    1.0000 </r>
       <r>   -0.9966    1.0000 </r>
       <r>   -0.9522    1.0000 </r>
       <r>   -0.9522    1.0000 </r>
       <r>   -0.9511    1.0000 </r>
       <r>   -0.9511    1.0000 </r>
       <r>   -0.9501    1.0000 </r>
       <r>   -0.9485    1.0000 </r>
       <r>   -0.9477    1.0000 </r>
       <r>   -0.9476    1.0000 </r>
       <r>   -0.9474    1.0000 </r>
       <r>   -0.9474    1.0000 </r>
       <r>   -0.9471    1.0000 </r>
       <r>   -0.9466    1.0000 </r>
       <r>   -0.9457    1.0000 </r>
       <r>   -0.9455    1.0000 </r>
       <r>   -0.9449    1.0000 </r>
       <r>   -0.9437    1.0000 </r>
       <r>   -0.9424    1.0000 </r>
       <r>   -0.9424    1.0000 </r>
       <r>   -0.9417    1.0000 </r>
       <r>   -0.9416    1.0000 </r>
       <r>   -0.6649    1.0000 </r>
       <r>   -0.6648    1.0000 </r>
       <r>   -0.6648    1.0000 </r>
       <r>    4.3402    0.0000 </r>
       <r>    6.3579    0.0000 </r>
       <r>    6.3639    0.0000 </r>
       <r>    6.3677    0.0000 </r>
       <r>    6.3680    0.0000 </r>
       <r>    6.3740    0.0000 </r>
       <r>    6.3755    0.0000 </r>
       <r>    6.4446    0.0000 </r>
       <r>    6.4448    0.0000 </r>
       <r>    6.4448    0.0000 </r>
       <r>    6.4450    0.0000 </r>
       <r>    6.8279    0.0000 </r>
       <r>    6.8279    0.0000 </r>
       <r>    6.8281    0.0000 </r>
       <r>    7.2067    0.0000 </r>
       <r>    7.2068    0.0000 </r>
       <r>    7.2069    0.0000 </r>
       <r>    7.4476    0.0000 </r>
       <r>    7.4531    0.0000 </r>
       <r>    7.4557    0.0000 </r>
       <r>    7.4620    0.0000 </r>
       <r>    7.4625    0.0000 </r>
       <r>    7.4642    0.0000 </r>
       <r>    7.4660    0.0000 </r>
       <r>    7.4677    0.0000 </r>
       <r>    7.4688    0.0000 </r>
       <r>    7.4714    0.0000 </r>
       <r>    7.4728    0.0000 </r>
       <r>    7.4777    0.0000 </r>
       <r>    8.1616    0.0000 </r>
       <r>    8.1643    0.0000 </r>
       <r>    8.1679    0.0000 </r>
       <r>    8.1684    0.0000 </r>
       <r>    8.1721    0.0000 </r>
       <r>    8.1754    0.0000 </r>
       <r>    8.2766    0.0000 </r>
       <r>    8.2786    0.0000 </r>
       <r>    8.2795    0.0000 </r>
       <r>    8.2797    0.0000 </r>
       <r>    8.2802    0.0000 </r>
       <r>    8.2830    0.0000 </r>
       <r>    8.8812    0.0000 </r>
       <r>    8.8888    0.0000 </r>
       <r>    8.8936    0.0000 </r>
       <r>    8.8980    0.0000 </r>
       <r>    8.8985    0.0000 </r>
       <r>    8.9000    0.0000 </r>
       <r>    8.9018    0.0000 </r>
       <r>    8.9032    0.0000 </r>
       <r>    8.9034    0.0000 </r>
       <r>    8.9054    0.0000 </r>
       <r>    8.9060    0.0000 </r>
       <r>    8.9078    0.0000 </r>
       <r>    8.9103    0.0000 </r>
       <r>    8.9115    0.0000 </r>
       <r>    8.9151    0.0000 </r>
       <r>    8.9159    0.0000 </r>
       <r>    8.9166    0.0000 </r>
       <r>    8.9172    0.0000 </r>
       <r>    8.9181    0.0000 </r>
       <r>    8.9210    0.0000 </r>
       <r>    8.9233    0.0000 </r>
       <r>    8.9281    0.0000 </r>
       <r>    8.9292    0.0000 </r>
      </set>
      <set comment="kpoint 2">
       <r>  -21.3115    1.0000 </r>
       <r>  -21.3094    1.0000 </r>
       <r>  -21.3088    1.0000 </r>
       <r>  -21.3081    1.0000 </r>
       <r>  -21.3050    1.0000 </r>
       <r>  -21.3031    1.0000 </r>
       <r>  -21.2982    1.0000 </r>
       <r>  -21.2981    1.0000 </r>
       <r>  -21.2974    1.0000 </r>
       <r>  -21.2967    1.0000 </r>
       <r>  -21.2963    1.0000 </r>
       <r>  -21.2960    1.0000 </r>
       <r>  -21.2959    1.0000 </r>
       <r>  -21.2951    1.0000 </r>
       <r>  -21.2925    1.0000 </r>
       <r>  -21.2924    1.0000 </r>
       <r>  -21.2922    1.0000 </r>
       <r>  -21.2920    1.0000 </r>
       <r>  -21.2918    1.0000 </r>
       <r>  -21.2915    1.0000 </r>
       <r>  -21.2903    1.0000 </r>
       <r>  -21.2902    1.0000 </r>
       <r>  -21.2899    1.0000 </r>
       <r>  -21.2896    1.0000 </r>
       <r>  -21.2884    1.0000 </r>
       <r>  -21.2881    1.0000 </r>
       <r>  -21.2879    1.0000 </r>
       <r>  -21.2877    1.0000 </r>
       <r>  -21.2873    1.0000 </r>
       <r>  -21.2870    1.0000 </r>
       <r>  -21.2868    1.0000 </r>
       <r>  -21.2865    1.0000 </r>
       <r>  -21.2862    1.0000 </r>
       <r>  -21.2852    1.0000 </r>
       <r>  -21.2850    1.0000 </r>
       <r>  -21.2845    1.0000 </r>
       <r>  -21.2838    1.0000 </r>
       <r>  -21.2836    1.0000 </r>
       <r>  -21.2830    1.0000 </r>
       <r>  -21.2828    1.0000 </r>
       <r>  -21.2811    1.0000 </r>
       <r>  -21.2810    1.0000 </r>
       <r>  -21.2808    1.0000 </r>
       <r>  -21.2805    1.0000 </r>
       <r>  -21.2804    1.0000 </r>
       <r>  -21.2793    1.0000 </r>
       <r>  -21.2792    1.0000 </r>
       <r>  -21.2785    1.0000 </r>
       <r>  -21.2784    1.0000 </r>
       <r>  -21.2781    1.0000 </r>
       <r>  -21.2779    1.0000 </r>
       <r>  -21.2771    1.0000 </r>
       <r>  -21.2771    1.0000 </r>
       <r>  -21.2770    1.0000 </r>
       <r>  -21.2770    1.0000 </r>
       <r>  -21.2769    1.0000 </r>
       <r>  -21.2769    1.0000 </r>
       <r>  -21.2766    1.0000 </r>
       <r>  -21.2763    1.0000 </r>
       <r>  -21.2763    1.0000 </r>
       <r>  -21.2762    1.0000 </r>
       <r>  -21.2759    1.0000 </r>
       <r>  -21.2757    1.0000 </r>
       <r>  -21.2754    1.0000 </r>
       <r>  -21.2752    1.0000 </r>
       <r>  -21.2751    1.0000 </r>
       <r>  -21.2750    1.0000 </r>
       <r>  -21.2749    1.0000 </r>
       <r>  -21.2747    1.0000 </r>
       <r>  -21.2746    1.0000 </r>
       <r>  -21.2738    1.0000 </r>
       <r>  -21.2733    1.0000 </r>
       <r>  -21.2733    1.0000 </r>
       <r>  -21.2730    1.0000 </r>
       <r>  -21.2727    1.0000 </r>
       <r>  -21.2726    1.0000 </r>
       <r>  -21.2724    1.0000 </r>
       <r>  -21.2723    1.0000 </r>
       <r>  -21.2723    1.0000 </r>
       <r>  -21.2718    1.0000 </r>
       <r>  -21.2716    1.0000 </r>
       <r>  -21.2713    1.0000 </r>
       <r>  -21.2711    1.0000 </r>
       <r>  -21.2709    1.0000 </r>
       <r>  -21.2707    1.0000 </r>
       <r>  -21.2703    1.0000 </r>
       <r>  -21.2701    1.0000 </r>
       <r>  -21.2698    1.0000 </r>
       <r>  -21.2684    1.0000 </r>
       <r>  -21.2684    1.0000 </r>
       <r>  -21.2590    1.0000 </r>
       <r>  -21.2563    1.0000 </r>
       <r>  -21.2558    1.0000 </r>
       <r>  -21.2555    1.0000 </r>
       <r>  -21.2553    1.0000 </r>
       <r>  -21.2530    1.0000 </r>
       <r>  -13.2937    1.0000 </r>
       <r>  -13.2887    1.0000 </r>
       <r>  -13.1001    1.0000 </r>
       <r>  -13.1001    1.0000 </r>
       <r>  -13.0998    1.0000 </r>
       <r>  -13.0990    1.0000 </r>
       <r>  -13.0949    1.0000 </r>
       <r>  -13.0941    1.0000 </r>
       <r>  -13.0938    1.0000 </r>
       <r>  -13.0938    1.0000 </r>
       <r>  -13.0052    1.0000 </r>
       <r>  -13.0051    1.0000 </r>
       <r>  -13.0050    1.0000 </r>
       <r>  -13.0050    1.0000 </r>
       <r>  -12.9991    1.0000 </r>
       <r>  -12.9962    1.0000 </r>
       <r>  -12.9961    1.0000 </r>
       <r>  -12.9961    1.0000 </r>
       <r>  -12.9961    1.0000 </r>
       <r>  -12.9919    1.0000 </r>
       <r>  -12.9475    1.0000 </r>
       <r>  -12.9471    1.0000 </r>
       <r>  -12.9470    1.0000 </r>
       <r>  -12.9467    1.0000 </r>
       <r>  -12.9410    1.0000 </r>
       <r>  -12.9404    1.0000 </r>
       <r>  -12.9403    1.0000 </r>
       <r>  -12.9397    1.0000 </r>
       <r>  -12.9352    1.0000 </r>
       <r>  -12.9351    1.0000 </r>
       <r>  -12.9264    1.0000 </r>
       <r>  -12.9262    1.0000 </r>
       <r>   -2.5074    1.0000 </r>
       <r>   -2.5074    1.0000 </r>
       <r>   -2.5067    1.0000 </r>
       <r>   -2.5066    1.0000 </r>
       <r>   -2.5020    1.0000 </r>
       <r>   -2.5020    1.0000 </r>
       <r>   -2.5012    1.0000 </r>
       <r>   -2.5012    1.0000 </r>
       <r>   -2.2896    1.0000 </r>
       <r>   -2.2896    1.0000 </r>
       <r>   -2.2857    1.0000 </r>
       <r>   -2.2857    1.0000 </r>
       <r>   -2.2769    1.0000 </r>
       <r>   -2.2712    1.0000 </r>
       <r>   -2.1398    1.0000 </r>
       <r>   -2.1382    1.0000 </r>
       <r>   -2.1371    1.0000 </r>
       <r>   -2.1368    1.0000 </r>
       <r>   -2.1360    1.0000 </r>
       <r>   -2.1357    1.0000 </r>
       <r>   -2.1346    1.0000 </r>
       <r>   -2.1328    1.0000 </r>
       <r>   -1.9872    1.0000 </r>
       <r>   -1.9871    1.0000 </r>
       <r>   -1.9870    1.0000 </r>
       <r>   -1.9870    1.0000 </r>
       <r>   -1.9838    1.0000 </r>
       <r>   -1.9838    1.0000 </r>
       <r>   -1.9837    1.0000 </r>
       <r>   -1.9836    1.0000 </r>
       <r>   -1.8118    1.0000 </r>
       <r>   -1.8110    1.0000 </r>
       <r>   -1.8110    1.0000 </r>
       <r>   -1.8100    1.0000 </r>
       <r>   -1.8076    1.0000 </r>
       <r>   -1.8065    1.0000 </r>
       <r>   -1.8065    1.0000 </r>
       <r>   -1.8058    1.0000 </r>
       <r>   -1.5022    1.0000 </r>
       <r>   -1.5021    1.0000 </r>
       <r>   -1.4932    1.0000 </r>
       <r>   -1.4931    1.0000 </r>
       <r>   -1.3845    1.0000 </r>
       <r>   -1.3845    1.0000 </r>
       <r>   -1.3763    1.0000 </r>
       <r>   -1.3763    1.0000 </r>
       <r>   -1.2147    1.0000 </r>
       <r>   -1.2147    1.0000 </r>
       <r>   -1.2102    1.0000 </r>
       <r>   -1.2101    1.0000 </r>
       <r>   -1.1974    1.0000 </r>
       <r>   -1.1943    1.0000 </r>
       <r>   -1.1920    1.0000 </r>
       <r>   -1.1916    1.0000 </r>
       <r>   -1.1914    1.0000 </r>
       <r>   -1.1899    1.0000 </r>
       <r>   -1.1890    1.0000 </r>
       <r>   -1.1872    1.0000 </r>
       <r>   -1.1787    1.0000 </r>
       <r>   -1.1783    1.0000 </r>
       <r>   -1.1777    1.0000 </r>
       <r>   -1.1772    1.0000 </r>
       <r>   -1.1704    1.0000 </r>
       <r>   -1.1702    1.0000 </r>
       <r>   -1.1697    1.0000 </r>
       <r>   -1.1689    1.0000 </r>
       <r>   -1.1636    1.0000 </r>
       <r>   -1.1636    1.0000 </r>
       <r>   -1.1635    1.0000 </r>
       <r>   -1.1626    1.0000 </r>
       <r>   -1.1567    1.0000 </r>
       <r>   -1.1550    1.0000 </r>
       <r>   -1.1549    1.0000 </r>
       <r>   -1.1534    1.0000 </r>
       <r>   -1.0866    1.0000 </r>
       <r>   -1.0798    1.0000 </r>
       <r>   -0.9516    1.0000 </r>
       <r>   -0.9515    1.0000 </r>
       <r>   -0.9511    1.0000 </r>
       <r>   -0.9510    1.0000 </r>
       <r>   -0.9426    1.0000 </r>
       <r>   -0.9426    1.0000 </r>
       <r>   -0.9423    1.0000 </r>
       <r>   -0.9422    1.0000 </r>
       <r>   -0.9346    1.0000 </r>
       <r>   -0.9345    1.0000 </r>
       <r>   -0.9344    1.0000 </r>
       <r>   -0.9339    1.0000 </r>
       <r>   -0.9307    1.0000 </r>
       <r>   -0.9302    1.0000 </r>
       <r>   -0.9300    1.0000 </r>
       <r>   -0.9299    1.0000 </r>
       <r>   -0.7723    1.0000 </r>
       <r>   -0.7723    1.0000 </r>
       <r>   -0.7642    1.0000 </r>
       <r>   -0.7642    1.0000 </r>
       <r>    5.0172    0.0000 </r>
       <r>    5.0274    0.0000 </r>
       <r>    6.7066    0.0000 </r>
       <r>    6.7108    0.0000 </r>
       <r>    6.7124    0.0000 </r>
       <r>    6.7151    0.0000 </r>
       <r>    6.7215    0.0000 </r>
       <r>    6.7235    0.0000 </r>
       <r>    6.7249    0.0000 </r>
       <r>    6.7284    0.0000 </r>
       <r>    6.8376    0.0000 </r>
       <r>    6.8379    0.0000 </r>
       <r>    6.8384    0.0000 </r>
       <r>    6.8387    0.0000 </r>
       <r>    6.8482    0.0000 </r>
       <r>    6.8482    0.0000 </r>
       <r>    6.8489    0.0000 </r>
       <r>    6.8489    0.0000 </r>
       <r>    6.9672    0.0000 </r>
       <r>    6.9755    0.0000 </r>
       <r>    7.3562    0.0000 </r>
       <r>    7.3562    0.0000 </r>
       <r>    7.3689    0.0000 </r>
       <r>    7.3690    0.0000 </r>
       <r>    7.4783    0.0000 </r>
       <r>    7.4822    0.0000 </r>
       <r>    7.7094    0.0000 </r>
       <r>    7.7096    0.0000 </r>
       <r>    7.7197    0.0000 </r>
       <r>    7.7198    0.0000 </r>
       <r>    8.2529    0.0000 </r>
       <r>    8.2586    0.0000 </r>
       <r>    8.2628    0.0000 </r>
       <r>    8.2640    0.0000 </r>
       <r>    8.2678    0.0000 </r>
       <r>    8.2689    0.0000 </r>
       <r>    8.2723    0.0000 </r>
       <r>    8.2775    0.0000 </r>
       <r>    8.5214    0.0000 </r>
       <r>    8.5248    0.0000 </r>
       <r>    8.5294    0.0000 </r>
       <r>    8.5318    0.0000 </r>
       <r>    8.5351    0.0000 </r>
       <r>    8.5377    0.0000 </r>
       <r>    8.5381    0.0000 </r>
       <r>    8.5393    0.0000 </r>
       <r>    8.5401    0.0000 </r>
       <r>    8.5401    0.0000 </r>
       <r>    8.5435    0.0000 </r>
       <r>    8.5439    0.0000 </r>
       <r>    8.5464    0.0000 </r>
       <r>    8.5479    0.0000 </r>
       <r>    8.5484    0.0000 </r>
       <r>    8.5494    0.0000 </r>
       <r>    8.9456    0.0000 </r>
       <r>    8.9465    0.0000 </r>
       <r>    8.9467    0.0000 </r>
       <r>    8.9494    0.0000 </r>
       <r>    8.9524    0.0000 </r>
       <r>    8.9555    0.0000 </r>
       <r>    8.9556    0.0000 </r>
       <r>    8.9570    0.0000 </r>
       <r>    9.4909    0.0000 </r>
       <r>    9.5179    0.0000 </r>
      </set>
      <set comment="kpoint 3">
       <r>  -21.3112    1.0000 </r>
       <r>  -21.3088    1.0000 </r>
       <r>  -21.3085    1.0000 </r>
       <r>  -21.3079    1.0000 </r>
       <r>  -21.3057    1.0000 </r>
       <r>  -21.3036    1.0000 </r>
       <r>  -21.2997    1.0000 </r>
       <r>  -21.2997    1.0000 </r>
       <r>  -21.2978    1.0000 </r>
       <r>  -21.2975    1.0000 </r>
       <r>  -21.2964    1.0000 </r>
       <r>  -21.2957    1.0000 </r>
       <r>  -21.2951    1.0000 </r>
       <r>  -21.2940    1.0000 </r>
       <r>  -21.2925    1.0000 </r>
       <r>  -21.2919    1.0000 </r>
       <r>  -21.2916    1.0000 </r>
       <r>  -21.2913    1.0000 </r>
       <r>  -21.2910    1.0000 </r>
       <r>  -21.2908    1.0000 </r>
       <r>  -21.2907    1.0000 </r>
       <r>  -21.2894    1.0000 </r>
       <r>  -21.2893    1.0000 </r>
       <r>  -21.2892    1.0000 </r>
       <r>  -21.2892    1.0000 </r>
       <r>  -21.2890    1.0000 </r>
       <r>  -21.2888    1.0000 </r>
       <r>  -21.2877    1.0000 </r>
       <r>  -21.2873    1.0000 </r>
       <r>  -21.2872    1.0000 </r>
       <r>  -21.2869    1.0000 </r>
       <r>  -21.2854    1.0000 </r>
       <r>  -21.2850    1.0000 </r>
       <r>  -21.2844    1.0000 </r>
       <r>  -21.2842    1.0000 </r>
       <r>  -21.2842    1.0000 </r>
       <r>  -21.2836    1.0000 </r>
       <r>  -21.2834    1.0000 </r>
       <r>  -21.2827    1.0000 </r>
       <r>  -21.2823    1.0000 </r>
       <r>  -21.2820    1.0000 </r>
       <r>  -21.2810    1.0000 </r>
       <r>  -21.2808    1.0000 </r>
       <r>  -21.2807    1.0000 </r>
       <r>  -21.2803    1.0000 </r>
       <r>  -21.2802    1.0000 </r>
       <r>  -21.2797    1.0000 </r>
       <r>  -21.2796    1.0000 </r>
       <r>  -21.2794    1.0000 </r>
       <r>  -21.2792    1.0000 </r>
       <r>  -21.2785    1.0000 </r>
       <r>  -21.2778    1.0000 </r>
       <r>  -21.2778    1.0000 </r>
       <r>  -21.2775    1.0000 </r>
       <r>  -21.2773    1.0000 </r>
       <r>  -21.2770    1.0000 </r>
       <r>  -21.2768    1.0000 </r>
       <r>  -21.2768    1.0000 </r>
       <r>  -21.2767    1.0000 </r>
       <r>  -21.2767    1.0000 </r>
       <r>  -21.2763    1.0000 </r>
       <r>  -21.2760    1.0000 </r>
       <r>  -21.2759    1.0000 </r>
       <r>  -21.2756    1.0000 </r>
       <r>  -21.2755    1.0000 </r>
       <r>  -21.2751    1.0000 </r>
       <r>  -21.2748    1.0000 </r>
       <r>  -21.2745    1.0000 </r>
       <r>  -21.2744    1.0000 </r>
       <r>  -21.2736    1.0000 </r>
       <r>  -21.2732    1.0000 </r>
       <r>  -21.2732    1.0000 </r>
       <r>  -21.2729    1.0000 </r>
       <r>  -21.2726    1.0000 </r>
       <r>  -21.2725    1.0000 </r>
       <r>  -21.2724    1.0000 </r>
       <r>  -21.2721    1.0000 </r>
       <r>  -21.2720    1.0000 </r>
       <r>  -21.2716    1.0000 </r>
       <r>  -21.2714    1.0000 </r>
       <r>  -21.2711    1.0000 </r>
       <r>  -21.2709    1.0000 </r>
       <r>  -21.2706    1.0000 </r>
       <r>  -21.2703    1.0000 </r>
       <r>  -21.2702    1.0000 </r>
       <r>  -21.2701    1.0000 </r>
       <r>  -21.2699    1.0000 </r>
       <r>  -21.2698    1.0000 </r>
       <r>  -21.2696    1.0000 </r>
       <r>  -21.2696    1.0000 </r>
       <r>  -21.2591    1.0000 </r>
       <r>  -21.2563    1.0000 </r>
       <r>  -21.2558    1.0000 </r>
       <r>  -21.2555    1.0000 </r>
       <r>  -21.2553    1.0000 </r>
       <r>  -21.2530    1.0000 </r>
       <r>  -13.2912    1.0000 </r>
       <r>  -13.2912    1.0000 </r>
       <r>  -13.0991    1.0000 </r>
       <r>  -13.0984    1.0000 </r>
       <r>  -13.0977    1.0000 </r>
       <r>  -13.0973    1.0000 </r>
       <r>  -13.0969    1.0000 </r>
       <r>  -13.0968    1.0000 </r>
       <r>  -13.0949    1.0000 </r>
       <r>  -13.0948    1.0000 </r>
       <r>  -13.0033    1.0000 </r>
       <r>  -13.0020    1.0000 </r>
       <r>  -13.0013    1.0000 </r>
       <r>  -13.0007    1.0000 </r>
       <r>  -13.0006    1.0000 </r>
       <r>  -13.0002    1.0000 </r>
       <r>  -13.0002    1.0000 </r>
       <r>  -12.9989    1.0000 </r>
       <r>  -12.9951    1.0000 </r>
       <r>  -12.9949    1.0000 </r>
       <r>  -12.9462    1.0000 </r>
       <r>  -12.9455    1.0000 </r>
       <r>  -12.9451    1.0000 </r>
       <r>  -12.9446    1.0000 </r>
       <r>  -12.9436    1.0000 </r>
       <r>  -12.9429    1.0000 </r>
       <r>  -12.9415    1.0000 </r>
       <r>  -12.9413    1.0000 </r>
       <r>  -12.9309    1.0000 </r>
       <r>  -12.9308    1.0000 </r>
       <r>  -12.9298    1.0000 </r>
       <r>  -12.9288    1.0000 </r>
       <r>   -2.5056    1.0000 </r>
       <r>   -2.5054    1.0000 </r>
       <r>   -2.5052    1.0000 </r>
       <r>   -2.5045    1.0000 </r>
       <r>   -2.5041    1.0000 </r>
       <r>   -2.5034    1.0000 </r>
       <r>   -2.5032    1.0000 </r>
       <r>   -2.5031    1.0000 </r>
       <r>   -2.2877    1.0000 </r>
       <r>   -2.2877    1.0000 </r>
       <r>   -2.2876    1.0000 </r>
       <r>   -2.2876    1.0000 </r>
       <r>   -2.2742    1.0000 </r>
       <r>   -2.2741    1.0000 </r>
       <r>   -2.1389    1.0000 </r>
       <r>   -2.1367    1.0000 </r>
       <r>   -2.1365    1.0000 </r>
       <r>   -2.1363    1.0000 </r>
       <r>   -2.1363    1.0000 </r>
       <r>   -2.1363    1.0000 </r>
       <r>   -2.1362    1.0000 </r>
       <r>   -2.1338    1.0000 </r>
       <r>   -1.9860    1.0000 </r>
       <r>   -1.9860    1.0000 </r>
       <r>   -1.9855    1.0000 </r>
       <r>   -1.9855    1.0000 </r>
       <r>   -1.9854    1.0000 </r>
       <r>   -1.9853    1.0000 </r>
       <r>   -1.9850    1.0000 </r>
       <r>   -1.9846    1.0000 </r>
       <r>   -1.8135    1.0000 </r>
       <r>   -1.8110    1.0000 </r>
       <r>   -1.8088    1.0000 </r>
       <r>   -1.8087    1.0000 </r>
       <r>   -1.8086    1.0000 </r>
       <r>   -1.8086    1.0000 </r>
       <r>   -1.8078    1.0000 </r>
       <r>   -1.8029    1.0000 </r>
       <r>   -1.4978    1.0000 </r>
       <r>   -1.4978    1.0000 </r>
       <r>   -1.4978    1.0000 </r>
       <r>   -1.4977    1.0000 </r>
       <r>   -1.3805    1.0000 </r>
       <r>   -1.3805    1.0000 </r>
       <r>   -1.3804    1.0000 </r>
       <r>   -1.3803    1.0000 </r>
       <r>   -1.2133    1.0000 </r>
       <r>   -1.2129    1.0000 </r>
       <r>   -1.2124    1.0000 </r>
       <r>   -1.2123    1.0000 </r>
       <r>   -1.1923    1.0000 </r>
       <r>   -1.1920    1.0000 </r>
       <r>   -1.1916    1.0000 </r>
       <r>   -1.1915    1.0000 </r>
       <r>   -1.1912    1.0000 </r>
       <r>   -1.1905    1.0000 </r>
       <r>   -1.1900    1.0000 </r>
       <r>   -1.1896    1.0000 </r>
       <r>   -1.1786    1.0000 </r>
       <r>   -1.1750    1.0000 </r>
       <r>   -1.1744    1.0000 </r>
       <r>   -1.1743    1.0000 </r>
       <r>   -1.1737    1.0000 </r>
       <r>   -1.1733    1.0000 </r>
       <r>   -1.1733    1.0000 </r>
       <r>   -1.1707    1.0000 </r>
       <r>   -1.1633    1.0000 </r>
       <r>   -1.1612    1.0000 </r>
       <r>   -1.1596    1.0000 </r>
       <r>   -1.1595    1.0000 </r>
       <r>   -1.1591    1.0000 </r>
       <r>   -1.1590    1.0000 </r>
       <r>   -1.1578    1.0000 </r>
       <r>   -1.1550    1.0000 </r>
       <r>   -1.0833    1.0000 </r>
       <r>   -1.0832    1.0000 </r>
       <r>   -0.9490    1.0000 </r>
       <r>   -0.9472    1.0000 </r>
       <r>   -0.9470    1.0000 </r>
       <r>   -0.9469    1.0000 </r>
       <r>   -0.9467    1.0000 </r>
       <r>   -0.9465    1.0000 </r>
       <r>   -0.9464    1.0000 </r>
       <r>   -0.9452    1.0000 </r>
       <r>   -0.9358    1.0000 </r>
       <r>   -0.9335    1.0000 </r>
       <r>   -0.9333    1.0000 </r>
       <r>   -0.9323    1.0000 </r>
       <r>   -0.9322    1.0000 </r>
       <r>   -0.9307    1.0000 </r>
       <r>   -0.9300    1.0000 </r>
       <r>   -0.9295    1.0000 </r>
       <r>   -0.7683    1.0000 </r>
       <r>   -0.7683    1.0000 </r>
       <r>   -0.7682    1.0000 </r>
       <r>   -0.7681    1.0000 </r>
       <r>    5.0222    0.0000 </r>
       <r>    5.0223    0.0000 </r>
       <r>    6.7035    0.0000 </r>
       <r>    6.7122    0.0000 </r>
       <r>    6.7172    0.0000 </r>
       <r>    6.7182    0.0000 </r>
       <r>    6.7194    0.0000 </r>
       <r>    6.7202    0.0000 </r>
       <r>    6.7247    0.0000 </r>
       <r>    6.7269    0.0000 </r>
       <r>    6.8378    0.0000 </r>
       <r>    6.8380    0.0000 </r>
       <r>    6.8418    0.0000 </r>
       <r>    6.8419    0.0000 </r>
       <r>    6.8447    0.0000 </r>
       <r>    6.8448    0.0000 </r>
       <r>    6.8493    0.0000 </r>
       <r>    6.8493    0.0000 </r>
       <r>    6.9711    0.0000 </r>
       <r>    6.9713    0.0000 </r>
       <r>    7.3624    0.0000 </r>
       <r>    7.3625    0.0000 </r>
       <r>    7.3625    0.0000 </r>
       <r>    7.3628    0.0000 </r>
       <r>    7.4802    0.0000 </r>
       <r>    7.4804    0.0000 </r>
       <r>    7.7146    0.0000 </r>
       <r>    7.7146    0.0000 </r>
       <r>    7.7146    0.0000 </r>
       <r>    7.7146    0.0000 </r>
       <r>    8.2541    0.0000 </r>
       <r>    8.2615    0.0000 </r>
       <r>    8.2658    0.0000 </r>
       <r>    8.2660    0.0000 </r>
       <r>    8.2660    0.0000 </r>
       <r>    8.2672    0.0000 </r>
       <r>    8.2715    0.0000 </r>
       <r>    8.2744    0.0000 </r>
       <r>    8.5214    0.0000 </r>
       <r>    8.5254    0.0000 </r>
       <r>    8.5314    0.0000 </r>
       <r>    8.5347    0.0000 </r>
       <r>    8.5370    0.0000 </r>
       <r>    8.5377    0.0000 </r>
       <r>    8.5380    0.0000 </r>
       <r>    8.5382    0.0000 </r>
       <r>    8.5393    0.0000 </r>
       <r>    8.5411    0.0000 </r>
       <r>    8.5412    0.0000 </r>
       <r>    8.5422    0.0000 </r>
       <r>    8.5431    0.0000 </r>
       <r>    8.5437    0.0000 </r>
       <r>    8.5495    0.0000 </r>
       <r>    8.5528    0.0000 </r>
       <r>    8.9357    0.0000 </r>
       <r>    8.9479    0.0000 </r>
       <r>    8.9505    0.0000 </r>
       <r>    8.9507    0.0000 </r>
       <r>    8.9510    0.0000 </r>
       <r>    8.9517    0.0000 </r>
       <r>    8.9573    0.0000 </r>
       <r>    8.9623    0.0000 </r>
       <r>    9.4970    0.0000 </r>
       <r>    9.5101    0.0000 </r>
      </set>
      <set comment="kpoint 4">
       <r>  -21.3115    1.0000 </r>
       <r>  -21.3093    1.0000 </r>
       <r>  -21.3083    1.0000 </r>
       <r>  -21.3075    1.0000 </r>
       <r>  -21.3046    1.0000 </r>
       <r>  -21.3023    1.0000 </r>
       <r>  -21.2998    1.0000 </r>
       <r>  -21.2997    1.0000 </r>
       <r>  -21.2997    1.0000 </r>
       <r>  -21.2996    1.0000 </r>
       <r>  -21.2972    1.0000 </r>
       <r>  -21.2964    1.0000 </r>
       <r>  -21.2944    1.0000 </r>
       <r>  -21.2927    1.0000 </r>
       <r>  -21.2925    1.0000 </r>
       <r>  -21.2919    1.0000 </r>
       <r>  -21.2915    1.0000 </r>
       <r>  -21.2908    1.0000 </r>
       <r>  -21.2906    1.0000 </r>
       <r>  -21.2906    1.0000 </r>
       <r>  -21.2902    1.0000 </r>
       <r>  -21.2900    1.0000 </r>
       <r>  -21.2899    1.0000 </r>
       <r>  -21.2896    1.0000 </r>
       <r>  -21.2889    1.0000 </r>
       <r>  -21.2888    1.0000 </r>
       <r>  -21.2883    1.0000 </r>
       <r>  -21.2875    1.0000 </r>
       <r>  -21.2866    1.0000 </r>
       <r>  -21.2862    1.0000 </r>
       <r>  -21.2858    1.0000 </r>
       <r>  -21.2849    1.0000 </r>
       <r>  -21.2848    1.0000 </r>
       <r>  -21.2845    1.0000 </r>
       <r>  -21.2840    1.0000 </r>
       <r>  -21.2838    1.0000 </r>
       <r>  -21.2838    1.0000 </r>
       <r>  -21.2833    1.0000 </r>
       <r>  -21.2832    1.0000 </r>
       <r>  -21.2824    1.0000 </r>
       <r>  -21.2821    1.0000 </r>
       <r>  -21.2818    1.0000 </r>
       <r>  -21.2817    1.0000 </r>
       <r>  -21.2811    1.0000 </r>
       <r>  -21.2807    1.0000 </r>
       <r>  -21.2806    1.0000 </r>
       <r>  -21.2805    1.0000 </r>
       <r>  -21.2802    1.0000 </r>
       <r>  -21.2791    1.0000 </r>
       <r>  -21.2789    1.0000 </r>
       <r>  -21.2787    1.0000 </r>
       <r>  -21.2782    1.0000 </r>
       <r>  -21.2778    1.0000 </r>
       <r>  -21.2774    1.0000 </r>
       <r>  -21.2773    1.0000 </r>
[...]
      </set>
     </set>
    </set>
   </array>
  </eigenvalues>
  <separator name="orbital magnetization" >
   <v name="MAGDIPOLOUT">      0.00000000      0.00000000      0.00000000</v>
  </separator>
  <dos>
   <i name="efermi">     -0.55476689 </i>
   <total>
    <array>
     <dimension dim="1">gridpoints</dimension>
     <dimension dim="2">spin</dimension>
     <field>energy</field>
     <field>total</field>
     <field>integrated</field>
     <set>
      <set comment="spin 1">
       <r>   -22.8536     0.0000     0.0000 </r>
       <r>   -22.7406     0.0000     0.0000 </r>
       <r>   -22.6275     0.0000     0.0000 </r>
       <r>   -22.5145     0.0000     0.0000 </r>
       <r>   -22.4014     0.0000     0.0000 </r>
       <r>   -22.2884     0.0000     0.0000 </r>
       <r>   -22.1753     0.0000     0.0000 </r>
       <r>   -22.0623     0.0000     0.0000 </r>
       <r>   -21.9492     0.0000     0.0000 </r>
       <r>   -21.8362     0.0000     0.0000 </r>
       <r>   -21.7231     0.0000     0.0000 </r>
       <r>   -21.6101     0.0000     0.0000 </r>
       <r>   -21.4970     0.0000     0.0000 </r>
       <r>   -21.3840     0.0000     0.0000 </r>
       <r>   -21.2709  1201.5718   135.8361 </r>
       <r>   -21.1579   496.8114   192.0000 </r>
       <r>   -21.0448     0.0000   192.0000 </r>
       <r>   -20.9318     0.0000   192.0000 </r>
       <r>   -20.8187     0.0000   192.0000 </r>
       <r>   -20.7057     0.0000   192.0000 </r>
       <r>   -20.5926     0.0000   192.0000 </r>
       <r>   -20.4796     0.0000   192.0000 </r>
       <r>   -20.3666     0.0000   192.0000 </r>
       <r>   -20.2535     0.0000   192.0000 </r>
       <r>   -20.1405     0.0000   192.0000 </r>
       <r>   -20.0274     0.0000   192.0000 </r>
       <r>   -19.9144     0.0000   192.0000 </r>
       <r>   -19.8013     0.0000   192.0000 </r>
       <r>   -19.6883     0.0000   192.0000 </r>
       <r>   -19.5752     0.0000   192.0000 </r>
       <r>   -19.4622     0.0000   192.0000 </r>
       <r>   -19.3491     0.0000   192.0000 </r>
       <r>   -19.2361     0.0000   192.0000 </r>
       <r>   -19.1230     0.0000   192.0000 </r>
       <r>   -19.0100     0.0000   192.0000 </r>
       <r>   -18.8969     0.0000   192.0000 </r>
       <r>   -18.7839     0.0000   192.0000 </r>
       <r>   -18.6708     0.0000   192.0000 </r>
       <r>   -18.5578     0.0000   192.0000 </r>
       <r>   -18.4447     0.0000   192.0000 </r>
       <r>   -18.3317     0.0000   192.0000 </r>
       <r>   -18.2186     0.0000   192.0000 </r>
       <r>   -18.1056     0.0000   192.0000 </r>
       <r>   -17.9925     0.0000   192.0000 </r>
       <r>   -17.8795     0.0000   192.0000 </r>
       <r>   -17.7664     0.0000   192.0000 </r>
       <r>   -17.6534     0.0000   192.0000 </r>
       <r>   -17.5403     0.0000   192.0000 </r>
       <r>   -17.4273     0.0000   192.0000 </r>
       <r>   -17.3142     0.0000   192.0000 </r>
       <r>   -17.2012     0.0000   192.0000 </r>
       <r>   -17.0881     0.0000   192.0000 </r>
       <r>   -16.9751     0.0000   192.0000 </r>
       <r>   -16.8620     0.0000   192.0000 </r>
       <r>   -16.7490     0.0000   192.0000 </r>
       <r>   -16.6359     0.0000   192.0000 </r>
       <r>   -16.5229     0.0000   192.0000 </r>
       <r>   -16.4098     0.0000   192.0000 </r>
       <r>   -16.2968     0.0000   192.0000 </r>
       <r>   -16.1837     0.0000   192.0000 </r>
       <r>   -16.0707     0.0000   192.0000 </r>
       <r>   -15.9577     0.0000   192.0000 </r>
       <r>   -15.8446     0.0000   192.0000 </r>
       <r>   -15.7316     0.0000   192.0000 </r>
       <r>   -15.6185     0.0000   192.0000 </r>
       <r>   -15.5055     0.0000   192.0000 </r>
       <r>   -15.3924     0.0000   192.0000 </r>
       <r>   -15.2794     0.0000   192.0000 </r>
       <r>   -15.1663     0.0000   192.0000 </r>
       <r>   -15.0533     0.0000   192.0000 </r>
       <r>   -14.9402     0.0000   192.0000 </r>
       <r>   -14.8272     0.0000   192.0000 </r>
       <r>   -14.7141     0.0000   192.0000 </r>
       <r>   -14.6011     0.0000   192.0000 </r>
       <r>   -14.4880     0.0000   192.0000 </r>
       <r>   -14.3750     0.0000   192.0000 </r>
       <r>   -14.2619     0.0000   192.0000 </r>
       <r>   -14.1489     0.0000   192.0000 </r>
       <r>   -14.0358     0.0000   192.0000 </r>
       <r>   -13.9228     0.0000   192.0000 </r>
       <r>   -13.8097     0.0000   192.0000 </r>
       <r>   -13.6967     0.0000   192.0000 </r>
       <r>   -13.5836     0.0000   192.0000 </r>
       <r>   -13.4706     0.0000   192.0000 </r>
       <r>   -13.3575     1.1326   192.1280 </r>
       <r>   -13.2445    19.2516   194.3044 </r>
       <r>   -13.1314    48.5391   199.7918 </r>
       <r>   -13.0184   125.4335   213.9720 </r>
       <r>   -12.9053   367.4947   255.5174 </r>
       <r>   -12.7923     4.2594   256.0000 </r>
       <r>   -12.6792     0.0000   256.0000 </r>
       <r>   -12.5662     0.0000   256.0000 </r>
       <r>   -12.4531     0.0000   256.0000 </r>
       <r>   -12.3401     0.0000   256.0000 </r>
       <r>   -12.2270     0.0000   256.0000 </r>
       <r>   -12.1140     0.0000   256.0000 </r>
       <r>   -12.0009     0.0000   256.0000 </r>
       <r>   -11.8879     0.0000   256.0000 </r>
       <r>   -11.7748     0.0000   256.0000 </r>
       <r>   -11.6618     0.0000   256.0000 </r>
       <r>   -11.5488     0.0000   256.0000 </r>
       <r>   -11.4357     0.0000   256.0000 </r>
       <r>   -11.3227     0.0000   256.0000 </r>
       <r>   -11.2096     0.0000   256.0000 </r>
       <r>   -11.0966     0.0000   256.0000 </r>
       <r>   -10.9835     0.0000   256.0000 </r>
       <r>   -10.8705     0.0000   256.0000 </r>
       <r>   -10.7574     0.0000   256.0000 </r>
       <r>   -10.6444     0.0000   256.0000 </r>
       <r>   -10.5313     0.0000   256.0000 </r>
       <r>   -10.4183     0.0000   256.0000 </r>
       <r>   -10.3052     0.0000   256.0000 </r>
       <r>   -10.1922     0.0000   256.0000 </r>
       <r>   -10.0791     0.0000   256.0000 </r>
       <r>    -9.9661     0.0000   256.0000 </r>
       <r>    -9.8530     0.0000   256.0000 </r>
       <r>    -9.7400     0.0000   256.0000 </r>
       <r>    -9.6269     0.0000   256.0000 </r>
       <r>    -9.5139     0.0000   256.0000 </r>
       <r>    -9.4008     0.0000   256.0000 </r>
       <r>    -9.2878     0.0000   256.0000 </r>
       <r>    -9.1747     0.0000   256.0000 </r>
       <r>    -9.0617     0.0000   256.0000 </r>
       <r>    -8.9486     0.0000   256.0000 </r>
       <r>    -8.8356     0.0000   256.0000 </r>
       <r>    -8.7225     0.0000   256.0000 </r>
       <r>    -8.6095     0.0000   256.0000 </r>
       <r>    -8.4964     0.0000   256.0000 </r>
       <r>    -8.3834     0.0000   256.0000 </r>
       <r>    -8.2703     0.0000   256.0000 </r>
       <r>    -8.1573     0.0000   256.0000 </r>
       <r>    -8.0442     0.0000   256.0000 </r>
       <r>    -7.9312     0.0000   256.0000 </r>
       <r>    -7.8181     0.0000   256.0000 </r>
       <r>    -7.7051     0.0000   256.0000 </r>
       <r>    -7.5920     0.0000   256.0000 </r>
       <r>    -7.4790     0.0000   256.0000 </r>
       <r>    -7.3660     0.0000   256.0000 </r>
       <r>    -7.2529     0.0000   256.0000 </r>
       <r>    -7.1399     0.0000   256.0000 </r>
       <r>    -7.0268     0.0000   256.0000 </r>
       <r>    -6.9138     0.0000   256.0000 </r>
       <r>    -6.8007     0.0000   256.0000 </r>
       <r>    -6.6877     0.0000   256.0000 </r>
       <r>    -6.5746     0.0000   256.0000 </r>
       <r>    -6.4616     0.0000   256.0000 </r>
       <r>    -6.3485     0.0000   256.0000 </r>
       <r>    -6.2355     0.0000   256.0000 </r>
       <r>    -6.1224     0.0000   256.0000 </r>
       <r>    -6.0094     0.0000   256.0000 </r>
       <r>    -5.8963     0.0000   256.0000 </r>
       <r>    -5.7833     0.0000   256.0000 </r>
       <r>    -5.6702     0.0000   256.0000 </r>
       <r>    -5.5572     0.0000   256.0000 </r>
       <r>    -5.4441     0.0000   256.0000 </r>
       <r>    -5.3311     0.0000   256.0000 </r>
       <r>    -5.2180     0.0000   256.0000 </r>
       <r>    -5.1050     0.0000   256.0000 </r>
       <r>    -4.9919     0.0000   256.0000 </r>
       <r>    -4.8789     0.0000   256.0000 </r>
       <r>    -4.7658     0.0000   256.0000 </r>
       <r>    -4.6528     0.0000   256.0000 </r>
       <r>    -4.5397     0.0000   256.0000 </r>
       <r>    -4.4267     0.0000   256.0000 </r>
       <r>    -4.3136     0.0000   256.0000 </r>
       <r>    -4.2006     0.0000   256.0000 </r>
       <r>    -4.0875     0.0000   256.0000 </r>
       <r>    -3.9745     0.0000   256.0000 </r>
       <r>    -3.8614     0.0000   256.0000 </r>
       <r>    -3.7484     0.0000   256.0000 </r>
       <r>    -3.6353     0.0000   256.0000 </r>
       <r>    -3.5223     0.0000   256.0000 </r>
       <r>    -3.4092     0.0000   256.0000 </r>
       <r>    -3.2962     0.0000   256.0000 </r>
       <r>    -3.1831     0.0000   256.0000 </r>
       <r>    -3.0701     0.0000   256.0000 </r>
       <r>    -2.9571     0.0000   256.0000 </r>
       <r>    -2.8440     0.0000   256.0000 </r>
       <r>    -2.7310     0.1253   256.0142 </r>
       <r>    -2.6179     8.7204   257.0000 </r>
       <r>    -2.5049    25.7269   259.9084 </r>
       <r>    -2.3918    83.3376   269.3296 </r>
       <r>    -2.2788    82.7699   278.6866 </r>
       <r>    -2.1657   154.2619   296.1264 </r>
       <r>    -2.0527    71.8590   304.2500 </r>
       <r>    -1.9396    56.9637   310.6897 </r>
       <r>    -1.8266    63.0494   317.8177 </r>
       <r>    -1.7135    70.1668   325.7500 </r>
       <r>    -1.6005     0.0000   325.7500 </r>
       <r>    -1.4874    74.3452   334.1546 </r>
       <r>    -1.3744   194.0944   356.0967 </r>
       <r>    -1.2613    23.7950   358.7867 </r>
       <r>    -1.1483   255.0319   387.6178 </r>
       <r>    -1.0352   135.7296   402.9619 </r>
       <r>    -0.9222   260.0031   432.3553 </r>
       <r>    -0.8091    61.7396   439.3358 </r>
       <r>    -0.6961    70.0632   447.2564 </r>
       <r>    -0.5830     6.5778   448.0000 </r>
       <r>    -0.4700     0.0000   448.0000 </r>
       <r>    -0.3569     0.0000   448.0000 </r>
       <r>    -0.2439     0.0000   448.0000 </r>
       <r>    -0.1308     0.0000   448.0000 </r>
       <r>    -0.0178     0.0000   448.0000 </r>
       <r>     0.0953     0.0000   448.0000 </r>
       <r>     0.2083     0.0000   448.0000 </r>
       <r>     0.3214     0.0000   448.0000 </r>
       <r>     0.4344     0.0000   448.0000 </r>
       <r>     0.5475     0.0000   448.0000 </r>
       <r>     0.6605     0.0000   448.0000 </r>
       <r>     0.7736     0.0000   448.0000 </r>
       <r>     0.8866     0.0000   448.0000 </r>
       <r>     0.9997     0.0000   448.0000 </r>
       <r>     1.1127     0.0000   448.0000 </r>
       <r>     1.2258     0.0000   448.0000 </r>
       <r>     1.3388     0.0000   448.0000 </r>
       <r>     1.4518     0.0000   448.0000 </r>
       <r>     1.5649     0.0000   448.0000 </r>
       <r>     1.6779     0.0000   448.0000 </r>
       <r>     1.7910     0.0000   448.0000 </r>
       <r>     1.9040     0.0000   448.0000 </r>
       <r>     2.0171     0.0000   448.0000 </r>
       <r>     2.1301     0.0000   448.0000 </r>
       <r>     2.2432     0.0000   448.0000 </r>
       <r>     2.3562     0.0000   448.0000 </r>
       <r>     2.4693     0.0000   448.0000 </r>
       <r>     2.5823     0.0000   448.0000 </r>
       <r>     2.6954     0.0000   448.0000 </r>
       <r>     2.8084     0.0000   448.0000 </r>
       <r>     2.9215     0.0000   448.0000 </r>
       <r>     3.0345     0.0000   448.0000 </r>
       <r>     3.1476     0.0000   448.0000 </r>
       <r>     3.2606     0.0000   448.0000 </r>
       <r>     3.3737     0.0000   448.0000 </r>
       <r>     3.4867     0.0000   448.0000 </r>
       <r>     3.5998     0.0000   448.0000 </r>
       <r>     3.7128     0.0000   448.0000 </r>
       <r>     3.8259     0.0000   448.0000 </r>
       <r>     3.9389     0.0000   448.0000 </r>
       <r>     4.0520     0.0000   448.0000 </r>
       <r>     4.1650     0.0000   448.0000 </r>
       <r>     4.2781     0.0000   448.0000 </r>
       <r>     4.3911     2.2111   448.2500 </r>
       <r>     4.5042     0.0000   448.2500 </r>
       <r>     4.6172     0.0000   448.2500 </r>
       <r>     4.7303     0.0000   448.2500 </r>
       <r>     4.8433     0.0000   448.2500 </r>
       <r>     4.9564     0.0000   448.2500 </r>
       <r>     5.0694    13.2613   449.7492 </r>
       <r>     5.1825     0.0033   449.7500 </r>
       <r>     5.2955     0.0000   449.7500 </r>
       <r>     5.4086     0.0000   449.7500 </r>
       <r>     5.5216     3.1519   450.1063 </r>
       <r>     5.6346    23.3853   452.7500 </r>
       <r>     5.7477     0.0000   452.7500 </r>
       <r>     5.8607    17.1626   454.6902 </r>
       <r>     5.9738     0.5288   454.7500 </r>
       <r>     6.0868     0.0000   454.7500 </r>
       <r>     6.1999     0.0000   454.7500 </r>
       <r>     6.3129     0.0022   454.7503 </r>
       <r>     6.4260    14.0763   456.3416 </r>
       <r>     6.5390     8.0351   457.2500 </r>
       <r>     6.6521    42.8354   462.0925 </r>
       <r>     6.7651    63.2536   469.2432 </r>
       <r>     6.8782    59.2413   475.9408 </r>
       <r>     6.9912    12.7043   477.3771 </r>
       <r>     7.1043     1.0871   477.5000 </r>
       <r>     7.2173     5.1207   478.0789 </r>
       <r>     7.3304     1.8791   478.2913 </r>
       <r>     7.4434    82.6083   487.6301 </r>
       <r>     7.5565   166.5681   506.4605 </r>
       <r>     7.6695     2.5847   506.7527 </r>
       <r>     7.7826    26.5133   509.7500 </r>
       <r>     7.8956     0.3089   509.7849 </r>
       <r>     8.0087    52.7655   515.7500 </r>
       <r>     8.1217     0.0110   515.7512 </r>
       <r>     8.2348    14.4923   517.3896 </r>
       <r>     8.3478    91.6366   527.7490 </r>
       <r>     8.4609     0.0058   527.7500 </r>
       <r>     8.5739   148.6085   544.5500 </r>
       <r>     8.6870    10.6126   545.7500 </r>
       <r>     8.8000     0.0000   545.7500 </r>
       <r>     8.9131    83.2360   555.1597 </r>
       <r>     9.0261   123.0235   569.0674 </r>
       <r>     9.1392     3.8269   569.5000 </r>
       <r>     9.2522    24.3913   572.2574 </r>
       <r>     9.3653    19.8375   574.5000 </r>
       <r>     9.4783     0.9847   574.6113 </r>
       <r>     9.5914    12.2839   576.0000 </r>
       <r>     9.7044     0.0000   576.0000 </r>
       <r>     9.8175     0.0000   576.0000 </r>
       <r>     9.9305     0.0000   576.0000 </r>
       <r>    10.0435     0.0000   576.0000 </r>
       <r>    10.1566     0.0000   576.0000 </r>
       <r>    10.2696     0.0000   576.0000 </r>
       <r>    10.3827     0.0000   576.0000 </r>
       <r>    10.4957     0.0000   576.0000 </r>
       <r>    10.6088     0.0000   576.0000 </r>
       <r>    10.7218     0.0000   576.0000 </r>
       <r>    10.8349     0.0000   576.0000 </r>
       <r>    10.9479     0.0000   576.0000 </r>
       <r>    11.0610     0.0000   576.0000 </r>
      </set>
     </set>
    </array>
   </total>
  </dos>
 </calculation>
 <structure name="finalpos" >
  <crystal>
   <varray name="basis" >
    <v>      11.20400236       0.00000000       0.00000000 </v>
    <v>       0.00000000      11.20400236       0.00000000 </v>
    <v>       0.00000000       0.00000000      11.20400236 </v>
   </varray>
   <i name="volume">   1406.43470641 </i>
   <varray name="rec_basis" >
    <v>       0.08925382       0.00000000       0.00000000 </v>
    <v>       0.00000000       0.08925382       0.00000000 </v>
    <v>       0.00000000       0.00000000       0.08925382 </v>
   </varray>
  </crystal>
  <varray name="positions" >
   <v>       0.00000000       0.00000000       0.00000000 </v>
   <v>       0.25000000       0.25000000       0.00000000 </v>
   <v>       0.25000000       0.00000000       0.25000000 </v>
   <v>       0.00000000       0.25000000       0.25000000 </v>
   <v>       0.00000000       0.00000000       0.50000000 </v>
   <v>       0.25000000       0.25000000       0.50000000 </v>
   <v>       0.25000000       0.00000000       0.75000000 </v>
   <v>       0.00000000       0.25000000       0.75000000 </v>
   <v>       0.00000000       0.50000000       0.00000000 </v>
   <v>       0.25000000       0.75000000       0.00000000 </v>
   <v>       0.25000000       0.50000000       0.25000000 </v>
   <v>       0.00000000       0.75000000       0.25000000 </v>
   <v>       0.00000000       0.50000000       0.50000000 </v>
   <v>       0.25000000       0.75000000       0.50000000 </v>
   <v>       0.25000000       0.50000000       0.75000000 </v>
   <v>       0.00000000       0.75000000       0.75000000 </v>
   <v>       0.50000000       0.00000000       0.00000000 </v>
   <v>       0.75000000       0.25000000       0.00000000 </v>
   <v>       0.75000000       0.00000000       0.25000000 </v>
   <v>       0.50000000       0.25000000       0.25000000 </v>
   <v>       0.50000000       0.00000000       0.50000000 </v>
   <v>       0.75000000       0.25000000       0.50000000 </v>
   <v>       0.75000000       0.00000000       0.75000000 </v>
   <v>       0.50000000       0.25000000       0.75000000 </v>
   <v>       0.50000000       0.50000000       0.00000000 </v>
   <v>       0.75000000       0.75000000       0.00000000 </v>
   <v>       0.75000000       0.50000000       0.25000000 </v>
   <v>       0.50000000       0.75000000       0.25000000 </v>
   <v>       0.50000000       0.50000000       0.50000000 </v>
   <v>       0.75000000       0.75000000       0.50000000 </v>
   <v>       0.75000000       0.50000000       0.75000000 </v>
   <v>       0.50000000       0.75000000       0.75000000 </v>
   <v>       0.25267761       0.25000000       0.25000000 </v>
   <v>       0.99732239       0.00000000       0.25000000 </v>
   <v>       0.00000000       0.25000000       0.00000000 </v>
   <v>       0.25000000       0.00000000       0.00000000 </v>
   <v>       0.25000000       0.25000000       0.75000000 </v>
   <v>       0.00000000       0.00000000       0.75000000 </v>
   <v>       0.00000000       0.25000000       0.50000000 </v>
   <v>       0.25000000       0.00000000       0.50000000 </v>
   <v>       0.25000000       0.75000000       0.25000000 </v>
   <v>       0.00000000       0.50000000       0.25000000 </v>
   <v>       0.00000000       0.75000000       0.00000000 </v>
   <v>       0.25000000       0.50000000       0.00000000 </v>
   <v>       0.25000000       0.75000000       0.75000000 </v>
   <v>       0.00000000       0.50000000       0.75000000 </v>
   <v>       0.00000000       0.75000000       0.50000000 </v>
   <v>       0.25000000       0.50000000       0.50000000 </v>
   <v>       0.75000000       0.25000000       0.25000000 </v>
   <v>       0.50000000       0.00000000       0.25000000 </v>
   <v>       0.50000000       0.25000000       0.00000000 </v>
   <v>       0.75000000       0.00000000       0.00000000 </v>
   <v>       0.75000000       0.25000000       0.75000000 </v>
   <v>       0.50000000       0.00000000       0.75000000 </v>
   <v>       0.50000000       0.25000000       0.50000000 </v>
   <v>       0.75000000       0.00000000       0.50000000 </v>
   <v>       0.75000000       0.75000000       0.25000000 </v>
   <v>       0.50000000       0.50000000       0.25000000 </v>
   <v>       0.50000000       0.75000000       0.00000000 </v>
   <v>       0.75000000       0.50000000       0.00000000 </v>
   <v>       0.75000000       0.75000000       0.75000000 </v>
   <v>       0.50000000       0.50000000       0.75000000 </v>
   <v>       0.50000000       0.75000000       0.50000000 </v>
   <v>       0.75000000       0.50000000       0.50000000 </v>
  </varray>
 </structure>
</modeling>
