  64  64   0   0
  0.2197554E+02  0.1120400E-08  0.1120400E-08  0.1120400E-08  0.5000000E-15
  1.000000000000000E-004
  CAR 
 unknown system                          
     11.06604249    -22.85193496  301     -0.55086478      1.00000000
    -22.852  0.0000E+00  0.0000E+00
    -22.739  0.0000E+00  0.0000E+00
    -22.626  0.0000E+00  0.0000E+00
    -22.513  0.0000E+00  0.0000E+00
    -22.400  0.0000E+00  0.0000E+00
    -22.287  0.0000E+00  0.0000E+00
    -22.174  0.0000E+00  0.0000E+00
    -22.061  0.0000E+00  0.0000E+00
    -21.947  0.0000E+00  0.0000E+00
    -21.834  0.0000E+00  0.0000E+00
    -21.721  0.0000E+00  0.0000E+00
    -21.608  0.0000E+00  0.0000E+00
    -21.495  0.0000E+00  0.0000E+00
    -21.382  0.6553E-05  0.7409E-06
    -21.269  0.1272E+04  0.1438E+03
    -21.156  0.4261E+03  0.1920E+03
    -21.043  0.0000E+00  0.1920E+03
    -20.930  0.0000E+00  0.1920E+03
    -20.817  0.0000E+00  0.1920E+03
    -20.704  0.0000E+00  0.1920E+03
    -20.591  0.0000E+00  0.1920E+03
    -20.478  0.0000E+00  0.1920E+03
    -20.365  0.0000E+00  0.1920E+03
    -20.252  0.0000E+00  0.1920E+03
    -20.138  0.0000E+00  0.1920E+03
    -20.025  0.0000E+00  0.1920E+03
    -19.912  0.0000E+00  0.1920E+03
    -19.799  0.0000E+00  0.1920E+03
    -19.686  0.0000E+00  0.1920E+03
    -19.573  0.0000E+00  0.1920E+03
    -19.460  0.0000E+00  0.1920E+03
    -19.347  0.0000E+00  0.1920E+03
    -19.234  0.0000E+00  0.1920E+03
    -19.121  0.0000E+00  0.1920E+03
    -19.008  0.0000E+00  0.1920E+03
    -18.895  0.0000E+00  0.1920E+03
    -18.782  0.0000E+00  0.1920E+03
    -18.669  0.0000E+00  0.1920E+03
    -18.556  0.0000E+00  0.1920E+03
    -18.443  0.0000E+00  0.1920E+03
    -18.330  0.0000E+00  0.1920E+03
    -18.216  0.0000E+00  0.1920E+03
    -18.103  0.0000E+00  0.1920E+03
    -17.990  0.0000E+00  0.1920E+03
    -17.877  0.0000E+00  0.1920E+03
    -17.764  0.0000E+00  0.1920E+03
    -17.651  0.0000E+00  0.1920E+03
    -17.538  0.0000E+00  0.1920E+03
    -17.425  0.0000E+00  0.1920E+03
    -17.312  0.0000E+00  0.1920E+03
    -17.199  0.0000E+00  0.1920E+03
    -17.086  0.0000E+00  0.1920E+03
    -16.973  0.0000E+00  0.1920E+03
    -16.860  0.0000E+00  0.1920E+03
    -16.747  0.0000E+00  0.1920E+03
    -16.634  0.0000E+00  0.1920E+03
    -16.521  0.0000E+00  0.1920E+03
    -16.408  0.0000E+00  0.1920E+03
    -16.294  0.0000E+00  0.1920E+03
    -16.181  0.0000E+00  0.1920E+03
    -16.068  0.0000E+00  0.1920E+03
    -15.955  0.0000E+00  0.1920E+03
    -15.842  0.0000E+00  0.1920E+03
    -15.729  0.0000E+00  0.1920E+03
    -15.616  0.0000E+00  0.1920E+03
    -15.503  0.0000E+00  0.1920E+03
    -15.390  0.0000E+00  0.1920E+03
    -15.277  0.0000E+00  0.1920E+03
    -15.164  0.0000E+00  0.1920E+03
    -15.051  0.0000E+00  0.1920E+03
    -14.938  0.0000E+00  0.1920E+03
    -14.825  0.0000E+00  0.1920E+03
    -14.712  0.0000E+00  0.1920E+03
    -14.599  0.0000E+00  0.1920E+03
    -14.486  0.0000E+00  0.1920E+03
    -14.372  0.0000E+00  0.1920E+03
    -14.259  0.0000E+00  0.1920E+03
    -14.146  0.0000E+00  0.1920E+03
    -14.033  0.0000E+00  0.1920E+03
    -13.920  0.0000E+00  0.1920E+03
    -13.807  0.0000E+00  0.1920E+03
    -13.694  0.0000E+00  0.1920E+03
    -13.581  0.0000E+00  0.1920E+03
    -13.468  0.8592E-14  0.1920E+03
    -13.355  0.1301E+01  0.1921E+03
    -13.242  0.2061E+02  0.1945E+03
    -13.129  0.4824E+02  0.1999E+03
    -13.016  0.1290E+03  0.2145E+03
    -12.903  0.3637E+03  0.2556E+03
    -12.790  0.3268E+01  0.2560E+03
    -12.677  0.0000E+00  0.2560E+03
    -12.563  0.0000E+00  0.2560E+03
    -12.450  0.0000E+00  0.2560E+03
    -12.337  0.0000E+00  0.2560E+03
    -12.224  0.0000E+00  0.2560E+03
    -12.111  0.0000E+00  0.2560E+03
    -11.998  0.0000E+00  0.2560E+03
    -11.885  0.0000E+00  0.2560E+03
    -11.772  0.0000E+00  0.2560E+03
    -11.659  0.0000E+00  0.2560E+03
    -11.546  0.0000E+00  0.2560E+03
    -11.433  0.0000E+00  0.2560E+03
    -11.320  0.0000E+00  0.2560E+03
    -11.207  0.0000E+00  0.2560E+03
    -11.094  0.0000E+00  0.2560E+03
    -10.981  0.0000E+00  0.2560E+03
    -10.868  0.0000E+00  0.2560E+03
    -10.755  0.0000E+00  0.2560E+03
    -10.641  0.0000E+00  0.2560E+03
    -10.528  0.0000E+00  0.2560E+03
    -10.415  0.0000E+00  0.2560E+03
    -10.302  0.0000E+00  0.2560E+03
    -10.189  0.0000E+00  0.2560E+03
    -10.076  0.0000E+00  0.2560E+03
     -9.963  0.0000E+00  0.2560E+03
     -9.850  0.0000E+00  0.2560E+03
     -9.737  0.0000E+00  0.2560E+03
     -9.624  0.0000E+00  0.2560E+03
     -9.511  0.0000E+00  0.2560E+03
     -9.398  0.0000E+00  0.2560E+03
     -9.285  0.0000E+00  0.2560E+03
     -9.172  0.0000E+00  0.2560E+03
     -9.059  0.0000E+00  0.2560E+03
     -8.946  0.0000E+00  0.2560E+03
     -8.833  0.0000E+00  0.2560E+03
     -8.719  0.0000E+00  0.2560E+03
     -8.606  0.0000E+00  0.2560E+03
     -8.493  0.0000E+00  0.2560E+03
     -8.380  0.0000E+00  0.2560E+03
     -8.267  0.0000E+00  0.2560E+03
     -8.154  0.0000E+00  0.2560E+03
     -8.041  0.0000E+00  0.2560E+03
     -7.928  0.0000E+00  0.2560E+03
     -7.815  0.0000E+00  0.2560E+03
     -7.702  0.0000E+00  0.2560E+03
     -7.589  0.0000E+00  0.2560E+03
     -7.476  0.0000E+00  0.2560E+03
     -7.363  0.0000E+00  0.2560E+03
     -7.250  0.0000E+00  0.2560E+03
     -7.137  0.0000E+00  0.2560E+03
     -7.024  0.0000E+00  0.2560E+03
     -6.910  0.0000E+00  0.2560E+03
     -6.797  0.0000E+00  0.2560E+03
     -6.684  0.0000E+00  0.2560E+03
     -6.571  0.0000E+00  0.2560E+03
     -6.458  0.0000E+00  0.2560E+03
     -6.345  0.0000E+00  0.2560E+03
     -6.232  0.0000E+00  0.2560E+03
     -6.119  0.0000E+00  0.2560E+03
     -6.006  0.0000E+00  0.2560E+03
     -5.893  0.0000E+00  0.2560E+03
     -5.780  0.0000E+00  0.2560E+03
     -5.667  0.0000E+00  0.2560E+03
     -5.554  0.0000E+00  0.2560E+03
     -5.441  0.0000E+00  0.2560E+03
     -5.328  0.0000E+00  0.2560E+03
     -5.215  0.0000E+00  0.2560E+03
     -5.102  0.0000E+00  0.2560E+03
     -4.988  0.0000E+00  0.2560E+03
     -4.875  0.0000E+00  0.2560E+03
     -4.762  0.0000E+00  0.2560E+03
     -4.649  0.0000E+00  0.2560E+03
     -4.536  0.0000E+00  0.2560E+03
     -4.423  0.0000E+00  0.2560E+03
     -4.310  0.0000E+00  0.2560E+03
     -4.197  0.0000E+00  0.2560E+03
     -4.084  0.0000E+00  0.2560E+03
     -3.971  0.0000E+00  0.2560E+03
     -3.858  0.0000E+00  0.2560E+03
     -3.745  0.0000E+00  0.2560E+03
     -3.632  0.0000E+00  0.2560E+03
     -3.519  0.0000E+00  0.2560E+03
     -3.406  0.0000E+00  0.2560E+03
     -3.293  0.0000E+00  0.2560E+03
     -3.180  0.0000E+00  0.2560E+03
     -3.066  0.0000E+00  0.2560E+03
     -2.953  0.0000E+00  0.2560E+03
     -2.840  0.0000E+00  0.2560E+03
     -2.727  0.2382E+00  0.2560E+03
     -2.614  0.8607E+01  0.2570E+03
     -2.501  0.3128E+02  0.2605E+03
     -2.388  0.7932E+02  0.2695E+03
     -2.275  0.8621E+02  0.2793E+03
     -2.162  0.1527E+03  0.2965E+03
     -2.049  0.6843E+02  0.3043E+03
     -1.936  0.5882E+02  0.3109E+03
     -1.823  0.6696E+02  0.3185E+03
     -1.710  0.6437E+02  0.3257E+03
     -1.597  0.2230E-08  0.3258E+03
     -1.484  0.8905E+02  0.3358E+03
     -1.371  0.1824E+03  0.3564E+03
     -1.257  0.2127E+02  0.3588E+03
     -1.144  0.2619E+03  0.3885E+03
     -1.031  0.1318E+03  0.4034E+03
     -0.918  0.2626E+03  0.4330E+03
     -0.805  0.5938E+02  0.4398E+03
     -0.692  0.6638E+02  0.4473E+03
     -0.579  0.6466E+01  0.4480E+03
     -0.466  0.0000E+00  0.4480E+03
     -0.353  0.0000E+00  0.4480E+03
     -0.240  0.0000E+00  0.4480E+03
     -0.127  0.0000E+00  0.4480E+03
     -0.014  0.0000E+00  0.4480E+03
      0.099  0.0000E+00  0.4480E+03
      0.212  0.0000E+00  0.4480E+03
      0.325  0.0000E+00  0.4480E+03
      0.438  0.0000E+00  0.4480E+03
      0.551  0.0000E+00  0.4480E+03
      0.665  0.0000E+00  0.4480E+03
      0.778  0.0000E+00  0.4480E+03
      0.891  0.0000E+00  0.4480E+03
      1.004  0.0000E+00  0.4480E+03
      1.117  0.0000E+00  0.4480E+03
      1.230  0.0000E+00  0.4480E+03
      1.343  0.0000E+00  0.4480E+03
      1.456  0.0000E+00  0.4480E+03
      1.569  0.0000E+00  0.4480E+03
      1.682  0.0000E+00  0.4480E+03
      1.795  0.0000E+00  0.4480E+03
      1.908  0.0000E+00  0.4480E+03
      2.021  0.0000E+00  0.4480E+03
      2.134  0.0000E+00  0.4480E+03
      2.247  0.0000E+00  0.4480E+03
      2.360  0.0000E+00  0.4480E+03
      2.473  0.0000E+00  0.4480E+03
      2.587  0.0000E+00  0.4480E+03
      2.700  0.0000E+00  0.4480E+03
      2.813  0.0000E+00  0.4480E+03
      2.926  0.0000E+00  0.4480E+03
      3.039  0.0000E+00  0.4480E+03
      3.152  0.0000E+00  0.4480E+03
      3.265  0.0000E+00  0.4480E+03
      3.378  0.0000E+00  0.4480E+03
      3.491  0.0000E+00  0.4480E+03
      3.604  0.0000E+00  0.4480E+03
      3.717  0.0000E+00  0.4480E+03
      3.830  0.0000E+00  0.4480E+03
      3.943  0.0000E+00  0.4480E+03
      4.056  0.0000E+00  0.4480E+03
      4.169  0.0000E+00  0.4480E+03
      4.282  0.4781E-04  0.4480E+03
      4.396  0.2211E+01  0.4482E+03
      4.509  0.0000E+00  0.4482E+03
      4.622  0.0000E+00  0.4482E+03
      4.735  0.0000E+00  0.4482E+03
      4.848  0.0000E+00  0.4482E+03
      4.961  0.1163E-03  0.4483E+03
      5.074  0.1327E+02  0.4497E+03
      5.187  0.0000E+00  0.4498E+03
      5.300  0.0000E+00  0.4498E+03
      5.413  0.0000E+00  0.4498E+03
      5.526  0.4815E+01  0.4503E+03
      5.639  0.2172E+02  0.4527E+03
      5.752  0.1002E-05  0.4528E+03
      5.865  0.1749E+02  0.4547E+03
      5.978  0.2047E+00  0.4548E+03
      6.091  0.0000E+00  0.4548E+03
      6.204  0.0000E+00  0.4548E+03
      6.318  0.3526E-02  0.4548E+03
      6.431  0.1467E+02  0.4564E+03
      6.544  0.7435E+01  0.4573E+03
      6.657  0.4709E+02  0.4626E+03
      6.770  0.5904E+02  0.4692E+03
      6.883  0.5954E+02  0.4760E+03
      6.996  0.1289E+02  0.4774E+03
      7.109  0.5506E+00  0.4775E+03
      7.222  0.5693E+01  0.4781E+03
      7.335  0.1697E+01  0.4783E+03
      7.448  0.8378E+02  0.4878E+03
      7.561  0.1665E+03  0.5066E+03
      7.674  0.1144E+01  0.5068E+03
      7.787  0.2647E+02  0.5097E+03
      7.900  0.5882E+00  0.5098E+03
      8.013  0.5248E+02  0.5157E+03
      8.126  0.2454E-01  0.5158E+03
      8.240  0.1528E+02  0.5175E+03
      8.353  0.9084E+02  0.5277E+03
      8.466  0.6874E-04  0.5278E+03
      8.579  0.1540E+03  0.5452E+03
      8.692  0.5184E+01  0.5458E+03
      8.805  0.1271E-04  0.5458E+03
      8.918  0.8923E+02  0.5558E+03
      9.031  0.1191E+03  0.5693E+03
      9.144  0.1686E+01  0.5695E+03
      9.257  0.2998E+02  0.5729E+03
      9.370  0.1424E+02  0.5745E+03
      9.483  0.3548E+01  0.5749E+03
      9.596  0.9720E+01  0.5760E+03
      9.709  0.0000E+00  0.5760E+03
      9.822  0.0000E+00  0.5760E+03
      9.935  0.0000E+00  0.5760E+03
     10.049  0.0000E+00  0.5760E+03
     10.162  0.0000E+00  0.5760E+03
     10.275  0.0000E+00  0.5760E+03
     10.388  0.0000E+00  0.5760E+03
     10.501  0.0000E+00  0.5760E+03
     10.614  0.0000E+00  0.5760E+03
     10.727  0.0000E+00  0.5760E+03
     10.840  0.0000E+00  0.5760E+03
     10.953  0.0000E+00  0.5760E+03
     11.066  0.0000E+00  0.5760E+03
