       N       E                     dE             d eps       ncg     rms          rms(c)
DAV:   1     0.432197843498E+04    0.43220E+04   -0.17164E+05  4608   0.125E+03
DAV:   2     0.363892322831E+03   -0.39581E+04   -0.37659E+04  5120   0.368E+02
DAV:   3    -0.206175096979E+03   -0.57007E+03   -0.56581E+03  5600   0.156E+02
DAV:   4    -0.228191981056E+03   -0.22017E+02   -0.21915E+02  5568   0.331E+01
DAV:   5    -0.229003731734E+03   -0.81175E+00   -0.81030E+00  5728   0.616E+00    0.106E+01
DAV:   6    -0.224139350174E+03    0.48644E+01   -0.94659E+00  5760   0.530E+00    0.776E+00
DAV:   7    -0.223777462478E+03    0.36189E+00   -0.20741E+00  6272   0.234E+00    0.533E+00
DAV:   8    -0.223902803329E+03   -0.12534E+00   -0.26710E-01  5312   0.124E+00    0.143E+00
DAV:   9    -0.223897145283E+03    0.56580E-02   -0.11381E-02  5728   0.260E-01    0.604E-01
DAV:  10    -0.223901440146E+03   -0.42949E-02   -0.18550E-02  5376   0.230E-01    0.289E-01
DAV:  11    -0.223900696567E+03    0.74358E-03   -0.16691E-03  5664   0.829E-02    0.855E-02
DAV:  12    -0.223900662563E+03    0.34004E-04   -0.13175E-04  6272   0.230E-02    0.198E-02
DAV:  13    -0.223900660568E+03    0.19946E-05   -0.25403E-05  5504   0.825E-03    0.318E-03
DAV:  14    -0.223900661564E+03   -0.99529E-06   -0.24149E-06  5472   0.370E-03    0.829E-03
DAV:  15    -0.223900662561E+03   -0.99733E-06   -0.28976E-07  5728   0.156E-03    0.403E-03
DAV:  16    -0.223900663095E+03   -0.53436E-06   -0.14455E-07  5632   0.844E-04    0.108E-03
DAV:  17    -0.223900663234E+03   -0.13908E-06   -0.13080E-08  3968   0.594E-04    0.161E-04
DAV:  18    -0.223900663340E+03   -0.10562E-06   -0.12961E-08  3680   0.381E-04    0.469E-04
DAV:  19    -0.223900663312E+03    0.27685E-07   -0.50014E-09  3072   0.242E-04    0.388E-04
DAV:  20    -0.223900663262E+03    0.50735E-07   -0.18116E-09  3360   0.369E-04    0.238E-04
DAV:  21    -0.223900663217E+03    0.44827E-07   -0.24769E-09  3072   0.144E-04    0.111E-04
DAV:  22    -0.223900663215E+03    0.16516E-08   -0.84717E-10  3072   0.131E-04
   1 F= -.22390066E+03 E0= -.22390066E+03  d E =-.332031E-16
