 vasp.6.3.2 27Jun22 (build Oct 14 2022 12:13:54) complex                        
  
 executed on             LinuxIFC date 2025.08.28  22:03:15
 running on   32 total cores
 distrk:  each k-point on   32 cores,    1 groups
 distr:  one band on NCORE=   1 cores,   32 groups


--------------------------------------------------------------------------------------------------------


 INCAR:
   ENCUT = 341.213600
   SIGMA = 0.020000
   EDIFF = 1.00e-08
   GGA = PS
   PREC = Accurate
   IALGO = 38
   IBRION = -1
   ISMEAR = 0
   NELMIN = 5
   ADDGRID = .TRUE.
   LCHARG = .FALSE.
   LWAVE = .FALSE.
   LREAL = .FALSE.

 POTCAR:    PAW_PBE Na_pv 19Sep2006               
 POTCAR:    PAW_PBE Cl 06Sep2000                  
 -----------------------------------------------------------------------------
|                                                                             |
|           W    W    AA    RRRRR   N    N  II  N    N   GGGG   !!!           |
|           W    W   A  A   R    R  NN   N  II  NN   N  G    G  !!!           |
|           W    W  A    A  R    R  N N  N  II  N N  N  G       !!!           |
|           W WW W  AAAAAA  RRRRR   N  N N  II  N  N N  G  GGG   !            |
|           WW  WW  A    A  R   R   N   NN  II  N   NN  G    G                |
|           W    W  A    A  R    R  N    N  II  N    N   GGGG   !!!           |
|                                                                             |
|     For optimal performance we recommend to set                             |
|       NCORE = 2 up to number-of-cores-per-socket                            |
|     NCORE specifies how many cores store one orbital (NPAR=cpu/NCORE).      |
|     This setting can greatly improve the performance of VASP for DFT.       |
|     The default, NCORE=1 might be grossly inefficient on modern             |
|     multi-core architectures or massively parallel machines. Do your        |
|     own testing! More info at https://www.vasp.at/wiki/index.php/NCORE      |
|     Unfortunately you need to use the default for GW and RPA                |
|     calculations (for HF NCORE is supported but not extensively tested      |
|     yet).                                                                   |
|                                                                             |
 -----------------------------------------------------------------------------

 POTCAR:    PAW_PBE Na_pv 19Sep2006               
   SHA256 =  6a2f546d9e11350984debacf3dc457d8cffc0868e817d445faca461816a32b94 Na_pv/POTCAR          
   COPYR  = (c) Copyright 19Sep2006 Georg Kresse                                                    
   COPYR  = This file is part of the software VASP. Any use, copying, and all other rights are regul
   COPYR  = If you do not have a valid VASP license, you may not use, copy or distribute this file. 
   VRHFIN =Na: p6s1                                                                                 
   LEXCH  = PE                                                                                      
   EATOM  =   766.0439 eV,   56.3026 Ry                                                             
                                                                                                    
   TITEL  = PAW_PBE Na_pv 19Sep2006                                                                 
   LULTRA =        F    use ultrasoft PP ?                                                          
   IUNSCR =        1    unscreen: 0-lin 1-nonlin 2-no                                               
   RPACOR =    1.800    partial core radius                                                         
   POMASS =   22.990; ZVAL   =    7.000    mass and valenz                                          
   RCORE  =    2.200    outmost cutoff radius                                                       
   RWIGS  =    2.200; RWIGS  =    1.164    wigner-seitz radius (au A)                               
   ENMAX  =  259.561; ENMIN  =  194.671 eV                                                          
   ICORE  =        2    local potential                                                             
   LCOR   =        T    correct aug charges                                                         
   LPAW   =        T    paw PP                                                                      
   EAUG   =  368.056                                                                                
   DEXC   =    0.000                                                                                
   RMAX   =    2.245    core radius for proj-oper                                                   
   RAUG   =    1.300    factor for augmentation sphere                                              
   RDEP   =    2.259    radius for radial grids                                                     
   RDEPT  =    1.738    core radius for aug-charge                                                  
                                                                                                    
   Atomic configuration                                                                             
    5 entries                                                                                       
     n  l   j            E        occ.                                                              
     1  0  0.50     -1033.6933   2.0000                                                             
     2  0  0.50       -56.7526   2.0000                                                             
     2  1  1.50       -28.6721   6.0000                                                             
     3  0  0.50        -2.7440   1.0000                                                             
     3  2  1.50        -1.3606   0.0000                                                             
   Description                                                                                      
     l       E           TYP  RCUT    TYP  RCUT                                                     
     1    -28.6720912     23  2.000                                                                 
     1      6.8029130     23  2.000                                                                 
     0     -2.7439560     23  2.200                                                                 
     0     34.0145650     23  2.200                                                                 
     2     -1.3605826     23  2.200                                                                 
  local pseudopotential read in
  partial core-charges read in
  partial kinetic energy density read in
  atomic valenz-charges read in
  non local Contribution for L=           1  read in
    real space projection operators read in
  non local Contribution for L=           1  read in
    real space projection operators read in
  non local Contribution for L=           0  read in
    real space projection operators read in
  non local Contribution for L=           0  read in
    real space projection operators read in
    PAW grid and wavefunctions read in
 
   number of l-projection  operators is LMAX  =           4
   number of lm-projection operators is LMMAX =           8
 
 POTCAR:    PAW_PBE Cl 06Sep2000                  
   SHA256 =  9f1b6e6ed4247ac726a768b330d26d7667cc3c95a39ff49c1d064c2d9dcce931 Cl/POTCAR             
   COPYR  = (c) Copyright 06Sep2000 Georg Kresse                                                    
   COPYR  = This file is part of the software VASP. Any use, copying, and all other rights are regul
   COPYR  = If you do not have a valid VASP license, you may not use, copy or distribute this file. 
   VRHFIN =Cl: s2p5                                                                                 
   LEXCH  = PE                                                                                      
   EATOM  =   409.7259 eV,   30.1140 Ry                                                             
                                                                                                    
   TITEL  = PAW_PBE Cl 06Sep2000                                                                    
   LULTRA =        F    use ultrasoft PP ?                                                          
   IUNSCR =        1    unscreen: 0-lin 1-nonlin 2-no                                               
   RPACOR =    1.500    partial core radius                                                         
   POMASS =   35.453; ZVAL   =    7.000    mass and valenz                                          
   RCORE  =    1.900    outmost cutoff radius                                                       
   RWIGS  =    2.100; RWIGS  =    1.111    wigner-seitz radius (au A)                               
   ENMAX  =  262.472; ENMIN  =  196.854 eV                                                          
   ICORE  =        2    local potential                                                             
   LCOR   =        T    correct aug charges                                                         
   LPAW   =        T    paw PP                                                                      
   EAUG   =  356.192                                                                                
   DEXC   =    0.000                                                                                
   RMAX   =    1.945    core radius for proj-oper                                                   
   RAUG   =    1.300    factor for augmentation sphere                                              
   RDEP   =    2.020    radius for radial grids                                                     
   RDEPT  =    1.678    core radius for aug-charge                                                  
                                                                                                    
   Atomic configuration                                                                             
    6 entries                                                                                       
     n  l   j            E        occ.                                                              
     1  0  0.50     -2751.1850   2.0000                                                             
     2  0  0.50      -252.6861   2.0000                                                             
     2  1  1.50      -191.6157   6.0000                                                             
     3  0  0.50       -20.6916   2.0000                                                             
     3  1  0.50        -8.5949   5.0000                                                             
     3  2  1.50        -8.1635   0.0000                                                             
   Description                                                                                      
     l       E           TYP  RCUT    TYP  RCUT                                                     
     0    -20.6915656     23  1.900                                                                 
     0    -22.0521482     23  1.900                                                                 
     1     -8.5948577     23  1.900                                                                 
     1     -5.3847331     23  1.900                                                                 
     2     -8.1634956     23  1.900                                                                 
  local pseudopotential read in
  partial core-charges read in
  partial kinetic energy density read in
  atomic valenz-charges read in
  non local Contribution for L=           0  read in
    real space projection operators read in
  non local Contribution for L=           0  read in
    real space projection operators read in
  non local Contribution for L=           1  read in
    real space projection operators read in
  non local Contribution for L=           1  read in
    real space projection operators read in
    PAW grid and wavefunctions read in
 
   number of l-projection  operators is LMAX  =           4
   number of lm-projection operators is LMMAX =           8
 
 -----------------------------------------------------------------------------
|                                                                             |
|               ----> ADVICE to this user running VASP <----                  |
|                                                                             |
|     You have a (more or less) 'large supercell' and for larger cells it     |
|     might be more efficient to use real-space projection operators.         |
|     Therefore, try LREAL= Auto in the INCAR file.                           |
|     Mind: For very accurate calculation, you might also keep the            |
|     reciprocal projection scheme (i.e. LREAL=.FALSE.).                      |
|                                                                             |
 -----------------------------------------------------------------------------

 -----------------------------------------------------------------------------
|                                                                             |
|               ----> ADVICE to this user running VASP <----                  |
|                                                                             |
|     You enforced a specific xc type in the INCAR file but a different       |
|     type was found in the POTCAR file.                                      |
|     I HOPE YOU KNOW WHAT YOU ARE DOING!                                     |
|                                                                             |
 -----------------------------------------------------------------------------

  PAW_PBE Na_pv 19Sep2006               :
 energy of atom  1       EATOM= -766.0439
 kinetic energy error for atom=    0.0189 (will be added to EATOM!!)
  PAW_PBE Cl 06Sep2000                  :
 energy of atom  2       EATOM= -409.7259
 kinetic energy error for atom=    0.0106 (will be added to EATOM!!)
 
 
 POSCAR: Na Cl
  positions in cartesian coordinates
  No initial velocities read in
 exchange correlation table for  LEXCH =       14
   RHO(1)=    0.500       N(1)  =     2000
   RHO(2)=  100.500       N(2)  =     4000
 


--------------------------------------------------------------------------------------------------------


 ion  position               nearest neighbor table
   1  0.003  0.000  0.000-
   2  0.250  0.250  0.000-
   3  0.250  0.000  0.250-
   4  0.000  0.250  0.250-
   5  0.000  0.000  0.500-
   6  0.250  0.250  0.500-
   7  0.250  0.000  0.750-
   8  0.000  0.250  0.750-
   9  0.000  0.500  0.000-
  10  0.250  0.750  0.000-
  11  0.250  0.500  0.250-
  12  0.000  0.750  0.250-
  13  0.000  0.500  0.500-
  14  0.250  0.750  0.500-
  15  0.250  0.500  0.750-
  16  0.000  0.750  0.750-
  17  0.500  0.000  0.000-
  18  0.750  0.250  0.000-
  19  0.750  0.000  0.250-
  20  0.500  0.250  0.250-
  21  0.500  0.000  0.500-
  22  0.750  0.250  0.500-
  23  0.750  0.000  0.750-
  24  0.500  0.250  0.750-
  25  0.500  0.500  0.000-
  26  0.750  0.750  0.000-
  27  0.750  0.500  0.250-
  28  0.500  0.750  0.250-
  29  0.500  0.500  0.500-
  30  0.750  0.750  0.500-
  31  0.750  0.500  0.750-
  32  0.500  0.750  0.750-
  33  0.250  0.247  0.250-
  34  0.000  0.000  0.250-
  35  0.000  0.250  0.000-
  36  0.250  0.000  0.000-
  37  0.250  0.250  0.750-
  38  0.000  0.000  0.750-
  39  0.000  0.250  0.500-
  40  0.250  0.000  0.500-
  41  0.250  0.750  0.250-
  42  0.000  0.500  0.250-
  43  0.000  0.750  0.000-
  44  0.250  0.500  0.000-
  45  0.250  0.750  0.750-
  46  0.000  0.500  0.750-
  47  0.000  0.750  0.500-
  48  0.250  0.500  0.500-
  49  0.750  0.250  0.250-
  50  0.500  0.000  0.250-
  51  0.500  0.250  0.000-
  52  0.750  0.000  0.000-
  53  0.750  0.250  0.750-
  54  0.500  0.000  0.750-
  55  0.500  0.250  0.500-
  56  0.750  0.000  0.500-
  57  0.750  0.750  0.250-
  58  0.500  0.500  0.250-
  59  0.500  0.750  0.000-
  60  0.750  0.500  0.000-
  61  0.750  0.750  0.750-
  62  0.500  0.500  0.750-
  63  0.500  0.750  0.500-
  64  0.750  0.500  0.500-
 
  LATTYP: Found a simple cubic cell.
 ALAT       =    11.2040023600
  
  Lattice vectors:
  
 A1 = (  11.2040023600,   0.0000000000,   0.0000000000)
 A2 = (   0.0000000000,  11.2040023600,   0.0000000000)
 A3 = (   0.0000000000,   0.0000000000,  11.2040023600)


Analysis of symmetry for initial positions (statically):
=====================================================================
 Subroutine PRICEL returns:
 Original cell was already a primitive cell.
 

 Routine SETGRP: Setting up the symmetry group for a 
 simple cubic supercell.


 Subroutine GETGRP returns: Found  1 space group operations
 (whereof  1 operations were pure point group operations)
 out of a pool of 48 trial point group operations.


The static configuration has the point symmetry C_1 .


Analysis of symmetry for dynamics (positions and initial velocities):
=====================================================================
 Subroutine PRICEL returns:
 Original cell was already a primitive cell.
 

 Routine SETGRP: Setting up the symmetry group for a 
 simple cubic supercell.


 Subroutine GETGRP returns: Found  1 space group operations
 (whereof  1 operations were pure point group operations)
 out of a pool of 48 trial point group operations.


The dynamic configuration has the point symmetry C_1 .


 Subroutine INISYM returns: Found  1 space group operations
 (whereof  1 operations are pure point group operations),
 and found     1 'primitive' translations


----------------------------------------------------------------------------------------

                                     Primitive cell                                     

  volume of cell :    1406.4347

  direct lattice vectors                    reciprocal lattice vectors
    11.204002360  0.000000000  0.000000000     0.089253819  0.000000000  0.000000000
     0.000000000 11.204002360  0.000000000     0.000000000  0.089253819  0.000000000
     0.000000000  0.000000000 11.204002360     0.000000000  0.000000000  0.089253819

  length of vectors
    11.204002360 11.204002360 11.204002360     0.089253819  0.089253819  0.089253819

  position of ions in fractional coordinates (direct lattice)
     0.002677615  0.000000000  0.000000000
     0.250000000  0.250000000  0.000000000
     0.250000000  0.000000000  0.250000000
     0.000000000  0.250000000  0.250000000
     0.000000000  0.000000000  0.500000000
     0.250000000  0.250000000  0.500000000
     0.250000000  0.000000000  0.750000000
     0.000000000  0.250000000  0.750000000
     0.000000000  0.500000000  0.000000000
     0.250000000  0.750000000  0.000000000
     0.250000000  0.500000000  0.250000000
     0.000000000  0.750000000  0.250000000
     0.000000000  0.500000000  0.500000000
     0.250000000  0.750000000  0.500000000
     0.250000000  0.500000000  0.750000000
     0.000000000  0.750000000  0.750000000
     0.500000000  0.000000000  0.000000000
     0.750000000  0.250000000  0.000000000
     0.750000000  0.000000000  0.250000000
     0.500000000  0.250000000  0.250000000
     0.500000000  0.000000000  0.500000000
     0.750000000  0.250000000  0.500000000
     0.750000000  0.000000000  0.750000000
     0.500000000  0.250000000  0.750000000
     0.500000000  0.500000000  0.000000000
     0.750000000  0.750000000  0.000000000
     0.750000000  0.500000000  0.250000000
     0.500000000  0.750000000  0.250000000
     0.500000000  0.500000000  0.500000000
     0.750000000  0.750000000  0.500000000
     0.750000000  0.500000000  0.750000000
     0.500000000  0.750000000  0.750000000
     0.250000000  0.247322385  0.250000000
     0.000000000  0.000000000  0.250000000
     0.000000000  0.250000000  0.000000000
     0.250000000  0.000000000  0.000000000
     0.250000000  0.250000000  0.750000000
     0.000000000  0.000000000  0.750000000
     0.000000000  0.250000000  0.500000000
     0.250000000  0.000000000  0.500000000
     0.250000000  0.750000000  0.250000000
     0.000000000  0.500000000  0.250000000
     0.000000000  0.750000000  0.000000000
     0.250000000  0.500000000  0.000000000
     0.250000000  0.750000000  0.750000000
     0.000000000  0.500000000  0.750000000
     0.000000000  0.750000000  0.500000000
     0.250000000  0.500000000  0.500000000
     0.750000000  0.250000000  0.250000000
     0.500000000  0.000000000  0.250000000
     0.500000000  0.250000000  0.000000000
     0.750000000  0.000000000  0.000000000
     0.750000000  0.250000000  0.750000000
     0.500000000  0.000000000  0.750000000
     0.500000000  0.250000000  0.500000000
     0.750000000  0.000000000  0.500000000
     0.750000000  0.750000000  0.250000000
     0.500000000  0.500000000  0.250000000
     0.500000000  0.750000000  0.000000000
     0.750000000  0.500000000  0.000000000
     0.750000000  0.750000000  0.750000000
     0.500000000  0.500000000  0.750000000
     0.500000000  0.750000000  0.500000000
     0.750000000  0.500000000  0.500000000

  ion indices of the primitive-cell ions
   primitive index   ion index
                 1           1
                 2           2
                 3           3
                 4           4
                 5           5
                 6           6
                 7           7
                 8           8
                 9           9
                10          10
                11          11
                12          12
                13          13
                14          14
                15          15
                16          16
                17          17
                18          18
                19          19
                20          20
                21          21
                22          22
                23          23
                24          24
                25          25
                26          26
                27          27
                28          28
                29          29
                30          30
                31          31
                32          32
                33          33
                34          34
                35          35
                36          36
                37          37
                38          38
                39          39
                40          40
                41          41
                42          42
                43          43
                44          44
                45          45
                46          46
                47          47
                48          48
                49          49
                50          50
                51          51
                52          52
                53          53
                54          54
                55          55
                56          56
                57          57
                58          58
                59          59
                60          60
                61          61
                62          62
                63          63
                64          64

----------------------------------------------------------------------------------------

 
 
 KPOINTS: KPOINTS created by Atomic Simulation Env

Automatic generation of k-mesh.
 Grid dimensions read from file:
 generate k-points for:    2    2    2

 Generating k-lattice:

  Cartesian coordinates                     Fractional coordinates (reciprocal lattice)
     0.044626910  0.000000000  0.000000000     0.500000000  0.000000000  0.000000000
     0.000000000  0.044626910  0.000000000     0.000000000  0.500000000  0.000000000
     0.000000000  0.000000000  0.044626910     0.000000000  0.000000000  0.500000000

  Length of vectors
     0.044626910  0.044626910  0.044626910

  Shift w.r.t. Gamma in fractional coordinates (k-lattice)
     0.000000000  0.000000000  0.000000000

 
 Subroutine IBZKPT returns following result:
 ===========================================
 
 Found      8 irreducible k-points:
 
 Following reciprocal coordinates:
            Coordinates               Weight
  0.000000  0.000000  0.000000      1.000000
  0.500000  0.000000  0.000000      1.000000
  0.000000  0.500000  0.000000      1.000000
  0.000000  0.000000  0.500000      1.000000
  0.500000  0.500000  0.000000      1.000000
  0.000000  0.500000  0.500000      1.000000
  0.500000  0.000000  0.500000      1.000000
  0.500000  0.500000  0.500000      1.000000
 
 Following cartesian coordinates:
            Coordinates               Weight
  0.000000  0.000000  0.000000      1.000000
  0.044627  0.000000  0.000000      1.000000
  0.000000  0.044627  0.000000      1.000000
  0.000000  0.000000  0.044627      1.000000
  0.044627  0.044627  0.000000      1.000000
  0.000000  0.044627  0.044627      1.000000
  0.044627  0.000000  0.044627      1.000000
  0.044627  0.044627  0.044627      1.000000
 


--------------------------------------------------------------------------------------------------------




 Dimension of arrays:
   k-points           NKPTS =      8   k-points in BZ     NKDIM =      8   number of bands    NBANDS=    288
   number of dos      NEDOS =    301   number of ions     NIONS =     64
   non local maximal  LDIM  =      4   non local SUM 2l+1 LMDIM =      8
   total plane-waves  NPLWV = 343000
   max r-space proj   IRMAX =      1   max aug-charges    IRDMAX=  56280
   dimension x,y,z NGX =    70 NGY =   70 NGZ =   70
   dimension x,y,z NGXF=   140 NGYF=  140 NGZF=  140
   support grid    NGXF=   280 NGYF=  280 NGZF=  280
   ions per type =              32  32
   NGX,Y,Z   is equivalent  to a cutoff of  10.39, 10.39, 10.39 a.u.
   NGXF,Y,Z  is equivalent  to a cutoff of  20.77, 20.77, 20.77 a.u.

 SYSTEM =  unknown system                          
 POSCAR =  Na Cl                                   

 Startparameter for this run:
   NWRITE =      2    write-flag & timer
   PREC   = accura    normal or accurate (medium, high low for compatibility)
   ISTART =      0    job   : 0-new  1-cont  2-samecut
   ICHARG =      2    charge: 1-file 2-atom 10-const
   ISPIN  =      1    spin polarized calculation?
   LNONCOLLINEAR =      F non collinear calculations
   LSORBIT =      F    spin-orbit coupling
   INIWAV =      1    electr: 0-lowe 1-rand  2-diag
   LASPH  =      F    aspherical Exc in radial PAW
 Electronic Relaxation 1
   ENCUT  =  341.2 eV  25.08 Ry    5.01 a.u.  16.87 16.87 16.87*2*pi/ulx,y,z
   ENINI  =  341.2     initial cutoff
   ENAUG  =  368.1 eV  augmentation charge cutoff
   NELM   =     60;   NELMIN=  5; NELMDL= -5     # of ELM steps 
   EDIFF  = 0.1E-07   stopping-criterion for ELM
   LREAL  =      F    real-space projection
   NLSPLINE    = F    spline interpolate recip. space projectors
   LCOMPAT=      F    compatible to vasp.4.4
   GGA_COMPAT  = T    GGA compatible to vasp.4.4-vasp.4.6
   LMAXPAW     = -100 max onsite density
   LMAXMIX     =    2 max onsite mixed and CHGCAR
   VOSKOWN=      0    Vosko Wilk Nusair interpolation
   ROPT   =    0.00000   0.00000
 Ionic relaxation
   EDIFFG = 0.1E-06   stopping-criterion for IOM
   NSW    =      0    number of steps for IOM
   NBLOCK =      1;   KBLOCK =      1    inner block; outer block 
   IBRION =     -1    ionic relax: 0-MD 1-quasi-New 2-CG
   NFREE  =      0    steps in history (QN), initial steepest desc. (CG)
   ISIF   =      2    stress and relaxation
   IWAVPR =     10    prediction:  0-non 1-charg 2-wave 3-comb
   ISYM   =      2    0-nonsym 1-usesym 2-fastsym
   LCORR  =      T    Harris-Foulkes like correction to forces

   POTIM  = 0.5000    time-step for ionic-motion
   TEIN   =    0.0    initial temperature
   TEBEG  =    0.0;   TEEND  =   0.0 temperature during run
   SMASS  =  -3.00    Nose mass-parameter (am)
   estimated Nose-frequenzy (Omega)   =  0.10E-29 period in steps = 0.13E+47 mass=  -0.287E-26a.u.
   SCALEE = 1.0000    scale energy and forces
   NPACO  =    256;   APACO  = 10.0  distance and # of slots for P.C.
   PSTRESS=    0.0 pullay stress

  Mass of Ions in am
   POMASS =  22.99 35.45
  Ionic Valenz
   ZVAL   =   7.00  7.00
  Atomic Wigner-Seitz radii
   RWIGS  =  -1.00 -1.00
  virtual crystal weights 
   VCA    =   1.00  1.00
   NELECT =     448.0000    total number of electrons
   NUPDOWN=      -1.0000    fix difference up-down

 DOS related values:
   EMIN   =  10.00;   EMAX   =-10.00  energy-range for DOS
   EFERMI =   0.00
   ISMEAR =     0;   SIGMA  =   0.02  broadening in eV -4-tet -1-fermi 0-gaus

 Electronic relaxation 2 (details)
   IALGO  =     38    algorithm
   LDIAG  =      T    sub-space diagonalisation (order eigenvalues)
   LSUBROT=      F    optimize rotation matrix (better conditioning)
   TURBO    =      0    0=normal 1=particle mesh
   IRESTART =      0    0=no restart 2=restart with 2 vectors
   NREBOOT  =      0    no. of reboots
   NMIN     =      0    reboot dimension
   EREF     =   0.00    reference energy to select bands
   IMIX   =      4    mixing-type and parameters
     AMIX     =   0.40;   BMIX     =  1.00
     AMIX_MAG =   1.60;   BMIX_MAG =  1.00
     AMIN     =   0.10
     WC   =   100.;   INIMIX=   1;  MIXPRE=   1;  MAXMIX= -45

 Intra band minimization:
   WEIMIN = 0.0000     energy-eigenvalue tresh-hold
   EBREAK =  0.87E-11  absolut break condition
   DEPER  =   0.30     relativ break condition  

   TIME   =   0.40     timestep for ELM

  volume/ion in A,a.u.               =      21.98       148.30
  Fermi-wavevector in a.u.,A,eV,Ry     =   1.118049  2.112807 17.007750  1.250034
  Thomas-Fermi vector in A             =   2.254677
 
 Write flags
   LWAVE        =      F    write WAVECAR
   LDOWNSAMPLE  =      F    k-point downsampling of WAVECAR
   LCHARG       =      F    write CHGCAR
   LVTOT        =      F    write LOCPOT, total local potential
   LVHAR        =      F    write LOCPOT, Hartree potential only
   LELF         =      F    write electronic localiz. function (ELF)
   LORBIT       =      0    0 simple, 1 ext, 2 COOP (PROOUT), +10 PAW based schemes


 Dipole corrections
   LMONO  =      F    monopole corrections only (constant potential shift)
   LDIPOL =      F    correct potential (dipole corrections)
   IDIPOL =      0    1-x, 2-y, 3-z, 4-all directions 
   EPSILON=  1.0000000 bulk dielectric constant

 Exchange correlation treatment:
   GGA     =    PS    GGA type
   LEXCH   =    14    internal setting for exchange type
   LIBXC   =     F    Libxc                    
   VOSKOWN =     0    Vosko Wilk Nusair interpolation
   LHFCALC =     F    Hartree Fock is set to
   LHFONE  =     F    Hartree Fock one center treatment
   AEXX    =    0.0000 exact exchange contribution

 Linear response parameters
   LEPSILON=     F    determine dielectric tensor
   LRPA    =     F    only Hartree local field effects (RPA)
   LNABLA  =     F    use nabla operator in PAW spheres
   LVEL    =     F    velocity operator in full k-point grid
   CSHIFT  =0.1000    complex shift for real part using Kramers Kronig
   OMEGAMAX=  -1.0    maximum frequency
   DEG_THRESHOLD= 0.2000000E-02 threshold for treating states as degnerate
   RTIME   =   -0.100 relaxation time in fs
  (WPLASMAI=    0.000 imaginary part of plasma frequency in eV, 0.658/RTIME)
   DFIELD  = 0.0000000 0.0000000 0.0000000 field for delta impulse in time
 
  Optional k-point grid parameters
   LKPOINTS_OPT  =     F    use optional k-point grid
   KPOINTS_OPT_MODE=     1    mode for optional k-point grid
 
 Orbital magnetization related:
   ORBITALMAG=     F  switch on orbital magnetization
   LCHIMAG   =     F  perturbation theory with respect to B field
   DQ        =  0.001000  dq finite difference perturbation B field
   LLRAUG    =     F  two centre corrections for induced B field



--------------------------------------------------------------------------------------------------------


 Static calculation
 charge density and potential will be updated during run
 non-spin polarized calculation
 Variant of blocked Davidson
 Davidson routine will perform the subspace rotation
 perform sub-space diagonalisation
    after iterative eigenvector-optimisation
 modified Broyden-mixing scheme, WC =      100.0
 initial mixing is a Kerker type mixing with AMIX =  0.4000 and BMIX =      1.0000
 Hartree-type preconditioning will be used
 using additional bands           64
 reciprocal scheme for non local part
 use partial core corrections
 calculate Harris-corrections to forces 
   (improved forces if not selfconsistent)
 use gradient corrections 
 use of overlap-Matrix (Vanderbilt PP)
 Gauss-broadening in eV      SIGMA  =   0.02


--------------------------------------------------------------------------------------------------------


  energy-cutoff  :      341.21
  volume of cell :     1406.43
      direct lattice vectors                 reciprocal lattice vectors
    11.204002360  0.000000000  0.000000000     0.089253819  0.000000000  0.000000000
     0.000000000 11.204002360  0.000000000     0.000000000  0.089253819  0.000000000
     0.000000000  0.000000000 11.204002360     0.000000000  0.000000000  0.089253819

  length of vectors
    11.204002360 11.204002360 11.204002360     0.089253819  0.089253819  0.089253819


 
 k-points in units of 2pi/SCALE and weight: KPOINTS created by Atomic Simulation Env
   0.00000000  0.00000000  0.00000000       0.125
   0.04462691  0.00000000  0.00000000       0.125
   0.00000000  0.04462691  0.00000000       0.125
   0.00000000  0.00000000  0.04462691       0.125
   0.04462691  0.04462691  0.00000000       0.125
   0.00000000  0.04462691  0.04462691       0.125
   0.04462691  0.00000000  0.04462691       0.125
   0.04462691  0.04462691  0.04462691       0.125
 
 k-points in reciprocal lattice and weights: KPOINTS created by Atomic Simulation Env
   0.00000000  0.00000000  0.00000000       0.125
   0.50000000  0.00000000  0.00000000       0.125
   0.00000000  0.50000000  0.00000000       0.125
   0.00000000  0.00000000  0.50000000       0.125
   0.50000000  0.50000000  0.00000000       0.125
   0.00000000  0.50000000  0.50000000       0.125
   0.50000000  0.00000000  0.50000000       0.125
   0.50000000  0.50000000  0.50000000       0.125
 
 position of ions in fractional coordinates (direct lattice) 
   0.00267761  0.00000000  0.00000000
   0.25000000  0.25000000  0.00000000
   0.25000000  0.00000000  0.25000000
   0.00000000  0.25000000  0.25000000
   0.00000000  0.00000000  0.50000000
   0.25000000  0.25000000  0.50000000
   0.25000000  0.00000000  0.75000000
   0.00000000  0.25000000  0.75000000
   0.00000000  0.50000000  0.00000000
   0.25000000  0.75000000  0.00000000
   0.25000000  0.50000000  0.25000000
   0.00000000  0.75000000  0.25000000
   0.00000000  0.50000000  0.50000000
   0.25000000  0.75000000  0.50000000
   0.25000000  0.50000000  0.75000000
   0.00000000  0.75000000  0.75000000
   0.50000000  0.00000000  0.00000000
   0.75000000  0.25000000  0.00000000
   0.75000000  0.00000000  0.25000000
   0.50000000  0.25000000  0.25000000
   0.50000000  0.00000000  0.50000000
   0.75000000  0.25000000  0.50000000
   0.75000000  0.00000000  0.75000000
   0.50000000  0.25000000  0.75000000
   0.50000000  0.50000000  0.00000000
   0.75000000  0.75000000  0.00000000
   0.75000000  0.50000000  0.25000000
   0.50000000  0.75000000  0.25000000
   0.50000000  0.50000000  0.50000000
   0.75000000  0.75000000  0.50000000
   0.75000000  0.50000000  0.75000000
   0.50000000  0.75000000  0.75000000
   0.25000000  0.24732239  0.25000000
   0.00000000  0.00000000  0.25000000
   0.00000000  0.25000000  0.00000000
   0.25000000  0.00000000  0.00000000
   0.25000000  0.25000000  0.75000000
   0.00000000  0.00000000  0.75000000
   0.00000000  0.25000000  0.50000000
   0.25000000  0.00000000  0.50000000
   0.25000000  0.75000000  0.25000000
   0.00000000  0.50000000  0.25000000
   0.00000000  0.75000000  0.00000000
   0.25000000  0.50000000  0.00000000
   0.25000000  0.75000000  0.75000000
   0.00000000  0.50000000  0.75000000
   0.00000000  0.75000000  0.50000000
   0.25000000  0.50000000  0.50000000
   0.75000000  0.25000000  0.25000000
   0.50000000  0.00000000  0.25000000
   0.50000000  0.25000000  0.00000000
   0.75000000  0.00000000  0.00000000
   0.75000000  0.25000000  0.75000000
   0.50000000  0.00000000  0.75000000
   0.50000000  0.25000000  0.50000000
   0.75000000  0.00000000  0.50000000
   0.75000000  0.75000000  0.25000000
   0.50000000  0.50000000  0.25000000
   0.50000000  0.75000000  0.00000000
   0.75000000  0.50000000  0.00000000
   0.75000000  0.75000000  0.75000000
   0.50000000  0.50000000  0.75000000
   0.50000000  0.75000000  0.50000000
   0.75000000  0.50000000  0.50000000
 
 position of ions in cartesian coordinates  (Angst):
   0.03000000  0.00000000  0.00000000
   2.80100059  2.80100059  0.00000000
   2.80100059  0.00000000  2.80100059
   0.00000000  2.80100059  2.80100059
   0.00000000  0.00000000  5.60200118
   2.80100059  2.80100059  5.60200118
   2.80100059  0.00000000  8.40300177
   0.00000000  2.80100059  8.40300177
   0.00000000  5.60200118  0.00000000
   2.80100059  8.40300177  0.00000000
   2.80100059  5.60200118  2.80100059
   0.00000000  8.40300177  2.80100059
   0.00000000  5.60200118  5.60200118
   2.80100059  8.40300177  5.60200118
   2.80100059  5.60200118  8.40300177
   0.00000000  8.40300177  8.40300177
   5.60200118  0.00000000  0.00000000
   8.40300177  2.80100059  0.00000000
   8.40300177  0.00000000  2.80100059
   5.60200118  2.80100059  2.80100059
   5.60200118  0.00000000  5.60200118
   8.40300177  2.80100059  5.60200118
   8.40300177  0.00000000  8.40300177
   5.60200118  2.80100059  8.40300177
   5.60200118  5.60200118  0.00000000
   8.40300177  8.40300177  0.00000000
   8.40300177  5.60200118  2.80100059
   5.60200118  8.40300177  2.80100059
   5.60200118  5.60200118  5.60200118
   8.40300177  8.40300177  5.60200118
   8.40300177  5.60200118  8.40300177
   5.60200118  8.40300177  8.40300177
   2.80100059  2.77100059  2.80100059
   0.00000000  0.00000000  2.80100059
   0.00000000  2.80100059  0.00000000
   2.80100059  0.00000000  0.00000000
   2.80100059  2.80100059  8.40300177
   0.00000000  0.00000000  8.40300177
   0.00000000  2.80100059  5.60200118
   2.80100059  0.00000000  5.60200118
   2.80100059  8.40300177  2.80100059
   0.00000000  5.60200118  2.80100059
   0.00000000  8.40300177  0.00000000
   2.80100059  5.60200118  0.00000000
   2.80100059  8.40300177  8.40300177
   0.00000000  5.60200118  8.40300177
   0.00000000  8.40300177  5.60200118
   2.80100059  5.60200118  5.60200118
   8.40300177  2.80100059  2.80100059
   5.60200118  0.00000000  2.80100059
   5.60200118  2.80100059  0.00000000
   8.40300177  0.00000000  0.00000000
   8.40300177  2.80100059  8.40300177
   5.60200118  0.00000000  8.40300177
   5.60200118  2.80100059  5.60200118
   8.40300177  0.00000000  5.60200118
   8.40300177  8.40300177  2.80100059
   5.60200118  5.60200118  2.80100059
   5.60200118  8.40300177  0.00000000
   8.40300177  5.60200118  0.00000000
   8.40300177  8.40300177  8.40300177
   5.60200118  5.60200118  8.40300177
   5.60200118  8.40300177  5.60200118
   8.40300177  5.60200118  5.60200118
 


--------------------------------------------------------------------------------------------------------


 k-point   1 :   0.0000 0.0000 0.0000  plane waves:   20005
 k-point   2 :   0.5000 0.0000 0.0000  plane waves:   20138
 k-point   3 :   0.0000 0.5000 0.0000  plane waves:   20138
 k-point   4 :   0.0000 0.0000 0.5000  plane waves:   20138
 k-point   5 :   0.5000 0.5000 0.0000  plane waves:   20160
 k-point   6 :   0.0000 0.5000 0.5000  plane waves:   20160
 k-point   7 :   0.5000 0.0000 0.5000  plane waves:   20160
 k-point   8 :   0.5000 0.5000 0.5000  plane waves:   20336

 maximum and minimum number of plane-waves per node :     20336    20005

 maximum number of plane-waves:     20336
 maximum index in each direction: 
   IXMAX=   16   IYMAX=   16   IZMAX=   16
   IXMIN=  -17   IYMIN=  -17   IZMIN=  -17


 serial   3D FFT for wavefunctions
 parallel 3D FFT for charge:
    minimum data exchange during FFTs selected (reduces bandwidth)


 total amount of memory used by VASP MPI-rank0   129658. kBytes
=======================================================================

   base      :      30000. kBytes
   nonl-proj :      41680. kBytes
   fftplans  :      14405. kBytes
   grid      :      19342. kBytes
   one-center:        196. kBytes
   wavefun   :      24035. kBytes
 
     INWAV:  cpu time      0.0000: real time      0.0000
 Broyden mixing: mesh for mixing (old mesh)
   NGX = 33   NGY = 33   NGZ = 33
  (NGX  =140   NGY  =140   NGZ  =140)
  gives a total of  35937 points

 initial charge density was supplied:
 charge density of overlapping atoms calculated
 number of electron     448.0000000 magnetization 
 keeping initial charge density in first step


--------------------------------------------------------------------------------------------------------


 Maximum index for augmentation-charges         1834 (set IRDMAX)


--------------------------------------------------------------------------------------------------------


 First call to EWALD:  gamma=   0.158
 Maximum number of real-space cells 3x 3x 3
 Maximum number of reciprocal cells 3x 3x 3

    FEWALD:  cpu time      0.0014: real time      0.0014


--------------------------------------- Iteration      1(   1)  ---------------------------------------


    POTLOK:  cpu time      0.0419: real time      0.0425
    SETDIJ:  cpu time      0.0324: real time      0.0326
     EDDAV:  cpu time      9.6151: real time      9.6733
       DOS:  cpu time      0.0007: real time      0.0007
    --------------------------------------------
      LOOP:  cpu time      9.6901: real time      9.7491

 eigenvalue-minimisations  :  4608
 total energy-change (2. order) : 0.4321978E+04  (-0.1716430E+05)
 number of electron     448.0000000 magnetization 
 augmentation part      448.0000000 magnetization 

 Free energy of the ion-electron system (eV)
  ---------------------------------------------------
  alpha Z        PSCENC =       751.52672365
  Ewald energy   TEWEN  =    -22871.33539579
  -Hartree energ DENC   =     -8992.25115791
  -exchange      EXHF   =         0.00000000
  -V(xc)+E(xc)   XCENC  =      1456.53426859
  PAW double counting   =     26466.43774078   -29286.08056155
  entropy T*S    EENTRO =        -0.00279393
  eigenvalues    EBANDS =      -735.02985880
  atomic energy  EATOM  =     37532.17946992
  Solvation  Ediel_sol  =         0.00000000
  ---------------------------------------------------
  free energy    TOTEN  =      4321.97843498 eV

  energy without entropy =     4321.98122890  energy(sigma->0) =     4321.97983194


--------------------------------------------------------------------------------------------------------




--------------------------------------- Iteration      1(   2)  ---------------------------------------


     EDDAV:  cpu time     10.4820: real time     10.5413
       DOS:  cpu time      0.0004: real time      0.0004
    --------------------------------------------
      LOOP:  cpu time     10.4824: real time     10.5417

 eigenvalue-minimisations  :  5120
 total energy-change (2. order) :-0.3958086E+04  (-0.3765870E+04)
 number of electron     448.0000000 magnetization 
 augmentation part      448.0000000 magnetization 

 Free energy of the ion-electron system (eV)
  ---------------------------------------------------
  alpha Z        PSCENC =       751.52672365
  Ewald energy   TEWEN  =    -22871.33539579
  -Hartree energ DENC   =     -8992.25115791
  -exchange      EXHF   =         0.00000000
  -V(xc)+E(xc)   XCENC  =      1456.53426859
  PAW double counting   =     26466.43774078   -29286.08056155
  entropy T*S    EENTRO =        -0.00000000
  eigenvalues    EBANDS =     -4693.11876487
  atomic energy  EATOM  =     37532.17946992
  Solvation  Ediel_sol  =         0.00000000
  ---------------------------------------------------
  free energy    TOTEN  =       363.89232283 eV

  energy without entropy =      363.89232283  energy(sigma->0) =      363.89232283


--------------------------------------------------------------------------------------------------------




--------------------------------------- Iteration      1(   3)  ---------------------------------------


     EDDAV:  cpu time     11.2533: real time     11.3169
       DOS:  cpu time      0.0002: real time      0.0002
    --------------------------------------------
      LOOP:  cpu time     11.2535: real time     11.3172

 eigenvalue-minimisations  :  5600
 total energy-change (2. order) :-0.5700674E+03  (-0.5658092E+03)
 number of electron     448.0000000 magnetization 
 augmentation part      448.0000000 magnetization 

 Free energy of the ion-electron system (eV)
  ---------------------------------------------------
  alpha Z        PSCENC =       751.52672365
  Ewald energy   TEWEN  =    -22871.33539579
  -Hartree energ DENC   =     -8992.25115791
  -exchange      EXHF   =         0.00000000
  -V(xc)+E(xc)   XCENC  =      1456.53426859
  PAW double counting   =     26466.43774078   -29286.08056155
  entropy T*S    EENTRO =        -0.00000000
  eigenvalues    EBANDS =     -5263.18618468
  atomic energy  EATOM  =     37532.17946992
  Solvation  Ediel_sol  =         0.00000000
  ---------------------------------------------------
  free energy    TOTEN  =      -206.17509698 eV

  energy without entropy =     -206.17509698  energy(sigma->0) =     -206.17509698


--------------------------------------------------------------------------------------------------------




--------------------------------------- Iteration      1(   4)  ---------------------------------------


     EDDAV:  cpu time     11.2180: real time     11.2827
       DOS:  cpu time      0.0004: real time      0.0004
    --------------------------------------------
      LOOP:  cpu time     11.2184: real time     11.2830

 eigenvalue-minimisations  :  5568
 total energy-change (2. order) :-0.2201688E+02  (-0.2191546E+02)
 number of electron     448.0000000 magnetization 
 augmentation part      448.0000000 magnetization 

 Free energy of the ion-electron system (eV)
  ---------------------------------------------------
  alpha Z        PSCENC =       751.52672365
  Ewald energy   TEWEN  =    -22871.33539579
  -Hartree energ DENC   =     -8992.25115791
  -exchange      EXHF   =         0.00000000
  -V(xc)+E(xc)   XCENC  =      1456.53426859
  PAW double counting   =     26466.43774078   -29286.08056155
  entropy T*S    EENTRO =        -0.00000000
  eigenvalues    EBANDS =     -5285.20306876
  atomic energy  EATOM  =     37532.17946992
  Solvation  Ediel_sol  =         0.00000000
  ---------------------------------------------------
  free energy    TOTEN  =      -228.19198106 eV

  energy without entropy =     -228.19198106  energy(sigma->0) =     -228.19198106


--------------------------------------------------------------------------------------------------------




--------------------------------------- Iteration      1(   5)  ---------------------------------------


     EDDAV:  cpu time     11.4737: real time     11.5416
       DOS:  cpu time      0.0004: real time      0.0004
    CHARGE:  cpu time      0.3255: real time      0.3274
    MIXING:  cpu time      0.0018: real time      0.0018
    --------------------------------------------
      LOOP:  cpu time     11.8014: real time     11.8712

 eigenvalue-minimisations  :  5728
 total energy-change (2. order) :-0.8117507E+00  (-0.8103015E+00)
 number of electron     448.0000022 magnetization 
 augmentation part      111.6434091 magnetization 

 Broyden mixing:
  rms(total) = 0.10608E+01    rms(broyden)= 0.10604E+01
  rms(prec ) = 0.14936E+01
  weight for this iteration     100.00

 Free energy of the ion-electron system (eV)
  ---------------------------------------------------
  alpha Z        PSCENC =       751.52672365
  Ewald energy   TEWEN  =    -22871.33539579
  -Hartree energ DENC   =     -8992.25115791
  -exchange      EXHF   =         0.00000000
  -V(xc)+E(xc)   XCENC  =      1456.53426859
  PAW double counting   =     26466.43774078   -29286.08056155
  entropy T*S    EENTRO =        -0.00000000
  eigenvalues    EBANDS =     -5286.01481944
  atomic energy  EATOM  =     37532.17946992
  Solvation  Ediel_sol  =         0.00000000
  ---------------------------------------------------
  free energy    TOTEN  =      -229.00373173 eV

  energy without entropy =     -229.00373173  energy(sigma->0) =     -229.00373173


--------------------------------------------------------------------------------------------------------




--------------------------------------- Iteration      1(   6)  ---------------------------------------


    POTLOK:  cpu time      0.0360: real time      0.0362
    SETDIJ:  cpu time      0.0298: real time      0.0300
     EDDAV:  cpu time     11.5244: real time     11.5888
       DOS:  cpu time      0.0006: real time      0.0006
    CHARGE:  cpu time      0.3259: real time      0.3276
    MIXING:  cpu time      0.0014: real time      0.0014
    --------------------------------------------
      LOOP:  cpu time     11.9180: real time     11.9845

 eigenvalue-minimisations  :  5760
 total energy-change (2. order) : 0.4864382E+01  (-0.9465942E+00)
 number of electron     448.0000022 magnetization 
 augmentation part      112.4576701 magnetization 

 Broyden mixing:
  rms(total) = 0.77550E+00    rms(broyden)= 0.77545E+00
  rms(prec ) = 0.89165E+00
  weight for this iteration     100.00

 eigenvalues of (default mixing * dielectric matrix)
  average eigenvalue GAMMA=   1.0775
  1.0775

 Free energy of the ion-electron system (eV)
  ---------------------------------------------------
  alpha Z        PSCENC =       751.52672365
  Ewald energy   TEWEN  =    -22871.33539579
  -Hartree energ DENC   =     -9061.74343366
  -exchange      EXHF   =         0.00000000
  -V(xc)+E(xc)   XCENC  =      1465.42751797
  PAW double counting   =     27291.55028384   -30103.52345153
  entropy T*S    EENTRO =        -0.00000000
  eigenvalues    EBANDS =     -5228.22106458
  atomic energy  EATOM  =     37532.17946992
  Solvation  Ediel_sol  =         0.00000000
  ---------------------------------------------------
  free energy    TOTEN  =      -224.13935017 eV

  energy without entropy =     -224.13935017  energy(sigma->0) =     -224.13935017


--------------------------------------------------------------------------------------------------------




--------------------------------------- Iteration      1(   7)  ---------------------------------------


    POTLOK:  cpu time      0.0368: real time      0.0377
    SETDIJ:  cpu time      0.0299: real time      0.0301
     EDDAV:  cpu time     12.3847: real time     12.4536
       DOS:  cpu time      0.0006: real time      0.0006
    CHARGE:  cpu time      0.3256: real time      0.3278
    MIXING:  cpu time      0.0013: real time      0.0013
    --------------------------------------------
      LOOP:  cpu time     12.7788: real time     12.8510

 eigenvalue-minimisations  :  6272
 total energy-change (2. order) : 0.3618877E+00  (-0.2074136E+00)
 number of electron     448.0000022 magnetization 
 augmentation part      112.8277820 magnetization 

 Broyden mixing:
  rms(total) = 0.53293E+00    rms(broyden)= 0.53290E+00
  rms(prec ) = 0.56286E+00
  weight for this iteration     100.00

 eigenvalues of (default mixing * dielectric matrix)
  average eigenvalue GAMMA=   2.1570
  1.4406  2.8734

 Free energy of the ion-electron system (eV)
  ---------------------------------------------------
  alpha Z        PSCENC =       751.52672365
  Ewald energy   TEWEN  =    -22871.33539579
  -Hartree energ DENC   =     -9085.86975131
  -exchange      EXHF   =         0.00000000
  -V(xc)+E(xc)   XCENC  =      1470.13150389
  PAW double counting   =     28330.93716202   -31143.66531715
  entropy T*S    EENTRO =        -0.00000000
  eigenvalues    EBANDS =     -5207.68185772
  atomic energy  EATOM  =     37532.17946992
  Solvation  Ediel_sol  =         0.00000000
  ---------------------------------------------------
  free energy    TOTEN  =      -223.77746248 eV

  energy without entropy =     -223.77746248  energy(sigma->0) =     -223.77746248


--------------------------------------------------------------------------------------------------------




--------------------------------------- Iteration      1(   8)  ---------------------------------------


    POTLOK:  cpu time      0.0357: real time      0.0359
    SETDIJ:  cpu time      0.0299: real time      0.0300
     EDDAV:  cpu time     10.8322: real time     10.8932
       DOS:  cpu time      0.0006: real time      0.0006
    CHARGE:  cpu time      0.3249: real time      0.3267
    MIXING:  cpu time      0.0012: real time      0.0012
    --------------------------------------------
      LOOP:  cpu time     11.2245: real time     11.2877

 eigenvalue-minimisations  :  5312
 total energy-change (2. order) :-0.1253409E+00  (-0.2670967E-01)
 number of electron     448.0000022 magnetization 
 augmentation part      112.8090107 magnetization 

 Broyden mixing:
  rms(total) = 0.14257E+00    rms(broyden)= 0.14257E+00
  rms(prec ) = 0.14550E+00
  weight for this iteration     100.00

 eigenvalues of (default mixing * dielectric matrix)
  average eigenvalue GAMMA=   1.5561
  2.5243  1.3870  0.7571

 Free energy of the ion-electron system (eV)
  ---------------------------------------------------
  alpha Z        PSCENC =       751.52672365
  Ewald energy   TEWEN  =    -22871.33539579
  -Hartree energ DENC   =     -9075.16332801
  -exchange      EXHF   =         0.00000000
  -V(xc)+E(xc)   XCENC  =      1472.33682458
  PAW double counting   =     29810.60996885   -32630.46899005
  entropy T*S    EENTRO =        -0.00000000
  eigenvalues    EBANDS =     -5213.58807649
  atomic energy  EATOM  =     37532.17946992
  Solvation  Ediel_sol  =         0.00000000
  ---------------------------------------------------
  free energy    TOTEN  =      -223.90280333 eV

  energy without entropy =     -223.90280333  energy(sigma->0) =     -223.90280333


--------------------------------------------------------------------------------------------------------




--------------------------------------- Iteration      1(   9)  ---------------------------------------


    POTLOK:  cpu time      0.0360: real time      0.0363
    SETDIJ:  cpu time      0.0299: real time      0.0301
     EDDAV:  cpu time     11.4818: real time     11.5462
       DOS:  cpu time      0.0004: real time      0.0004
    CHARGE:  cpu time      0.3265: real time      0.3283
    MIXING:  cpu time      0.0014: real time      0.0014
    --------------------------------------------
      LOOP:  cpu time     11.8760: real time     11.9427

 eigenvalue-minimisations  :  5728
 total energy-change (2. order) : 0.5658046E-02  (-0.1138113E-02)
 number of electron     448.0000022 magnetization 
 augmentation part      112.8313224 magnetization 

 Broyden mixing:
  rms(total) = 0.60393E-01    rms(broyden)= 0.60392E-01
  rms(prec ) = 0.62455E-01
  weight for this iteration     100.00

 eigenvalues of (default mixing * dielectric matrix)
  average eigenvalue GAMMA=   2.0067
  2.8759  2.7580  0.9993  1.3936

 Free energy of the ion-electron system (eV)
  ---------------------------------------------------
  alpha Z        PSCENC =       751.52672365
  Ewald energy   TEWEN  =    -22871.33539579
  -Hartree energ DENC   =     -9077.92786691
  -exchange      EXHF   =         0.00000000
  -V(xc)+E(xc)   XCENC  =      1472.35612676
  PAW double counting   =     29630.47612922   -32449.48318541
  entropy T*S    EENTRO =        -0.00000000
  eigenvalues    EBANDS =     -5211.68914673
  atomic energy  EATOM  =     37532.17946992
  Solvation  Ediel_sol  =         0.00000000
  ---------------------------------------------------
  free energy    TOTEN  =      -223.89714528 eV

  energy without entropy =     -223.89714528  energy(sigma->0) =     -223.89714528


--------------------------------------------------------------------------------------------------------




--------------------------------------- Iteration      1(  10)  ---------------------------------------


    POTLOK:  cpu time      0.0363: real time      0.0373
    SETDIJ:  cpu time      0.0300: real time      0.0302
     EDDAV:  cpu time     10.9353: real time     10.9960
       DOS:  cpu time      0.0003: real time      0.0003
    CHARGE:  cpu time      0.3272: real time      0.3292
    MIXING:  cpu time      0.0019: real time      0.0020
    --------------------------------------------
      LOOP:  cpu time     11.3311: real time     11.3949

 eigenvalue-minimisations  :  5376
 total energy-change (2. order) :-0.4294863E-02  (-0.1855020E-02)
 number of electron     448.0000022 magnetization 
 augmentation part      112.8609335 magnetization 

 Broyden mixing:
  rms(total) = 0.28920E-01    rms(broyden)= 0.28918E-01
  rms(prec ) = 0.31009E-01
  weight for this iteration     100.00

 eigenvalues of (default mixing * dielectric matrix)
  average eigenvalue GAMMA=   1.7102
  2.9383  2.5092  1.2943  1.0228  0.7865

 Free energy of the ion-electron system (eV)
  ---------------------------------------------------
  alpha Z        PSCENC =       751.52672365
  Ewald energy   TEWEN  =    -22871.33539579
  -Hartree energ DENC   =     -9079.47021103
  -exchange      EXHF   =         0.00000000
  -V(xc)+E(xc)   XCENC  =      1472.60864300
  PAW double counting   =     29455.80262004   -32275.04047740
  entropy T*S    EENTRO =        -0.00000000
  eigenvalues    EBANDS =     -5210.17281254
  atomic energy  EATOM  =     37532.17946992
  Solvation  Ediel_sol  =         0.00000000
  ---------------------------------------------------
  free energy    TOTEN  =      -223.90144015 eV

  energy without entropy =     -223.90144015  energy(sigma->0) =     -223.90144015


--------------------------------------------------------------------------------------------------------




--------------------------------------- Iteration      1(  11)  ---------------------------------------


    POTLOK:  cpu time      0.0361: real time      0.0403
    SETDIJ:  cpu time      0.0299: real time      0.0300
     EDDAV:  cpu time     11.3892: real time     11.4531
       DOS:  cpu time      0.0004: real time      0.0004
    CHARGE:  cpu time      0.3305: real time      0.3323
    MIXING:  cpu time      0.0017: real time      0.0017
    --------------------------------------------
      LOOP:  cpu time     11.7877: real time     11.8579

 eigenvalue-minimisations  :  5664
 total energy-change (2. order) : 0.7435798E-03  (-0.1669076E-03)
 number of electron     448.0000022 magnetization 
 augmentation part      112.8515568 magnetization 

 Broyden mixing:
  rms(total) = 0.85534E-02    rms(broyden)= 0.85533E-02
  rms(prec ) = 0.89812E-02
  weight for this iteration     100.00

 eigenvalues of (default mixing * dielectric matrix)
  average eigenvalue GAMMA=   1.5557
  2.9180  2.4530  1.3169  1.0115  0.8172  0.8172

 Free energy of the ion-electron system (eV)
  ---------------------------------------------------
  alpha Z        PSCENC =       751.52672365
  Ewald energy   TEWEN  =    -22871.33539579
  -Hartree energ DENC   =     -9078.34842649
  -exchange      EXHF   =         0.00000000
  -V(xc)+E(xc)   XCENC  =      1472.52969528
  PAW double counting   =     29487.52699167   -32306.90561906
  entropy T*S    EENTRO =        -0.00000000
  eigenvalues    EBANDS =     -5211.07413576
  atomic energy  EATOM  =     37532.17946992
  Solvation  Ediel_sol  =         0.00000000
  ---------------------------------------------------
  free energy    TOTEN  =      -223.90069657 eV

  energy without entropy =     -223.90069657  energy(sigma->0) =     -223.90069657


--------------------------------------------------------------------------------------------------------




--------------------------------------- Iteration      1(  12)  ---------------------------------------


    POTLOK:  cpu time      0.0363: real time      0.0366
    SETDIJ:  cpu time      0.0303: real time      0.0304
     EDDAV:  cpu time     12.3821: real time     12.4523
       DOS:  cpu time      0.0006: real time      0.0006
    CHARGE:  cpu time      0.3252: real time      0.3271
    MIXING:  cpu time      0.0016: real time      0.0016
    --------------------------------------------
      LOOP:  cpu time     12.7760: real time     12.8486

 eigenvalue-minimisations  :  6272
 total energy-change (2. order) : 0.3400363E-04  (-0.1317494E-04)
 number of electron     448.0000022 magnetization 
 augmentation part      112.8490220 magnetization 

 Broyden mixing:
  rms(total) = 0.19827E-02    rms(broyden)= 0.19822E-02
  rms(prec ) = 0.22578E-02
  weight for this iteration     100.00

 eigenvalues of (default mixing * dielectric matrix)
  average eigenvalue GAMMA=   1.5827
  2.8916  2.4302  1.4584  1.2229  1.2229  1.0564  0.7962

 Free energy of the ion-electron system (eV)
  ---------------------------------------------------
  alpha Z        PSCENC =       751.52672365
  Ewald energy   TEWEN  =    -22871.33539579
  -Hartree energ DENC   =     -9078.20877515
  -exchange      EXHF   =         0.00000000
  -V(xc)+E(xc)   XCENC  =      1472.51991162
  PAW double counting   =     29497.44903135   -32316.82562746
  entropy T*S    EENTRO =        -0.00000000
  eigenvalues    EBANDS =     -5211.20600071
  atomic energy  EATOM  =     37532.17946992
  Solvation  Ediel_sol  =         0.00000000
  ---------------------------------------------------
  free energy    TOTEN  =      -223.90066256 eV

  energy without entropy =     -223.90066256  energy(sigma->0) =     -223.90066256


--------------------------------------------------------------------------------------------------------




--------------------------------------- Iteration      1(  13)  ---------------------------------------


    POTLOK:  cpu time      0.0366: real time      0.0376
    SETDIJ:  cpu time      0.0300: real time      0.0301
     EDDAV:  cpu time     11.1398: real time     11.2026
       DOS:  cpu time      0.0004: real time      0.0004
    CHARGE:  cpu time      0.3275: real time      0.3298
    MIXING:  cpu time      0.0018: real time      0.0018
    --------------------------------------------
      LOOP:  cpu time     11.5359: real time     11.6022

 eigenvalue-minimisations  :  5504
 total energy-change (2. order) : 0.1994558E-05  (-0.2540329E-05)
 number of electron     448.0000022 magnetization 
 augmentation part      112.8478513 magnetization 

 Broyden mixing:
  rms(total) = 0.31780E-03    rms(broyden)= 0.31704E-03
  rms(prec ) = 0.38599E-03
  weight for this iteration     100.00

 eigenvalues of (default mixing * dielectric matrix)
  average eigenvalue GAMMA=   1.6242
  2.9848  2.3723  2.3723  1.2103  1.0746  0.9642  1.0074  1.0074

 Free energy of the ion-electron system (eV)
  ---------------------------------------------------
  alpha Z        PSCENC =       751.52672365
  Ewald energy   TEWEN  =    -22871.33539579
  -Hartree energ DENC   =     -9078.12193104
  -exchange      EXHF   =         0.00000000
  -V(xc)+E(xc)   XCENC  =      1472.51118353
  PAW double counting   =     29498.44864007   -32317.82192430
  entropy T*S    EENTRO =        -0.00000000
  eigenvalues    EBANDS =     -5211.28742662
  atomic energy  EATOM  =     37532.17946992
  Solvation  Ediel_sol  =         0.00000000
  ---------------------------------------------------
  free energy    TOTEN  =      -223.90066057 eV

  energy without entropy =     -223.90066057  energy(sigma->0) =     -223.90066057


--------------------------------------------------------------------------------------------------------




--------------------------------------- Iteration      1(  14)  ---------------------------------------


    POTLOK:  cpu time      0.0360: real time      0.0362
    SETDIJ:  cpu time      0.0299: real time      0.0300
     EDDAV:  cpu time     11.0843: real time     11.1463
       DOS:  cpu time      0.0005: real time      0.0005
    CHARGE:  cpu time      0.3236: real time      0.3253
    MIXING:  cpu time      0.0017: real time      0.0017
    --------------------------------------------
      LOOP:  cpu time     11.4759: real time     11.5401

 eigenvalue-minimisations  :  5472
 total energy-change (2. order) :-0.9952855E-06  (-0.2414855E-06)
 number of electron     448.0000022 magnetization 
 augmentation part      112.8477199 magnetization 

 Broyden mixing:
  rms(total) = 0.82891E-03    rms(broyden)= 0.82886E-03
  rms(prec ) = 0.84878E-03
  weight for this iteration     100.00

 eigenvalues of (default mixing * dielectric matrix)
  average eigenvalue GAMMA=   1.6470
  3.0285  2.6223  2.6223  1.3691  1.2201  1.2201  0.9626  0.9626  0.8153

 Free energy of the ion-electron system (eV)
  ---------------------------------------------------
  alpha Z        PSCENC =       751.52672365
  Ewald energy   TEWEN  =    -22871.33539579
  -Hartree energ DENC   =     -9078.13030692
  -exchange      EXHF   =         0.00000000
  -V(xc)+E(xc)   XCENC  =      1472.51240594
  PAW double counting   =     29499.96961959   -32319.33843756
  entropy T*S    EENTRO =        -0.00000000
  eigenvalues    EBANDS =     -5211.28474040
  atomic energy  EATOM  =     37532.17946992
  Solvation  Ediel_sol  =         0.00000000
  ---------------------------------------------------
  free energy    TOTEN  =      -223.90066156 eV

  energy without entropy =     -223.90066156  energy(sigma->0) =     -223.90066156


--------------------------------------------------------------------------------------------------------




--------------------------------------- Iteration      1(  15)  ---------------------------------------


    POTLOK:  cpu time      0.0356: real time      0.0359
    SETDIJ:  cpu time      0.0299: real time      0.0301
     EDDAV:  cpu time     11.4872: real time     11.5519
       DOS:  cpu time      0.0005: real time      0.0005
    CHARGE:  cpu time      0.3254: real time      0.3272
    MIXING:  cpu time      0.0015: real time      0.0015
    --------------------------------------------
      LOOP:  cpu time     11.8801: real time     11.9470

 eigenvalue-minimisations  :  5728
 total energy-change (2. order) :-0.9973301E-06  (-0.2897551E-07)
 number of electron     448.0000022 magnetization 
 augmentation part      112.8477439 magnetization 

 Broyden mixing:
  rms(total) = 0.40320E-03    rms(broyden)= 0.40317E-03
  rms(prec ) = 0.41567E-03
  weight for this iteration     100.00

 eigenvalues of (default mixing * dielectric matrix)
  average eigenvalue GAMMA=   1.6079
  3.0725  2.6080  2.6080  1.4236  1.3328  1.3328  0.9277  0.9277  0.9598  0.8866

 Free energy of the ion-electron system (eV)
  ---------------------------------------------------
  alpha Z        PSCENC =       751.52672365
  Ewald energy   TEWEN  =    -22871.33539579
  -Hartree energ DENC   =     -9078.15268006
  -exchange      EXHF   =         0.00000000
  -V(xc)+E(xc)   XCENC  =      1472.51288311
  PAW double counting   =     29499.06534043   -32318.43150660
  entropy T*S    EENTRO =        -0.00000000
  eigenvalues    EBANDS =     -5211.26549723
  atomic energy  EATOM  =     37532.17946992
  Solvation  Ediel_sol  =         0.00000000
  ---------------------------------------------------
  free energy    TOTEN  =      -223.90066256 eV

  energy without entropy =     -223.90066256  energy(sigma->0) =     -223.90066256


--------------------------------------------------------------------------------------------------------




--------------------------------------- Iteration      1(  16)  ---------------------------------------


    POTLOK:  cpu time      0.0365: real time      0.0373
    SETDIJ:  cpu time      0.0298: real time      0.0299
     EDDAV:  cpu time     11.3373: real time     11.4006
       DOS:  cpu time      0.0002: real time      0.0002
    CHARGE:  cpu time      0.3278: real time      0.3297
    MIXING:  cpu time      0.0018: real time      0.0018
    --------------------------------------------
      LOOP:  cpu time     11.7334: real time     11.7995

 eigenvalue-minimisations  :  5632
 total energy-change (2. order) :-0.5343609E-06  (-0.1445544E-07)
 number of electron     448.0000022 magnetization 
 augmentation part      112.8478311 magnetization 

 Broyden mixing:
  rms(total) = 0.10848E-03    rms(broyden)= 0.10838E-03
  rms(prec ) = 0.11385E-03
  weight for this iteration     100.00

 eigenvalues of (default mixing * dielectric matrix)
  average eigenvalue GAMMA=   1.6385
  3.1318  2.6408  2.4990  1.7329  1.7329  1.3217  1.1129  1.1129  0.9155  0.9155
  0.9075

 Free energy of the ion-electron system (eV)
  ---------------------------------------------------
  alpha Z        PSCENC =       751.52672365
  Ewald energy   TEWEN  =    -22871.33539579
  -Hartree energ DENC   =     -9078.16290350
  -exchange      EXHF   =         0.00000000
  -V(xc)+E(xc)   XCENC  =      1472.51332609
  PAW double counting   =     29498.49919185   -32317.86452282
  entropy T*S    EENTRO =        -0.00000000
  eigenvalues    EBANDS =     -5211.25655251
  atomic energy  EATOM  =     37532.17946992
  Solvation  Ediel_sol  =         0.00000000
  ---------------------------------------------------
  free energy    TOTEN  =      -223.90066310 eV

  energy without entropy =     -223.90066310  energy(sigma->0) =     -223.90066310


--------------------------------------------------------------------------------------------------------




--------------------------------------- Iteration      1(  17)  ---------------------------------------


    POTLOK:  cpu time      0.0377: real time      0.0416
    SETDIJ:  cpu time      0.0305: real time      0.0306
     EDDAV:  cpu time      8.7247: real time      8.7737
       DOS:  cpu time      0.0002: real time      0.0002
    CHARGE:  cpu time      0.3278: real time      0.3296
    MIXING:  cpu time      0.0017: real time      0.0017
    --------------------------------------------
      LOOP:  cpu time      9.1226: real time      9.1774

 eigenvalue-minimisations  :  3968
 total energy-change (2. order) :-0.1390799E-06  (-0.1308024E-08)
 number of electron     448.0000022 magnetization 
 augmentation part      112.8478494 magnetization 

 Broyden mixing:
  rms(total) = 0.16057E-04    rms(broyden)= 0.15450E-04
  rms(prec ) = 0.23598E-04
  weight for this iteration     100.00

 eigenvalues of (default mixing * dielectric matrix)
  average eigenvalue GAMMA=   1.6105
  3.1523  2.9044  2.2033  2.1013  1.3815  1.3815  1.2221  1.2221  0.9792  0.9792
  0.9123  0.8873

 Free energy of the ion-electron system (eV)
  ---------------------------------------------------
  alpha Z        PSCENC =       751.52672365
  Ewald energy   TEWEN  =    -22871.33539579
  -Hartree energ DENC   =     -9078.16543243
  -exchange      EXHF   =         0.00000000
  -V(xc)+E(xc)   XCENC  =      1472.51337949
  PAW double counting   =     29498.27845601   -32317.64329461
  entropy T*S    EENTRO =        -0.00000000
  eigenvalues    EBANDS =     -5211.25456949
  atomic energy  EATOM  =     37532.17946992
  Solvation  Ediel_sol  =         0.00000000
  ---------------------------------------------------
  free energy    TOTEN  =      -223.90066323 eV

  energy without entropy =     -223.90066323  energy(sigma->0) =     -223.90066323


--------------------------------------------------------------------------------------------------------




--------------------------------------- Iteration      1(  18)  ---------------------------------------


    POTLOK:  cpu time      0.0365: real time      0.0368
    SETDIJ:  cpu time      0.0302: real time      0.0304
     EDDAV:  cpu time      8.2634: real time      8.3103
       DOS:  cpu time      0.0002: real time      0.0002
    CHARGE:  cpu time      0.3236: real time      0.3253
    MIXING:  cpu time      0.0019: real time      0.0019
    --------------------------------------------
      LOOP:  cpu time      8.6559: real time      8.7049

 eigenvalue-minimisations  :  3680
 total energy-change (2. order) :-0.1056178E-06  (-0.1296079E-08)
 number of electron     448.0000022 magnetization 
 augmentation part      112.8478671 magnetization 

 Broyden mixing:
  rms(total) = 0.46896E-04    rms(broyden)= 0.46692E-04
  rms(prec ) = 0.48905E-04
  weight for this iteration     100.00

 eigenvalues of (default mixing * dielectric matrix)
  average eigenvalue GAMMA=   1.5376
  3.1812  2.9230  2.2695  2.2695  1.2338  1.2338  1.0089  1.0089  1.1955  1.1955
  0.9216  0.8648  0.6832

 Free energy of the ion-electron system (eV)
  ---------------------------------------------------
  alpha Z        PSCENC =       751.52672365
  Ewald energy   TEWEN  =    -22871.33539579
  -Hartree energ DENC   =     -9078.16882418
  -exchange      EXHF   =         0.00000000
  -V(xc)+E(xc)   XCENC  =      1472.51351466
  PAW double counting   =     29498.20748698   -32317.57206504
  entropy T*S    EENTRO =        -0.00000000
  eigenvalues    EBANDS =     -5211.25157354
  atomic energy  EATOM  =     37532.17946992
  Solvation  Ediel_sol  =         0.00000000
  ---------------------------------------------------
  free energy    TOTEN  =      -223.90066334 eV

  energy without entropy =     -223.90066334  energy(sigma->0) =     -223.90066334


--------------------------------------------------------------------------------------------------------




--------------------------------------- Iteration      1(  19)  ---------------------------------------


    POTLOK:  cpu time      0.0370: real time      0.0385
    SETDIJ:  cpu time      0.0310: real time      0.0312
     EDDAV:  cpu time      7.3083: real time      7.3488
       DOS:  cpu time      0.0002: real time      0.0002
    CHARGE:  cpu time      0.3243: real time      0.3266
    MIXING:  cpu time      0.0023: real time      0.0023
    --------------------------------------------
      LOOP:  cpu time      7.7031: real time      7.7475

 eigenvalue-minimisations  :  3072
 total energy-change (2. order) : 0.2768502E-07  (-0.5001362E-09)
 number of electron     448.0000022 magnetization 
 augmentation part      112.8478661 magnetization 

 Broyden mixing:
  rms(total) = 0.38783E-04    rms(broyden)= 0.38538E-04
  rms(prec ) = 0.40278E-04
  weight for this iteration     100.00

 eigenvalues of (default mixing * dielectric matrix)
  average eigenvalue GAMMA=   1.6012
  3.3720  2.9481  2.4202  2.4202  1.4643  1.4643  1.2047  1.2047  1.2678  1.0617
  0.9747  0.8337  0.8902  0.8902

 Free energy of the ion-electron system (eV)
  ---------------------------------------------------
  alpha Z        PSCENC =       751.52672365
  Ewald energy   TEWEN  =    -22871.33539579
  -Hartree energ DENC   =     -9078.16865628
  -exchange      EXHF   =         0.00000000
  -V(xc)+E(xc)   XCENC  =      1472.51351518
  PAW double counting   =     29498.23033418   -32317.59496091
  entropy T*S    EENTRO =        -0.00000000
  eigenvalues    EBANDS =     -5211.25169328
  atomic energy  EATOM  =     37532.17946992
  Solvation  Ediel_sol  =         0.00000000
  ---------------------------------------------------
  free energy    TOTEN  =      -223.90066331 eV

  energy without entropy =     -223.90066331  energy(sigma->0) =     -223.90066331


--------------------------------------------------------------------------------------------------------




--------------------------------------- Iteration      1(  20)  ---------------------------------------


    POTLOK:  cpu time      0.0367: real time      0.0369
    SETDIJ:  cpu time      0.0301: real time      0.0303
     EDDAV:  cpu time      7.7654: real time      7.8080
       DOS:  cpu time      0.0002: real time      0.0002
    CHARGE:  cpu time      0.3240: real time      0.3259
    MIXING:  cpu time      0.0020: real time      0.0020
    --------------------------------------------
      LOOP:  cpu time      8.1583: real time      8.2033

 eigenvalue-minimisations  :  3360
 total energy-change (2. order) : 0.5073525E-07  (-0.1811585E-09)
 number of electron     448.0000022 magnetization 
 augmentation part      112.8478624 magnetization 

 Broyden mixing:
  rms(total) = 0.23816E-04    rms(broyden)= 0.23416E-04
  rms(prec ) = 0.24159E-04
  weight for this iteration     100.00

 eigenvalues of (default mixing * dielectric matrix)
  average eigenvalue GAMMA=   1.6295
  3.7030  2.9404  2.5504  2.5504  1.9919  1.3311  1.3311  1.2306  1.2306  1.0214
  1.0214  0.9715  0.9715  0.7987  0.7987

 Free energy of the ion-electron system (eV)
  ---------------------------------------------------
  alpha Z        PSCENC =       751.52672365
  Ewald energy   TEWEN  =    -22871.33539579
  -Hartree energ DENC   =     -9078.16782371
  -exchange      EXHF   =         0.00000000
  -V(xc)+E(xc)   XCENC  =      1472.51347368
  PAW double counting   =     29498.25841814   -32317.62303771
  entropy T*S    EENTRO =        -0.00000000
  eigenvalues    EBANDS =     -5211.25249145
  atomic energy  EATOM  =     37532.17946992
  Solvation  Ediel_sol  =         0.00000000
  ---------------------------------------------------
  free energy    TOTEN  =      -223.90066326 eV

  energy without entropy =     -223.90066326  energy(sigma->0) =     -223.90066326


--------------------------------------------------------------------------------------------------------




--------------------------------------- Iteration      1(  21)  ---------------------------------------


    POTLOK:  cpu time      0.0363: real time      0.0366
    SETDIJ:  cpu time      0.0306: real time      0.0308
     EDDAV:  cpu time      7.3076: real time      7.3479
       DOS:  cpu time      0.0002: real time      0.0002
    CHARGE:  cpu time      0.3234: real time      0.3257
    MIXING:  cpu time      0.0022: real time      0.0022
    --------------------------------------------
      LOOP:  cpu time      7.7003: real time      7.7434

 eigenvalue-minimisations  :  3072
 total energy-change (2. order) : 0.4482717E-07  (-0.2476906E-09)
 number of electron     448.0000022 magnetization 
 augmentation part      112.8478578 magnetization 

 Broyden mixing:
  rms(total) = 0.11123E-04    rms(broyden)= 0.10237E-04
  rms(prec ) = 0.10923E-04
  weight for this iteration     100.00

 eigenvalues of (default mixing * dielectric matrix)
  average eigenvalue GAMMA=   1.5611
  3.8841  2.9506  2.7671  2.3730  1.8385  1.1937  1.1937  1.3170  1.3170  1.0191
  1.0191  0.9364  0.9364  0.7822  0.7822  0.6668

 Free energy of the ion-electron system (eV)
  ---------------------------------------------------
  alpha Z        PSCENC =       751.52672365
  Ewald energy   TEWEN  =    -22871.33539579
  -Hartree energ DENC   =     -9078.16691630
  -exchange      EXHF   =         0.00000000
  -V(xc)+E(xc)   XCENC  =      1472.51343555
  PAW double counting   =     29498.29699219   -32317.66164230
  entropy T*S    EENTRO =        -0.00000000
  eigenvalues    EBANDS =     -5211.25333016
  atomic energy  EATOM  =     37532.17946992
  Solvation  Ediel_sol  =         0.00000000
  ---------------------------------------------------
  free energy    TOTEN  =      -223.90066322 eV

  energy without entropy =     -223.90066322  energy(sigma->0) =     -223.90066322


--------------------------------------------------------------------------------------------------------




--------------------------------------- Iteration      1(  22)  ---------------------------------------


    POTLOK:  cpu time      0.0374: real time      0.0377
    SETDIJ:  cpu time      0.0327: real time      0.0328
     EDDAV:  cpu time      7.3319: real time      7.3727
       DOS:  cpu time      0.0002: real time      0.0002
    --------------------------------------------
[...]
         0         1         2         3         4         5         6         7         8         9
 total charge-density along one line
 
 pseudopotential strength for first ion, spin component:           1
-25.385   0.000   0.000   2.509  -0.000  -0.000  -0.000  -0.000
  0.000 -25.385   0.000  -0.000   2.509  -0.000  -0.000  -0.000
  0.000   0.000 -25.385  -0.000  -0.000   2.509  -0.000  -0.001
  2.509  -0.000  -0.000   6.529   0.000   0.000  -0.000  -0.000
 -0.000   2.509  -0.000   0.000   6.529   0.000   0.000  -0.000
 -0.000  -0.000   2.509   0.000   0.000   6.529   0.000   0.000
 -0.000  -0.000  -0.000  -0.000   0.000   0.000   1.428   6.993
 -0.000  -0.000  -0.001  -0.000  -0.000   0.000   6.993  33.988
 total augmentation occupancy for first ion, spin component:           1
  2.002  -0.000  -0.000   0.002  -0.000  -0.000   0.000  -0.000
 -0.000   2.002  -0.000  -0.000   0.002  -0.000   0.000  -0.000
 -0.000  -0.000   2.002  -0.000  -0.000   0.002   0.001  -0.000
  0.002  -0.000  -0.000   0.017  -0.000  -0.000  -0.000   0.000
 -0.000   0.002  -0.000  -0.000   0.017  -0.000   0.000   0.000
 -0.000  -0.000   0.002  -0.000  -0.000   0.018   0.003  -0.000
  0.000   0.000   0.001  -0.000   0.000   0.003   0.403  -0.001
 -0.000  -0.000  -0.000   0.000   0.000  -0.000  -0.001   0.000


------------------------ aborting loop because EDIFF is reached ----------------------------------------


    CHARGE:  cpu time      0.3272: real time      0.3293
    FORLOC:  cpu time      0.0112: real time      0.0112
    FORNL :  cpu time      2.2228: real time      2.2361
    STRESS:  cpu time     12.4704: real time     12.5363
    FORCOR:  cpu time      0.0432: real time      0.0434
    FORHAR:  cpu time      0.0172: real time      0.0172
    MIXING:  cpu time      0.0013: real time      0.0013
    OFIELD:  cpu time      0.0000: real time      0.0000

  FORCE on cell =-STRESS in cart. coord.  units (eV):
  Direction    XX          YY          ZZ          XY          YZ          ZX
  --------------------------------------------------------------------------------------
  Alpha Z   751.52672   751.52672   751.52672
  Ewald   -7623.77761 -7623.77761 -7623.91751     0.00264     0.00447     0.00447
  Hartree  3026.07440  3026.06688  3026.02596     0.00210     0.00340     0.00351
  E(xc)   -2014.34812 -2014.34811 -2014.34818     0.00000     0.00000     0.00000
  Local   -2024.95939 -2024.94956 -2024.77347    -0.00475    -0.00781    -0.00793
  n-local  1887.62629  1887.62598  1887.62062    -0.00000    -0.00001    -0.00002
  augment   687.00911   687.00933   687.00911     0.00000    -0.00010    -0.00010
  Kinetic  5310.52651  5310.52447  5310.52438    -0.00001    -0.00009    -0.00005
  Fock        0.00000     0.00000     0.00000     0.00000     0.00000     0.00000
  -------------------------------------------------------------------------------------
  Total      -0.32209    -0.32189    -0.33237    -0.00001    -0.00014    -0.00012
  in kB      -0.36691    -0.36669    -0.37863    -0.00001    -0.00016    -0.00013
  external pressure =       -0.37 kB  Pullay stress =        0.00 kB


 VOLUME and BASIS-vectors are now :
 -----------------------------------------------------------------------------
  energy-cutoff  :      341.21
  volume of cell :     1406.43
      direct lattice vectors                 reciprocal lattice vectors
    11.204002360  0.000000000  0.000000000     0.089253819  0.000000000  0.000000000
     0.000000000 11.204002360  0.000000000     0.000000000  0.089253819  0.000000000
     0.000000000  0.000000000 11.204002360     0.000000000  0.000000000  0.089253819

  length of vectors
    11.204002360 11.204002360 11.204002360     0.089253819  0.089253819  0.089253819


 FORCES acting on ions
    electron-ion (+dipol)            ewald-force                    non-local-force                 convergence-correction
 -----------------------------------------------------------------------------------------------
   0.420E+01 0.637E-01 0.171E+00   -.414E+01 -.630E-01 -.164E+00   -.122E+00 -.433E-03 -.611E-02   -.972E-06 -.105E-06 0.191E-05
   -.242E+00 -.141E+01 -.159E-01   0.247E+00 0.140E+01 0.153E-01   -.292E-02 0.103E-01 0.757E-03   0.273E-06 0.293E-05 -.155E-06
   -.242E+00 0.218E+01 -.446E+00   0.247E+00 -.206E+01 0.479E+00   -.292E-02 -.143E+00 -.273E-01   -.126E-06 -.134E-06 0.152E-05
   0.284E+00 -.959E+00 0.247E-02   -.293E+00 0.916E+00 -.259E-02   0.728E-02 0.377E-01 0.102E-03   0.343E-06 -.686E-06 -.182E-06
   0.332E+00 0.620E-01 -.168E+00   -.324E+00 -.614E-01 0.161E+00   -.637E-02 -.397E-03 0.608E-02   0.293E-05 0.377E-07 -.172E-05
   -.721E-02 -.100E+01 0.160E-01   0.709E-02 0.958E+00 -.153E-01   0.944E-04 0.380E-01 -.832E-03   0.486E-06 -.498E-06 -.472E-06
   -.242E+00 0.151E-01 0.445E+00   0.247E+00 -.162E-01 -.479E+00   -.292E-02 0.931E-03 0.273E-01   0.302E-06 -.623E-06 -.184E-05
   0.300E+00 -.110E+00 -.248E-02   -.308E+00 0.107E+00 0.259E-02   0.647E-02 0.282E-02 -.962E-04   0.442E-06 0.310E-05 0.124E-06
   -.279E-02 0.654E-01 -.166E+00   -.428E-02 -.646E-01 0.159E+00   0.573E-02 -.508E-03 0.603E-02   0.476E-06 0.209E-06 -.181E-05
   -.242E+00 0.745E+00 0.160E-02   0.247E+00 -.760E+00 -.158E-02   -.292E-02 0.118E-01 -.134E-04   0.227E-07 -.291E-05 -.406E-06
   -.721E-02 0.212E+01 -.397E-01   0.709E-02 -.200E+01 0.392E-01   0.920E-04 -.139E+00 0.424E-03   0.151E-06 -.418E-06 0.560E-07
   0.302E+00 0.297E+00 0.248E-02   -.310E+00 -.279E+00 -.259E-02   0.647E-02 -.157E-01 0.898E-04   -.111E-06 0.806E-06 -.154E-07
   -.101E+00 0.654E-01 0.166E+00   0.916E-01 -.646E-01 -.159E+00   0.807E-02 -.513E-03 -.603E-02   -.107E-05 0.490E-06 0.197E-05
   -.721E-02 0.339E+00 -.159E-02   0.709E-02 -.320E+00 0.158E-02   0.928E-04 -.160E-01 0.124E-04   -.357E-06 0.191E-05 0.476E-06
   -.721E-02 0.175E-01 0.397E-01   0.709E-02 -.185E-01 -.392E-01   0.928E-04 0.850E-03 -.428E-03   -.164E-06 0.264E-06 0.140E-06
   0.300E+00 0.946E-01 -.248E-02   -.308E+00 -.909E-01 0.259E-02   0.647E-02 -.304E-02 -.903E-04   0.551E-06 -.336E-05 -.863E-07
   -.619E+00 0.621E-01 0.168E+00   0.676E+00 -.614E-01 -.161E+00   -.498E-01 -.404E-03 -.608E-02   0.928E-06 -.218E-06 0.913E-06
   -.246E+00 0.325E+00 -.387E-03   0.250E+00 -.361E+00 0.398E-03   -.303E-02 0.295E-01 -.936E-05   0.329E-06 0.226E-05 0.187E-06
   -.246E+00 0.151E-01 0.438E+00   0.250E+00 -.162E-01 -.470E+00   -.303E-02 0.933E-03 0.268E-01   0.308E-06 0.157E-06 -.178E-05
   -.151E+00 -.962E+00 -.766E-03   0.158E+00 0.919E+00 0.777E-03   -.633E-02 0.376E-01 -.975E-05   -.890E-06 -.661E-06 0.233E-06
   -.295E+00 0.620E-01 -.168E+00   0.289E+00 -.614E-01 0.161E+00   0.485E-02 -.397E-03 0.608E-02   -.214E-05 0.425E-06 -.124E-05
   -.881E-02 -.732E-01 0.387E-03   0.877E-02 0.704E-01 -.398E-03   0.342E-04 0.232E-02 0.100E-04   -.461E-07 0.183E-05 -.329E-06
   -.246E+00 0.160E-02 -.438E+00   0.250E+00 -.163E-02 0.470E+00   -.303E-02 0.229E-04 -.268E-01   -.475E-06 -.189E-06 0.184E-05
   -.166E+00 -.114E+00 0.758E-03   0.173E+00 0.110E+00 -.777E-03   -.552E-02 0.271E-02 0.153E-04   -.698E-06 0.303E-05 -.108E-08
   0.396E-01 0.654E-01 -.166E+00   -.308E-01 -.646E-01 0.159E+00   -.725E-02 -.508E-03 0.603E-02   -.677E-06 0.137E-06 -.175E-05
   -.246E+00 -.340E+00 0.290E-03   0.250E+00 0.377E+00 -.274E-03   -.303E-02 -.298E-01 -.135E-04   -.109E-06 -.956E-06 0.889E-07
   -.881E-02 0.175E-01 0.395E-01   0.877E-02 -.185E-01 -.391E-01   0.343E-04 0.848E-03 -.406E-03   0.211E-06 0.250E-06 -.189E-06
   -.168E+00 0.300E+00 -.752E-03   0.175E+00 -.282E+00 0.777E-03   -.551E-02 -.155E-01 -.206E-04   -.115E-07 0.383E-06 -.355E-06
   0.106E+00 0.654E-01 0.166E+00   -.960E-01 -.646E-01 -.159E+00   -.806E-02 -.513E-03 -.603E-02   0.276E-06 -.207E-06 0.171E-05
   -.881E-02 0.576E-01 -.290E-03   0.877E-02 -.544E-01 0.274E-03   0.341E-04 -.254E-02 0.135E-04   0.375E-06 -.225E-05 0.242E-07
   -.881E-02 0.275E-02 -.395E-01   0.877E-02 -.273E-02 0.391E-01   0.342E-04 -.212E-04 0.407E-03   0.318E-06 0.239E-06 0.945E-07
   -.167E+00 0.978E-01 0.752E-03   0.174E+00 -.942E-01 -.777E-03   -.551E-02 -.293E-02 0.206E-04   -.720E-06 -.281E-05 0.385E-06
   -.627E-01 -.418E+01 -.162E+00   0.630E-01 0.414E+01 0.164E+00   -.556E-03 0.118E+00 -.337E-02   0.892E-06 -.468E-05 0.249E-05
   0.139E+01 0.252E+00 0.152E-01   -.140E+01 -.247E+00 -.153E-01   0.249E-02 -.931E-02 -.395E-04   -.113E-05 -.446E-06 -.593E-06
   0.904E+00 -.296E+00 -.263E-02   -.916E+00 0.293E+00 0.259E-02   0.166E-01 0.585E-02 0.655E-04   -.418E-05 -.289E-05 -.374E-06
   -.204E+01 0.252E+00 0.487E+00   0.206E+01 -.247E+00 -.479E+00   0.770E-02 -.929E-02 -.140E-01   0.841E-06 -.378E-06 0.135E-05
   -.611E-01 -.324E+00 0.159E+00   0.614E-01 0.324E+00 -.161E+00   -.543E-03 0.614E-03 0.330E-02   -.265E-06 -.180E-05 -.412E-06
   0.947E+00 0.701E-02 -.152E-01   -.958E+00 -.709E-02 0.153E-01   0.151E-01 0.126E-03 0.428E-04   0.120E-05 0.330E-06 0.565E-06
   0.106E+00 -.311E+00 0.264E-02   -.107E+00 0.308E+00 -.259E-02   0.160E-02 0.591E-02 -.747E-04   -.792E-06 -.324E-05 0.760E-06
   -.164E-01 0.252E+00 -.487E+00   0.162E-01 -.247E+00 0.479E+00   0.450E-03 -.929E-02 0.140E-01   -.523E-07 0.766E-06 -.136E-05
   -.611E-01 0.680E+00 -.159E+00   0.614E-01 -.676E+00 0.161E+00   -.542E-03 -.629E-02 -.330E-02   -.213E-06 0.447E-05 0.768E-06
   -.370E+00 0.256E+00 0.382E-03   0.361E+00 -.250E+00 -.398E-03   0.153E-01 -.922E-02 0.260E-04   -.326E-05 0.821E-06 0.596E-07
   0.908E+00 0.160E+00 0.781E-03   -.919E+00 -.158E+00 -.777E-03   0.165E-01 -.388E-02 -.791E-05   -.210E-05 0.192E-05 0.153E-06
   -.164E-01 0.256E+00 -.478E+00   0.162E-01 -.250E+00 0.470E+00   0.450E-03 -.922E-02 0.137E-01   0.437E-07 -.102E-06 -.251E-05
   -.611E-01 0.290E+00 0.159E+00   0.614E-01 -.289E+00 -.161E+00   -.545E-03 -.165E-02 0.330E-02   -.209E-05 0.205E-05 -.106E-05
   0.686E-01 0.871E-02 -.383E-03   -.704E-01 -.877E-02 0.398E-03   0.295E-02 0.891E-04 -.254E-04   -.296E-05 0.185E-05 0.309E-07
   0.109E+00 0.175E+00 -.784E-03   -.110E+00 -.173E+00 0.777E-03   0.152E-02 -.395E-02 0.988E-05   -.447E-06 0.693E-06 0.615E-06
   -.165E-02 0.256E+00 0.478E+00   0.163E-02 -.250E+00 -.470E+00   0.250E-04 -.922E-02 -.137E-01   0.600E-06 -.340E-06 0.180E-05
   -.643E-01 -.861E-02 0.157E+00   0.646E-01 0.428E-02 -.159E+00   -.596E-03 0.716E-02 0.325E-02   0.588E-06 -.278E-05 -.170E-05
   -.764E+00 0.252E+00 -.157E-02   0.760E+00 -.247E+00 0.158E-02   0.693E-02 -.930E-02 -.210E-04   0.245E-06 -.169E-06 0.538E-06
   -.274E+00 -.313E+00 -.263E-02   0.279E+00 0.310E+00 0.259E-02   -.718E-02 0.587E-02 0.697E-04   0.233E-05 -.177E-05 -.570E-06
   -.198E+01 0.701E-02 0.401E-01   0.200E+01 -.709E-02 -.392E-01   0.258E-02 0.125E-03 -.145E-02   0.152E-05 0.366E-06 0.261E-05
   -.643E-01 0.889E-01 -.157E+00   0.646E-01 -.916E-01 0.159E+00   -.596E-03 0.457E-02 -.325E-02   0.836E-06 0.195E-05 0.221E-05
   -.317E+00 0.701E-02 0.156E-02   0.320E+00 -.709E-02 -.158E-02   -.567E-02 0.126E-03 0.268E-04   -.121E-05 0.573E-06 0.294E-06
   -.898E-01 -.312E+00 0.264E-02   0.909E-01 0.308E+00 -.259E-02   -.175E-02 0.589E-02 -.777E-04   -.167E-05 -.248E-05 -.245E-06
   -.187E-01 0.702E-02 -.400E-01   0.185E-01 -.709E-02 0.392E-01   0.375E-03 0.126E-03 0.145E-02   0.468E-06 -.667E-06 -.262E-05
   -.643E-01 -.258E-01 0.157E+00   0.646E-01 0.308E-01 -.159E+00   -.597E-03 -.820E-02 0.324E-02   0.123E-07 0.313E-05 -.715E-06
   0.386E+00 0.256E+00 -.270E-03   -.377E+00 -.250E+00 0.274E-03   -.154E-01 -.921E-02 -.335E-05   0.266E-05 0.202E-05 -.607E-06
   -.278E+00 0.177E+00 0.781E-03   0.282E+00 -.175E+00 -.777E-03   -.710E-02 -.389E-02 -.819E-05   0.217E-05 0.145E-05 0.116E-05
   -.187E-01 0.872E-02 -.399E-01   0.185E-01 -.877E-02 0.391E-01   0.376E-03 0.842E-04 0.143E-02   0.871E-06 -.101E-05 -.168E-05
   -.643E-01 -.932E-01 -.157E+00   0.646E-01 0.960E-01 0.159E+00   -.594E-03 -.459E-02 -.324E-02   0.191E-05 -.175E-05 0.802E-06
   -.526E-01 0.872E-02 0.271E-03   0.544E-01 -.877E-02 -.274E-03   -.310E-02 0.837E-04 0.236E-05   0.283E-05 -.103E-05 0.404E-06
   -.932E-01 0.176E+00 -.780E-03   0.942E-01 -.174E+00 0.777E-03   -.166E-02 -.392E-02 0.790E-05   0.899E-06 0.118E-05 -.124E-05
   -.273E-02 0.872E-02 0.399E-01   0.273E-02 -.877E-02 -.391E-01   -.267E-05 0.838E-04 -.143E-02   0.861E-06 0.563E-06 0.176E-05
 -----------------------------------------------------------------------------------------------
   0.150E+00 0.150E+00 0.803E-04   0.198E-12 -.114E-12 0.740E-13   -.150E+00 -.150E+00 -.814E-04   0.157E-05 0.102E-05 0.202E-05
 
 
 POSITION                                       TOTAL-FORCE (eV/Angst)
 -----------------------------------------------------------------------------------
      0.03000      0.00000      0.00000        -0.061496      0.000226      0.001305
      2.80100      2.80100      0.00000         0.001513      0.000909      0.000094
      2.80100      0.00000      2.80100         0.001512     -0.020279      0.005918
      0.00000      2.80100      2.80100        -0.001576     -0.005033     -0.000022
      0.00000      0.00000      5.60200         0.001248      0.000212     -0.001300
      2.80100      2.80100      5.60200        -0.000034     -0.005088     -0.000084
      2.80100      0.00000      8.40300         0.001513     -0.000167     -0.005925
      0.00000      2.80100      8.40300        -0.001663     -0.000628      0.000021
      0.00000      5.60200      0.00000        -0.001344      0.000235     -0.001290
      2.80100      8.40300      0.00000         0.001513     -0.003091      0.000003
      2.80100      5.60200      2.80100        -0.000034     -0.016203     -0.000079
      0.00000      8.40300      2.80100        -0.001661      0.002857     -0.000019
      0.00000      5.60200      5.60200        -0.001745      0.000236      0.001290
      2.80100      8.40300      5.60200        -0.000034      0.002913     -0.000003
      2.80100      5.60200      8.40300        -0.000034     -0.000151      0.000078
      0.00000      8.40300      8.40300        -0.001662      0.000690      0.000020
      5.60200      0.00000      0.00000         0.007616      0.000214      0.001306
      8.40300      2.80100      0.00000         0.001509     -0.006409      0.000002
      8.40300      0.00000      2.80100         0.001509     -0.000168     -0.005801
      5.60200      2.80100      2.80100         0.001077     -0.005008      0.000002
      5.60200      0.00000      5.60200        -0.000988      0.000212     -0.001299
      8.40300      2.80100      5.60200        -0.000021     -0.000535     -0.000002
      8.40300      0.00000      8.40300         0.001508     -0.000006      0.005801
      5.60200      2.80100      8.40300         0.001162     -0.000604     -0.000004
      5.60200      5.60200      0.00000         0.001600      0.000235     -0.001290
      8.40300      8.40300      0.00000         0.001508      0.006471      0.000003
      8.40300      5.60200      2.80100        -0.000021     -0.000151      0.000073
      5.60200      8.40300      2.80100         0.001161      0.002832      0.000004
      5.60200      5.60200      5.60200         0.001732      0.000236      0.001290
      8.40300      8.40300      5.60200        -0.000021      0.000597     -0.000003
      8.40300      5.60200      8.40300        -0.000021      0.000004     -0.000073
      5.60200      8.40300      8.40300         0.001161      0.000666     -0.000005
      2.80100      2.77100      2.80100        -0.000224      0.074734     -0.001331
      0.00000      0.00000      2.80100        -0.000890     -0.003926     -0.000112
      0.00000      2.80100      0.00000         0.005024      0.002219      0.000029
      2.80100      0.00000      0.00000         0.020222     -0.003913     -0.005873
      2.80100      2.80100      8.40300        -0.000219      0.000243      0.001303
      0.00000      0.00000      8.40300         0.004424      0.000053      0.000121
      0.00000      2.80100      5.60200         0.000631      0.002347     -0.000032
      2.80100      0.00000      5.60200         0.000170     -0.003915      0.005883
      2.80100      8.40300      2.80100        -0.000218     -0.002539     -0.001305
      0.00000      5.60200      2.80100         0.006334     -0.003862      0.000010
      0.00000      8.40300      0.00000         0.004993     -0.001425     -0.000004
      2.80100      5.60200      0.00000         0.000170     -0.003861      0.005735
      2.80100      8.40300      8.40300        -0.000218     -0.000654      0.001305
      0.00000      5.60200      8.40300         0.001167      0.000037     -0.000010
      0.00000      8.40300      5.60200         0.000595     -0.001557      0.000004
      2.80100      5.60200      5.60200        -0.000001     -0.003861     -0.005734
      8.40300      2.80100      2.80100        -0.000241      0.002831      0.001283
      5.60200      0.00000      2.80100         0.003051     -0.003920     -0.000008
      5.60200      2.80100      0.00000        -0.002865      0.002327      0.000030
      8.40300      0.00000      0.00000         0.016177      0.000053     -0.000575
      8.40300      2.80100      8.40300        -0.000241      0.001802     -0.001284
      5.60200      0.00000      8.40300        -0.002261      0.000053      0.000012
      5.60200      2.80100      5.60200        -0.000705      0.002336     -0.000032
      8.40300      0.00000      5.60200         0.000140      0.000054      0.000576
      8.40300      8.40300      2.80100        -0.000241     -0.003243      0.001282
      5.60200      5.60200      2.80100        -0.006408     -0.003863     -0.000000
      5.60200      8.40300      0.00000        -0.002832     -0.001535     -0.000003
      8.40300      5.60200      0.00000         0.000139      0.000038      0.000567
      8.40300      8.40300      8.40300        -0.000241     -0.001811     -0.001283
      5.60200      5.60200      8.40300        -0.001241      0.000038      0.000000
      5.60200      8.40300      5.60200        -0.000670     -0.001546      0.000004
      8.40300      5.60200      5.60200        -0.000012      0.000038     -0.000568
 -----------------------------------------------------------------------------------
    total drift:                                0.000582     -0.000200      0.000001


--------------------------------------------------------------------------------------------------------



  FREE ENERGIE OF THE ION-ELECTRON SYSTEM (eV)
  ---------------------------------------------------
  free  energy   TOTEN  =      -223.90066322 eV

  energy  without entropy=     -223.90066322  energy(sigma->0) =     -223.90066322
 


--------------------------------------------------------------------------------------------------------


    POTLOK:  cpu time      0.0692: real time      0.0696


--------------------------------------------------------------------------------------------------------


     LOOP+:  cpu time    248.7082: real time    250.1296
    4ORBIT:  cpu time      0.0000: real time      0.0000

 total amount of memory used by VASP MPI-rank0   129658. kBytes
=======================================================================

   base      :      30000. kBytes
   nonl-proj :      41680. kBytes
   fftplans  :      14405. kBytes
   grid      :      19342. kBytes
   one-center:        196. kBytes
   wavefun   :      24035. kBytes
 
  
  
 General timing and accounting informations for this job:
 ========================================================
  
                  Total CPU time used (sec):      252.928
                            User time (sec):      252.295
                          System time (sec):        0.633
                         Elapsed time (sec):      254.779
  
                   Maximum memory used (kb):      322528.
                   Average memory used (kb):          N/A
  
                          Minor page faults:       134756
                          Major page faults:            0
                 Voluntary context switches:          901
