  64  64   0   0
  0.2197554E+02  0.1120400E-08  0.1120400E-08  0.1120400E-08  0.5000000E-15
  1.000000000000000E-004
  CAR 
 unknown system                          
     11.05912717    -22.85278240  301     -0.55570186      1.00000000
    -22.853  0.0000E+00  0.0000E+00
    -22.740  0.0000E+00  0.0000E+00
    -22.627  0.0000E+00  0.0000E+00
    -22.514  0.0000E+00  0.0000E+00
    -22.401  0.0000E+00  0.0000E+00
    -22.288  0.0000E+00  0.0000E+00
    -22.175  0.0000E+00  0.0000E+00
    -22.062  0.0000E+00  0.0000E+00
    -21.948  0.0000E+00  0.0000E+00
    -21.835  0.0000E+00  0.0000E+00
    -21.722  0.0000E+00  0.0000E+00
    -21.609  0.0000E+00  0.0000E+00
    -21.496  0.0000E+00  0.0000E+00
    -21.383  0.7333E-05  0.8290E-06
    -21.270  0.1238E+04  0.1400E+03
    -21.157  0.4601E+03  0.1920E+03
    -21.044  0.0000E+00  0.1920E+03
    -20.931  0.0000E+00  0.1920E+03
    -20.818  0.0000E+00  0.1920E+03
    -20.705  0.0000E+00  0.1920E+03
    -20.592  0.0000E+00  0.1920E+03
    -20.479  0.0000E+00  0.1920E+03
    -20.366  0.0000E+00  0.1920E+03
    -20.253  0.0000E+00  0.1920E+03
    -20.140  0.0000E+00  0.1920E+03
    -20.027  0.0000E+00  0.1920E+03
    -19.914  0.0000E+00  0.1920E+03
    -19.801  0.0000E+00  0.1920E+03
    -19.688  0.0000E+00  0.1920E+03
    -19.575  0.0000E+00  0.1920E+03
    -19.462  0.0000E+00  0.1920E+03
    -19.349  0.0000E+00  0.1920E+03
    -19.236  0.0000E+00  0.1920E+03
    -19.122  0.0000E+00  0.1920E+03
    -19.009  0.0000E+00  0.1920E+03
    -18.896  0.0000E+00  0.1920E+03
    -18.783  0.0000E+00  0.1920E+03
    -18.670  0.0000E+00  0.1920E+03
    -18.557  0.0000E+00  0.1920E+03
    -18.444  0.0000E+00  0.1920E+03
    -18.331  0.0000E+00  0.1920E+03
    -18.218  0.0000E+00  0.1920E+03
    -18.105  0.0000E+00  0.1920E+03
    -17.992  0.0000E+00  0.1920E+03
    -17.879  0.0000E+00  0.1920E+03
    -17.766  0.0000E+00  0.1920E+03
    -17.653  0.0000E+00  0.1920E+03
    -17.540  0.0000E+00  0.1920E+03
    -17.427  0.0000E+00  0.1920E+03
    -17.314  0.0000E+00  0.1920E+03
    -17.201  0.0000E+00  0.1920E+03
    -17.088  0.0000E+00  0.1920E+03
    -16.975  0.0000E+00  0.1920E+03
    -16.862  0.0000E+00  0.1920E+03
    -16.749  0.0000E+00  0.1920E+03
    -16.636  0.0000E+00  0.1920E+03
    -16.523  0.0000E+00  0.1920E+03
    -16.410  0.0000E+00  0.1920E+03
    -16.296  0.0000E+00  0.1920E+03
    -16.183  0.0000E+00  0.1920E+03
    -16.070  0.0000E+00  0.1920E+03
    -15.957  0.0000E+00  0.1920E+03
    -15.844  0.0000E+00  0.1920E+03
    -15.731  0.0000E+00  0.1920E+03
    -15.618  0.0000E+00  0.1920E+03
    -15.505  0.0000E+00  0.1920E+03
    -15.392  0.0000E+00  0.1920E+03
    -15.279  0.0000E+00  0.1920E+03
    -15.166  0.0000E+00  0.1920E+03
    -15.053  0.0000E+00  0.1920E+03
    -14.940  0.0000E+00  0.1920E+03
    -14.827  0.0000E+00  0.1920E+03
    -14.714  0.0000E+00  0.1920E+03
    -14.601  0.0000E+00  0.1920E+03
    -14.488  0.0000E+00  0.1920E+03
    -14.375  0.0000E+00  0.1920E+03
    -14.262  0.0000E+00  0.1920E+03
    -14.149  0.0000E+00  0.1920E+03
    -14.036  0.0000E+00  0.1920E+03
    -13.923  0.0000E+00  0.1920E+03
    -13.810  0.0000E+00  0.1920E+03
    -13.697  0.0000E+00  0.1920E+03
    -13.584  0.0000E+00  0.1920E+03
    -13.470  0.1964E-14  0.1920E+03
    -13.357  0.1139E+01  0.1921E+03
    -13.244  0.1929E+02  0.1943E+03
    -13.131  0.4853E+02  0.1998E+03
    -13.018  0.1254E+03  0.2140E+03
    -12.905  0.3676E+03  0.2555E+03
    -12.792  0.4161E+01  0.2560E+03
    -12.679  0.0000E+00  0.2560E+03
    -12.566  0.0000E+00  0.2560E+03
    -12.453  0.0000E+00  0.2560E+03
    -12.340  0.0000E+00  0.2560E+03
    -12.227  0.0000E+00  0.2560E+03
    -12.114  0.0000E+00  0.2560E+03
    -12.001  0.0000E+00  0.2560E+03
    -11.888  0.0000E+00  0.2560E+03
    -11.775  0.0000E+00  0.2560E+03
    -11.662  0.0000E+00  0.2560E+03
    -11.549  0.0000E+00  0.2560E+03
    -11.436  0.0000E+00  0.2560E+03
    -11.323  0.0000E+00  0.2560E+03
    -11.210  0.0000E+00  0.2560E+03
    -11.097  0.0000E+00  0.2560E+03
    -10.984  0.0000E+00  0.2560E+03
    -10.871  0.0000E+00  0.2560E+03
    -10.758  0.0000E+00  0.2560E+03
    -10.644  0.0000E+00  0.2560E+03
    -10.531  0.0000E+00  0.2560E+03
    -10.418  0.0000E+00  0.2560E+03
    -10.305  0.0000E+00  0.2560E+03
    -10.192  0.0000E+00  0.2560E+03
    -10.079  0.0000E+00  0.2560E+03
     -9.966  0.0000E+00  0.2560E+03
     -9.853  0.0000E+00  0.2560E+03
     -9.740  0.0000E+00  0.2560E+03
     -9.627  0.0000E+00  0.2560E+03
     -9.514  0.0000E+00  0.2560E+03
     -9.401  0.0000E+00  0.2560E+03
     -9.288  0.0000E+00  0.2560E+03
     -9.175  0.0000E+00  0.2560E+03
     -9.062  0.0000E+00  0.2560E+03
     -8.949  0.0000E+00  0.2560E+03
     -8.836  0.0000E+00  0.2560E+03
     -8.723  0.0000E+00  0.2560E+03
     -8.610  0.0000E+00  0.2560E+03
     -8.497  0.0000E+00  0.2560E+03
     -8.384  0.0000E+00  0.2560E+03
     -8.271  0.0000E+00  0.2560E+03
     -8.158  0.0000E+00  0.2560E+03
     -8.045  0.0000E+00  0.2560E+03
     -7.932  0.0000E+00  0.2560E+03
     -7.819  0.0000E+00  0.2560E+03
     -7.705  0.0000E+00  0.2560E+03
     -7.592  0.0000E+00  0.2560E+03
     -7.479  0.0000E+00  0.2560E+03
     -7.366  0.0000E+00  0.2560E+03
     -7.253  0.0000E+00  0.2560E+03
     -7.140  0.0000E+00  0.2560E+03
     -7.027  0.0000E+00  0.2560E+03
     -6.914  0.0000E+00  0.2560E+03
     -6.801  0.0000E+00  0.2560E+03
     -6.688  0.0000E+00  0.2560E+03
     -6.575  0.0000E+00  0.2560E+03
     -6.462  0.0000E+00  0.2560E+03
     -6.349  0.0000E+00  0.2560E+03
     -6.236  0.0000E+00  0.2560E+03
     -6.123  0.0000E+00  0.2560E+03
     -6.010  0.0000E+00  0.2560E+03
     -5.897  0.0000E+00  0.2560E+03
     -5.784  0.0000E+00  0.2560E+03
     -5.671  0.0000E+00  0.2560E+03
     -5.558  0.0000E+00  0.2560E+03
     -5.445  0.0000E+00  0.2560E+03
     -5.332  0.0000E+00  0.2560E+03
     -5.219  0.0000E+00  0.2560E+03
     -5.106  0.0000E+00  0.2560E+03
     -4.993  0.0000E+00  0.2560E+03
     -4.879  0.0000E+00  0.2560E+03
     -4.766  0.0000E+00  0.2560E+03
     -4.653  0.0000E+00  0.2560E+03
     -4.540  0.0000E+00  0.2560E+03
     -4.427  0.0000E+00  0.2560E+03
     -4.314  0.0000E+00  0.2560E+03
     -4.201  0.0000E+00  0.2560E+03
     -4.088  0.0000E+00  0.2560E+03
     -3.975  0.0000E+00  0.2560E+03
     -3.862  0.0000E+00  0.2560E+03
     -3.749  0.0000E+00  0.2560E+03
     -3.636  0.0000E+00  0.2560E+03
     -3.523  0.0000E+00  0.2560E+03
     -3.410  0.0000E+00  0.2560E+03
     -3.297  0.0000E+00  0.2560E+03
     -3.184  0.0000E+00  0.2560E+03
     -3.071  0.0000E+00  0.2560E+03
     -2.958  0.0000E+00  0.2560E+03
     -2.845  0.0000E+00  0.2560E+03
     -2.732  0.1094E+00  0.2560E+03
     -2.619  0.8737E+01  0.2570E+03
     -2.506  0.2459E+02  0.2598E+03
     -2.393  0.8408E+02  0.2693E+03
     -2.280  0.8220E+02  0.2786E+03
     -2.167  0.1546E+03  0.2961E+03
     -2.053  0.7249E+02  0.3043E+03
     -1.940  0.5660E+02  0.3106E+03
     -1.827  0.6218E+02  0.3177E+03
     -1.714  0.7143E+02  0.3257E+03
     -1.601  0.2805E-09  0.3258E+03
     -1.488  0.7114E+02  0.3338E+03
     -1.375  0.1966E+03  0.3560E+03
     -1.262  0.2446E+02  0.3588E+03
     -1.149  0.2536E+03  0.3874E+03
     -1.036  0.1367E+03  0.4029E+03
     -0.923  0.2591E+03  0.4322E+03
     -0.810  0.6247E+02  0.4392E+03
     -0.697  0.7091E+02  0.4473E+03
     -0.584  0.6599E+01  0.4480E+03
     -0.471  0.0000E+00  0.4480E+03
     -0.358  0.0000E+00  0.4480E+03
     -0.245  0.0000E+00  0.4480E+03
     -0.132  0.0000E+00  0.4480E+03
     -0.019  0.0000E+00  0.4480E+03
      0.094  0.0000E+00  0.4480E+03
      0.207  0.0000E+00  0.4480E+03
      0.320  0.0000E+00  0.4480E+03
      0.433  0.0000E+00  0.4480E+03
      0.546  0.0000E+00  0.4480E+03
      0.659  0.0000E+00  0.4480E+03
      0.773  0.0000E+00  0.4480E+03
      0.886  0.0000E+00  0.4480E+03
      0.999  0.0000E+00  0.4480E+03
      1.112  0.0000E+00  0.4480E+03
      1.225  0.0000E+00  0.4480E+03
      1.338  0.0000E+00  0.4480E+03
      1.451  0.0000E+00  0.4480E+03
      1.564  0.0000E+00  0.4480E+03
      1.677  0.0000E+00  0.4480E+03
      1.790  0.0000E+00  0.4480E+03
      1.903  0.0000E+00  0.4480E+03
      2.016  0.0000E+00  0.4480E+03
      2.129  0.0000E+00  0.4480E+03
      2.242  0.0000E+00  0.4480E+03
      2.355  0.0000E+00  0.4480E+03
      2.468  0.0000E+00  0.4480E+03
      2.581  0.0000E+00  0.4480E+03
      2.694  0.0000E+00  0.4480E+03
      2.807  0.0000E+00  0.4480E+03
      2.920  0.0000E+00  0.4480E+03
      3.033  0.0000E+00  0.4480E+03
      3.146  0.0000E+00  0.4480E+03
      3.259  0.0000E+00  0.4480E+03
      3.372  0.0000E+00  0.4480E+03
      3.485  0.0000E+00  0.4480E+03
      3.599  0.0000E+00  0.4480E+03
      3.712  0.0000E+00  0.4480E+03
      3.825  0.0000E+00  0.4480E+03
      3.938  0.0000E+00  0.4480E+03
      4.051  0.0000E+00  0.4480E+03
      4.164  0.0000E+00  0.4480E+03
      4.277  0.7839E-05  0.4480E+03
      4.390  0.2211E+01  0.4482E+03
      4.503  0.0000E+00  0.4482E+03
      4.616  0.0000E+00  0.4482E+03
      4.729  0.0000E+00  0.4482E+03
      4.842  0.0000E+00  0.4482E+03
      4.955  0.1993E-04  0.4483E+03
      5.068  0.1326E+02  0.4497E+03
      5.181  0.9042E-02  0.4498E+03
      5.294  0.0000E+00  0.4498E+03
      5.407  0.0000E+00  0.4498E+03
      5.520  0.2627E+01  0.4500E+03
      5.633  0.2391E+02  0.4527E+03
      5.746  0.2215E-06  0.4528E+03
      5.859  0.1708E+02  0.4547E+03
      5.972  0.6120E+00  0.4548E+03
      6.085  0.0000E+00  0.4548E+03
      6.198  0.0000E+00  0.4548E+03
      6.311  0.8183E-03  0.4548E+03
      6.424  0.1394E+02  0.4563E+03
      6.538  0.8172E+01  0.4572E+03
      6.651  0.4150E+02  0.4619E+03
      6.764  0.6460E+02  0.4692E+03
      6.877  0.5912E+02  0.4759E+03
      6.990  0.1261E+02  0.4774E+03
      7.103  0.1300E+01  0.4775E+03
      7.216  0.4885E+01  0.4781E+03
      7.329  0.2026E+01  0.4783E+03
      7.442  0.8162E+02  0.4875E+03
      7.555  0.1672E+03  0.5064E+03
      7.668  0.3049E+01  0.5068E+03
      7.781  0.2652E+02  0.5097E+03
      7.894  0.1934E+00  0.5098E+03
      8.007  0.5289E+02  0.5157E+03
      8.120  0.5882E-02  0.5158E+03
      8.233  0.1402E+02  0.5173E+03
      8.346  0.9212E+02  0.5277E+03
      8.459  0.7875E-02  0.5278E+03
      8.572  0.1477E+03  0.5444E+03
      8.685  0.1154E+02  0.5458E+03
      8.798  0.1418E-05  0.5458E+03
      8.911  0.8121E+02  0.5549E+03
      9.024  0.1245E+03  0.5690E+03
      9.137  0.4343E+01  0.5695E+03
      9.250  0.2132E+02  0.5719E+03
      9.364  0.2291E+02  0.5745E+03
      9.477  0.4806E+00  0.5746E+03
      9.590  0.1279E+02  0.5760E+03
      9.703  0.0000E+00  0.5760E+03
      9.816  0.0000E+00  0.5760E+03
      9.929  0.0000E+00  0.5760E+03
     10.042  0.0000E+00  0.5760E+03
     10.155  0.0000E+00  0.5760E+03
     10.268  0.0000E+00  0.5760E+03
     10.381  0.0000E+00  0.5760E+03
     10.494  0.0000E+00  0.5760E+03
     10.607  0.0000E+00  0.5760E+03
     10.720  0.0000E+00  0.5760E+03
     10.833  0.0000E+00  0.5760E+03
     10.946  0.0000E+00  0.5760E+03
     11.059  0.0000E+00  0.5760E+03
