       N       E                     dE             d eps       ncg     rms          rms(c)
DAV:   1     0.439866180368E+04    0.43987E+04   -0.17102E+05  4864   0.125E+03
DAV:   2     0.367044996280E+03   -0.40316E+04   -0.38332E+04  5152   0.367E+02
DAV:   3    -0.204874821119E+03   -0.57192E+03   -0.56749E+03  5568   0.156E+02
DAV:   4    -0.228128573391E+03   -0.23254E+02   -0.23138E+02  5536   0.335E+01
DAV:   5    -0.229001587727E+03   -0.87301E+00   -0.87146E+00  5856   0.633E+00    0.106E+01
DAV:   6    -0.224139665607E+03    0.48619E+01   -0.94535E+00  5696   0.532E+00    0.775E+00
DAV:   7    -0.223777691657E+03    0.36197E+00   -0.20849E+00  6336   0.235E+00    0.533E+00
DAV:   8    -0.223903221205E+03   -0.12553E+00   -0.26948E-01  5312   0.125E+00    0.146E+00
DAV:   9    -0.223897328533E+03    0.58927E-02   -0.11096E-02  5696   0.257E-01    0.646E-01
DAV:  10    -0.223901477608E+03   -0.41491E-02   -0.20285E-02  5504   0.236E-01    0.307E-01
DAV:  11    -0.223900639250E+03    0.83836E-03   -0.19144E-03  5856   0.854E-02    0.946E-02
DAV:  12    -0.223900598919E+03    0.40331E-04   -0.14596E-04  6048   0.240E-02    0.230E-02
DAV:  13    -0.223900592704E+03    0.62152E-05   -0.33566E-05  5472   0.941E-03    0.386E-03
DAV:  14    -0.223900594259E+03   -0.15548E-05   -0.28222E-06  5536   0.384E-03    0.876E-03
DAV:  15    -0.223900595555E+03   -0.12956E-05   -0.37227E-07  5376   0.175E-03    0.352E-03
DAV:  16    -0.223900596068E+03   -0.51293E-06   -0.15531E-07  5696   0.988E-04    0.775E-04
DAV:  17    -0.223900596066E+03    0.14115E-08   -0.12390E-08  4000   0.531E-04
   1 F= -.22390060E+03 E0= -.22390060E+03  d E =-.484135E-15
