<?xml version="1.0" encoding="ISO-8859-1"?>
<modeling>
 <generator>
  <i name="program" type="string">vasp </i>
  <i name="version" type="string">6.3.2  </i>
  <i name="subversion" type="string">27Jun22 (build Oct 14 2022 12:13:54) complex                          parallel </i>
  <i name="platform" type="string">LinuxIFC </i>
  <i name="date" type="string">2025 08 28 </i>
  <i name="time" type="string">22:11:37 </i>
 </generator>
 <incar>
  <i type="string" name="PREC">Accurate</i>
  <i type="int" name="IALGO">    38</i>
  <i type="logical" name="ADDGRID"> T  </i>
  <i type="int" name="NELMIN">     5</i>
  <i type="int" name="IBRION">    -1</i>
  <i name="EDIFF">      0.00000001</i>
  <i name="ENCUT">    341.21360000</i>
  <i type="logical" name="LREAL"> F  </i>
  <i type="int" name="ISMEAR">     0</i>
  <i name="SIGMA">      0.02000000</i>
  <i type="logical" name="LWAVE"> F  </i>
  <i type="logical" name="LCHARG"> F  </i>
  <i type="string" name="GGA">PS</i>
 </incar>
 <primitive_cell>
  <structure name="primitive_cell" >
   <crystal>
    <varray name="basis" >
     <v>      11.20400236       0.00000000       0.00000000 </v>
     <v>       0.00000000      11.20400236       0.00000000 </v>
     <v>       0.00000000       0.00000000      11.20400236 </v>
    </varray>
    <i name="volume">   1406.43470641 </i>
    <varray name="rec_basis" >
     <v>       0.08925382       0.00000000       0.00000000 </v>
     <v>       0.00000000       0.08925382       0.00000000 </v>
     <v>       0.00000000       0.00000000       0.08925382 </v>
    </varray>
   </crystal>
   <varray name="positions" >
    <v>       0.00000000       0.00000000       0.00000000 </v>
    <v>       0.25000000       0.25000000       0.00000000 </v>
    <v>       0.25000000       0.00000000       0.25000000 </v>
    <v>       0.00000000       0.25000000       0.25000000 </v>
    <v>       0.00000000       0.00000000       0.50000000 </v>
    <v>       0.25000000       0.25000000       0.50000000 </v>
    <v>       0.25000000       0.00000000       0.75000000 </v>
    <v>       0.00000000       0.25000000       0.75000000 </v>
    <v>       0.00000000       0.50000000       0.00000000 </v>
    <v>       0.25000000       0.75000000       0.00000000 </v>
    <v>       0.25000000       0.50000000       0.25000000 </v>
    <v>       0.00000000       0.75000000       0.25000000 </v>
    <v>       0.00000000       0.50000000       0.50000000 </v>
    <v>       0.25000000       0.75000000       0.50000000 </v>
    <v>       0.25000000       0.50000000       0.75000000 </v>
    <v>       0.00000000       0.75000000       0.75000000 </v>
    <v>       0.50000000       0.00000000       0.00000000 </v>
    <v>       0.75000000       0.25000000       0.00000000 </v>
    <v>       0.75000000       0.00000000       0.25000000 </v>
    <v>       0.50000000       0.25000000       0.25000000 </v>
    <v>       0.50000000       0.00000000       0.50000000 </v>
    <v>       0.75000000       0.25000000       0.50000000 </v>
    <v>       0.75000000       0.00000000       0.75000000 </v>
    <v>       0.50000000       0.25000000       0.75000000 </v>
    <v>       0.50000000       0.50000000       0.00000000 </v>
    <v>       0.75000000       0.75000000       0.00000000 </v>
    <v>       0.75000000       0.50000000       0.25000000 </v>
    <v>       0.50000000       0.75000000       0.25000000 </v>
    <v>       0.50000000       0.50000000       0.50000000 </v>
    <v>       0.75000000       0.75000000       0.50000000 </v>
    <v>       0.75000000       0.50000000       0.75000000 </v>
    <v>       0.50000000       0.75000000       0.75000000 </v>
    <v>       0.24732239       0.25000000       0.25000000 </v>
    <v>       0.00000000       0.99732239       0.25000000 </v>
    <v>       0.00000000       0.25000000       0.00000000 </v>
    <v>       0.25000000       0.00000000       0.00000000 </v>
    <v>       0.25000000       0.25000000       0.75000000 </v>
    <v>       0.00000000       0.00000000       0.75000000 </v>
    <v>       0.00000000       0.25000000       0.50000000 </v>
    <v>       0.25000000       0.00000000       0.50000000 </v>
    <v>       0.25000000       0.75000000       0.25000000 </v>
    <v>       0.00000000       0.50000000       0.25000000 </v>
    <v>       0.00000000       0.75000000       0.00000000 </v>
    <v>       0.25000000       0.50000000       0.00000000 </v>
    <v>       0.25000000       0.75000000       0.75000000 </v>
    <v>       0.00000000       0.50000000       0.75000000 </v>
    <v>       0.00000000       0.75000000       0.50000000 </v>
    <v>       0.25000000       0.50000000       0.50000000 </v>
    <v>       0.75000000       0.25000000       0.25000000 </v>
    <v>       0.50000000       0.00000000       0.25000000 </v>
    <v>       0.50000000       0.25000000       0.00000000 </v>
    <v>       0.75000000       0.00000000       0.00000000 </v>
    <v>       0.75000000       0.25000000       0.75000000 </v>
    <v>       0.50000000       0.00000000       0.75000000 </v>
    <v>       0.50000000       0.25000000       0.50000000 </v>
    <v>       0.75000000       0.00000000       0.50000000 </v>
    <v>       0.75000000       0.75000000       0.25000000 </v>
    <v>       0.50000000       0.50000000       0.25000000 </v>
    <v>       0.50000000       0.75000000       0.00000000 </v>
    <v>       0.75000000       0.50000000       0.00000000 </v>
    <v>       0.75000000       0.75000000       0.75000000 </v>
    <v>       0.50000000       0.50000000       0.75000000 </v>
    <v>       0.50000000       0.75000000       0.50000000 </v>
    <v>       0.75000000       0.50000000       0.50000000 </v>
   </varray>
  </structure>
  <varray name="primitive_index" >
   <v type="int" >        1 </v>
   <v type="int" >        2 </v>
   <v type="int" >        3 </v>
   <v type="int" >        4 </v>
   <v type="int" >        5 </v>
   <v type="int" >        6 </v>
   <v type="int" >        7 </v>
   <v type="int" >        8 </v>
   <v type="int" >        9 </v>
   <v type="int" >       10 </v>
   <v type="int" >       11 </v>
   <v type="int" >       12 </v>
   <v type="int" >       13 </v>
   <v type="int" >       14 </v>
   <v type="int" >       15 </v>
   <v type="int" >       16 </v>
   <v type="int" >       17 </v>
   <v type="int" >       18 </v>
   <v type="int" >       19 </v>
   <v type="int" >       20 </v>
   <v type="int" >       21 </v>
   <v type="int" >       22 </v>
   <v type="int" >       23 </v>
   <v type="int" >       24 </v>
   <v type="int" >       25 </v>
   <v type="int" >       26 </v>
   <v type="int" >       27 </v>
   <v type="int" >       28 </v>
   <v type="int" >       29 </v>
   <v type="int" >       30 </v>
   <v type="int" >       31 </v>
   <v type="int" >       32 </v>
   <v type="int" >       33 </v>
   <v type="int" >       34 </v>
   <v type="int" >       35 </v>
   <v type="int" >       36 </v>
   <v type="int" >       37 </v>
   <v type="int" >       38 </v>
   <v type="int" >       39 </v>
   <v type="int" >       40 </v>
   <v type="int" >       41 </v>
   <v type="int" >       42 </v>
   <v type="int" >       43 </v>
   <v type="int" >       44 </v>
   <v type="int" >       45 </v>
   <v type="int" >       46 </v>
   <v type="int" >       47 </v>
   <v type="int" >       48 </v>
   <v type="int" >       49 </v>
   <v type="int" >       50 </v>
   <v type="int" >       51 </v>
   <v type="int" >       52 </v>
   <v type="int" >       53 </v>
   <v type="int" >       54 </v>
   <v type="int" >       55 </v>
   <v type="int" >       56 </v>
   <v type="int" >       57 </v>
   <v type="int" >       58 </v>
   <v type="int" >       59 </v>
   <v type="int" >       60 </v>
   <v type="int" >       61 </v>
   <v type="int" >       62 </v>
   <v type="int" >       63 </v>
   <v type="int" >       64 </v>
  </varray>
 </primitive_cell>
 <kpoints>
  <generation param="Gamma">
   <v type="int" name="divisions">       2        2        2 </v>
   <v name="usershift">      0.00000000       0.00000000       0.00000000 </v>
   <v name="genvec1">      0.50000000       0.00000000       0.00000000 </v>
   <v name="genvec2">      0.00000000       0.50000000       0.00000000 </v>
   <v name="genvec3">      0.00000000       0.00000000       0.50000000 </v>
   <v name="shift">      0.00000000       0.00000000       0.00000000 </v>
  </generation>
  <varray name="kpointlist" >
   <v>       0.00000000       0.00000000       0.00000000 </v>
   <v>       0.50000000       0.00000000       0.00000000 </v>
   <v>       0.00000000       0.50000000       0.00000000 </v>
   <v>       0.00000000       0.00000000       0.50000000 </v>
   <v>       0.50000000       0.50000000       0.00000000 </v>
   <v>       0.00000000       0.50000000       0.50000000 </v>
   <v>       0.50000000       0.00000000       0.50000000 </v>
   <v>       0.50000000       0.50000000       0.50000000 </v>
  </varray>
  <varray name="weights" >
   <v>       0.12500000 </v>
   <v>       0.12500000 </v>
   <v>       0.12500000 </v>
   <v>       0.12500000 </v>
   <v>       0.12500000 </v>
   <v>       0.12500000 </v>
   <v>       0.12500000 </v>
   <v>       0.12500000 </v>
  </varray>
 </kpoints>
 <parameters>
  <separator name="general" >
   <i type="string" name="SYSTEM">unknown system</i>
   <i type="logical" name="LCOMPAT"> F  </i>
  </separator>
  <separator name="electronic" >
   <i type="string" name="PREC">accura</i>
   <i name="ENMAX">    341.21360000</i>
   <i name="ENAUG">    368.05600000</i>
   <i name="EDIFF">      0.00000001</i>
   <i type="int" name="IALGO">    38</i>
   <i type="int" name="IWAVPR">    10</i>
   <i type="int" name="NBANDS">   288</i>
   <i type="int" name="NBANDSLOW">    -1</i>
   <i type="int" name="NBANDSHIGH">    -1</i>
   <i name="NELECT">    448.00000000</i>
   <i type="int" name="TURBO">     0</i>
   <i type="int" name="IRESTART">     0</i>
   <i type="int" name="NREBOOT">     0</i>
   <i type="int" name="NMIN">     0</i>
   <i name="EREF">      0.00000000</i>
   <separator name="electronic smearing" >
    <i type="int" name="ISMEAR">     0</i>
    <i name="SIGMA">      0.02000000</i>
    <i name="KSPACING">      0.50000000</i>
    <i type="logical" name="KGAMMA"> T  </i>
    <i type="logical" name="KBLOWUP"> T  </i>
   </separator>
   <separator name="electronic projectors" >
    <i type="logical" name="LREAL"> F  </i>
    <v name="ROPT">      0.00000000      0.00000000</v>
    <i type="int" name="LMAXPAW">  -100</i>
    <i type="int" name="LMAXMIX">     2</i>
    <i type="logical" name="NLSPLINE"> F  </i>
   </separator>
   <separator name="electronic startup" >
    <i type="int" name="ISTART">     0</i>
    <i type="int" name="ICHARG">     2</i>
    <i type="int" name="INIWAV">     1</i>
   </separator>
   <separator name="electronic spin" >
    <i type="int" name="ISPIN">     1</i>
    <i type="logical" name="LNONCOLLINEAR"> F  </i>
    <v name="MAGMOM">      1.00000000      1.00000000      1.00000000      1.00000000      1.00000000      1.00000000      1.00000000      1.00000000      1.00000000      1.00000000      1.00000000      1.00000000      1.00000000      1.00000000      1.00000000      1.00000000      1.00000000      1.00000000      1.00000000      1.00000000
      1.00000000      1.00000000      1.00000000      1.00000000      1.00000000      1.00000000      1.00000000      1.00000000      1.00000000      1.00000000      1.00000000      1.00000000      1.00000000      1.00000000      1.00000000      1.00000000      1.00000000      1.00000000      1.00000000      1.00000000
      1.00000000      1.00000000      1.00000000      1.00000000      1.00000000      1.00000000      1.00000000      1.00000000      1.00000000      1.00000000      1.00000000      1.00000000      1.00000000      1.00000000      1.00000000      1.00000000      1.00000000      1.00000000      1.00000000      1.00000000
      1.00000000      1.00000000      1.00000000      1.00000000</v>
    <i name="NUPDOWN">     -1.00000000</i>
    <i type="logical" name="LSORBIT"> F  </i>
    <v name="SAXIS">      0.00000000      0.00000000      1.00000000</v>
    <i type="logical" name="LSPIRAL"> F  </i>
    <v name="QSPIRAL">      0.00000000      0.00000000      0.00000000</v>
    <i type="logical" name="LZEROZ"> F  </i>
   </separator>
   <separator name="electronic exchange-correlation" >
    <i type="logical" name="LASPH"> F  </i>
    <i type="logical" name="LMETAGGA"> F  </i>
   </separator>
   <separator name="electronic convergence" >
    <i type="int" name="NELM">    60</i>
    <i type="int" name="NELMDL">    -5</i>
    <i type="int" name="NELMIN">     5</i>
    <i name="ENINI">    341.21360000</i>
    <separator name="electronic convergence detail" >
     <i type="logical" name="LDIAG"> T  </i>
     <i type="logical" name="LSUBROT"> F  </i>
     <i name="WEIMIN">      0.00000000</i>
     <i name="EBREAK">      0.00000000</i>
     <i name="DEPER">      0.30000000</i>
     <i type="int" name="NRMM">     4</i>
     <i name="TIME">      0.40000000</i>
    </separator>
   </separator>
   <separator name="electronic mixer" >
    <i name="AMIX">      0.40000000</i>
    <i name="BMIX">      1.00000000</i>
    <i name="AMIN">      0.10000000</i>
    <i name="AMIX_MAG">      1.60000000</i>
    <i name="BMIX_MAG">      1.00000000</i>
    <separator name="electronic mixer details" >
     <i type="int" name="IMIX">     4</i>
     <i type="logical" name="MIXFIRST"> F  </i>
     <i type="int" name="MAXMIX">   -45</i>
     <i name="WC">    100.00000000</i>
     <i type="int" name="INIMIX">     1</i>
     <i type="int" name="MIXPRE">     1</i>
     <i type="int" name="MREMOVE">     5</i>
    </separator>
   </separator>
   <separator name="electronic dipolcorrection" >
    <i type="logical" name="LDIPOL"> F  </i>
    <i type="logical" name="LMONO"> F  </i>
    <i type="int" name="IDIPOL">     0</i>
    <i name="EPSILON">      1.00000000</i>
    <v name="DIPOL">   -100.00000000   -100.00000000   -100.00000000</v>
    <i name="EFIELD">      0.00000000</i>
   </separator>
  </separator>
  <separator name="grids" >
   <i type="int" name="NGX">    70</i>
   <i type="int" name="NGY">    70</i>
   <i type="int" name="NGZ">    70</i>
   <i type="int" name="NGXF">   140</i>
   <i type="int" name="NGYF">   140</i>
   <i type="int" name="NGZF">   140</i>
   <i type="logical" name="ADDGRID"> T  </i>
  </separator>
  <separator name="ionic" >
   <i type="int" name="NSW">     0</i>
   <i type="int" name="IBRION">    -1</i>
   <i type="int" name="MDALGO">     0</i>
   <i type="int" name="ISIF">     2</i>
   <i name="PSTRESS">      0.00000000</i>
   <i name="EDIFFG">      0.00000010</i>
   <i type="int" name="NFREE">     0</i>
   <i name="POTIM">      0.50000000</i>
   <i name="SMASS">     -3.00000000</i>
   <i name="SCALEE">      1.00000000</i>
  </separator>
  <separator name="ionic md" >
   <i name="TEBEG">      0.00010000</i>
   <i name="TEEND">      0.00010000</i>
   <i type="int" name="NBLOCK">     1</i>
   <i type="int" name="KBLOCK">     1</i>
   <i type="int" name="NPACO">   256</i>
   <i name="APACO">     10.00000000</i>
  </separator>
  <separator name="symmetry" >
   <i type="int" name="ISYM">     2</i>
   <i name="SYMPREC">      0.00001000</i>
  </separator>
  <separator name="dos" >
   <i type="int" name="LORBIT">     0</i>
   <v name="RWIGS">     -1.00000000     -1.00000000</v>
   <i type="int" name="NEDOS">   301</i>
   <i name="EMIN">     10.00000000</i>
   <i name="EMAX">    -10.00000000</i>
   <i name="EFERMI">      0.00000000</i>
  </separator>
  <separator name="writing" >
   <i type="int" name="NWRITE">     2</i>
   <i type="logical" name="LWAVE"> F  </i>
   <i type="logical" name="LDOWNSAMPLE"> F  </i>
   <i type="logical" name="LCHARG"> F  </i>
   <i type="logical" name="LPARD"> F  </i>
   <i type="logical" name="LVTOT"> F  </i>
   <i type="logical" name="LVHAR"> F  </i>
   <i type="logical" name="LELF"> F  </i>
   <i type="logical" name="LOPTICS"> F  </i>
   <v name="STM">      0.00000000      0.00000000      0.00000000      0.00000000      0.00000000      0.00000000      0.00000000</v>
  </separator>
  <separator name="performance" >
   <i type="int" name="NPAR">    32</i>
   <i type="int" name="NSIM">     4</i>
   <i type="int" name="NBLK">    -1</i>
   <i type="logical" name="LPLANE"> T  </i>
   <i type="logical" name="LSCALAPACK"> T  </i>
   <i type="logical" name="LSCAAWARE"> F  </i>
   <i type="logical" name="LSCALU"> F  </i>
   <i type="logical" name="LASYNC"> F  </i>
   <i type="logical" name="LORBITALREAL"> F  </i>
  </separator>
  <separator name="miscellaneous" >
   <i type="int" name="IDIOT">     3</i>
   <i type="int" name="PHON_NSTRUCT">    -1</i>
   <i type="logical" name="LMUSIC"> F  </i>
   <v name="POMASS">     22.99000000     35.45300000</v>
   <v name="DARWINR">      0.00000000      0.00000000</v>
   <v name="DARWINV">      1.00000000      1.00000000</v>
   <i type="logical" name="LCORR"> T  </i>
  </separator>
  <i type="logical" name="GGA_COMPAT"> T  </i>
  <i type="logical" name="LBERRY"> F  </i>
  <i type="int" name="ICORELEVEL">     0</i>
  <i type="logical" name="LDAU"> F  </i>
  <i type="int" name="I_CONSTRAINED_M">     0</i>
  <separator name="electronic exchange-correlation" >
   <i type="string" name="GGA">PS</i>
   <i type="int" name="VOSKOWN">     0</i>
   <i type="logical" name="LHFCALC"> F  </i>
   <i type="string" name="PRECFOCK"></i>
   <i type="logical" name="LSYMGRAD"> F  </i>
   <i type="logical" name="LHFONE"> F  </i>
   <i type="logical" name="LRHFCALC"> F  </i>
   <i type="logical" name="LTHOMAS"> F  </i>
   <i type="logical" name="LMODELHF"> F  </i>
   <i type="logical" name="LFOCKACE"> F  </i>
   <i name="ENCUT4O">     -1.00000000</i>
   <i type="int" name="EXXOEP">     0</i>
   <i type="int" name="FOURORBIT">     0</i>
   <i name="AEXX">      0.00000000</i>
   <i name="HFALPHA">      0.00000000</i>
   <i name="MCALPHA">      0.00000000</i>
   <i name="ALDAX">      1.00000000</i>
   <i name="AGGAX">      1.00000000</i>
   <i name="ALDAC">      1.00000000</i>
   <i name="AGGAC">      1.00000000</i>
   <i type="int" name="NKREDX">     1</i>
   <i type="int" name="NKREDY">     1</i>
   <i type="int" name="NKREDZ">     1</i>
   <i type="logical" name="SHIFTRED"> F  </i>
   <i type="logical" name="ODDONLY"> F  </i>
   <i type="logical" name="EVENONLY"> F  </i>
   <i type="int" name="LMAXFOCK">     0</i>
   <i type="int" name="NMAXFOCKAE">     0</i>
   <i type="logical" name="LFOCKAEDFT"> F  </i>
   <i name="HFSCREEN">      0.00000000</i>
   <i name="HFSCREENC">      0.00000000</i>
   <i type="int" name="NBANDSGWLOW">     0</i>
  </separator>
  <separator name="vdW DFT" >
   <i type="logical" name="LUSE_VDW"> F  </i>
   <i name="Zab_VDW">     -0.84910000</i>
   <i name="PARAM1">      0.12340000</i>
   <i name="PARAM2">      1.00000000</i>
   <i name="PARAM3">      0.00000000</i>
  </separator>
  <separator name="model GW" >
   <i type="int" name="MODEL_GW">     0</i>
   <i name="MODEL_EPS0">     13.18532537</i>
   <i name="MODEL_ALPHA">      1.00000000</i>
  </separator>
  <separator name="linear response parameters" >
   <i type="logical" name="LEPSILON"> F  </i>
   <i type="logical" name="LRPA"> F  </i>
   <i type="logical" name="LNABLA"> F  </i>
   <i type="logical" name="LVEL"> F  </i>
   <i name="CSHIFT">      0.10000000</i>
   <i name="OMEGAMAX">     -1.00000000</i>
   <i name="DEG_THRESHOLD">      0.00200000</i>
   <i name="RTIME">     -0.10000000</i>
   <i name="WPLASMAI">      0.00000000</i>
   <v name="DFIELD">      0.00000000      0.00000000      0.00000000</v>
   <v name="WPLASMA">      0.00000000      0.00000000      0.00000000      0.00000000      0.00000000      0.00000000      0.00000000      0.00000000      0.00000000</v>
  </separator>
  <separator name="orbital magnetization" >
   <i type="logical" name="NUCIND"> F  </i>
   <v name="MAGPOS">      0.00000000      0.00000000      0.00000000</v>
   <i type="logical" name="LNICSALL"> T  </i>
   <i type="logical" name="ORBITALMAG"> F  </i>
   <i type="logical" name="LMAGBLOCH"> F  </i>
   <i type="logical" name="LCHIMAG"> F  </i>
   <i type="logical" name="LGAUGE"> T  </i>
   <i type="int" name="MAGATOM">     0</i>
   <v name="MAGDIPOL">      0.00000000      0.00000000      0.00000000</v>
   <v name="AVECCONST">      0.00000000      0.00000000      0.00000000</v>
  </separator>
  <separator name="response functions" >
   <i type="logical" name="LFINITE_TEMPERATURE"> F  </i>
   <i type="logical" name="LADDER"> F  </i>
   <i type="logical" name="LRPAFORCE"> F  </i>
   <i type="logical" name="LFXC"> F  </i>
   <i type="logical" name="LHARTREE"> T  </i>
   <i type="int" name="IBSE">     0</i>
   <v type="int" name="KPOINT">    -1     0     0     0</v>
   <i type="logical" name="LTCTC"> F  </i>
   <i type="logical" name="LTCTE"> F  </i>
   <i type="logical" name="LTETE"> F  </i>
   <i type="logical" name="LTRIPLET"> F  </i>
   <i type="logical" name="LFXCEPS"> F  </i>
   <i type="logical" name="LFXHEG"> F  </i>
   <i type="int" name="NATURALO">     2</i>
   <i type="logical" name="LHOLEGF"> F  </i>
   <i type="logical" name="L2ORDER"> F  </i>
   <i type="logical" name="LDMP1"> F  </i>
   <i type="logical" name="LMP2LT"> F  </i>
   <i type="logical" name="LSMP2LT"> F  </i>
   <i type="logical" name="LGWLF"> F  </i>
   <i name="ENCUTGW">     -2.00000000</i>
   <i name="ENCUTGWSOFT">     -2.00000000</i>
   <i name="ENCUTLF">     -1.00000000</i>
   <i type="logical" name="LESF_SPLINES"> F  </i>
   <i type="int" name="LMAXMP2">    -1</i>
   <i name="SCISSOR">      0.00000000</i>
   <i type="int" name="NOMEGA">     0</i>
   <i type="int" name="NOMEGAR">     0</i>
   <i type="int" name="NBANDSGW">    -1</i>
   <i type="int" name="NBANDSO">    -1</i>
   <i type="int" name="NBANDSV">    -1</i>
   <i type="int" name="NELMGW">     1</i>
   <i type="int" name="NELMHF">     1</i>
   <i type="int" name="DIM">     3</i>
   <i type="int" name="IESPILON">     4</i>
   <i type="int" name="ANTIRES">     0</i>
   <i name="OMEGAMAX">    -30.00000000</i>
   <i name="OMEGAMIN">    -30.00000000</i>
   <i name="OMEGATL">   -200.00000000</i>
   <i type="int" name="OMEGAGRID">     0</i>
   <i name="CSHIFT">     -0.10000000</i>
   <i type="logical" name="LSELFENERGY"> F  </i>
   <i type="logical" name="LSPECTRAL"> F  </i>
   <i type="logical" name="LSPECTRALGW"> F  </i>
   <i type="logical" name="LSINGLES"> F  </i>
   <i type="logical" name="LFERMIGW"> F  </i>
   <i type="logical" name="ODDONLYGW"> F  </i>
   <i type="logical" name="EVENONLYGW"> F  </i>
   <i type="int" name="NKREDLFX">     1</i>
   <i type="int" name="NKREDLFY">     1</i>
   <i type="int" name="NKREDLFZ">     1</i>
   <i type="int" name="MAXMEM">  2800</i>
   <i type="int" name="TELESCOPE">     0</i>
   <i type="int" name="NTAUPAR">    -1</i>
   <i type="int" name="NOMEGAPAR">    -1</i>
   <i name="DAMP_NEWTON">      0.80000001</i>
   <i name="LAMBDA">      1.00000000</i>
  </separator>
  <separator name="External order field" >
   <i name="OFIELD_KAPPA">      0.00000000</i>
   <v name="OFIELD_K">      0.00000000      0.00000000      0.00000000</v>
   <i name="OFIELD_Q6_NEAR">      0.00000000</i>
   <i name="OFIELD_Q6_FAR">      0.00000000</i>
   <i name="OFIELD_A">      0.00000000</i>
  </separator>
  <separator name="optional k-points parameters" >
   <i type="int" name="KPOINTS_OPT_MODE">     1</i>
   <i type="logical" name="LKPOINTS_OPT"> F  </i>
  </separator>
 </parameters>
 <atominfo>
  <atoms>      64 </atoms>
  <types>       2 </types>
  <array name="atoms" >
   <dimension dim="1">ion</dimension>
   <field type="string">element</field>
   <field type="int">atomtype</field>
   <set>
    <rc><c>Na</c><c>   1</c></rc>
    <rc><c>Na</c><c>   1</c></rc>
    <rc><c>Na</c><c>   1</c></rc>
    <rc><c>Na</c><c>   1</c></rc>
    <rc><c>Na</c><c>   1</c></rc>
    <rc><c>Na</c><c>   1</c></rc>
    <rc><c>Na</c><c>   1</c></rc>
    <rc><c>Na</c><c>   1</c></rc>
    <rc><c>Na</c><c>   1</c></rc>
    <rc><c>Na</c><c>   1</c></rc>
    <rc><c>Na</c><c>   1</c></rc>
    <rc><c>Na</c><c>   1</c></rc>
    <rc><c>Na</c><c>   1</c></rc>
    <rc><c>Na</c><c>   1</c></rc>
    <rc><c>Na</c><c>   1</c></rc>
    <rc><c>Na</c><c>   1</c></rc>
    <rc><c>Na</c><c>   1</c></rc>
    <rc><c>Na</c><c>   1</c></rc>
    <rc><c>Na</c><c>   1</c></rc>
    <rc><c>Na</c><c>   1</c></rc>
    <rc><c>Na</c><c>   1</c></rc>
    <rc><c>Na</c><c>   1</c></rc>
    <rc><c>Na</c><c>   1</c></rc>
    <rc><c>Na</c><c>   1</c></rc>
    <rc><c>Na</c><c>   1</c></rc>
    <rc><c>Na</c><c>   1</c></rc>
    <rc><c>Na</c><c>   1</c></rc>
    <rc><c>Na</c><c>   1</c></rc>
    <rc><c>Na</c><c>   1</c></rc>
    <rc><c>Na</c><c>   1</c></rc>
    <rc><c>Na</c><c>   1</c></rc>
    <rc><c>Na</c><c>   1</c></rc>
    <rc><c>Cl</c><c>   2</c></rc>
    <rc><c>Cl</c><c>   2</c></rc>
    <rc><c>Cl</c><c>   2</c></rc>
    <rc><c>Cl</c><c>   2</c></rc>
    <rc><c>Cl</c><c>   2</c></rc>
    <rc><c>Cl</c><c>   2</c></rc>
    <rc><c>Cl</c><c>   2</c></rc>
    <rc><c>Cl</c><c>   2</c></rc>
    <rc><c>Cl</c><c>   2</c></rc>
    <rc><c>Cl</c><c>   2</c></rc>
    <rc><c>Cl</c><c>   2</c></rc>
    <rc><c>Cl</c><c>   2</c></rc>
    <rc><c>Cl</c><c>   2</c></rc>
    <rc><c>Cl</c><c>   2</c></rc>
    <rc><c>Cl</c><c>   2</c></rc>
    <rc><c>Cl</c><c>   2</c></rc>
    <rc><c>Cl</c><c>   2</c></rc>
    <rc><c>Cl</c><c>   2</c></rc>
    <rc><c>Cl</c><c>   2</c></rc>
    <rc><c>Cl</c><c>   2</c></rc>
    <rc><c>Cl</c><c>   2</c></rc>
    <rc><c>Cl</c><c>   2</c></rc>
    <rc><c>Cl</c><c>   2</c></rc>
    <rc><c>Cl</c><c>   2</c></rc>
    <rc><c>Cl</c><c>   2</c></rc>
    <rc><c>Cl</c><c>   2</c></rc>
    <rc><c>Cl</c><c>   2</c></rc>
    <rc><c>Cl</c><c>   2</c></rc>
    <rc><c>Cl</c><c>   2</c></rc>
    <rc><c>Cl</c><c>   2</c></rc>
    <rc><c>Cl</c><c>   2</c></rc>
    <rc><c>Cl</c><c>   2</c></rc>
   </set>
  </array>
  <array name="atomtypes" >
   <dimension dim="1">type</dimension>
   <field type="int">atomspertype</field>
   <field type="string">element</field>
   <field>mass</field>
   <field>valence</field>
   <field type="string">pseudopotential</field>
   <set>
    <rc><c>  32</c><c>Na</c><c>     22.99000000</c><c>      7.00000000</c><c>  PAW_PBE Na_pv 19Sep2006               </c></rc>
    <rc><c>  32</c><c>Cl</c><c>     35.45300000</c><c>      7.00000000</c><c>  PAW_PBE Cl 06Sep2000                  </c></rc>
   </set>
  </array>
 </atominfo>
 <structure name="initialpos" >
  <crystal>
   <varray name="basis" >
    <v>      11.20400236       0.00000000       0.00000000 </v>
    <v>       0.00000000      11.20400236       0.00000000 </v>
    <v>       0.00000000       0.00000000      11.20400236 </v>
   </varray>
   <i name="volume">   1406.43470641 </i>
   <varray name="rec_basis" >
    <v>       0.08925382       0.00000000       0.00000000 </v>
    <v>       0.00000000       0.08925382       0.00000000 </v>
    <v>       0.00000000       0.00000000       0.08925382 </v>
   </varray>
  </crystal>
  <varray name="positions" >
   <v>       0.00000000       0.00000000       0.00000000 </v>
   <v>       0.25000000       0.25000000       0.00000000 </v>
   <v>       0.25000000       0.00000000       0.25000000 </v>
   <v>       0.00000000       0.25000000       0.25000000 </v>
   <v>       0.00000000       0.00000000       0.50000000 </v>
   <v>       0.25000000       0.25000000       0.50000000 </v>
   <v>       0.25000000       0.00000000       0.75000000 </v>
   <v>       0.00000000       0.25000000       0.75000000 </v>
   <v>       0.00000000       0.50000000       0.00000000 </v>
   <v>       0.25000000       0.75000000       0.00000000 </v>
   <v>       0.25000000       0.50000000       0.25000000 </v>
   <v>       0.00000000       0.75000000       0.25000000 </v>
   <v>       0.00000000       0.50000000       0.50000000 </v>
   <v>       0.25000000       0.75000000       0.50000000 </v>
   <v>       0.25000000       0.50000000       0.75000000 </v>
   <v>       0.00000000       0.75000000       0.75000000 </v>
   <v>       0.50000000       0.00000000       0.00000000 </v>
   <v>       0.75000000       0.25000000       0.00000000 </v>
   <v>       0.75000000       0.00000000       0.25000000 </v>
   <v>       0.50000000       0.25000000       0.25000000 </v>
   <v>       0.50000000       0.00000000       0.50000000 </v>
   <v>       0.75000000       0.25000000       0.50000000 </v>
   <v>       0.75000000       0.00000000       0.75000000 </v>
   <v>       0.50000000       0.25000000       0.75000000 </v>
   <v>       0.50000000       0.50000000       0.00000000 </v>
   <v>       0.75000000       0.75000000       0.00000000 </v>
   <v>       0.75000000       0.50000000       0.25000000 </v>
   <v>       0.50000000       0.75000000       0.25000000 </v>
   <v>       0.50000000       0.50000000       0.50000000 </v>
   <v>       0.75000000       0.75000000       0.50000000 </v>
   <v>       0.75000000       0.50000000       0.75000000 </v>
   <v>       0.50000000       0.75000000       0.75000000 </v>
   <v>       0.24732239       0.25000000       0.25000000 </v>
   <v>       0.00000000       0.99732239       0.25000000 </v>
   <v>       0.00000000       0.25000000       0.00000000 </v>
   <v>       0.25000000       0.00000000       0.00000000 </v>
   <v>       0.25000000       0.25000000       0.75000000 </v>
   <v>       0.00000000       0.00000000       0.75000000 </v>
   <v>       0.00000000       0.25000000       0.50000000 </v>
   <v>       0.25000000       0.00000000       0.50000000 </v>
   <v>       0.25000000       0.75000000       0.25000000 </v>
   <v>       0.00000000       0.50000000       0.25000000 </v>
   <v>       0.00000000       0.75000000       0.00000000 </v>
   <v>       0.25000000       0.50000000       0.00000000 </v>
   <v>       0.25000000       0.75000000       0.75000000 </v>
   <v>       0.00000000       0.50000000       0.75000000 </v>
   <v>       0.00000000       0.75000000       0.50000000 </v>
   <v>       0.25000000       0.50000000       0.50000000 </v>
   <v>       0.75000000       0.25000000       0.25000000 </v>
   <v>       0.50000000       0.00000000       0.25000000 </v>
   <v>       0.50000000       0.25000000       0.00000000 </v>
   <v>       0.75000000       0.00000000       0.00000000 </v>
   <v>       0.75000000       0.25000000       0.75000000 </v>
   <v>       0.50000000       0.00000000       0.75000000 </v>
   <v>       0.50000000       0.25000000       0.50000000 </v>
   <v>       0.75000000       0.00000000       0.50000000 </v>
   <v>       0.75000000       0.75000000       0.25000000 </v>
   <v>       0.50000000       0.50000000       0.25000000 </v>
   <v>       0.50000000       0.75000000       0.00000000 </v>
   <v>       0.75000000       0.50000000       0.00000000 </v>
   <v>       0.75000000       0.75000000       0.75000000 </v>
   <v>       0.50000000       0.50000000       0.75000000 </v>
   <v>       0.50000000       0.75000000       0.50000000 </v>
   <v>       0.75000000       0.50000000       0.50000000 </v>
  </varray>
 </structure>
 <calculation>
  <scstep>
   <time name="dav">    9.87    9.93</time>
   <time name="total">    9.95   10.01</time>
   <energy>
    <i name="alphaZ">    751.52672365 </i>
    <i name="ewald"> -22871.35446968 </i>
    <i name="hartreedc">  -8992.23392883 </i>
    <i name="XCdc">   1456.53426719 </i>
    <i name="pawpsdc">  26466.43774078 </i>
    <i name="pawaedc"> -29286.08056155 </i>
    <i name="eentropy">     -0.00469339 </i>
    <i name="bandstr">   -658.34274441 </i>
    <i name="atom">  37532.17946992 </i>
    <i name="e_fr_energy">   4398.66180368 </i>
    <i name="e_wo_entrp">   4398.66649708 </i>
    <i name="e_0_energy">   4398.66415038 </i>
   </energy>
  </scstep>
  <scstep>
   <time name="dav">   10.32   10.39</time>
   <time name="total">   10.32   10.39</time>
   <energy>
    <i name="e_fr_energy">    367.04499628 </i>
    <i name="e_wo_entrp">    367.04499628 </i>
    <i name="e_0_energy">    367.04499628 </i>
   </energy>
  </scstep>
  <scstep>
   <time name="dav">   11.01   11.08</time>
   <time name="total">   11.01   11.08</time>
   <energy>
    <i name="e_fr_energy">   -204.87482112 </i>
    <i name="e_wo_entrp">   -204.87482112 </i>
    <i name="e_0_energy">   -204.87482112 </i>
   </energy>
  </scstep>
  <scstep>
   <time name="dav">   10.95   11.02</time>
   <time name="total">   10.95   11.02</time>
   <energy>
    <i name="e_fr_energy">   -228.12857339 </i>
    <i name="e_wo_entrp">   -228.12857339 </i>
    <i name="e_0_energy">   -228.12857339 </i>
   </energy>
  </scstep>
  <scstep>
   <time name="dav">   11.45   11.51</time>
   <time name="total">   11.79   11.86</time>
   <energy>
    <i name="e_fr_energy">   -229.00158773 </i>
    <i name="e_wo_entrp">   -229.00158773 </i>
    <i name="e_0_energy">   -229.00158773 </i>
   </energy>
  </scstep>
  <scstep>
   <time name="dav">   11.22   11.28</time>
   <time name="total">   11.64   11.71</time>
   <energy>
    <i name="e_fr_energy">   -224.13966561 </i>
    <i name="e_wo_entrp">   -224.13966561 </i>
    <i name="e_0_energy">   -224.13966561 </i>
   </energy>
  </scstep>
  <scstep>
   <time name="dav">   12.24   12.31</time>
   <time name="total">   12.65   12.72</time>
   <energy>
    <i name="e_fr_energy">   -223.77769166 </i>
    <i name="e_wo_entrp">   -223.77769166 </i>
    <i name="e_0_energy">   -223.77769166 </i>
   </energy>
  </scstep>
  <scstep>
   <time name="dav">   10.64   10.70</time>
   <time name="total">   11.04   11.11</time>
   <energy>
    <i name="e_fr_energy">   -223.90322121 </i>
    <i name="e_wo_entrp">   -223.90322121 </i>
    <i name="e_0_energy">   -223.90322121 </i>
   </energy>
  </scstep>
  <scstep>
   <time name="dav">   11.22   11.28</time>
   <time name="total">   11.63   11.69</time>
   <energy>
    <i name="e_fr_energy">   -223.89732853 </i>
    <i name="e_wo_entrp">   -223.89732853 </i>
    <i name="e_0_energy">   -223.89732853 </i>
   </energy>
  </scstep>
  <scstep>
   <time name="dav">   10.96   11.02</time>
   <time name="total">   11.37   11.43</time>
   <energy>
    <i name="e_fr_energy">   -223.90147761 </i>
    <i name="e_wo_entrp">   -223.90147761 </i>
    <i name="e_0_energy">   -223.90147761 </i>
   </energy>
  </scstep>
  <scstep>
   <time name="dav">   11.50   11.57</time>
   <time name="total">   11.91   11.98</time>
   <energy>
    <i name="e_fr_energy">   -223.90063925 </i>
    <i name="e_wo_entrp">   -223.90063925 </i>
    <i name="e_0_energy">   -223.90063925 </i>
   </energy>
  </scstep>
  <scstep>
   <time name="dav">   11.78   11.85</time>
   <time name="total">   12.19   12.26</time>
   <energy>
    <i name="e_fr_energy">   -223.90059892 </i>
    <i name="e_wo_entrp">   -223.90059892 </i>
    <i name="e_0_energy">   -223.90059892 </i>
   </energy>
  </scstep>
  <scstep>
   <time name="dav">   10.85   10.91</time>
   <time name="total">   11.25   11.32</time>
   <energy>
    <i name="e_fr_energy">   -223.90059270 </i>
    <i name="e_wo_entrp">   -223.90059270 </i>
    <i name="e_0_energy">   -223.90059270 </i>
   </energy>
  </scstep>
  <scstep>
   <time name="dav">   10.95   11.02</time>
   <time name="total">   11.38   11.44</time>
   <energy>
    <i name="e_fr_energy">   -223.90059426 </i>
    <i name="e_wo_entrp">   -223.90059426 </i>
    <i name="e_0_energy">   -223.90059426 </i>
   </energy>
  </scstep>
  <scstep>
   <time name="dav">   10.75   10.82</time>
   <time name="total">   11.17   11.23</time>
   <energy>
    <i name="e_fr_energy">   -223.90059555 </i>
    <i name="e_wo_entrp">   -223.90059555 </i>
    <i name="e_0_energy">   -223.90059555 </i>
   </energy>
  </scstep>
  <scstep>
   <time name="dav">   11.26   11.32</time>
   <time name="total">   11.67   11.74</time>
   <energy>
    <i name="e_fr_energy">   -223.90059607 </i>
    <i name="e_wo_entrp">   -223.90059607 </i>
    <i name="e_0_energy">   -223.90059607 </i>
   </energy>
  </scstep>
  <scstep>
   <time name="dav">    8.60    8.65</time>
   <time name="total">    8.67    8.72</time>
   <energy>
    <i name="alphaZ">    751.52672365 </i>
    <i name="ewald"> -22871.35446968 </i>
    <i name="hartreedc">  -9078.15205052 </i>
    <i name="XCdc">   1472.51345346 </i>
    <i name="pawpsdc">  29498.36670520 </i>
    <i name="pawaedc"> -32317.73161294 </i>
    <i name="eentropy">     -0.00000000 </i>
    <i name="bandstr">  -5211.24881517 </i>
    <i name="atom">  37532.17946992 </i>
    <i name="e_fr_energy">   -223.90059607 </i>
    <i name="e_wo_entrp">   -223.90059607 </i>
    <i name="e_0_energy">   -223.90059607 </i>
   </energy>
  </scstep>
  <structure>
   <crystal>
    <varray name="basis" >
     <v>      11.20400236       0.00000000       0.00000000 </v>
     <v>       0.00000000      11.20400236       0.00000000 </v>
     <v>       0.00000000       0.00000000      11.20400236 </v>
    </varray>
    <i name="volume">   1406.43470641 </i>
    <varray name="rec_basis" >
     <v>       0.08925382       0.00000000       0.00000000 </v>
     <v>       0.00000000       0.08925382       0.00000000 </v>
     <v>       0.00000000       0.00000000       0.08925382 </v>
    </varray>
   </crystal>
   <varray name="positions" >
    <v>       0.00000000       0.00000000       0.00000000 </v>
    <v>       0.25000000       0.25000000       0.00000000 </v>
    <v>       0.25000000       0.00000000       0.25000000 </v>
    <v>       0.00000000       0.25000000       0.25000000 </v>
    <v>       0.00000000       0.00000000       0.50000000 </v>
    <v>       0.25000000       0.25000000       0.50000000 </v>
    <v>       0.25000000       0.00000000       0.75000000 </v>
    <v>       0.00000000       0.25000000       0.75000000 </v>
    <v>       0.00000000       0.50000000       0.00000000 </v>
    <v>       0.25000000       0.75000000       0.00000000 </v>
    <v>       0.25000000       0.50000000       0.25000000 </v>
    <v>       0.00000000       0.75000000       0.25000000 </v>
    <v>       0.00000000       0.50000000       0.50000000 </v>
    <v>       0.25000000       0.75000000       0.50000000 </v>
    <v>       0.25000000       0.50000000       0.75000000 </v>
    <v>       0.00000000       0.75000000       0.75000000 </v>
    <v>       0.50000000       0.00000000       0.00000000 </v>
    <v>       0.75000000       0.25000000       0.00000000 </v>
    <v>       0.75000000       0.00000000       0.25000000 </v>
    <v>       0.50000000       0.25000000       0.25000000 </v>
    <v>       0.50000000       0.00000000       0.50000000 </v>
    <v>       0.75000000       0.25000000       0.50000000 </v>
    <v>       0.75000000       0.00000000       0.75000000 </v>
    <v>       0.50000000       0.25000000       0.75000000 </v>
    <v>       0.50000000       0.50000000       0.00000000 </v>
    <v>       0.75000000       0.75000000       0.00000000 </v>
    <v>       0.75000000       0.50000000       0.25000000 </v>
    <v>       0.50000000       0.75000000       0.25000000 </v>
    <v>       0.50000000       0.50000000       0.50000000 </v>
    <v>       0.75000000       0.75000000       0.50000000 </v>
    <v>       0.75000000       0.50000000       0.75000000 </v>
    <v>       0.50000000       0.75000000       0.75000000 </v>
    <v>       0.24732239       0.25000000       0.25000000 </v>
    <v>       0.00000000       0.99732239       0.25000000 </v>
    <v>       0.00000000       0.25000000       0.00000000 </v>
    <v>       0.25000000       0.00000000       0.00000000 </v>
    <v>       0.25000000       0.25000000       0.75000000 </v>
    <v>       0.00000000       0.00000000       0.75000000 </v>
    <v>       0.00000000       0.25000000       0.50000000 </v>
    <v>       0.25000000       0.00000000       0.50000000 </v>
    <v>       0.25000000       0.75000000       0.25000000 </v>
    <v>       0.00000000       0.50000000       0.25000000 </v>
    <v>       0.00000000       0.75000000       0.00000000 </v>
    <v>       0.25000000       0.50000000       0.00000000 </v>
    <v>       0.25000000       0.75000000       0.75000000 </v>
    <v>       0.00000000       0.50000000       0.75000000 </v>
    <v>       0.00000000       0.75000000       0.50000000 </v>
    <v>       0.25000000       0.50000000       0.50000000 </v>
    <v>       0.75000000       0.25000000       0.25000000 </v>
    <v>       0.50000000       0.00000000       0.25000000 </v>
    <v>       0.50000000       0.25000000       0.00000000 </v>
    <v>       0.75000000       0.00000000       0.00000000 </v>
    <v>       0.75000000       0.25000000       0.75000000 </v>
    <v>       0.50000000       0.00000000       0.75000000 </v>
    <v>       0.50000000       0.25000000       0.50000000 </v>
    <v>       0.75000000       0.00000000       0.50000000 </v>
    <v>       0.75000000       0.75000000       0.25000000 </v>
    <v>       0.50000000       0.50000000       0.25000000 </v>
    <v>       0.50000000       0.75000000       0.00000000 </v>
    <v>       0.75000000       0.50000000       0.00000000 </v>
    <v>       0.75000000       0.75000000       0.75000000 </v>
    <v>       0.50000000       0.50000000       0.75000000 </v>
    <v>       0.50000000       0.75000000       0.50000000 </v>
    <v>       0.75000000       0.50000000       0.50000000 </v>
   </varray>
  </structure>
  <varray name="forces" >
   <v>       0.00022160      -0.00369727       0.00138133 </v>
   <v>      -0.00372026       0.00022732      -0.00120659 </v>
   <v>      -0.00510993      -0.00489323       0.00000000 </v>
   <v>      -0.02026792      -0.01621678       0.00000000 </v>
   <v>       0.00022160      -0.00369727      -0.00138133 </v>
   <v>      -0.00372026       0.00022732       0.00120659 </v>
   <v>      -0.00060231      -0.00059738       0.00000000 </v>
   <v>      -0.00016805      -0.00015068       0.00000000 </v>
   <v>       0.00021075       0.00152574       0.00129979 </v>
   <v>      -0.00189817       0.00021581       0.00129996 </v>
   <v>      -0.00500570       0.00275647       0.00000000 </v>
   <v>      -0.00016555      -0.02029121       0.00000000 </v>
   <v>       0.00021075       0.00152574      -0.00129979 </v>
   <v>      -0.00189817       0.00021581      -0.00129996 </v>
   <v>      -0.00060475       0.00066023       0.00000000 </v>
   <v>      -0.00000569      -0.00016785       0.00000000 </v>
   <v>       0.00023298      -0.00188731      -0.00128767 </v>
   <v>       0.00153984       0.00023775      -0.00128729 </v>
   <v>       0.00289441      -0.00499803       0.00000000 </v>
   <v>      -0.01619410      -0.00015313       0.00000000 </v>
   <v>       0.00023298      -0.00188731       0.00128767 </v>
   <v>       0.00153984       0.00023775       0.00128729 </v>
   <v>       0.00066457      -0.00059552       0.00000000 </v>
   <v>      -0.00015124       0.00000339       0.00000000 </v>
   <v>       0.00023744       0.00195029      -0.00128757 </v>
   <v>       0.00196007       0.00021122       0.00129985 </v>
   <v>       0.00283056       0.00282019       0.00000000 </v>
   <v>      -0.00015226      -0.00016670       0.00000000 </v>
   <v>       0.00023744       0.00195029       0.00128757 </v>
   <v>       0.00196007       0.00021122      -0.00129985 </v>
   <v>       0.00066672       0.00065867       0.00000000 </v>
   <v>       0.00000356      -0.00000556       0.00000000 </v>
   <v>       0.07014706      -0.00404369       0.00000000 </v>
   <v>      -0.00373727       0.07029335       0.00000000 </v>
   <v>      -0.00392908      -0.00384828      -0.00018002 </v>
   <v>       0.00229113       0.00234389       0.00005681 </v>
   <v>       0.00096460       0.00004065       0.00000000 </v>
   <v>       0.00005197       0.00095169       0.00000000 </v>
   <v>      -0.00392908      -0.00384828       0.00018002 </v>
   <v>       0.00229113       0.00234389      -0.00005681 </v>
   <v>       0.00741375      -0.00391793       0.00000000 </v>
   <v>      -0.00391632       0.00206636       0.00000000 </v>
   <v>       0.00005115      -0.00391491      -0.00645765 </v>
   <v>       0.00232508      -0.00156216       0.00003165 </v>
   <v>       0.00108122       0.00005140       0.00000000 </v>
   <v>       0.00005527      -0.00136302       0.00000000 </v>
   <v>       0.00005115      -0.00391491       0.00645765 </v>
   <v>       0.00232508      -0.00156216      -0.00003165 </v>
   <v>       0.00190098      -0.00386225       0.00000000 </v>
   <v>      -0.00385886       0.00726412       0.00000000 </v>
   <v>      -0.00386334       0.00003770       0.00630189 </v>
   <v>      -0.00149478       0.00231056       0.00003336 </v>
   <v>      -0.00137451       0.00003561       0.00000000 </v>
   <v>       0.00004019       0.00106761       0.00000000 </v>
   <v>      -0.00386334       0.00003770      -0.00630189 </v>
   <v>      -0.00149478       0.00231056      -0.00003336 </v>
   <v>      -0.00782427      -0.00391242       0.00000000 </v>
   <v>      -0.00386393      -0.00767476       0.00000000 </v>
   <v>       0.00003868       0.00005119      -0.00000799 </v>
   <v>      -0.00153368      -0.00152168      -0.00000559 </v>
   <v>      -0.00108654       0.00005421       0.00000000 </v>
   <v>       0.00003550      -0.00107348       0.00000000 </v>
   <v>       0.00003868       0.00005119       0.00000799 </v>
   <v>      -0.00153368      -0.00152168       0.00000559 </v>
  </varray>
  <varray name="stress" >
   <v>      -0.36435927      -0.00042404       0.00000000 </v>
   <v>      -0.00042407      -0.36439090       0.00000000 </v>
   <v>       0.00000000       0.00000000      -0.37573654 </v>
  </varray>
  <energy>
   <i name="e_fr_energy">   -223.90059607 </i>
   <i name="e_wo_entrp">   -223.90059607 </i>
   <i name="e_0_energy">   -223.90059607 </i>
  </energy>
  <time name="totalsc">  205.38  206.58</time>
  <eigenvalues>
   <array>
    <dimension dim="1">band</dimension>
    <dimension dim="2">kpoint</dimension>
    <dimension dim="3">spin</dimension>
    <field>eigene</field>
    <field>occ</field>
    <set>
     <set comment="spin 1">
      <set comment="kpoint 1">
       <r>  -21.3113    1.0000 </r>
       <r>  -21.3113    1.0000 </r>
       <r>  -21.3109    1.0000 </r>
       <r>  -21.3038    1.0000 </r>
       <r>  -21.3007    1.0000 </r>
       <r>  -21.3006    1.0000 </r>
       <r>  -21.2999    1.0000 </r>
       <r>  -21.2937    1.0000 </r>
       <r>  -21.2936    1.0000 </r>
       <r>  -21.2934    1.0000 </r>
       <r>  -21.2933    1.0000 </r>
       <r>  -21.2933    1.0000 </r>
       <r>  -21.2933    1.0000 </r>
       <r>  -21.2931    1.0000 </r>
       <r>  -21.2931    1.0000 </r>
       <r>  -21.2930    1.0000 </r>
       <r>  -21.2926    1.0000 </r>
       <r>  -21.2921    1.0000 </r>
       <r>  -21.2921    1.0000 </r>
       <r>  -21.2890    1.0000 </r>
       <r>  -21.2889    1.0000 </r>
       <r>  -21.2888    1.0000 </r>
       <r>  -21.2864    1.0000 </r>
       <r>  -21.2863    1.0000 </r>
       <r>  -21.2862    1.0000 </r>
       <r>  -21.2862    1.0000 </r>
       <r>  -21.2861    1.0000 </r>
       <r>  -21.2859    1.0000 </r>
       <r>  -21.2854    1.0000 </r>
       <r>  -21.2853    1.0000 </r>
       <r>  -21.2851    1.0000 </r>
       <r>  -21.2841    1.0000 </r>
       <r>  -21.2836    1.0000 </r>
       <r>  -21.2836    1.0000 </r>
       <r>  -21.2836    1.0000 </r>
       <r>  -21.2833    1.0000 </r>
       <r>  -21.2831    1.0000 </r>
       <r>  -21.2828    1.0000 </r>
       <r>  -21.2827    1.0000 </r>
       <r>  -21.2816    1.0000 </r>
       <r>  -21.2813    1.0000 </r>
       <r>  -21.2811    1.0000 </r>
       <r>  -21.2808    1.0000 </r>
       <r>  -21.2808    1.0000 </r>
       <r>  -21.2807    1.0000 </r>
       <r>  -21.2807    1.0000 </r>
       <r>  -21.2802    1.0000 </r>
       <r>  -21.2800    1.0000 </r>
       <r>  -21.2800    1.0000 </r>
       <r>  -21.2799    1.0000 </r>
       <r>  -21.2799    1.0000 </r>
       <r>  -21.2799    1.0000 </r>
       <r>  -21.2799    1.0000 </r>
       <r>  -21.2798    1.0000 </r>
       <r>  -21.2798    1.0000 </r>
       <r>  -21.2791    1.0000 </r>
       <r>  -21.2790    1.0000 </r>
       <r>  -21.2790    1.0000 </r>
       <r>  -21.2789    1.0000 </r>
       <r>  -21.2765    1.0000 </r>
       <r>  -21.2763    1.0000 </r>
       <r>  -21.2753    1.0000 </r>
       <r>  -21.2753    1.0000 </r>
       <r>  -21.2752    1.0000 </r>
       <r>  -21.2751    1.0000 </r>
       <r>  -21.2741    1.0000 </r>
       <r>  -21.2740    1.0000 </r>
       <r>  -21.2740    1.0000 </r>
       <r>  -21.2740    1.0000 </r>
       <r>  -21.2739    1.0000 </r>
       <r>  -21.2737    1.0000 </r>
       <r>  -21.2735    1.0000 </r>
       <r>  -21.2734    1.0000 </r>
       <r>  -21.2733    1.0000 </r>
       <r>  -21.2732    1.0000 </r>
       <r>  -21.2730    1.0000 </r>
       <r>  -21.2723    1.0000 </r>
       <r>  -21.2715    1.0000 </r>
       <r>  -21.2715    1.0000 </r>
       <r>  -21.2715    1.0000 </r>
       <r>  -21.2715    1.0000 </r>
       <r>  -21.2714    1.0000 </r>
       <r>  -21.2710    1.0000 </r>
       <r>  -21.2710    1.0000 </r>
       <r>  -21.2710    1.0000 </r>
       <r>  -21.2709    1.0000 </r>
       <r>  -21.2705    1.0000 </r>
       <r>  -21.2704    1.0000 </r>
       <r>  -21.2704    1.0000 </r>
       <r>  -21.2696    1.0000 </r>
       <r>  -21.2688    1.0000 </r>
       <r>  -21.2687    1.0000 </r>
       <r>  -21.2683    1.0000 </r>
       <r>  -21.2528    1.0000 </r>
       <r>  -21.2527    1.0000 </r>
       <r>  -21.2523    1.0000 </r>
       <r>  -13.3580    1.0000 </r>
       <r>  -13.1388    1.0000 </r>
       <r>  -13.1380    1.0000 </r>
       <r>  -13.1375    1.0000 </r>
       <r>  -13.1374    1.0000 </r>
       <r>  -13.1368    1.0000 </r>
       <r>  -13.1360    1.0000 </r>
       <r>  -13.0149    1.0000 </r>
       <r>  -13.0145    1.0000 </r>
       <r>  -13.0129    1.0000 </r>
       <r>  -13.0123    1.0000 </r>
       <r>  -13.0115    1.0000 </r>
       <r>  -13.0112    1.0000 </r>
       <r>  -13.0112    1.0000 </r>
       <r>  -13.0112    1.0000 </r>
       <r>  -13.0111    1.0000 </r>
       <r>  -13.0101    1.0000 </r>
       <r>  -13.0087    1.0000 </r>
       <r>  -13.0083    1.0000 </r>
       <r>  -12.9901    1.0000 </r>
       <r>  -12.9891    1.0000 </r>
       <r>  -12.9891    1.0000 </r>
       <r>  -12.9883    1.0000 </r>
       <r>  -12.9421    1.0000 </r>
       <r>  -12.9410    1.0000 </r>
       <r>  -12.9408    1.0000 </r>
       <r>  -12.9232    1.0000 </r>
       <r>  -12.9213    1.0000 </r>
       <r>  -12.9213    1.0000 </r>
       <r>  -12.9213    1.0000 </r>
       <r>  -12.9198    1.0000 </r>
       <r>  -12.9189    1.0000 </r>
       <r>   -2.7000    1.0000 </r>
       <r>   -2.7000    1.0000 </r>
       <r>   -2.7000    1.0000 </r>
       <r>   -2.6999    1.0000 </r>
       <r>   -2.4240    1.0000 </r>
       <r>   -2.4240    1.0000 </r>
       <r>   -2.4239    1.0000 </r>
       <r>   -2.2057    1.0000 </r>
       <r>   -2.2051    1.0000 </r>
       <r>   -2.2049    1.0000 </r>
       <r>   -2.2048    1.0000 </r>
       <r>   -2.2048    1.0000 </r>
       <r>   -2.2043    1.0000 </r>
       <r>   -2.2042    1.0000 </r>
       <r>   -2.2037    1.0000 </r>
       <r>   -2.2036    1.0000 </r>
       <r>   -2.2036    1.0000 </r>
       <r>   -2.2035    1.0000 </r>
       <r>   -2.2029    1.0000 </r>
       <r>   -1.9269    1.0000 </r>
       <r>   -1.9268    1.0000 </r>
       <r>   -1.9265    1.0000 </r>
       <r>   -1.9265    1.0000 </r>
       <r>   -1.9247    1.0000 </r>
       <r>   -1.9247    1.0000 </r>
       <r>   -1.9247    1.0000 </r>
       <r>   -1.9246    1.0000 </r>
       <r>   -1.9228    1.0000 </r>
       <r>   -1.9228    1.0000 </r>
       <r>   -1.9226    1.0000 </r>
       <r>   -1.9225    1.0000 </r>
       <r>   -1.7970    1.0000 </r>
       <r>   -1.7969    1.0000 </r>
       <r>   -1.7966    1.0000 </r>
       <r>   -1.7966    1.0000 </r>
       <r>   -1.7963    1.0000 </r>
       <r>   -1.7963    1.0000 </r>
       <r>   -1.5095    1.0000 </r>
       <r>   -1.5078    1.0000 </r>
       <r>   -1.5077    1.0000 </r>
       <r>   -1.5075    1.0000 </r>
       <r>   -1.5056    1.0000 </r>
       <r>   -1.5053    1.0000 </r>
       <r>   -1.5052    1.0000 </r>
       <r>   -1.5050    1.0000 </r>
       <r>   -1.5033    1.0000 </r>
       <r>   -1.5031    1.0000 </r>
       <r>   -1.5030    1.0000 </r>
       <r>   -1.5016    1.0000 </r>
       <r>   -1.4647    1.0000 </r>
       <r>   -1.4630    1.0000 </r>
       <r>   -1.4628    1.0000 </r>
       <r>   -1.4627    1.0000 </r>
       <r>   -1.4624    1.0000 </r>
       <r>   -1.4609    1.0000 </r>
       <r>   -1.2948    1.0000 </r>
       <r>   -1.2947    1.0000 </r>
       <r>   -1.2947    1.0000 </r>
       <r>   -1.2946    1.0000 </r>
       <r>   -1.2945    1.0000 </r>
       <r>   -1.2945    1.0000 </r>
       <r>   -1.0036    1.0000 </r>
       <r>   -1.0035    1.0000 </r>
       <r>   -1.0023    1.0000 </r>
       <r>   -1.0023    1.0000 </r>
       <r>   -1.0010    1.0000 </r>
       <r>   -1.0008    1.0000 </r>
       <r>   -1.0007    1.0000 </r>
       <r>   -1.0007    1.0000 </r>
       <r>   -0.9992    1.0000 </r>
       <r>   -0.9992    1.0000 </r>
       <r>   -0.9981    1.0000 </r>
       <r>   -0.9980    1.0000 </r>
       <r>   -0.9531    1.0000 </r>
       <r>   -0.9519    1.0000 </r>
       <r>   -0.9511    1.0000 </r>
       <r>   -0.9508    1.0000 </r>
       <r>   -0.9486    1.0000 </r>
       <r>   -0.9479    1.0000 </r>
       <r>   -0.9478    1.0000 </r>
       <r>   -0.9478    1.0000 </r>
       <r>   -0.9477    1.0000 </r>
       <r>   -0.9474    1.0000 </r>
       <r>   -0.9471    1.0000 </r>
       <r>   -0.9467    1.0000 </r>
       <r>   -0.9459    1.0000 </r>
       <r>   -0.9458    1.0000 </r>
       <r>   -0.9458    1.0000 </r>
       <r>   -0.9453    1.0000 </r>
       <r>   -0.9425    1.0000 </r>
       <r>   -0.9421    1.0000 </r>
       <r>   -0.9421    1.0000 </r>
       <r>   -0.9406    1.0000 </r>
       <r>   -0.6649    1.0000 </r>
       <r>   -0.6649    1.0000 </r>
       <r>   -0.6648    1.0000 </r>
       <r>    4.3403    0.0000 </r>
       <r>    6.3609    0.0000 </r>
       <r>    6.3669    0.0000 </r>
       <r>    6.3680    0.0000 </r>
       <r>    6.3681    0.0000 </r>
       <r>    6.3691    0.0000 </r>
       <r>    6.3748    0.0000 </r>
       <r>    6.4446    0.0000 </r>
       <r>    6.4446    0.0000 </r>
       <r>    6.4448    0.0000 </r>
       <r>    6.4449    0.0000 </r>
       <r>    6.8280    0.0000 </r>
       <r>    6.8280    0.0000 </r>
       <r>    6.8281    0.0000 </r>
       <r>    7.2068    0.0000 </r>
       <r>    7.2068    0.0000 </r>
       <r>    7.2069    0.0000 </r>
       <r>    7.4511    0.0000 </r>
       <r>    7.4586    0.0000 </r>
       <r>    7.4603    0.0000 </r>
       <r>    7.4608    0.0000 </r>
       <r>    7.4608    0.0000 </r>
       <r>    7.4641    0.0000 </r>
       <r>    7.4642    0.0000 </r>
       <r>    7.4676    0.0000 </r>
       <r>    7.4677    0.0000 </r>
       <r>    7.4679    0.0000 </r>
       <r>    7.4696    0.0000 </r>
       <r>    7.4767    0.0000 </r>
       <r>    8.1629    0.0000 </r>
       <r>    8.1679    0.0000 </r>
       <r>    8.1680    0.0000 </r>
       <r>    8.1683    0.0000 </r>
       <r>    8.1685    0.0000 </r>
       <r>    8.1741    0.0000 </r>
       <r>    8.2777    0.0000 </r>
       <r>    8.2782    0.0000 </r>
       <r>    8.2797    0.0000 </r>
       <r>    8.2798    0.0000 </r>
       <r>    8.2808    0.0000 </r>
       <r>    8.2816    0.0000 </r>
       <r>    8.8883    0.0000 </r>
       <r>    8.8931    0.0000 </r>
       <r>    8.8934    0.0000 </r>
       <r>    8.8938    0.0000 </r>
       <r>    8.8996    0.0000 </r>
       <r>    8.9007    0.0000 </r>
       <r>    8.9015    0.0000 </r>
       <r>    8.9028    0.0000 </r>
       <r>    8.9035    0.0000 </r>
       <r>    8.9035    0.0000 </r>
       <r>    8.9050    0.0000 </r>
       <r>    8.9065    0.0000 </r>
       <r>    8.9126    0.0000 </r>
       <r>    8.9127    0.0000 </r>
       <r>    8.9138    0.0000 </r>
       <r>    8.9151    0.0000 </r>
       <r>    8.9165    0.0000 </r>
       <r>    8.9168    0.0000 </r>
       <r>    8.9173    0.0000 </r>
       <r>    8.9241    0.0000 </r>
       <r>    8.9250    0.0000 </r>
       <r>    8.9255    0.0000 </r>
       <r>    8.9278    0.0000 </r>
      </set>
      <set comment="kpoint 2">
       <r>  -21.3108    1.0000 </r>
       <r>  -21.3107    1.0000 </r>
       <r>  -21.3105    1.0000 </r>
       <r>  -21.3001    1.0000 </r>
       <r>  -21.2988    1.0000 </r>
       <r>  -21.2987    1.0000 </r>
       <r>  -21.2978    1.0000 </r>
       <r>  -21.2977    1.0000 </r>
       <r>  -21.2973    1.0000 </r>
       <r>  -21.2972    1.0000 </r>
       <r>  -21.2966    1.0000 </r>
       <r>  -21.2924    1.0000 </r>
       <r>  -21.2922    1.0000 </r>
       <r>  -21.2919    1.0000 </r>
       <r>  -21.2918    1.0000 </r>
       <r>  -21.2917    1.0000 </r>
       <r>  -21.2917    1.0000 </r>
       <r>  -21.2915    1.0000 </r>
       <r>  -21.2906    1.0000 </r>
       <r>  -21.2901    1.0000 </r>
       <r>  -21.2899    1.0000 </r>
       <r>  -21.2892    1.0000 </r>
       <r>  -21.2890    1.0000 </r>
       <r>  -21.2884    1.0000 </r>
       <r>  -21.2883    1.0000 </r>
       <r>  -21.2882    1.0000 </r>
       <r>  -21.2875    1.0000 </r>
       <r>  -21.2873    1.0000 </r>
       <r>  -21.2870    1.0000 </r>
       <r>  -21.2862    1.0000 </r>
       <r>  -21.2860    1.0000 </r>
       <r>  -21.2860    1.0000 </r>
       <r>  -21.2858    1.0000 </r>
       <r>  -21.2857    1.0000 </r>
       <r>  -21.2849    1.0000 </r>
       <r>  -21.2837    1.0000 </r>
       <r>  -21.2831    1.0000 </r>
       <r>  -21.2828    1.0000 </r>
       <r>  -21.2827    1.0000 </r>
       <r>  -21.2823    1.0000 </r>
       <r>  -21.2820    1.0000 </r>
       <r>  -21.2805    1.0000 </r>
       <r>  -21.2805    1.0000 </r>
       <r>  -21.2804    1.0000 </r>
       <r>  -21.2800    1.0000 </r>
       <r>  -21.2800    1.0000 </r>
       <r>  -21.2796    1.0000 </r>
       <r>  -21.2794    1.0000 </r>
       <r>  -21.2783    1.0000 </r>
       <r>  -21.2779    1.0000 </r>
       <r>  -21.2775    1.0000 </r>
       <r>  -21.2773    1.0000 </r>
       <r>  -21.2772    1.0000 </r>
       <r>  -21.2771    1.0000 </r>
       <r>  -21.2770    1.0000 </r>
       <r>  -21.2769    1.0000 </r>
       <r>  -21.2768    1.0000 </r>
       <r>  -21.2764    1.0000 </r>
       <r>  -21.2763    1.0000 </r>
       <r>  -21.2756    1.0000 </r>
       <r>  -21.2755    1.0000 </r>
       <r>  -21.2753    1.0000 </r>
       <r>  -21.2752    1.0000 </r>
       <r>  -21.2752    1.0000 </r>
       <r>  -21.2751    1.0000 </r>
       <r>  -21.2750    1.0000 </r>
       <r>  -21.2749    1.0000 </r>
       <r>  -21.2746    1.0000 </r>
       <r>  -21.2744    1.0000 </r>
       <r>  -21.2742    1.0000 </r>
       <r>  -21.2742    1.0000 </r>
       <r>  -21.2741    1.0000 </r>
       <r>  -21.2738    1.0000 </r>
       <r>  -21.2737    1.0000 </r>
       <r>  -21.2733    1.0000 </r>
       <r>  -21.2731    1.0000 </r>
       <r>  -21.2729    1.0000 </r>
       <r>  -21.2727    1.0000 </r>
       <r>  -21.2726    1.0000 </r>
       <r>  -21.2720    1.0000 </r>
       <r>  -21.2716    1.0000 </r>
       <r>  -21.2713    1.0000 </r>
       <r>  -21.2712    1.0000 </r>
       <r>  -21.2712    1.0000 </r>
       <r>  -21.2711    1.0000 </r>
       <r>  -21.2711    1.0000 </r>
       <r>  -21.2708    1.0000 </r>
       <r>  -21.2707    1.0000 </r>
       <r>  -21.2705    1.0000 </r>
       <r>  -21.2704    1.0000 </r>
       <r>  -21.2701    1.0000 </r>
       <r>  -21.2690    1.0000 </r>
       <r>  -21.2688    1.0000 </r>
       <r>  -21.2530    1.0000 </r>
       <r>  -21.2527    1.0000 </r>
       <r>  -21.2523    1.0000 </r>
       <r>  -13.2930    1.0000 </r>
       <r>  -13.2894    1.0000 </r>
       <r>  -13.0996    1.0000 </r>
       <r>  -13.0992    1.0000 </r>
       <r>  -13.0991    1.0000 </r>
       <r>  -13.0977    1.0000 </r>
       <r>  -13.0966    1.0000 </r>
       <r>  -13.0949    1.0000 </r>
       <r>  -13.0947    1.0000 </r>
       <r>  -13.0937    1.0000 </r>
       <r>  -13.0051    1.0000 </r>
       <r>  -13.0051    1.0000 </r>
       <r>  -13.0017    1.0000 </r>
       <r>  -13.0013    1.0000 </r>
       <r>  -13.0007    1.0000 </r>
       <r>  -13.0006    1.0000 </r>
       <r>  -12.9972    1.0000 </r>
       <r>  -12.9962    1.0000 </r>
       <r>  -12.9960    1.0000 </r>
       <r>  -12.9928    1.0000 </r>
       <r>  -12.9480    1.0000 </r>
       <r>  -12.9459    1.0000 </r>
       <r>  -12.9458    1.0000 </r>
       <r>  -12.9451    1.0000 </r>
       <r>  -12.9426    1.0000 </r>
       <r>  -12.9414    1.0000 </r>
       <r>  -12.9413    1.0000 </r>
       <r>  -12.9402    1.0000 </r>
       <r>  -12.9349    1.0000 </r>
       <r>  -12.9307    1.0000 </r>
       <r>  -12.9306    1.0000 </r>
       <r>  -12.9260    1.0000 </r>
       <r>   -2.5074    1.0000 </r>
       <r>   -2.5068    1.0000 </r>
       <r>   -2.5047    1.0000 </r>
       <r>   -2.5047    1.0000 </r>
       <r>   -2.5041    1.0000 </r>
       <r>   -2.5039    1.0000 </r>
       <r>   -2.5019    1.0000 </r>
       <r>   -2.5011    1.0000 </r>
       <r>   -2.2891    1.0000 </r>
       <r>   -2.2890    1.0000 </r>
       <r>   -2.2863    1.0000 </r>
       <r>   -2.2863    1.0000 </r>
       <r>   -2.2762    1.0000 </r>
       <r>   -2.2721    1.0000 </r>
       <r>   -2.1391    1.0000 </r>
       <r>   -2.1376    1.0000 </r>
       <r>   -2.1371    1.0000 </r>
       <r>   -2.1367    1.0000 </r>
       <r>   -2.1361    1.0000 </r>
       <r>   -2.1361    1.0000 </r>
       <r>   -2.1355    1.0000 </r>
       <r>   -2.1330    1.0000 </r>
       <r>   -1.9870    1.0000 </r>
       <r>   -1.9865    1.0000 </r>
       <r>   -1.9865    1.0000 </r>
       <r>   -1.9862    1.0000 </r>
       <r>   -1.9845    1.0000 </r>
       <r>   -1.9843    1.0000 </r>
       <r>   -1.9843    1.0000 </r>
       <r>   -1.9840    1.0000 </r>
       <r>   -1.8110    1.0000 </r>
       <r>   -1.8107    1.0000 </r>
       <r>   -1.8107    1.0000 </r>
       <r>   -1.8097    1.0000 </r>
       <r>   -1.8096    1.0000 </r>
       <r>   -1.8078    1.0000 </r>
       <r>   -1.8072    1.0000 </r>
       <r>   -1.8035    1.0000 </r>
       <r>   -1.5010    1.0000 </r>
       <r>   -1.5010    1.0000 </r>
       <r>   -1.4945    1.0000 </r>
       <r>   -1.4945    1.0000 </r>
       <r>   -1.3844    1.0000 </r>
       <r>   -1.3809    1.0000 </r>
       <r>   -1.3801    1.0000 </r>
       <r>   -1.3763    1.0000 </r>
       <r>   -1.2141    1.0000 </r>
       <r>   -1.2139    1.0000 </r>
       <r>   -1.2114    1.0000 </r>
       <r>   -1.2107    1.0000 </r>
       <r>   -1.1955    1.0000 </r>
       <r>   -1.1923    1.0000 </r>
       <r>   -1.1920    1.0000 </r>
       <r>   -1.1910    1.0000 </r>
       <r>   -1.1910    1.0000 </r>
       <r>   -1.1908    1.0000 </r>
       <r>   -1.1905    1.0000 </r>
       <r>   -1.1871    1.0000 </r>
       <r>   -1.1782    1.0000 </r>
       <r>   -1.1772    1.0000 </r>
       <r>   -1.1769    1.0000 </r>
       <r>   -1.1754    1.0000 </r>
       <r>   -1.1733    1.0000 </r>
       <r>   -1.1714    1.0000 </r>
       <r>   -1.1703    1.0000 </r>
       <r>   -1.1699    1.0000 </r>
       <r>   -1.1634    1.0000 </r>
       <r>   -1.1623    1.0000 </r>
       <r>   -1.1618    1.0000 </r>
       <r>   -1.1617    1.0000 </r>
       <r>   -1.1599    1.0000 </r>
       <r>   -1.1567    1.0000 </r>
       <r>   -1.1551    1.0000 </r>
       <r>   -1.1538    1.0000 </r>
       <r>   -1.0858    1.0000 </r>
       <r>   -1.0807    1.0000 </r>
       <r>   -0.9516    1.0000 </r>
       <r>   -0.9510    1.0000 </r>
       <r>   -0.9473    1.0000 </r>
       <r>   -0.9470    1.0000 </r>
       <r>   -0.9469    1.0000 </r>
       <r>   -0.9468    1.0000 </r>
       <r>   -0.9424    1.0000 </r>
       <r>   -0.9421    1.0000 </r>
       <r>   -0.9357    1.0000 </r>
       <r>   -0.9338    1.0000 </r>
       <r>   -0.9337    1.0000 </r>
       <r>   -0.9329    1.0000 </r>
       <r>   -0.9317    1.0000 </r>
       <r>   -0.9308    1.0000 </r>
       <r>   -0.9308    1.0000 </r>
       <r>   -0.9287    1.0000 </r>
       <r>   -0.7712    1.0000 </r>
       <r>   -0.7712    1.0000 </r>
       <r>   -0.7654    1.0000 </r>
       <r>   -0.7654    1.0000 </r>
       <r>    5.0188    0.0000 </r>
       <r>    5.0258    0.0000 </r>
       <r>    6.7081    0.0000 </r>
       <r>    6.7144    0.0000 </r>
       <r>    6.7144    0.0000 </r>
       <r>    6.7169    0.0000 </r>
       <r>    6.7188    0.0000 </r>
       <r>    6.7218    0.0000 </r>
       <r>    6.7222    0.0000 </r>
       <r>    6.7277    0.0000 </r>
       <r>    6.8383    0.0000 </r>
       <r>    6.8387    0.0000 </r>
       <r>    6.8388    0.0000 </r>
       <r>    6.8410    0.0000 </r>
       <r>    6.8437    0.0000 </r>
       <r>    6.8465    0.0000 </r>
       <r>    6.8498    0.0000 </r>
       <r>    6.8499    0.0000 </r>
       <r>    6.9683    0.0000 </r>
       <r>    6.9741    0.0000 </r>
       <r>    7.3562    0.0000 </r>
       <r>    7.3625    0.0000 </r>
       <r>    7.3626    0.0000 </r>
       <r>    7.3690    0.0000 </r>
       <r>    7.4789    0.0000 </r>
       <r>    7.4816    0.0000 </r>
       <r>    7.7109    0.0000 </r>
       <r>    7.7110    0.0000 </r>
       <r>    7.7183    0.0000 </r>
       <r>    7.7183    0.0000 </r>
       <r>    8.2554    0.0000 </r>
       <r>    8.2632    0.0000 </r>
       <r>    8.2637    0.0000 </r>
       <r>    8.2649    0.0000 </r>
       <r>    8.2657    0.0000 </r>
       <r>    8.2680    0.0000 </r>
       <r>    8.2707    0.0000 </r>
       <r>    8.2741    0.0000 </r>
       <r>    8.5268    0.0000 </r>
       <r>    8.5269    0.0000 </r>
       <r>    8.5300    0.0000 </r>
       <r>    8.5356    0.0000 </r>
       <r>    8.5359    0.0000 </r>
       <r>    8.5370    0.0000 </r>
       <r>    8.5374    0.0000 </r>
       <r>    8.5381    0.0000 </r>
       <r>    8.5385    0.0000 </r>
       <r>    8.5387    0.0000 </r>
       <r>    8.5401    0.0000 </r>
       <r>    8.5422    0.0000 </r>
       <r>    8.5423    0.0000 </r>
       <r>    8.5482    0.0000 </r>
       <r>    8.5494    0.0000 </r>
       <r>    8.5497    0.0000 </r>
       <r>    8.9427    0.0000 </r>
       <r>    8.9467    0.0000 </r>
       <r>    8.9468    0.0000 </r>
       <r>    8.9496    0.0000 </r>
       <r>    8.9502    0.0000 </r>
       <r>    8.9540    0.0000 </r>
       <r>    8.9552    0.0000 </r>
       <r>    8.9627    0.0000 </r>
       <r>    9.4967    0.0000 </r>
       <r>    9.5154    0.0000 </r>
      </set>
      <set comment="kpoint 3">
       <r>  -21.3110    1.0000 </r>
       <r>  -21.3108    1.0000 </r>
       <r>  -21.3102    1.0000 </r>
       <r>  -21.3001    1.0000 </r>
       <r>  -21.2988    1.0000 </r>
       <r>  -21.2987    1.0000 </r>
       <r>  -21.2979    1.0000 </r>
       <r>  -21.2976    1.0000 </r>
       <r>  -21.2973    1.0000 </r>
       <r>  -21.2972    1.0000 </r>
       <r>  -21.2966    1.0000 </r>
       <r>  -21.2925    1.0000 </r>
       <r>  -21.2922    1.0000 </r>
       <r>  -21.2919    1.0000 </r>
       <r>  -21.2918    1.0000 </r>
       <r>  -21.2917    1.0000 </r>
       <r>  -21.2916    1.0000 </r>
       <r>  -21.2915    1.0000 </r>
       <r>  -21.2906    1.0000 </r>
       <r>  -21.2901    1.0000 </r>
       <r>  -21.2899    1.0000 </r>
       <r>  -21.2893    1.0000 </r>
       <r>  -21.2890    1.0000 </r>
       <r>  -21.2885    1.0000 </r>
       <r>  -21.2884    1.0000 </r>
       <r>  -21.2882    1.0000 </r>
       <r>  -21.2873    1.0000 </r>
       <r>  -21.2873    1.0000 </r>
       <r>  -21.2870    1.0000 </r>
       <r>  -21.2863    1.0000 </r>
       <r>  -21.2861    1.0000 </r>
       <r>  -21.2860    1.0000 </r>
       <r>  -21.2859    1.0000 </r>
       <r>  -21.2857    1.0000 </r>
       <r>  -21.2848    1.0000 </r>
       <r>  -21.2836    1.0000 </r>
       <r>  -21.2830    1.0000 </r>
       <r>  -21.2828    1.0000 </r>
       <r>  -21.2827    1.0000 </r>
       <r>  -21.2823    1.0000 </r>
       <r>  -21.2820    1.0000 </r>
       <r>  -21.2805    1.0000 </r>
       <r>  -21.2805    1.0000 </r>
       <r>  -21.2804    1.0000 </r>
       <r>  -21.2800    1.0000 </r>
       <r>  -21.2800    1.0000 </r>
       <r>  -21.2797    1.0000 </r>
       <r>  -21.2793    1.0000 </r>
       <r>  -21.2783    1.0000 </r>
       <r>  -21.2779    1.0000 </r>
       <r>  -21.2775    1.0000 </r>
       <r>  -21.2775    1.0000 </r>
       <r>  -21.2771    1.0000 </r>
       <r>  -21.2771    1.0000 </r>
       <r>  -21.2770    1.0000 </r>
       <r>  -21.2770    1.0000 </r>
       <r>  -21.2770    1.0000 </r>
       <r>  -21.2765    1.0000 </r>
       <r>  -21.2764    1.0000 </r>
       <r>  -21.2756    1.0000 </r>
       <r>  -21.2754    1.0000 </r>
       <r>  -21.2753    1.0000 </r>
       <r>  -21.2752    1.0000 </r>
       <r>  -21.2752    1.0000 </r>
       <r>  -21.2751    1.0000 </r>
       <r>  -21.2750    1.0000 </r>
       <r>  -21.2749    1.0000 </r>
       <r>  -21.2746    1.0000 </r>
       <r>  -21.2743    1.0000 </r>
       <r>  -21.2742    1.0000 </r>
       <r>  -21.2741    1.0000 </r>
       <r>  -21.2739    1.0000 </r>
       <r>  -21.2739    1.0000 </r>
       <r>  -21.2736    1.0000 </r>
       <r>  -21.2735    1.0000 </r>
       <r>  -21.2732    1.0000 </r>
       <r>  -21.2729    1.0000 </r>
       <r>  -21.2727    1.0000 </r>
       <r>  -21.2725    1.0000 </r>
       <r>  -21.2720    1.0000 </r>
       <r>  -21.2716    1.0000 </r>
       <r>  -21.2714    1.0000 </r>
       <r>  -21.2713    1.0000 </r>
       <r>  -21.2712    1.0000 </r>
       <r>  -21.2711    1.0000 </r>
       <r>  -21.2711    1.0000 </r>
       <r>  -21.2709    1.0000 </r>
       <r>  -21.2707    1.0000 </r>
       <r>  -21.2705    1.0000 </r>
       <r>  -21.2703    1.0000 </r>
       <r>  -21.2702    1.0000 </r>
       <r>  -21.2690    1.0000 </r>
       <r>  -21.2688    1.0000 </r>
       <r>  -21.2529    1.0000 </r>
       <r>  -21.2527    1.0000 </r>
       <r>  -21.2524    1.0000 </r>
       <r>  -13.2930    1.0000 </r>
       <r>  -13.2894    1.0000 </r>
       <r>  -13.1002    1.0000 </r>
       <r>  -13.0992    1.0000 </r>
       <r>  -13.0988    1.0000 </r>
       <r>  -13.0975    1.0000 </r>
       <r>  -13.0963    1.0000 </r>
       <r>  -13.0948    1.0000 </r>
       <r>  -13.0947    1.0000 </r>
       <r>  -13.0941    1.0000 </r>
       <r>  -13.0051    1.0000 </r>
       <r>  -13.0050    1.0000 </r>
       <r>  -13.0015    1.0000 </r>
       <r>  -13.0012    1.0000 </r>
       <r>  -13.0007    1.0000 </r>
       <r>  -13.0006    1.0000 </r>
       <r>  -12.9972    1.0000 </r>
       <r>  -12.9963    1.0000 </r>
       <r>  -12.9962    1.0000 </r>
       <r>  -12.9928    1.0000 </r>
       <r>  -12.9473    1.0000 </r>
       <r>  -12.9458    1.0000 </r>
       <r>  -12.9458    1.0000 </r>
       <r>  -12.9457    1.0000 </r>
       <r>  -12.9435    1.0000 </r>
       <r>  -12.9415    1.0000 </r>
       <r>  -12.9414    1.0000 </r>
       <r>  -12.9394    1.0000 </r>
       <r>  -12.9348    1.0000 </r>
       <r>  -12.9307    1.0000 </r>
       <r>  -12.9306    1.0000 </r>
       <r>  -12.9262    1.0000 </r>
       <r>   -2.5075    1.0000 </r>
       <r>   -2.5068    1.0000 </r>
       <r>   -2.5047    1.0000 </r>
       <r>   -2.5046    1.0000 </r>
       <r>   -2.5040    1.0000 </r>
       <r>   -2.5039    1.0000 </r>
       <r>   -2.5019    1.0000 </r>
       <r>   -2.5012    1.0000 </r>
       <r>   -2.2890    1.0000 </r>
       <r>   -2.2890    1.0000 </r>
       <r>   -2.2864    1.0000 </r>
       <r>   -2.2863    1.0000 </r>
       <r>   -2.2761    1.0000 </r>
       <r>   -2.2721    1.0000 </r>
       <r>   -2.1399    1.0000 </r>
       <r>   -2.1373    1.0000 </r>
       <r>   -2.1367    1.0000 </r>
       <r>   -2.1367    1.0000 </r>
       <r>   -2.1361    1.0000 </r>
       <r>   -2.1357    1.0000 </r>
       <r>   -2.1351    1.0000 </r>
       <r>   -2.1337    1.0000 </r>
       <r>   -1.9869    1.0000 </r>
       <r>   -1.9866    1.0000 </r>
       <r>   -1.9865    1.0000 </r>
       <r>   -1.9863    1.0000 </r>
       <r>   -1.9847    1.0000 </r>
       <r>   -1.9843    1.0000 </r>
       <r>   -1.9843    1.0000 </r>
       <r>   -1.9838    1.0000 </r>
       <r>   -1.8142    1.0000 </r>
       <r>   -1.8103    1.0000 </r>
       <r>   -1.8096    1.0000 </r>
       <r>   -1.8079    1.0000 </r>
       <r>   -1.8079    1.0000 </r>
       <r>   -1.8070    1.0000 </r>
       <r>   -1.8068    1.0000 </r>
       <r>   -1.8065    1.0000 </r>
       <r>   -1.5010    1.0000 </r>
       <r>   -1.5009    1.0000 </r>
       <r>   -1.4946    1.0000 </r>
       <r>   -1.4945    1.0000 </r>
       <r>   -1.3843    1.0000 </r>
       <r>   -1.3808    1.0000 </r>
       <r>   -1.3802    1.0000 </r>
       <r>   -1.3763    1.0000 </r>
       <r>   -1.2145    1.0000 </r>
       <r>   -1.2140    1.0000 </r>
       <r>   -1.2109    1.0000 </r>
       <r>   -1.2106    1.0000 </r>
       <r>   -1.1953    1.0000 </r>
       <r>   -1.1918    1.0000 </r>
       <r>   -1.1917    1.0000 </r>
       <r>   -1.1915    1.0000 </r>
       <r>   -1.1911    1.0000 </r>
       <r>   -1.1904    1.0000 </r>
       <r>   -1.1899    1.0000 </r>
       <r>   -1.1884    1.0000 </r>
       <r>   -1.1790    1.0000 </r>
       <r>   -1.1783    1.0000 </r>
       <r>   -1.1762    1.0000 </r>
       <r>   -1.1754    1.0000 </r>
       <r>   -1.1734    1.0000 </r>
       <r>   -1.1705    1.0000 </r>
       <r>   -1.1701    1.0000 </r>
       <r>   -1.1697    1.0000 </r>
       <r>   -1.1649    1.0000 </r>
       <r>   -1.1630    1.0000 </r>
       <r>   -1.1625    1.0000 </r>
       <r>   -1.1593    1.0000 </r>
       <r>   -1.1579    1.0000 </r>
       <r>   -1.1574    1.0000 </r>
       <r>   -1.1551    1.0000 </r>
       <r>   -1.1548    1.0000 </r>
       <r>   -1.0856    1.0000 </r>
       <r>   -1.0809    1.0000 </r>
       <r>   -0.9518    1.0000 </r>
       <r>   -0.9508    1.0000 </r>
       <r>   -0.9470    1.0000 </r>
       <r>   -0.9469    1.0000 </r>
       <r>   -0.9469    1.0000 </r>
       <r>   -0.9466    1.0000 </r>
       <r>   -0.9426    1.0000 </r>
       <r>   -0.9424    1.0000 </r>
       <r>   -0.9356    1.0000 </r>
       <r>   -0.9340    1.0000 </r>
       <r>   -0.9339    1.0000 </r>
       <r>   -0.9330    1.0000 </r>
       <r>   -0.9316    1.0000 </r>
       <r>   -0.9307    1.0000 </r>
       <r>   -0.9306    1.0000 </r>
       <r>   -0.9288    1.0000 </r>
       <r>   -0.7712    1.0000 </r>
       <r>   -0.7711    1.0000 </r>
       <r>   -0.7654    1.0000 </r>
       <r>   -0.7654    1.0000 </r>
       <r>    5.0187    0.0000 </r>
       <r>    5.0259    0.0000 </r>
       <r>    6.7076    0.0000 </r>
       <r>    6.7141    0.0000 </r>
       <r>    6.7144    0.0000 </r>
       <r>    6.7178    0.0000 </r>
       <r>    6.7189    0.0000 </r>
       <r>    6.7218    0.0000 </r>
       <r>    6.7219    0.0000 </r>
       <r>    6.7277    0.0000 </r>
       <r>    6.8369    0.0000 </r>
       <r>    6.8372    0.0000 </r>
       <r>    6.8402    0.0000 </r>
       <r>    6.8428    0.0000 </r>
       <r>    6.8454    0.0000 </r>
       <r>    6.8477    0.0000 </r>
       <r>    6.8482    0.0000 </r>
       <r>    6.8483    0.0000 </r>
       <r>    6.9683    0.0000 </r>
       <r>    6.9740    0.0000 </r>
       <r>    7.3563    0.0000 </r>
       <r>    7.3625    0.0000 </r>
       <r>    7.3626    0.0000 </r>
       <r>    7.3689    0.0000 </r>
       <r>    7.4789    0.0000 </r>
       <r>    7.4816    0.0000 </r>
       <r>    7.7110    0.0000 </r>
       <r>    7.7111    0.0000 </r>
       <r>    7.7182    0.0000 </r>
       <r>    7.7182    0.0000 </r>
       <r>    8.2573    0.0000 </r>
       <r>    8.2605    0.0000 </r>
       <r>    8.2637    0.0000 </r>
       <r>    8.2659    0.0000 </r>
       <r>    8.2668    0.0000 </r>
       <r>    8.2680    0.0000 </r>
       <r>    8.2682    0.0000 </r>
       <r>    8.2754    0.0000 </r>
       <r>    8.5267    0.0000 </r>
       <r>    8.5274    0.0000 </r>
       <r>    8.5293    0.0000 </r>
       <r>    8.5346    0.0000 </r>
       <r>    8.5349    0.0000 </r>
       <r>    8.5372    0.0000 </r>
       <r>    8.5382    0.0000 </r>
       <r>    8.5389    0.0000 </r>
       <r>    8.5390    0.0000 </r>
       <r>    8.5397    0.0000 </r>
       <r>    8.5401    0.0000 </r>
       <r>    8.5409    0.0000 </r>
       <r>    8.5413    0.0000 </r>
       <r>    8.5476    0.0000 </r>
       <r>    8.5504    0.0000 </r>
       <r>    8.5507    0.0000 </r>
       <r>    8.9395    0.0000 </r>
       <r>    8.9467    0.0000 </r>
       <r>    8.9480    0.0000 </r>
       <r>    8.9516    0.0000 </r>
       <r>    8.9522    0.0000 </r>
       <r>    8.9553    0.0000 </r>
       <r>    8.9554    0.0000 </r>
       <r>    8.9593    0.0000 </r>
       <r>    9.5010    0.0000 </r>
       <r>    9.5170    0.0000 </r>
      </set>
      <set comment="kpoint 4">
       <r>  -21.3108    1.0000 </r>
       <r>  -21.3104    1.0000 </r>
       <r>  -21.3103    1.0000 </r>
       <r>  -21.3000    1.0000 </r>
       <r>  -21.2996    1.0000 </r>
       <r>  -21.2996    1.0000 </r>
       <r>  -21.2995    1.0000 </r>
       <r>  -21.2995    1.0000 </r>
       <r>  -21.2962    1.0000 </r>
       <r>  -21.2951    1.0000 </r>
       <r>  -21.2950    1.0000 </r>
       <r>  -21.2928    1.0000 </r>
       <r>  -21.2918    1.0000 </r>
       <r>  -21.2918    1.0000 </r>
       <r>  -21.2915    1.0000 </r>
       <r>  -21.2914    1.0000 </r>
       <r>  -21.2911    1.0000 </r>
       <r>  -21.2911    1.0000 </r>
       <r>  -21.2910    1.0000 </r>
       <r>  -21.2910    1.0000 </r>
       <r>  -21.2896    1.0000 </r>
       <r>  -21.2889    1.0000 </r>
       <r>  -21.2886    1.0000 </r>
       <r>  -21.2886    1.0000 </r>
       <r>  -21.2881    1.0000 </r>
       <r>  -21.2878    1.0000 </r>
       <r>  -21.2878    1.0000 </r>
       <r>  -21.2877    1.0000 </r>
       <r>  -21.2871    1.0000 </r>
       <r>  -21.2871    1.0000 </r>
       <r>  -21.2868    1.0000 </r>
       <r>  -21.2867    1.0000 </r>
       <r>  -21.2844    1.0000 </r>
       <r>  -21.2843    1.0000 </r>
       <r>  -21.2841    1.0000 </r>
       <r>  -21.2841    1.0000 </r>
       <r>  -21.2840    1.0000 </r>
       <r>  -21.2839    1.0000 </r>
       <r>  -21.2823    1.0000 </r>
       <r>  -21.2819    1.0000 </r>
       <r>  -21.2818    1.0000 </r>
       <r>  -21.2816    1.0000 </r>
       <r>  -21.2816    1.0000 </r>
       <r>  -21.2804    1.0000 </r>
       <r>  -21.2804    1.0000 </r>
       <r>  -21.2803    1.0000 </r>
       <r>  -21.2785    1.0000 </r>
       <r>  -21.2784    1.0000 </r>
       <r>  -21.2781    1.0000 </r>
       <r>  -21.2778    1.0000 </r>
       <r>  -21.2778    1.0000 </r>
       <r>  -21.2774    1.0000 </r>
       <r>  -21.2768    1.0000 </r>
       <r>  -21.2767    1.0000 </r>
       <r>  -21.2766    1.0000 </r>
       <r>  -21.2766    1.0000 </r>
       <r>  -21.2766    1.0000 </r>
       <r>  -21.2765    1.0000 </r>
       <r>  -21.2764    1.0000 </r>
       <r>  -21.2763    1.0000 </r>
       <r>  -21.2761    1.0000 </r>
       <r>  -21.2761    1.0000 </r>
       <r>  -21.2758    1.0000 </r>
       <r>  -21.2757    1.0000 </r>
       <r>  -21.2757    1.0000 </r>
       <r>  -21.2756    1.0000 </r>
       <r>  -21.2755    1.0000 </r>
       <r>  -21.2755    1.0000 </r>
       <r>  -21.2742    1.0000 </r>
       <r>  -21.2742    1.0000 </r>
[...]
      </set>
     </set>
    </set>
   </array>
  </eigenvalues>
  <separator name="orbital magnetization" >
   <v name="MAGDIPOLOUT">      0.00000000      0.00000000      0.00000000</v>
  </separator>
  <dos>
   <i name="efermi">     -0.55570186 </i>
   <total>
    <array>
     <dimension dim="1">gridpoints</dimension>
     <dimension dim="2">spin</dimension>
     <field>energy</field>
     <field>total</field>
     <field>integrated</field>
     <set>
      <set comment="spin 1">
       <r>   -22.8528     0.0000     0.0000 </r>
       <r>   -22.7397     0.0000     0.0000 </r>
       <r>   -22.6267     0.0000     0.0000 </r>
       <r>   -22.5137     0.0000     0.0000 </r>
       <r>   -22.4006     0.0000     0.0000 </r>
       <r>   -22.2876     0.0000     0.0000 </r>
       <r>   -22.1745     0.0000     0.0000 </r>
       <r>   -22.0615     0.0000     0.0000 </r>
       <r>   -21.9485     0.0000     0.0000 </r>
       <r>   -21.8354     0.0000     0.0000 </r>
       <r>   -21.7224     0.0000     0.0000 </r>
       <r>   -21.6093     0.0000     0.0000 </r>
       <r>   -21.4963     0.0000     0.0000 </r>
       <r>   -21.3833     0.0000     0.0000 </r>
       <r>   -21.2702  1238.4165   139.9902 </r>
       <r>   -21.1572   460.1018   192.0000 </r>
       <r>   -21.0441     0.0000   192.0000 </r>
       <r>   -20.9311     0.0000   192.0000 </r>
       <r>   -20.8181     0.0000   192.0000 </r>
       <r>   -20.7050     0.0000   192.0000 </r>
       <r>   -20.5920     0.0000   192.0000 </r>
       <r>   -20.4789     0.0000   192.0000 </r>
       <r>   -20.3659     0.0000   192.0000 </r>
       <r>   -20.2529     0.0000   192.0000 </r>
       <r>   -20.1398     0.0000   192.0000 </r>
       <r>   -20.0268     0.0000   192.0000 </r>
       <r>   -19.9138     0.0000   192.0000 </r>
       <r>   -19.8007     0.0000   192.0000 </r>
       <r>   -19.6877     0.0000   192.0000 </r>
       <r>   -19.5746     0.0000   192.0000 </r>
       <r>   -19.4616     0.0000   192.0000 </r>
       <r>   -19.3486     0.0000   192.0000 </r>
       <r>   -19.2355     0.0000   192.0000 </r>
       <r>   -19.1225     0.0000   192.0000 </r>
       <r>   -19.0094     0.0000   192.0000 </r>
       <r>   -18.8964     0.0000   192.0000 </r>
       <r>   -18.7834     0.0000   192.0000 </r>
       <r>   -18.6703     0.0000   192.0000 </r>
       <r>   -18.5573     0.0000   192.0000 </r>
       <r>   -18.4442     0.0000   192.0000 </r>
       <r>   -18.3312     0.0000   192.0000 </r>
       <r>   -18.2182     0.0000   192.0000 </r>
       <r>   -18.1051     0.0000   192.0000 </r>
       <r>   -17.9921     0.0000   192.0000 </r>
       <r>   -17.8790     0.0000   192.0000 </r>
       <r>   -17.7660     0.0000   192.0000 </r>
       <r>   -17.6530     0.0000   192.0000 </r>
       <r>   -17.5399     0.0000   192.0000 </r>
       <r>   -17.4269     0.0000   192.0000 </r>
       <r>   -17.3138     0.0000   192.0000 </r>
       <r>   -17.2008     0.0000   192.0000 </r>
       <r>   -17.0878     0.0000   192.0000 </r>
       <r>   -16.9747     0.0000   192.0000 </r>
       <r>   -16.8617     0.0000   192.0000 </r>
       <r>   -16.7486     0.0000   192.0000 </r>
       <r>   -16.6356     0.0000   192.0000 </r>
       <r>   -16.5226     0.0000   192.0000 </r>
       <r>   -16.4095     0.0000   192.0000 </r>
       <r>   -16.2965     0.0000   192.0000 </r>
       <r>   -16.1834     0.0000   192.0000 </r>
       <r>   -16.0704     0.0000   192.0000 </r>
       <r>   -15.9574     0.0000   192.0000 </r>
       <r>   -15.8443     0.0000   192.0000 </r>
       <r>   -15.7313     0.0000   192.0000 </r>
       <r>   -15.6182     0.0000   192.0000 </r>
       <r>   -15.5052     0.0000   192.0000 </r>
       <r>   -15.3922     0.0000   192.0000 </r>
       <r>   -15.2791     0.0000   192.0000 </r>
       <r>   -15.1661     0.0000   192.0000 </r>
       <r>   -15.0530     0.0000   192.0000 </r>
       <r>   -14.9400     0.0000   192.0000 </r>
       <r>   -14.8270     0.0000   192.0000 </r>
       <r>   -14.7139     0.0000   192.0000 </r>
       <r>   -14.6009     0.0000   192.0000 </r>
       <r>   -14.4878     0.0000   192.0000 </r>
       <r>   -14.3748     0.0000   192.0000 </r>
       <r>   -14.2618     0.0000   192.0000 </r>
       <r>   -14.1487     0.0000   192.0000 </r>
       <r>   -14.0357     0.0000   192.0000 </r>
       <r>   -13.9226     0.0000   192.0000 </r>
       <r>   -13.8096     0.0000   192.0000 </r>
       <r>   -13.6966     0.0000   192.0000 </r>
       <r>   -13.5835     0.0000   192.0000 </r>
       <r>   -13.4705     0.0000   192.0000 </r>
       <r>   -13.3574     1.1387   192.1287 </r>
       <r>   -13.2444    19.2862   194.3088 </r>
       <r>   -13.1314    48.5285   199.7946 </r>
       <r>   -13.0183   125.4438   213.9751 </r>
       <r>   -12.9053   367.5945   255.5286 </r>
       <r>   -12.7922     4.1613   256.0000 </r>
       <r>   -12.6792     0.0000   256.0000 </r>
       <r>   -12.5662     0.0000   256.0000 </r>
       <r>   -12.4531     0.0000   256.0000 </r>
       <r>   -12.3401     0.0000   256.0000 </r>
       <r>   -12.2271     0.0000   256.0000 </r>
       <r>   -12.1140     0.0000   256.0000 </r>
       <r>   -12.0010     0.0000   256.0000 </r>
       <r>   -11.8879     0.0000   256.0000 </r>
       <r>   -11.7749     0.0000   256.0000 </r>
       <r>   -11.6619     0.0000   256.0000 </r>
       <r>   -11.5488     0.0000   256.0000 </r>
       <r>   -11.4358     0.0000   256.0000 </r>
       <r>   -11.3227     0.0000   256.0000 </r>
       <r>   -11.2097     0.0000   256.0000 </r>
       <r>   -11.0967     0.0000   256.0000 </r>
       <r>   -10.9836     0.0000   256.0000 </r>
       <r>   -10.8706     0.0000   256.0000 </r>
       <r>   -10.7575     0.0000   256.0000 </r>
       <r>   -10.6445     0.0000   256.0000 </r>
       <r>   -10.5315     0.0000   256.0000 </r>
       <r>   -10.4184     0.0000   256.0000 </r>
       <r>   -10.3054     0.0000   256.0000 </r>
       <r>   -10.1923     0.0000   256.0000 </r>
       <r>   -10.0793     0.0000   256.0000 </r>
       <r>    -9.9663     0.0000   256.0000 </r>
       <r>    -9.8532     0.0000   256.0000 </r>
       <r>    -9.7402     0.0000   256.0000 </r>
       <r>    -9.6271     0.0000   256.0000 </r>
       <r>    -9.5141     0.0000   256.0000 </r>
       <r>    -9.4011     0.0000   256.0000 </r>
       <r>    -9.2880     0.0000   256.0000 </r>
       <r>    -9.1750     0.0000   256.0000 </r>
       <r>    -9.0619     0.0000   256.0000 </r>
       <r>    -8.9489     0.0000   256.0000 </r>
       <r>    -8.8359     0.0000   256.0000 </r>
       <r>    -8.7228     0.0000   256.0000 </r>
       <r>    -8.6098     0.0000   256.0000 </r>
       <r>    -8.4967     0.0000   256.0000 </r>
       <r>    -8.3837     0.0000   256.0000 </r>
       <r>    -8.2707     0.0000   256.0000 </r>
       <r>    -8.1576     0.0000   256.0000 </r>
       <r>    -8.0446     0.0000   256.0000 </r>
       <r>    -7.9315     0.0000   256.0000 </r>
       <r>    -7.8185     0.0000   256.0000 </r>
       <r>    -7.7055     0.0000   256.0000 </r>
       <r>    -7.5924     0.0000   256.0000 </r>
       <r>    -7.4794     0.0000   256.0000 </r>
       <r>    -7.3663     0.0000   256.0000 </r>
       <r>    -7.2533     0.0000   256.0000 </r>
       <r>    -7.1403     0.0000   256.0000 </r>
       <r>    -7.0272     0.0000   256.0000 </r>
       <r>    -6.9142     0.0000   256.0000 </r>
       <r>    -6.8011     0.0000   256.0000 </r>
       <r>    -6.6881     0.0000   256.0000 </r>
       <r>    -6.5751     0.0000   256.0000 </r>
       <r>    -6.4620     0.0000   256.0000 </r>
       <r>    -6.3490     0.0000   256.0000 </r>
       <r>    -6.2359     0.0000   256.0000 </r>
       <r>    -6.1229     0.0000   256.0000 </r>
       <r>    -6.0099     0.0000   256.0000 </r>
       <r>    -5.8968     0.0000   256.0000 </r>
       <r>    -5.7838     0.0000   256.0000 </r>
       <r>    -5.6707     0.0000   256.0000 </r>
       <r>    -5.5577     0.0000   256.0000 </r>
       <r>    -5.4447     0.0000   256.0000 </r>
       <r>    -5.3316     0.0000   256.0000 </r>
       <r>    -5.2186     0.0000   256.0000 </r>
       <r>    -5.1055     0.0000   256.0000 </r>
       <r>    -4.9925     0.0000   256.0000 </r>
       <r>    -4.8795     0.0000   256.0000 </r>
       <r>    -4.7664     0.0000   256.0000 </r>
       <r>    -4.6534     0.0000   256.0000 </r>
       <r>    -4.5404     0.0000   256.0000 </r>
       <r>    -4.4273     0.0000   256.0000 </r>
       <r>    -4.3143     0.0000   256.0000 </r>
       <r>    -4.2012     0.0000   256.0000 </r>
       <r>    -4.0882     0.0000   256.0000 </r>
       <r>    -3.9752     0.0000   256.0000 </r>
       <r>    -3.8621     0.0000   256.0000 </r>
       <r>    -3.7491     0.0000   256.0000 </r>
       <r>    -3.6360     0.0000   256.0000 </r>
       <r>    -3.5230     0.0000   256.0000 </r>
       <r>    -3.4100     0.0000   256.0000 </r>
       <r>    -3.2969     0.0000   256.0000 </r>
       <r>    -3.1839     0.0000   256.0000 </r>
       <r>    -3.0708     0.0000   256.0000 </r>
       <r>    -2.9578     0.0000   256.0000 </r>
       <r>    -2.8448     0.0000   256.0000 </r>
       <r>    -2.7317     0.1094   256.0124 </r>
       <r>    -2.6187     8.7371   257.0000 </r>
       <r>    -2.5056    24.5861   259.7792 </r>
       <r>    -2.3926    84.0843   269.2841 </r>
       <r>    -2.2796    82.1965   278.5755 </r>
       <r>    -2.1665   154.6314   296.0559 </r>
       <r>    -2.0535    72.4886   304.2500 </r>
       <r>    -1.9404    56.5950   310.6475 </r>
       <r>    -1.8274    62.1783   317.6761 </r>
       <r>    -1.7144    71.4253   325.7500 </r>
       <r>    -1.6013     0.0000   325.7500 </r>
       <r>    -1.4883    71.1413   333.7918 </r>
       <r>    -1.3752   196.5537   356.0102 </r>
       <r>    -1.2622    24.4576   358.7748 </r>
       <r>    -1.1492   253.5673   387.4380 </r>
       <r>    -1.0361   136.6728   402.8875 </r>
       <r>    -0.9231   259.0950   432.1758 </r>
       <r>    -0.8100    62.4687   439.2385 </r>
       <r>    -0.6970    70.9096   447.2541 </r>
       <r>    -0.5840     6.5987   448.0000 </r>
       <r>    -0.4709     0.0000   448.0000 </r>
       <r>    -0.3579     0.0000   448.0000 </r>
       <r>    -0.2448     0.0000   448.0000 </r>
       <r>    -0.1318     0.0000   448.0000 </r>
       <r>    -0.0188     0.0000   448.0000 </r>
       <r>     0.0943     0.0000   448.0000 </r>
       <r>     0.2073     0.0000   448.0000 </r>
       <r>     0.3204     0.0000   448.0000 </r>
       <r>     0.4334     0.0000   448.0000 </r>
       <r>     0.5464     0.0000   448.0000 </r>
       <r>     0.6595     0.0000   448.0000 </r>
       <r>     0.7725     0.0000   448.0000 </r>
       <r>     0.8856     0.0000   448.0000 </r>
       <r>     0.9986     0.0000   448.0000 </r>
       <r>     1.1116     0.0000   448.0000 </r>
       <r>     1.2247     0.0000   448.0000 </r>
       <r>     1.3377     0.0000   448.0000 </r>
       <r>     1.4508     0.0000   448.0000 </r>
       <r>     1.5638     0.0000   448.0000 </r>
       <r>     1.6768     0.0000   448.0000 </r>
       <r>     1.7899     0.0000   448.0000 </r>
       <r>     1.9029     0.0000   448.0000 </r>
       <r>     2.0160     0.0000   448.0000 </r>
       <r>     2.1290     0.0000   448.0000 </r>
       <r>     2.2420     0.0000   448.0000 </r>
       <r>     2.3551     0.0000   448.0000 </r>
       <r>     2.4681     0.0000   448.0000 </r>
       <r>     2.5811     0.0000   448.0000 </r>
       <r>     2.6942     0.0000   448.0000 </r>
       <r>     2.8072     0.0000   448.0000 </r>
       <r>     2.9203     0.0000   448.0000 </r>
       <r>     3.0333     0.0000   448.0000 </r>
       <r>     3.1463     0.0000   448.0000 </r>
       <r>     3.2594     0.0000   448.0000 </r>
       <r>     3.3724     0.0000   448.0000 </r>
       <r>     3.4855     0.0000   448.0000 </r>
       <r>     3.5985     0.0000   448.0000 </r>
       <r>     3.7115     0.0000   448.0000 </r>
       <r>     3.8246     0.0000   448.0000 </r>
       <r>     3.9376     0.0000   448.0000 </r>
       <r>     4.0507     0.0000   448.0000 </r>
       <r>     4.1637     0.0000   448.0000 </r>
       <r>     4.2767     0.0000   448.0000 </r>
       <r>     4.3898     2.2111   448.2499 </r>
       <r>     4.5028     0.0000   448.2500 </r>
       <r>     4.6159     0.0000   448.2500 </r>
       <r>     4.7289     0.0000   448.2500 </r>
       <r>     4.8419     0.0000   448.2500 </r>
       <r>     4.9550     0.0000   448.2500 </r>
       <r>     5.0680    13.2595   449.7489 </r>
       <r>     5.1811     0.0090   449.7500 </r>
       <r>     5.2941     0.0000   449.7500 </r>
       <r>     5.4071     0.0000   449.7500 </r>
       <r>     5.5202     2.6273   450.0470 </r>
       <r>     5.6332    23.9121   452.7500 </r>
       <r>     5.7463     0.0000   452.7500 </r>
       <r>     5.8593    17.0809   454.6808 </r>
       <r>     5.9723     0.6120   454.7500 </r>
       <r>     6.0854     0.0000   454.7500 </r>
       <r>     6.1984     0.0000   454.7500 </r>
       <r>     6.3115     0.0008   454.7501 </r>
       <r>     6.4245    13.9423   456.3261 </r>
       <r>     6.5375     8.1722   457.2500 </r>
       <r>     6.6506    41.4974   461.9408 </r>
       <r>     6.7636    64.6007   469.2433 </r>
       <r>     6.8767    59.1222   475.9268 </r>
       <r>     6.9897    12.6144   477.3530 </r>
       <r>     7.1027     1.3004   477.5000 </r>
       <r>     7.2158     4.8851   478.0522 </r>
       <r>     7.3288     2.0259   478.2812 </r>
       <r>     7.4419    81.6174   487.5072 </r>
       <r>     7.5549   167.1955   506.4071 </r>
       <r>     7.6679     3.0493   506.7518 </r>
       <r>     7.7810    26.5231   509.7500 </r>
       <r>     7.8940     0.1934   509.7719 </r>
       <r>     8.0071    52.8853   515.7500 </r>
       <r>     8.1201     0.0059   515.7507 </r>
       <r>     8.2331    14.0232   517.3358 </r>
       <r>     8.3462    92.1173   527.7488 </r>
       <r>     8.4592     0.0079   527.7500 </r>
       <r>     8.5723   147.6936   544.4452 </r>
       <r>     8.6853    11.5424   545.7500 </r>
       <r>     8.7983     0.0000   545.7500 </r>
       <r>     8.9114    81.2105   554.9300 </r>
       <r>     9.0244   124.5498   569.0091 </r>
       <r>     9.1375     4.3428   569.5000 </r>
       <r>     9.2505    21.3213   571.9102 </r>
       <r>     9.3635    22.9108   574.5000 </r>
       <r>     9.4766     0.4806   574.5543 </r>
       <r>     9.5896    12.7891   576.0000 </r>
       <r>     9.7027     0.0000   576.0000 </r>
       <r>     9.8157     0.0000   576.0000 </r>
       <r>     9.9287     0.0000   576.0000 </r>
       <r>    10.0418     0.0000   576.0000 </r>
       <r>    10.1548     0.0000   576.0000 </r>
       <r>    10.2678     0.0000   576.0000 </r>
       <r>    10.3809     0.0000   576.0000 </r>
       <r>    10.4939     0.0000   576.0000 </r>
       <r>    10.6070     0.0000   576.0000 </r>
       <r>    10.7200     0.0000   576.0000 </r>
       <r>    10.8330     0.0000   576.0000 </r>
       <r>    10.9461     0.0000   576.0000 </r>
       <r>    11.0591     0.0000   576.0000 </r>
      </set>
     </set>
    </array>
   </total>
  </dos>
 </calculation>
 <structure name="finalpos" >
  <crystal>
   <varray name="basis" >
    <v>      11.20400236       0.00000000       0.00000000 </v>
    <v>       0.00000000      11.20400236       0.00000000 </v>
    <v>       0.00000000       0.00000000      11.20400236 </v>
   </varray>
   <i name="volume">   1406.43470641 </i>
   <varray name="rec_basis" >
    <v>       0.08925382       0.00000000       0.00000000 </v>
    <v>       0.00000000       0.08925382       0.00000000 </v>
    <v>       0.00000000       0.00000000       0.08925382 </v>
   </varray>
  </crystal>
  <varray name="positions" >
   <v>       0.00000000       0.00000000       0.00000000 </v>
   <v>       0.25000000       0.25000000       0.00000000 </v>
   <v>       0.25000000       0.00000000       0.25000000 </v>
   <v>       0.00000000       0.25000000       0.25000000 </v>
   <v>       0.00000000       0.00000000       0.50000000 </v>
   <v>       0.25000000       0.25000000       0.50000000 </v>
   <v>       0.25000000       0.00000000       0.75000000 </v>
   <v>       0.00000000       0.25000000       0.75000000 </v>
   <v>       0.00000000       0.50000000       0.00000000 </v>
   <v>       0.25000000       0.75000000       0.00000000 </v>
   <v>       0.25000000       0.50000000       0.25000000 </v>
   <v>       0.00000000       0.75000000       0.25000000 </v>
   <v>       0.00000000       0.50000000       0.50000000 </v>
   <v>       0.25000000       0.75000000       0.50000000 </v>
   <v>       0.25000000       0.50000000       0.75000000 </v>
   <v>       0.00000000       0.75000000       0.75000000 </v>
   <v>       0.50000000       0.00000000       0.00000000 </v>
   <v>       0.75000000       0.25000000       0.00000000 </v>
   <v>       0.75000000       0.00000000       0.25000000 </v>
   <v>       0.50000000       0.25000000       0.25000000 </v>
   <v>       0.50000000       0.00000000       0.50000000 </v>
   <v>       0.75000000       0.25000000       0.50000000 </v>
   <v>       0.75000000       0.00000000       0.75000000 </v>
   <v>       0.50000000       0.25000000       0.75000000 </v>
   <v>       0.50000000       0.50000000       0.00000000 </v>
   <v>       0.75000000       0.75000000       0.00000000 </v>
   <v>       0.75000000       0.50000000       0.25000000 </v>
   <v>       0.50000000       0.75000000       0.25000000 </v>
   <v>       0.50000000       0.50000000       0.50000000 </v>
   <v>       0.75000000       0.75000000       0.50000000 </v>
   <v>       0.75000000       0.50000000       0.75000000 </v>
   <v>       0.50000000       0.75000000       0.75000000 </v>
   <v>       0.24732239       0.25000000       0.25000000 </v>
   <v>       0.00000000       0.99732239       0.25000000 </v>
   <v>       0.00000000       0.25000000       0.00000000 </v>
   <v>       0.25000000       0.00000000       0.00000000 </v>
   <v>       0.25000000       0.25000000       0.75000000 </v>
   <v>       0.00000000       0.00000000       0.75000000 </v>
   <v>       0.00000000       0.25000000       0.50000000 </v>
   <v>       0.25000000       0.00000000       0.50000000 </v>
   <v>       0.25000000       0.75000000       0.25000000 </v>
   <v>       0.00000000       0.50000000       0.25000000 </v>
   <v>       0.00000000       0.75000000       0.00000000 </v>
   <v>       0.25000000       0.50000000       0.00000000 </v>
   <v>       0.25000000       0.75000000       0.75000000 </v>
   <v>       0.00000000       0.50000000       0.75000000 </v>
   <v>       0.00000000       0.75000000       0.50000000 </v>
   <v>       0.25000000       0.50000000       0.50000000 </v>
   <v>       0.75000000       0.25000000       0.25000000 </v>
   <v>       0.50000000       0.00000000       0.25000000 </v>
   <v>       0.50000000       0.25000000       0.00000000 </v>
   <v>       0.75000000       0.00000000       0.00000000 </v>
   <v>       0.75000000       0.25000000       0.75000000 </v>
   <v>       0.50000000       0.00000000       0.75000000 </v>
   <v>       0.50000000       0.25000000       0.50000000 </v>
   <v>       0.75000000       0.00000000       0.50000000 </v>
   <v>       0.75000000       0.75000000       0.25000000 </v>
   <v>       0.50000000       0.50000000       0.25000000 </v>
   <v>       0.50000000       0.75000000       0.00000000 </v>
   <v>       0.75000000       0.50000000       0.00000000 </v>
   <v>       0.75000000       0.75000000       0.75000000 </v>
   <v>       0.50000000       0.50000000       0.75000000 </v>
   <v>       0.50000000       0.75000000       0.50000000 </v>
   <v>       0.75000000       0.50000000       0.50000000 </v>
  </varray>
 </structure>
</modeling>
