       N       E                     dE             d eps       ncg     rms          rms(c)
DAV:   1     0.451012411761E+03    0.45101E+03   -0.72608E+04  2688   0.852E+02
DAV:   2    -0.322071741749E+03   -0.77308E+03   -0.73078E+03  3232   0.155E+02
DAV:   3    -0.373414358796E+03   -0.51343E+02   -0.50481E+02  3304   0.365E+01
DAV:   4    -0.374599795847E+03   -0.11854E+01   -0.11772E+01  3232   0.671E+00
DAV:   5    -0.374640700289E+03   -0.40904E-01   -0.40854E-01  3192   0.110E+00    0.285E+01
DAV:   6    -0.369721474654E+03    0.49192E+01   -0.25927E+00  3064   0.242E+00    0.172E+01
DAV:   7    -0.367490341626E+03    0.22311E+01   -0.52392E+00  3056   0.349E+00    0.996E-01
DAV:   8    -0.367497461607E+03   -0.71200E-02   -0.28309E-01  3064   0.970E-01    0.352E-01
DAV:   9    -0.367498959015E+03   -0.14974E-02   -0.72393E-03  3304   0.163E-01    0.310E-01
DAV:  10    -0.367499812295E+03   -0.85328E-03   -0.20771E-03  2992   0.830E-02    0.227E-01
DAV:  11    -0.367499849646E+03   -0.37351E-04   -0.87063E-05  3128   0.188E-02    0.910E-03
DAV:  12    -0.367499852020E+03   -0.23738E-05   -0.33893E-06  3240   0.361E-03    0.805E-03
DAV:  13    -0.367499850993E+03    0.10272E-05   -0.81551E-07  3024   0.190E-03    0.199E-03
DAV:  14    -0.367499850834E+03    0.15892E-06   -0.29451E-08  2576   0.382E-04    0.492E-04
DAV:  15    -0.367499850820E+03    0.14286E-07   -0.90698E-09  1864   0.180E-04    0.119E-04
DAV:  16    -0.367499850814E+03    0.59599E-08   -0.13771E-09  1752   0.848E-05
   1 F= -.36749985E+03 E0= -.36749985E+03  d E =-.480004E-18
