 vasp.6.3.2 27Jun22 (build Oct 14 2022 12:13:54) complex                        
  
 executed on             LinuxIFC date 2023.04.03  14:45:54
 running on   32 total cores
 distrk:  each k-point on   32 cores,    1 groups
 distr:  one band on NCORE=   4 cores,    8 groups


--------------------------------------------------------------------------------------------------------


 INCAR:
   ADDGRID = True
   EDIFF = 1e-08
   ENCUT = 318
   GGA = Ps
   IALGO = 38
   IBRION = -1
   ISMEAR = 0
   LCHARG = False
   LREAL = False
   LWAVE = False
   NELMIN = 5
   NPAR = 8
   PREC = Accurate
   SIGMA = 0.02

 POTCAR:    PAW_PBE Si 05Jan2001                  
 POTCAR:    PAW_PBE Si 05Jan2001                  
   SHA256 =  79d9987ad8750f624c4d6acb2a16d13abf6a777132adc04dc6c8399be72b42bb Si/POTCAR             
   COPYR  = (c) Copyright 05Jan2001 Georg Kresse                                                    
   COPYR  = This file is part of the software VASP. Any use, copying, and all other rights are regul
   COPYR  = If you do not have a valid VASP license, you may not use, copy or distribute this file. 
   VRHFIN =Si: s2p2                                                                                 
   LEXCH  = PE                                                                                      
   EATOM  =   103.0669 eV,    7.5752 Ry                                                             
                                                                                                    
   TITEL  = PAW_PBE Si 05Jan2001                                                                    
   LULTRA =        F    use ultrasoft PP ?                                                          
   IUNSCR =        1    unscreen: 0-lin 1-nonlin 2-no                                               
   RPACOR =    1.500    partial core radius                                                         
   POMASS =   28.085; ZVAL   =    4.000    mass and valenz                                          
   RCORE  =    1.900    outmost cutoff radius                                                       
   RWIGS  =    2.480; RWIGS  =    1.312    wigner-seitz radius (au A)                               
   ENMAX  =  245.345; ENMIN  =  184.009 eV                                                          
   ICORE  =        2    local potential                                                             
   LCOR   =        T    correct aug charges                                                         
   LPAW   =        T    paw PP                                                                      
   EAUG   =  322.069                                                                                
   DEXC   =    0.000                                                                                
   RMAX   =    1.950    core radius for proj-oper                                                   
   RAUG   =    1.300    factor for augmentation sphere                                              
   RDEP   =    1.993    radius for radial grids                                                     
   RDEPT  =    1.837    core radius for aug-charge                                                  
                                                                                                    
   Atomic configuration                                                                             
    6 entries                                                                                       
     n  l   j            E        occ.                                                              
     1  0  0.50     -1785.8828   2.0000                                                             
     2  0  0.50      -139.4969   2.0000                                                             
     2  1  1.50       -95.5546   6.0000                                                             
     3  0  0.50       -10.8127   2.0000                                                             
     3  1  0.50        -4.0811   2.0000                                                             
     3  2  1.50        -4.0817   0.0000                                                             
   Description                                                                                      
     l       E           TYP  RCUT    TYP  RCUT                                                     
     0    -10.8127223     23  1.900                                                                 
     0     -7.6451159     23  1.900                                                                 
     1     -4.0811372     23  1.900                                                                 
     1      2.4879257     23  1.900                                                                 
     2     -4.0817478      7  1.900                                                                 
  local pseudopotential read in
  partial core-charges read in
  partial kinetic energy density read in
  atomic valenz-charges read in
  non local Contribution for L=           0  read in
    real space projection operators read in
  non local Contribution for L=           0  read in
    real space projection operators read in
  non local Contribution for L=           1  read in
    real space projection operators read in
  non local Contribution for L=           1  read in
    real space projection operators read in
    PAW grid and wavefunctions read in
 
   number of l-projection  operators is LMAX  =           4
   number of lm-projection operators is LMMAX =           8
 
 -----------------------------------------------------------------------------
|                                                                             |
|               ----> ADVICE to this user running VASP <----                  |
|                                                                             |
|     You have a (more or less) 'large supercell' and for larger cells it     |
|     might be more efficient to use real-space projection operators.         |
|     Therefore, try LREAL= Auto in the INCAR file.                           |
|     Mind: For very accurate calculation, you might also keep the            |
|     reciprocal projection scheme (i.e. LREAL=.FALSE.).                      |
|                                                                             |
 -----------------------------------------------------------------------------

 -----------------------------------------------------------------------------
|                                                                             |
|               ----> ADVICE to this user running VASP <----                  |
|                                                                             |
|     You enforced a specific xc type in the INCAR file but a different       |
|     type was found in the POTCAR file.                                      |
|     I HOPE YOU KNOW WHAT YOU ARE DOING!                                     |
|                                                                             |
 -----------------------------------------------------------------------------

  PAW_PBE Si 05Jan2001                  :
 energy of atom  1       EATOM= -103.0669
 kinetic energy error for atom=    0.0016 (will be added to EATOM!!)
 
 
 POSCAR: Si
  positions in cartesian coordinates
  No initial velocities read in
 exchange correlation table for  LEXCH =       14
   RHO(1)=    0.500       N(1)  =     2000
   RHO(2)=  100.500       N(2)  =     4000
 


--------------------------------------------------------------------------------------------------------


 ion  position               nearest neighbor table
   1  0.251  0.250  0.250-  33 2.35  41 2.35  49 2.36  57 2.36
   2  0.750  0.250  0.250-  34 2.35  42 2.35  50 2.35  58 2.35
   3  0.250  0.750  0.250-  35 2.35  43 2.35  51 2.35  59 2.35
   4  0.750  0.750  0.250-  36 2.35  44 2.35  52 2.35  60 2.35
   5  0.250  0.250  0.750-  37 2.35  45 2.35  53 2.35  61 2.35
   6  0.750  0.250  0.750-  38 2.35  46 2.35  54 2.35  62 2.35
   7  0.250  0.750  0.750-  39 2.35  47 2.35  55 2.35  63 2.35
   8  0.750  0.750  0.750-  40 2.35  48 2.35  56 2.35  64 2.35
   9  0.250  0.000  0.000-  39 2.35  41 2.35  51 2.35  61 2.35
  10  0.750  0.000  0.000-  40 2.35  42 2.35  52 2.35  62 2.35
  11  0.250  0.500  0.000-  37 2.35  43 2.35  49 2.35  63 2.35
  12  0.750  0.500  0.000-  38 2.35  44 2.35  50 2.35  64 2.35
  13  0.250  0.000  0.500-  35 2.35  45 2.35  55 2.35  57 2.35
  14  0.750  0.000  0.500-  36 2.35  46 2.35  56 2.35  58 2.35
  15  0.250  0.500  0.500-  33 2.35  47 2.35  53 2.35  59 2.35
  16  0.750  0.500  0.500-  34 2.35  48 2.35  54 2.35  60 2.35
  17  0.999  0.250  0.000-  38 2.35  42 2.35  49 2.36  61 2.36
  18  0.500  0.250  0.000-  37 2.35  41 2.35  50 2.35  62 2.35
  19  0.000  0.750  0.000-  40 2.35  44 2.35  51 2.35  63 2.35
  20  0.500  0.750  0.000-  39 2.35  43 2.35  52 2.35  64 2.35
  21  0.000  0.250  0.500-  34 2.35  46 2.35  53 2.35  57 2.35
  22  0.500  0.250  0.500-  33 2.35  45 2.35  54 2.35  58 2.35
  23  0.000  0.750  0.500-  36 2.35  48 2.35  55 2.35  59 2.35
  24  0.500  0.750  0.500-  35 2.35  47 2.35  56 2.35  60 2.35
  25  0.000  0.000  0.250-  36 2.35  42 2.35  51 2.35  57 2.35
  26  0.500  0.000  0.250-  35 2.35  41 2.35  52 2.35  58 2.35
  27  0.000  0.500  0.250-  34 2.35  44 2.35  49 2.35  59 2.35
  28  0.500  0.500  0.250-  33 2.35  43 2.35  50 2.35  60 2.35
  29  0.000  0.000  0.750-  40 2.35  46 2.35  55 2.35  61 2.35
  30  0.500  0.000  0.750-  39 2.35  45 2.35  56 2.35  62 2.35
  31  0.000  0.500  0.750-  38 2.35  48 2.35  53 2.35  63 2.35
  32  0.500  0.500  0.750-  37 2.35  47 2.35  54 2.35  64 2.35
  33  0.375  0.375  0.375-   1 2.35  15 2.35  22 2.35  28 2.35
  34  0.875  0.375  0.375-   2 2.35  16 2.35  21 2.35  27 2.35
  35  0.375  0.875  0.375-   3 2.35  13 2.35  24 2.35  26 2.35
  36  0.875  0.875  0.375-   4 2.35  14 2.35  23 2.35  25 2.35
  37  0.375  0.375  0.875-   5 2.35  11 2.35  18 2.35  32 2.35
  38  0.875  0.375  0.875-  17 2.35  12 2.35   6 2.35  31 2.35
  39  0.375  0.875  0.875-   7 2.35   9 2.35  20 2.35  30 2.35
  40  0.875  0.875  0.875-   8 2.35  10 2.35  19 2.35  29 2.35
  41  0.375  0.125  0.125-   1 2.35   9 2.35  18 2.35  26 2.35
  42  0.875  0.125  0.125-  17 2.35  10 2.35   2 2.35  25 2.35
  43  0.375  0.625  0.125-   3 2.35  11 2.35  20 2.35  28 2.35
  44  0.875  0.625  0.125-   4 2.35  12 2.35  19 2.35  27 2.35
  45  0.375  0.125  0.625-   5 2.35  13 2.35  22 2.35  30 2.35
  46  0.875  0.125  0.625-   6 2.35  14 2.35  21 2.35  29 2.35
  47  0.375  0.625  0.625-   7 2.35  15 2.35  24 2.35  32 2.35
  48  0.875  0.625  0.625-   8 2.35  16 2.35  23 2.35  31 2.35
  49  0.125  0.375  0.125-  11 2.35  27 2.35  17 2.36   1 2.36
  50  0.625  0.375  0.125-   2 2.35  12 2.35  18 2.35  28 2.35
  51  0.125  0.875  0.125-   3 2.35   9 2.35  19 2.35  25 2.35
  52  0.625  0.875  0.125-   4 2.35  10 2.35  20 2.35  26 2.35
  53  0.125  0.375  0.625-   5 2.35  15 2.35  21 2.35  31 2.35
  54  0.625  0.375  0.625-   6 2.35  16 2.35  22 2.35  32 2.35
  55  0.125  0.875  0.625-   7 2.35  13 2.35  23 2.35  29 2.35
  56  0.625  0.875  0.625-   8 2.35  14 2.35  24 2.35  30 2.35
  57  0.125  0.125  0.375-  13 2.35  21 2.35  25 2.35   1 2.36
  58  0.625  0.125  0.375-   2 2.35  14 2.35  22 2.35  26 2.35
  59  0.125  0.625  0.375-   3 2.35  15 2.35  23 2.35  27 2.35
  60  0.625  0.625  0.375-   4 2.35  16 2.35  24 2.35  28 2.35
  61  0.125  0.125  0.875-   5 2.35   9 2.35  29 2.35  17 2.36
  62  0.625  0.125  0.875-   6 2.35  10 2.35  18 2.35  30 2.35
  63  0.125  0.625  0.875-   7 2.35  11 2.35  19 2.35  31 2.35
  64  0.625  0.625  0.875-   8 2.35  12 2.35  20 2.35  32 2.35
 
  LATTYP: Found a simple cubic cell.
 ALAT       =    10.8691451200
  
  Lattice vectors:
  
 A1 = (  10.8691451200,  -0.0000000000,  -0.0000000000)
 A2 = (  -0.0000000000,  10.8691451200,   0.0000000000)
 A3 = (   0.0000000000,   0.0000000000,  10.8691451200)


Analysis of symmetry for initial positions (statically):
=====================================================================
 Subroutine PRICEL returns:
 Original cell was already a primitive cell.
 

 Routine SETGRP: Setting up the symmetry group for a 
 simple cubic supercell.


 Subroutine GETGRP returns: Found  2 space group operations
 (whereof  1 operations were pure point group operations)
 out of a pool of 48 trial point group operations.


The static configuration has the point symmetry C_1 .
 The point group associated with its full space group is C_2 .


Analysis of symmetry for dynamics (positions and initial velocities):
=====================================================================
 Subroutine PRICEL returns:
 Original cell was already a primitive cell.
 

 Routine SETGRP: Setting up the symmetry group for a 
 simple cubic supercell.


 Subroutine GETGRP returns: Found  2 space group operations
 (whereof  1 operations were pure point group operations)
 out of a pool of 48 trial point group operations.


The dynamic configuration has the point symmetry C_1 .
 The point group associated with its full space group is C_2 .


 Subroutine INISYM returns: Found  2 space group operations
 (whereof  1 operations are pure point group operations),
 and found     1 'primitive' translations


----------------------------------------------------------------------------------------

                                     Primitive cell                                     

  volume of cell :    1284.0625

  direct lattice vectors                    reciprocal lattice vectors
    10.869145120 -0.000000000 -0.000000000     0.092003556  0.000000000 -0.000000000
    -0.000000000 10.869145120  0.000000000     0.000000000  0.092003556 -0.000000000
     0.000000000  0.000000000 10.869145120     0.000000000 -0.000000000  0.092003556

  length of vectors
    10.869145120 10.869145120 10.869145120     0.092003556  0.092003556  0.092003556

  position of ions in fractional coordinates (direct lattice)
     0.250920036  0.250000000  0.250000000
     0.750000000  0.250000000  0.250000000
     0.250000000  0.750000000  0.250000000
     0.750000000  0.750000000  0.250000000
     0.250000000  0.250000000  0.750000000
     0.750000000  0.250000000  0.750000000
     0.250000000  0.750000000  0.750000000
     0.750000000  0.750000000  0.750000000
     0.250000000  1.000000000  1.000000000
     0.750000000  1.000000000  1.000000000
     0.250000000  0.500000000  0.000000000
     0.750000000  0.500000000  1.000000000
     0.250000000  0.000000000  0.500000000
     0.750000000  1.000000000  0.500000000
     0.250000000  0.500000000  0.500000000
     0.750000000  0.500000000  0.500000000
     0.999079964  0.250000000  1.000000000
     0.500000000  0.250000000  1.000000000
     1.000000000  0.750000000  0.000000000
     0.500000000  0.750000000  0.000000000
     0.000000000  0.250000000  0.500000000
     0.500000000  0.250000000  0.500000000
     1.000000000  0.750000000  0.500000000
     0.500000000  0.750000000  0.500000000
     0.000000000  0.000000000  0.250000000
     0.500000000  1.000000000  0.250000000
     1.000000000  0.500000000  0.250000000
     0.500000000  0.500000000  0.250000000
     0.000000000  0.000000000  0.750000000
     0.500000000  0.000000000  0.750000000
     0.000000000  0.500000000  0.750000000
     0.500000000  0.500000000  0.750000000
     0.375000000  0.375000000  0.375000000
     0.875000000  0.375000000  0.375000000
     0.375000000  0.875000000  0.375000000
     0.875000000  0.875000000  0.375000000
     0.375000000  0.375000000  0.875000000
     0.875000000  0.375000000  0.875000000
     0.375000000  0.875000000  0.875000000
     0.875000000  0.875000000  0.875000000
     0.375000000  0.125000000  0.125000000
     0.875000000  0.125000000  0.125000000
     0.375000000  0.625000000  0.125000000
     0.875000000  0.625000000  0.125000000
     0.375000000  0.125000000  0.625000000
     0.875000000  0.125000000  0.625000000
     0.375000000  0.625000000  0.625000000
     0.875000000  0.625000000  0.625000000
     0.125000000  0.375000000  0.125000000
     0.625000000  0.375000000  0.125000000
     0.125000000  0.875000000  0.125000000
     0.625000000  0.875000000  0.125000000
     0.125000000  0.375000000  0.625000000
     0.625000000  0.375000000  0.625000000
     0.125000000  0.875000000  0.625000000
     0.625000000  0.875000000  0.625000000
     0.125000000  0.125000000  0.375000000
     0.625000000  0.125000000  0.375000000
     0.125000000  0.625000000  0.375000000
     0.625000000  0.625000000  0.375000000
     0.125000000  0.125000000  0.875000000
     0.625000000  0.125000000  0.875000000
     0.125000000  0.625000000  0.875000000
     0.625000000  0.625000000  0.875000000

  ion indices of the primitive-cell ions
   primitive index   ion index
                 1           1
                 2           2
                 3           3
                 4           4
                 5           5
                 6           6
                 7           7
                 8           8
                 9           9
                10          10
                11          11
                12          12
                13          13
                14          14
                15          15
                16          16
                17          17
                18          18
                19          19
                20          20
                21          21
                22          22
                23          23
                24          24
                25          25
                26          26
                27          27
                28          28
                29          29
                30          30
                31          31
                32          32
                33          33
                34          34
                35          35
                36          36
                37          37
                38          38
                39          39
                40          40
                41          41
                42          42
                43          43
                44          44
                45          45
                46          46
                47          47
                48          48
                49          49
                50          50
                51          51
                52          52
                53          53
                54          54
                55          55
                56          56
                57          57
                58          58
                59          59
                60          60
                61          61
                62          62
                63          63
                64          64

----------------------------------------------------------------------------------------

 
 
 KPOINTS: KPOINTS created by Atomic Simulation Env

Automatic generation of k-mesh.
 Grid dimensions read from file:
 generate k-points for:    2    2    2

 Generating k-lattice:

  Cartesian coordinates                     Fractional coordinates (reciprocal lattice)
     0.046001778  0.000000000 -0.000000000     0.500000000 -0.000000000  0.000000000
     0.000000000  0.046001778 -0.000000000    -0.000000000  0.500000000  0.000000000
     0.000000000 -0.000000000  0.046001778    -0.000000000  0.000000000  0.500000000

  Length of vectors
     0.046001778  0.046001778  0.046001778

  Shift w.r.t. Gamma in fractional coordinates (k-lattice)
     0.000000000  0.000000000  0.000000000

 
 Subroutine IBZKPT returns following result:
 ===========================================
 
 Found      8 irreducible k-points:
 
 Following reciprocal coordinates:
            Coordinates               Weight
  0.000000  0.000000  0.000000      1.000000
  0.500000  0.000000  0.000000      1.000000
 -0.000000  0.500000  0.000000      1.000000
  0.000000 -0.000000  0.500000      1.000000
  0.500000  0.500000  0.000000      1.000000
  0.000000  0.500000  0.500000      1.000000
  0.500000 -0.000000  0.500000      1.000000
  0.500000  0.500000  0.500000      1.000000
 
 Following cartesian coordinates:
            Coordinates               Weight
  0.000000  0.000000  0.000000      1.000000
  0.046002  0.000000  0.000000      1.000000
  0.000000  0.046002  0.000000      1.000000
  0.000000 -0.000000  0.046002      1.000000
  0.046002  0.046002  0.000000      1.000000
  0.000000  0.046002  0.046002      1.000000
  0.046002  0.000000  0.046002      1.000000
  0.046002  0.046002  0.046002      1.000000
 


--------------------------------------------------------------------------------------------------------




 Dimension of arrays:
   k-points           NKPTS =      8   k-points in BZ     NKDIM =      8   number of bands    NBANDS=    168
   number of dos      NEDOS =    301   number of ions     NIONS =     64
   non local maximal  LDIM  =      4   non local SUM 2l+1 LMDIM =      8
   total plane-waves  NPLWV = 262144
   max r-space proj   IRMAX =      1   max aug-charges    IRDMAX=  54800
   dimension x,y,z NGX =    64 NGY =   64 NGZ =   64
   dimension x,y,z NGXF=   128 NGYF=  128 NGZF=  128
   support grid    NGXF=   256 NGYF=  256 NGZF=  256
   ions per type =              64
   NGX,Y,Z   is equivalent  to a cutoff of   9.79,  9.79,  9.79 a.u.
   NGXF,Y,Z  is equivalent  to a cutoff of  19.58, 19.58, 19.58 a.u.

 SYSTEM =  unknown system                          
 POSCAR =  Si                                      

 Startparameter for this run:
   NWRITE =      2    write-flag & timer
   PREC   = accura    normal or accurate (medium, high low for compatibility)
   ISTART =      0    job   : 0-new  1-cont  2-samecut
   ICHARG =      2    charge: 1-file 2-atom 10-const
   ISPIN  =      1    spin polarized calculation?
   LNONCOLLINEAR =      F non collinear calculations
   LSORBIT =      F    spin-orbit coupling
   INIWAV =      1    electr: 0-lowe 1-rand  2-diag
   LASPH  =      F    aspherical Exc in radial PAW
 Electronic Relaxation 1
   ENCUT  =  318.0 eV  23.37 Ry    4.83 a.u.  15.80 15.80 15.80*2*pi/ulx,y,z
   ENINI  =  318.0     initial cutoff
   ENAUG  =  322.1 eV  augmentation charge cutoff
   NELM   =     60;   NELMIN=  5; NELMDL= -5     # of ELM steps 
   EDIFF  = 0.1E-07   stopping-criterion for ELM
   LREAL  =      F    real-space projection
   NLSPLINE    = F    spline interpolate recip. space projectors
   LCOMPAT=      F    compatible to vasp.4.4
   GGA_COMPAT  = T    GGA compatible to vasp.4.4-vasp.4.6
   LMAXPAW     = -100 max onsite density
   LMAXMIX     =    2 max onsite mixed and CHGCAR
   VOSKOWN=      0    Vosko Wilk Nusair interpolation
   ROPT   =    0.00000
 Ionic relaxation
   EDIFFG = 0.1E-06   stopping-criterion for IOM
   NSW    =      0    number of steps for IOM
   NBLOCK =      1;   KBLOCK =      1    inner block; outer block 
   IBRION =     -1    ionic relax: 0-MD 1-quasi-New 2-CG
   NFREE  =      0    steps in history (QN), initial steepest desc. (CG)
   ISIF   =      2    stress and relaxation
   IWAVPR =     10    prediction:  0-non 1-charg 2-wave 3-comb
   ISYM   =      2    0-nonsym 1-usesym 2-fastsym
   LCORR  =      T    Harris-Foulkes like correction to forces

   POTIM  = 0.5000    time-step for ionic-motion
   TEIN   =    0.0    initial temperature
   TEBEG  =    0.0;   TEEND  =   0.0 temperature during run
   SMASS  =  -3.00    Nose mass-parameter (am)
   estimated Nose-frequenzy (Omega)   =  0.10E-29 period in steps = 0.13E+47 mass=  -0.270E-26a.u.
   SCALEE = 1.0000    scale energy and forces
   NPACO  =    256;   APACO  = 10.0  distance and # of slots for P.C.
   PSTRESS=    0.0 pullay stress

  Mass of Ions in am
   POMASS =  28.09
  Ionic Valenz
   ZVAL   =   4.00
  Atomic Wigner-Seitz radii
   RWIGS  =  -1.00
  virtual crystal weights 
   VCA    =   1.00
   NELECT =     256.0000    total number of electrons
   NUPDOWN=      -1.0000    fix difference up-down

 DOS related values:
   EMIN   =  10.00;   EMAX   =-10.00  energy-range for DOS
   EFERMI =   0.00
   ISMEAR =     0;   SIGMA  =   0.02  broadening in eV -4-tet -1-fermi 0-gaus

 Electronic relaxation 2 (details)
   IALGO  =     38    algorithm
   LDIAG  =      T    sub-space diagonalisation (order eigenvalues)
   LSUBROT=      F    optimize rotation matrix (better conditioning)
   TURBO    =      0    0=normal 1=particle mesh
   IRESTART =      0    0=no restart 2=restart with 2 vectors
   NREBOOT  =      0    no. of reboots
   NMIN     =      0    reboot dimension
   EREF     =   0.00    reference energy to select bands
   IMIX   =      4    mixing-type and parameters
     AMIX     =   0.40;   BMIX     =  1.00
     AMIX_MAG =   1.60;   BMIX_MAG =  1.00
     AMIN     =   0.10
     WC   =   100.;   INIMIX=   1;  MIXPRE=   1;  MAXMIX= -45

 Intra band minimization:
   WEIMIN = 0.0000     energy-eigenvalue tresh-hold
   EBREAK =  0.15E-10  absolut break condition
   DEPER  =   0.30     relativ break condition  

   TIME   =   0.40     timestep for ELM

  volume/ion in A,a.u.               =      20.06       135.40
  Fermi-wavevector in a.u.,A,eV,Ry     =   0.956370  1.807278 12.444490  0.914644
  Thomas-Fermi vector in A             =   2.085292
 
 Write flags
   LWAVE        =      F    write WAVECAR
   LDOWNSAMPLE  =      F    k-point downsampling of WAVECAR
   LCHARG       =      F    write CHGCAR
   LVTOT        =      F    write LOCPOT, total local potential
   LVHAR        =      F    write LOCPOT, Hartree potential only
   LELF         =      F    write electronic localiz. function (ELF)
   LORBIT       =      0    0 simple, 1 ext, 2 COOP (PROOUT), +10 PAW based schemes


 Dipole corrections
   LMONO  =      F    monopole corrections only (constant potential shift)
   LDIPOL =      F    correct potential (dipole corrections)
   IDIPOL =      0    1-x, 2-y, 3-z, 4-all directions 
   EPSILON=  1.0000000 bulk dielectric constant

 Exchange correlation treatment:
   GGA     =    PS    GGA type
   LEXCH   =    14    internal setting for exchange type
   LIBXC   =     F    Libxc                    
   VOSKOWN =     0    Vosko Wilk Nusair interpolation
   LHFCALC =     F    Hartree Fock is set to
   LHFONE  =     F    Hartree Fock one center treatment
   AEXX    =    0.0000 exact exchange contribution

 Linear response parameters
   LEPSILON=     F    determine dielectric tensor
   LRPA    =     F    only Hartree local field effects (RPA)
   LNABLA  =     F    use nabla operator in PAW spheres
   LVEL    =     F    velocity operator in full k-point grid
   CSHIFT  =0.1000    complex shift for real part using Kramers Kronig
   OMEGAMAX=  -1.0    maximum frequency
   DEG_THRESHOLD= 0.2000000E-02 threshold for treating states as degnerate
   RTIME   =   -0.100 relaxation time in fs
  (WPLASMAI=    0.000 imaginary part of plasma frequency in eV, 0.658/RTIME)
   DFIELD  = 0.0000000 0.0000000 0.0000000 field for delta impulse in time
 
  Optional k-point grid parameters
   LKPOINTS_OPT  =     F    use optional k-point grid
   KPOINTS_OPT_MODE=     1    mode for optional k-point grid
 
 Orbital magnetization related:
   ORBITALMAG=     F  switch on orbital magnetization
   LCHIMAG   =     F  perturbation theory with respect to B field
   DQ        =  0.001000  dq finite difference perturbation B field
   LLRAUG    =     F  two centre corrections for induced B field



--------------------------------------------------------------------------------------------------------


 Static calculation
 charge density and potential will be updated during run
 non-spin polarized calculation
 Variant of blocked Davidson
 Davidson routine will perform the subspace rotation
 perform sub-space diagonalisation
    after iterative eigenvector-optimisation
 modified Broyden-mixing scheme, WC =      100.0
 initial mixing is a Kerker type mixing with AMIX =  0.4000 and BMIX =      1.0000
 Hartree-type preconditioning will be used
 using additional bands           40
 reciprocal scheme for non local part
 use partial core corrections
 calculate Harris-corrections to forces 
   (improved forces if not selfconsistent)
 use gradient corrections 
 use of overlap-Matrix (Vanderbilt PP)
 Gauss-broadening in eV      SIGMA  =   0.02


--------------------------------------------------------------------------------------------------------


  energy-cutoff  :      318.00
  volume of cell :     1284.06
      direct lattice vectors                 reciprocal lattice vectors
    10.869145120 -0.000000000 -0.000000000     0.092003556  0.000000000 -0.000000000
    -0.000000000 10.869145120  0.000000000     0.000000000  0.092003556 -0.000000000
     0.000000000  0.000000000 10.869145120     0.000000000 -0.000000000  0.092003556

  length of vectors
    10.869145120 10.869145120 10.869145120     0.092003556  0.092003556  0.092003556


 
 k-points in units of 2pi/SCALE and weight: KPOINTS created by Atomic Simulation Env
   0.00000000  0.00000000  0.00000000       0.125
   0.04600178  0.00000000  0.00000000       0.125
   0.00000000  0.04600178  0.00000000       0.125
   0.00000000 -0.00000000  0.04600178       0.125
   0.04600178  0.04600178  0.00000000       0.125
   0.00000000  0.04600178  0.04600178       0.125
   0.04600178  0.00000000  0.04600178       0.125
   0.04600178  0.04600178  0.04600178       0.125
 
 k-points in reciprocal lattice and weights: KPOINTS created by Atomic Simulation Env
   0.00000000  0.00000000  0.00000000       0.125
   0.50000000  0.00000000  0.00000000       0.125
  -0.00000000  0.50000000  0.00000000       0.125
   0.00000000 -0.00000000  0.50000000       0.125
   0.50000000  0.50000000  0.00000000       0.125
   0.00000000  0.50000000  0.50000000       0.125
   0.50000000 -0.00000000  0.50000000       0.125
   0.50000000  0.50000000  0.50000000       0.125
 
 position of ions in fractional coordinates (direct lattice) 
   0.25092004  0.25000000  0.25000000
   0.75000000  0.25000000  0.25000000
   0.25000000  0.75000000  0.25000000
   0.75000000  0.75000000  0.25000000
   0.25000000  0.25000000  0.75000000
   0.75000000  0.25000000  0.75000000
   0.25000000  0.75000000  0.75000000
   0.75000000  0.75000000  0.75000000
   0.25000000  0.00000000  0.00000000
   0.75000000  0.00000000  0.00000000
   0.25000000  0.50000000  0.00000000
   0.75000000  0.50000000  0.00000000
   0.25000000  0.00000000  0.50000000
   0.75000000  0.00000000  0.50000000
   0.25000000  0.50000000  0.50000000
   0.75000000  0.50000000  0.50000000
   0.99907996  0.25000000  0.00000000
   0.50000000  0.25000000  0.00000000
   0.00000000  0.75000000  0.00000000
   0.50000000  0.75000000  0.00000000
   0.00000000  0.25000000  0.50000000
   0.50000000  0.25000000  0.50000000
   0.00000000  0.75000000  0.50000000
   0.50000000  0.75000000  0.50000000
   0.00000000  0.00000000  0.25000000
   0.50000000  0.00000000  0.25000000
   0.00000000  0.50000000  0.25000000
   0.50000000  0.50000000  0.25000000
   0.00000000  0.00000000  0.75000000
   0.50000000  0.00000000  0.75000000
   0.00000000  0.50000000  0.75000000
   0.50000000  0.50000000  0.75000000
   0.37500000  0.37500000  0.37500000
   0.87500000  0.37500000  0.37500000
   0.37500000  0.87500000  0.37500000
   0.87500000  0.87500000  0.37500000
   0.37500000  0.37500000  0.87500000
   0.87500000  0.37500000  0.87500000
   0.37500000  0.87500000  0.87500000
   0.87500000  0.87500000  0.87500000
   0.37500000  0.12500000  0.12500000
   0.87500000  0.12500000  0.12500000
   0.37500000  0.62500000  0.12500000
   0.87500000  0.62500000  0.12500000
   0.37500000  0.12500000  0.62500000
   0.87500000  0.12500000  0.62500000
   0.37500000  0.62500000  0.62500000
   0.87500000  0.62500000  0.62500000
   0.12500000  0.37500000  0.12500000
   0.62500000  0.37500000  0.12500000
   0.12500000  0.87500000  0.12500000
   0.62500000  0.87500000  0.12500000
   0.12500000  0.37500000  0.62500000
   0.62500000  0.37500000  0.62500000
   0.12500000  0.87500000  0.62500000
   0.62500000  0.87500000  0.62500000
   0.12500000  0.12500000  0.37500000
   0.62500000  0.12500000  0.37500000
   0.12500000  0.62500000  0.37500000
   0.62500000  0.62500000  0.37500000
   0.12500000  0.12500000  0.87500000
   0.62500000  0.12500000  0.87500000
   0.12500000  0.62500000  0.87500000
   0.62500000  0.62500000  0.87500000
 
 position of ions in cartesian coordinates  (Angst):
   2.72728628  2.71728628  2.71728628
   8.15185884  2.71728628  2.71728628
   2.71728628  8.15185884  2.71728628
   8.15185884  8.15185884  2.71728628
   2.71728628  2.71728628  8.15185884
   8.15185884  2.71728628  8.15185884
   2.71728628  8.15185884  8.15185884
   8.15185884  8.15185884  8.15185884
   2.71728628 -0.00000000 -0.00000000
   8.15185884 -0.00000000 -0.00000000
   2.71728628  5.43457256  0.00000000
   8.15185884  5.43457256 -0.00000000
   2.71728628  0.00000000  5.43457256
   8.15185884 -0.00000000  5.43457256
   2.71728628  5.43457256  5.43457256
   8.15185884  5.43457256  5.43457256
  10.85914512  2.71728628 -0.00000000
   5.43457256  2.71728628 -0.00000000
  -0.00000000  8.15185884  0.00000000
   5.43457256  8.15185884  0.00000000
   0.00000000  2.71728628  5.43457256
   5.43457256  2.71728628  5.43457256
  -0.00000000  8.15185884  5.43457256
   5.43457256  8.15185884  5.43457256
   0.00000000  0.00000000  2.71728628
   5.43457256 -0.00000000  2.71728628
  -0.00000000  5.43457256  2.71728628
   5.43457256  5.43457256  2.71728628
   0.00000000  0.00000000  8.15185884
   5.43457256  0.00000000  8.15185884
   0.00000000  5.43457256  8.15185884
   5.43457256  5.43457256  8.15185884
   4.07592942  4.07592942  4.07592942
   9.51050198  4.07592942  4.07592942
   4.07592942  9.51050198  4.07592942
   9.51050198  9.51050198  4.07592942
   4.07592942  4.07592942  9.51050198
   9.51050198  4.07592942  9.51050198
   4.07592942  9.51050198  9.51050198
   9.51050198  9.51050198  9.51050198
   4.07592942  1.35864314  1.35864314
   9.51050198  1.35864314  1.35864314
   4.07592942  6.79321570  1.35864314
   9.51050198  6.79321570  1.35864314
   4.07592942  1.35864314  6.79321570
   9.51050198  1.35864314  6.79321570
   4.07592942  6.79321570  6.79321570
   9.51050198  6.79321570  6.79321570
   1.35864314  4.07592942  1.35864314
   6.79321570  4.07592942  1.35864314
   1.35864314  9.51050198  1.35864314
   6.79321570  9.51050198  1.35864314
   1.35864314  4.07592942  6.79321570
   6.79321570  4.07592942  6.79321570
   1.35864314  9.51050198  6.79321570
   6.79321570  9.51050198  6.79321570
   1.35864314  1.35864314  4.07592942
   6.79321570  1.35864314  4.07592942
   1.35864314  6.79321570  4.07592942
   6.79321570  6.79321570  4.07592942
   1.35864314  1.35864314  9.51050198
   6.79321570  1.35864314  9.51050198
   1.35864314  6.79321570  9.51050198
   6.79321570  6.79321570  9.51050198
 


--------------------------------------------------------------------------------------------------------


 k-point   1 :   0.0000 0.0000 0.0000  plane waves:   16519
 k-point   2 :   0.5000 0.0000 0.0000  plane waves:   16488
 k-point   3 :  -0.0000 0.5000 0.0000  plane waves:   16488
 k-point   4 :   0.0000-0.0000 0.5000  plane waves:   16488
 k-point   5 :   0.5000 0.5000 0.0000  plane waves:   16588
 k-point   6 :   0.0000 0.5000 0.5000  plane waves:   16588
 k-point   7 :   0.5000-0.0000 0.5000  plane waves:   16588
 k-point   8 :   0.5000 0.5000 0.5000  plane waves:   16560

 maximum and minimum number of plane-waves per node :      4165     4106

 maximum number of plane-waves:     16588
 maximum index in each direction: 
   IXMAX=   15   IYMAX=   15   IZMAX=   15
   IXMIN=  -16   IYMIN=  -16   IZMIN=  -16


 parallel 3D FFT for wavefunctions:
    minimum data exchange during FFTs selected (reduces bandwidth)
 parallel 3D FFT for charge:
    minimum data exchange during FFTs selected (reduces bandwidth)


 total amount of memory used by VASP MPI-rank0    65387. kBytes
=======================================================================

   base      :      30000. kBytes
   nonl-proj :       6402. kBytes
   fftplans  :      11573. kBytes
   grid      :       5816. kBytes
   one-center:         49. kBytes
   wavefun   :      11547. kBytes
 
     INWAV:  cpu time      0.0000: real time      0.0000
 Broyden mixing: mesh for mixing (old mesh)
   NGX = 31   NGY = 31   NGZ = 31
  (NGX  =128   NGY  =128   NGZ  =128)
  gives a total of  29791 points

 initial charge density was supplied:
 charge density of overlapping atoms calculated
 number of electron     256.0000000 magnetization 
 keeping initial charge density in first step


--------------------------------------------------------------------------------------------------------


 Maximum index for augmentation-charges         1701 (set IRDMAX)


--------------------------------------------------------------------------------------------------------


 First call to EWALD:  gamma=   0.163
 Maximum number of real-space cells 3x 3x 3
 Maximum number of reciprocal cells 3x 3x 3

    FEWALD:  cpu time      0.0021: real time      0.0021


--------------------------------------- Iteration      1(   1)  ---------------------------------------


    POTLOK:  cpu time      0.0236: real time      0.0238
    SETDIJ:  cpu time      0.0224: real time      0.0226
     EDDAV:  cpu time      2.2915: real time      2.3029
       DOS:  cpu time      0.0006: real time      0.0006
    --------------------------------------------
      LOOP:  cpu time      2.3382: real time      2.3500

 eigenvalue-minimisations  :  2688
 total energy-change (2. order) : 0.4510124E+03  (-0.7260801E+04)
 number of electron     256.0000000 magnetization 
 augmentation part      256.0000000 magnetization 

 Free energy of the ion-electron system (eV)
  ---------------------------------------------------
  alpha Z        PSCENC =       107.38120932
  Ewald energy   TEWEN  =     -7307.87507019
  -Hartree energ DENC   =      -353.25119212
  -exchange      EXHF   =         0.00000000
  -V(xc)+E(xc)   XCENC  =      -558.85370490
  PAW double counting   =      5598.62625415    -4492.17844134
  entropy T*S    EENTRO =        -0.00321990
  eigenvalues    EBANDS =       892.39955255
  atomic energy  EATOM  =      6564.76702419
  Solvation  Ediel_sol  =         0.00000000
  ---------------------------------------------------
  free energy    TOTEN  =       451.01241176 eV

  energy without entropy =      451.01563166  energy(sigma->0) =      451.01402171


--------------------------------------------------------------------------------------------------------




--------------------------------------- Iteration      1(   2)  ---------------------------------------


     EDDAV:  cpu time      2.6247: real time      2.6386
       DOS:  cpu time      0.0003: real time      0.0003
    --------------------------------------------
      LOOP:  cpu time      2.6249: real time      2.6388

 eigenvalue-minimisations  :  3232
 total energy-change (2. order) :-0.7730842E+03  (-0.7307806E+03)
 number of electron     256.0000000 magnetization 
 augmentation part      256.0000000 magnetization 

 Free energy of the ion-electron system (eV)
  ---------------------------------------------------
  alpha Z        PSCENC =       107.38120932
  Ewald energy   TEWEN  =     -7307.87507019
  -Hartree energ DENC   =      -353.25119212
  -exchange      EXHF   =         0.00000000
  -V(xc)+E(xc)   XCENC  =      -558.85370490
  PAW double counting   =      5598.62625415    -4492.17844134
  entropy T*S    EENTRO =        -0.00000000
  eigenvalues    EBANDS =       119.31217914
  atomic energy  EATOM  =      6564.76702419
  Solvation  Ediel_sol  =         0.00000000
  ---------------------------------------------------
  free energy    TOTEN  =      -322.07174175 eV

  energy without entropy =     -322.07174175  energy(sigma->0) =     -322.07174175


--------------------------------------------------------------------------------------------------------




--------------------------------------- Iteration      1(   3)  ---------------------------------------


     EDDAV:  cpu time      2.6686: real time      2.6827
       DOS:  cpu time      0.0003: real time      0.0003
    --------------------------------------------
      LOOP:  cpu time      2.6689: real time      2.6829

 eigenvalue-minimisations  :  3304
 total energy-change (2. order) :-0.5134262E+02  (-0.5048113E+02)
 number of electron     256.0000000 magnetization 
 augmentation part      256.0000000 magnetization 

 Free energy of the ion-electron system (eV)
  ---------------------------------------------------
  alpha Z        PSCENC =       107.38120932
  Ewald energy   TEWEN  =     -7307.87507019
  -Hartree energ DENC   =      -353.25119212
  -exchange      EXHF   =         0.00000000
  -V(xc)+E(xc)   XCENC  =      -558.85370490
  PAW double counting   =      5598.62625415    -4492.17844134
  entropy T*S    EENTRO =        -0.00000000
  eigenvalues    EBANDS =        67.96956210
  atomic energy  EATOM  =      6564.76702419
  Solvation  Ediel_sol  =         0.00000000
  ---------------------------------------------------
  free energy    TOTEN  =      -373.41435880 eV

  energy without entropy =     -373.41435880  energy(sigma->0) =     -373.41435880


--------------------------------------------------------------------------------------------------------




--------------------------------------- Iteration      1(   4)  ---------------------------------------


     EDDAV:  cpu time      2.6238: real time      2.6368
       DOS:  cpu time      0.0003: real time      0.0003
    --------------------------------------------
      LOOP:  cpu time      2.6240: real time      2.6370

 eigenvalue-minimisations  :  3232
 total energy-change (2. order) :-0.1185437E+01  (-0.1177166E+01)
 number of electron     256.0000000 magnetization 
 augmentation part      256.0000000 magnetization 

 Free energy of the ion-electron system (eV)
  ---------------------------------------------------
  alpha Z        PSCENC =       107.38120932
  Ewald energy   TEWEN  =     -7307.87507019
  -Hartree energ DENC   =      -353.25119212
  -exchange      EXHF   =         0.00000000
  -V(xc)+E(xc)   XCENC  =      -558.85370490
  PAW double counting   =      5598.62625415    -4492.17844134
  entropy T*S    EENTRO =        -0.00000000
  eigenvalues    EBANDS =        66.78412505
  atomic energy  EATOM  =      6564.76702419
  Solvation  Ediel_sol  =         0.00000000
  ---------------------------------------------------
  free energy    TOTEN  =      -374.59979585 eV

  energy without entropy =     -374.59979585  energy(sigma->0) =     -374.59979585


--------------------------------------------------------------------------------------------------------




--------------------------------------- Iteration      1(   5)  ---------------------------------------


     EDDAV:  cpu time      2.5980: real time      2.6122
       DOS:  cpu time      0.0003: real time      0.0003
    CHARGE:  cpu time      0.0924: real time      0.0927
    MIXING:  cpu time      0.0030: real time      0.0030
    --------------------------------------------
      LOOP:  cpu time      2.6936: real time      2.7082

 eigenvalue-minimisations  :  3192
 total energy-change (2. order) :-0.4090444E-01  (-0.4085370E-01)
 number of electron     255.9999994 magnetization 
 augmentation part      -14.9589839 magnetization 

 Broyden mixing:
  rms(total) = 0.28465E+01    rms(broyden)= 0.28465E+01
  rms(prec ) = 0.31321E+01
  weight for this iteration     100.00

 Free energy of the ion-electron system (eV)
  ---------------------------------------------------
  alpha Z        PSCENC =       107.38120932
  Ewald energy   TEWEN  =     -7307.87507019
  -Hartree energ DENC   =      -353.25119212
  -exchange      EXHF   =         0.00000000
  -V(xc)+E(xc)   XCENC  =      -558.85370490
  PAW double counting   =      5598.62625415    -4492.17844134
  entropy T*S    EENTRO =        -0.00000000
  eigenvalues    EBANDS =        66.74322060
  atomic energy  EATOM  =      6564.76702419
  Solvation  Ediel_sol  =         0.00000000
  ---------------------------------------------------
  free energy    TOTEN  =      -374.64070029 eV

  energy without entropy =     -374.64070029  energy(sigma->0) =     -374.64070029


--------------------------------------------------------------------------------------------------------




--------------------------------------- Iteration      1(   6)  ---------------------------------------


    POTLOK:  cpu time      0.0225: real time      0.0227
    SETDIJ:  cpu time      0.0219: real time      0.0220
     EDDAV:  cpu time      2.5217: real time      2.5345
       DOS:  cpu time      0.0003: real time      0.0003
    CHARGE:  cpu time      0.0924: real time      0.0928
    MIXING:  cpu time      0.0034: real time      0.0034
    --------------------------------------------
      LOOP:  cpu time      2.6622: real time      2.6756

 eigenvalue-minimisations  :  3064
 total energy-change (2. order) : 0.4919226E+01  (-0.2592711E+00)
 number of electron     255.9999994 magnetization 
 augmentation part      -14.7996838 magnetization 

 Broyden mixing:
  rms(total) = 0.17163E+01    rms(broyden)= 0.17163E+01
  rms(prec ) = 0.18755E+01
  weight for this iteration     100.00

 eigenvalues of (default mixing * dielectric matrix)
  average eigenvalue GAMMA=   2.5112
  2.5112

 Free energy of the ion-electron system (eV)
  ---------------------------------------------------
  alpha Z        PSCENC =       107.38120932
  Ewald energy   TEWEN  =     -7307.87507019
  -Hartree energ DENC   =      -399.23695309
  -exchange      EXHF   =         0.00000000
  -V(xc)+E(xc)   XCENC  =      -551.57545862
  PAW double counting   =     12482.51114834   -11379.30902283
  entropy T*S    EENTRO =        -0.00000000
  eigenvalues    EBANDS =       113.61564824
  atomic energy  EATOM  =      6564.76702419
  Solvation  Ediel_sol  =         0.00000000
  ---------------------------------------------------
  free energy    TOTEN  =      -369.72147465 eV

  energy without entropy =     -369.72147465  energy(sigma->0) =     -369.72147465


--------------------------------------------------------------------------------------------------------




--------------------------------------- Iteration      1(   7)  ---------------------------------------


    POTLOK:  cpu time      0.0216: real time      0.0218
    SETDIJ:  cpu time      0.0218: real time      0.0219
     EDDAV:  cpu time      2.5128: real time      2.5253
       DOS:  cpu time      0.0003: real time      0.0003
    CHARGE:  cpu time      0.0914: real time      0.0920
    MIXING:  cpu time      0.0028: real time      0.0028
    --------------------------------------------
      LOOP:  cpu time      2.6507: real time      2.6642

 eigenvalue-minimisations  :  3056
 total energy-change (2. order) : 0.2231133E+01  (-0.5239189E+00)
 number of electron     255.9999994 magnetization 
 augmentation part      -14.5985321 magnetization 

 Broyden mixing:
  rms(total) = 0.99616E-01    rms(broyden)= 0.99616E-01
  rms(prec ) = 0.12388E+00
  weight for this iteration     100.00

 eigenvalues of (default mixing * dielectric matrix)
  average eigenvalue GAMMA=   2.2498
  2.2498  2.2498

 Free energy of the ion-electron system (eV)
  ---------------------------------------------------
  alpha Z        PSCENC =       107.38120932
  Ewald energy   TEWEN  =     -7307.87507019
  -Hartree energ DENC   =      -473.65572617
  -exchange      EXHF   =         0.00000000
  -V(xc)+E(xc)   XCENC  =      -539.13645834
  PAW double counting   =     29123.35747450   -28024.52722893
  entropy T*S    EENTRO =        -0.00000000
  eigenvalues    EBANDS =       182.19843400
  atomic energy  EATOM  =      6564.76702419
  Solvation  Ediel_sol  =         0.00000000
  ---------------------------------------------------
  free energy    TOTEN  =      -367.49034163 eV

  energy without entropy =     -367.49034163  energy(sigma->0) =     -367.49034163


--------------------------------------------------------------------------------------------------------




--------------------------------------- Iteration      1(   8)  ---------------------------------------


    POTLOK:  cpu time      0.0216: real time      0.0218
    SETDIJ:  cpu time      0.0220: real time      0.0220
     EDDAV:  cpu time      2.5222: real time      2.5348
       DOS:  cpu time      0.0002: real time      0.0002
    CHARGE:  cpu time      0.0911: real time      0.0915
    MIXING:  cpu time      0.0038: real time      0.0039
    --------------------------------------------
      LOOP:  cpu time      2.6609: real time      2.6742

 eigenvalue-minimisations  :  3064
 total energy-change (2. order) :-0.7119981E-02  (-0.2830890E-01)
 number of electron     255.9999994 magnetization 
 augmentation part      -14.6402948 magnetization 

 Broyden mixing:
  rms(total) = 0.35215E-01    rms(broyden)= 0.35214E-01
  rms(prec ) = 0.40559E-01
  weight for this iteration     100.00

 eigenvalues of (default mixing * dielectric matrix)
  average eigenvalue GAMMA=   2.4293
  2.8211  2.2335  2.2335

 Free energy of the ion-electron system (eV)
  ---------------------------------------------------
  alpha Z        PSCENC =       107.38120932
  Ewald energy   TEWEN  =     -7307.87507019
  -Hartree energ DENC   =      -466.69047390
  -exchange      EXHF   =         0.00000000
  -V(xc)+E(xc)   XCENC  =      -539.74322567
  PAW double counting   =     28622.16811692   -27522.53761291
  entropy T*S    EENTRO =        -0.00000000
  eigenvalues    EBANDS =       175.03257065
  atomic energy  EATOM  =      6564.76702419
  Solvation  Ediel_sol  =         0.00000000
  ---------------------------------------------------
  free energy    TOTEN  =      -367.49746161 eV

  energy without entropy =     -367.49746161  energy(sigma->0) =     -367.49746161


--------------------------------------------------------------------------------------------------------




--------------------------------------- Iteration      1(   9)  ---------------------------------------


    POTLOK:  cpu time      0.0212: real time      0.0214
    SETDIJ:  cpu time      0.0219: real time      0.0220
     EDDAV:  cpu time      2.6674: real time      2.6810
       DOS:  cpu time      0.0003: real time      0.0003
    CHARGE:  cpu time      0.0910: real time      0.0914
    MIXING:  cpu time      0.0013: real time      0.0035
    --------------------------------------------
      LOOP:  cpu time      2.8032: real time      2.8197

 eigenvalue-minimisations  :  3304
 total energy-change (2. order) :-0.1497409E-02  (-0.7239275E-03)
 number of electron     255.9999994 magnetization 
 augmentation part      -14.6409835 magnetization 

 Broyden mixing:
  rms(total) = 0.30956E-01    rms(broyden)= 0.30956E-01
  rms(prec ) = 0.32057E-01
  weight for this iteration     100.00

 eigenvalues of (default mixing * dielectric matrix)
  average eigenvalue GAMMA=   2.3673
  3.8464  2.3820  2.3820  0.8587

 Free energy of the ion-electron system (eV)
  ---------------------------------------------------
  alpha Z        PSCENC =       107.38120932
  Ewald energy   TEWEN  =     -7307.87507019
  -Hartree energ DENC   =      -468.63998598
  -exchange      EXHF   =         0.00000000
  -V(xc)+E(xc)   XCENC  =      -539.41433717
  PAW double counting   =     28768.04458304   -27668.51757721
  entropy T*S    EENTRO =        -0.00000000
  eigenvalues    EBANDS =       176.75519499
  atomic energy  EATOM  =      6564.76702419
  Solvation  Ediel_sol  =         0.00000000
  ---------------------------------------------------
  free energy    TOTEN  =      -367.49895902 eV

  energy without entropy =     -367.49895902  energy(sigma->0) =     -367.49895902


--------------------------------------------------------------------------------------------------------




--------------------------------------- Iteration      1(  10)  ---------------------------------------


    POTLOK:  cpu time      0.0215: real time      0.0217
    SETDIJ:  cpu time      0.0217: real time      0.0218
     EDDAV:  cpu time      2.4740: real time      2.4867
       DOS:  cpu time      0.0003: real time      0.0003
    CHARGE:  cpu time      0.0916: real time      0.0921
    MIXING:  cpu time      0.0038: real time      0.0038
    --------------------------------------------
      LOOP:  cpu time      2.6129: real time      2.6264

 eigenvalue-minimisations  :  2992
 total energy-change (2. order) :-0.8532800E-03  (-0.2077077E-03)
 number of electron     255.9999994 magnetization 
 augmentation part      -14.6429600 magnetization 

 Broyden mixing:
  rms(total) = 0.22686E-01    rms(broyden)= 0.22686E-01
  rms(prec ) = 0.22803E-01
  weight for this iteration     100.00

 eigenvalues of (default mixing * dielectric matrix)
  average eigenvalue GAMMA=   1.8666
  2.8594  2.2475  2.2475  0.9894  0.9894

 Free energy of the ion-electron system (eV)
  ---------------------------------------------------
  alpha Z        PSCENC =       107.38120932
  Ewald energy   TEWEN  =     -7307.87507019
  -Hartree energ DENC   =      -468.87434517
  -exchange      EXHF   =         0.00000000
  -V(xc)+E(xc)   XCENC  =      -539.34103063
  PAW double counting   =     28255.31594501   -27155.75768877
  entropy T*S    EENTRO =        -0.00000000
  eigenvalues    EBANDS =       176.88414394
  atomic energy  EATOM  =      6564.76702419
  Solvation  Ediel_sol  =         0.00000000
  ---------------------------------------------------
  free energy    TOTEN  =      -367.49981230 eV

  energy without entropy =     -367.49981230  energy(sigma->0) =     -367.49981230


--------------------------------------------------------------------------------------------------------




--------------------------------------- Iteration      1(  11)  ---------------------------------------


    POTLOK:  cpu time      0.0212: real time      0.0214
    SETDIJ:  cpu time      0.0220: real time      0.0220
     EDDAV:  cpu time      2.5579: real time      2.5709
       DOS:  cpu time      0.0003: real time      0.0003
    CHARGE:  cpu time      0.0933: real time      0.0937
    MIXING:  cpu time      0.0016: real time      0.0016
    --------------------------------------------
      LOOP:  cpu time      2.6962: real time      2.7099

 eigenvalue-minimisations  :  3128
 total energy-change (2. order) :-0.3735092E-04  (-0.8706322E-05)
 number of electron     255.9999994 magnetization 
 augmentation part      -14.6438083 magnetization 

 Broyden mixing:
  rms(total) = 0.91003E-03    rms(broyden)= 0.91001E-03
  rms(prec ) = 0.10034E-02
  weight for this iteration     100.00

 eigenvalues of (default mixing * dielectric matrix)
  average eigenvalue GAMMA=   1.7552
  2.8917  2.2545  2.2545  1.1833  1.1833  0.7639

 Free energy of the ion-electron system (eV)
  ---------------------------------------------------
  alpha Z        PSCENC =       107.38120932
  Ewald energy   TEWEN  =     -7307.87507019
  -Hartree energ DENC   =      -468.75130758
  -exchange      EXHF   =         0.00000000
  -V(xc)+E(xc)   XCENC  =      -539.35265824
  PAW double counting   =     28480.26558093   -27380.69574458
  entropy T*S    EENTRO =        -0.00000000
  eigenvalues    EBANDS =       176.76111651
  atomic energy  EATOM  =      6564.76702419
  Solvation  Ediel_sol  =         0.00000000
  ---------------------------------------------------
  free energy    TOTEN  =      -367.49984965 eV

  energy without entropy =     -367.49984965  energy(sigma->0) =     -367.49984965


--------------------------------------------------------------------------------------------------------




--------------------------------------- Iteration      1(  12)  ---------------------------------------


    POTLOK:  cpu time      0.0212: real time      0.0214
    SETDIJ:  cpu time      0.0217: real time      0.0218
     EDDAV:  cpu time      2.6254: real time      2.6388
       DOS:  cpu time      0.0003: real time      0.0003
    CHARGE:  cpu time      0.0932: real time      0.0936
    MIXING:  cpu time      0.0017: real time      0.0017
    --------------------------------------------
      LOOP:  cpu time      2.7634: real time      2.7775

 eigenvalue-minimisations  :  3240
 total energy-change (2. order) :-0.2373765E-05  (-0.3389300E-06)
 number of electron     255.9999994 magnetization 
 augmentation part      -14.6436943 magnetization 

 Broyden mixing:
  rms(total) = 0.80476E-03    rms(broyden)= 0.80475E-03
  rms(prec ) = 0.83514E-03
  weight for this iteration     100.00

 eigenvalues of (default mixing * dielectric matrix)
  average eigenvalue GAMMA=   1.8534
  3.0081  2.4954  2.4954  2.1917  0.9888  0.8973  0.8973

 Free energy of the ion-electron system (eV)
  ---------------------------------------------------
  alpha Z        PSCENC =       107.38120932
  Ewald energy   TEWEN  =     -7307.87507019
  -Hartree energ DENC   =      -468.78385490
  -exchange      EXHF   =         0.00000000
  -V(xc)+E(xc)   XCENC  =      -539.35098241
  PAW double counting   =     28481.66053849   -27382.08988946
  entropy T*S    EENTRO =        -0.00000000
  eigenvalues    EBANDS =       176.79117296
  atomic energy  EATOM  =      6564.76702419
  Solvation  Ediel_sol  =         0.00000000
  ---------------------------------------------------
  free energy    TOTEN  =      -367.49985202 eV

  energy without entropy =     -367.49985202  energy(sigma->0) =     -367.49985202


--------------------------------------------------------------------------------------------------------




--------------------------------------- Iteration      1(  13)  ---------------------------------------


    POTLOK:  cpu time      0.0217: real time      0.0218
    SETDIJ:  cpu time      0.0218: real time      0.0218
     EDDAV:  cpu time      2.4877: real time      2.5006
       DOS:  cpu time      0.0003: real time      0.0003
    CHARGE:  cpu time      0.0934: real time      0.0938
    MIXING:  cpu time      0.0019: real time      0.0019
    --------------------------------------------
      LOOP:  cpu time      2.6267: real time      2.6403

 eigenvalue-minimisations  :  3024
 total energy-change (2. order) : 0.1027242E-05  (-0.8155099E-07)
 number of electron     255.9999994 magnetization 
 augmentation part      -14.6436568 magnetization 

 Broyden mixing:
  rms(total) = 0.19926E-03    rms(broyden)= 0.19926E-03
  rms(prec ) = 0.20543E-03
  weight for this iteration     100.00

 eigenvalues of (default mixing * dielectric matrix)
  average eigenvalue GAMMA=   1.7811
  3.0667  2.6374  2.3531  2.2216  0.9574  0.9574  1.0278  1.0278

 Free energy of the ion-electron system (eV)
  ---------------------------------------------------
  alpha Z        PSCENC =       107.38120932
  Ewald energy   TEWEN  =     -7307.87507019
  -Hartree energ DENC   =      -468.78704751
  -exchange      EXHF   =         0.00000000
  -V(xc)+E(xc)   XCENC  =      -539.35328538
  PAW double counting   =     28476.58301304   -27377.00992935
  entropy T*S    EENTRO =        -0.00000000
  eigenvalues    EBANDS =       176.79423489
  atomic energy  EATOM  =      6564.76702419
  Solvation  Ediel_sol  =         0.00000000
  ---------------------------------------------------
  free energy    TOTEN  =      -367.49985099 eV

  energy without entropy =     -367.49985099  energy(sigma->0) =     -367.49985099


--------------------------------------------------------------------------------------------------------




--------------------------------------- Iteration      1(  14)  ---------------------------------------


    POTLOK:  cpu time      0.0214: real time      0.0216
    SETDIJ:  cpu time      0.0218: real time      0.0219
     EDDAV:  cpu time      2.2201: real time      2.2314
       DOS:  cpu time      0.0003: real time      0.0003
    CHARGE:  cpu time      0.0939: real time      0.0943
    MIXING:  cpu time      0.0021: real time      0.0021
    --------------------------------------------
      LOOP:  cpu time      2.3595: real time      2.3715

 eigenvalue-minimisations  :  2576
 total energy-change (2. order) : 0.1589178E-06  (-0.2945103E-08)
 number of electron     255.9999994 magnetization 
 augmentation part      -14.6436497 magnetization 

 Broyden mixing:
  rms(total) = 0.49203E-04    rms(broyden)= 0.49203E-04
  rms(prec ) = 0.51492E-04
  weight for this iteration     100.00

 eigenvalues of (default mixing * dielectric matrix)
  average eigenvalue GAMMA=   1.7864
  3.0797  2.5518  2.4391  2.1912  1.8244  1.1762  0.9778  0.9186  0.9186

 Free energy of the ion-electron system (eV)
  ---------------------------------------------------
  alpha Z        PSCENC =       107.38120932
  Ewald energy   TEWEN  =     -7307.87507019
  -Hartree energ DENC   =      -468.78689492
  -exchange      EXHF   =         0.00000000
  -V(xc)+E(xc)   XCENC  =      -539.35373997
  PAW double counting   =     28475.07794624   -27375.50464876
  entropy T*S    EENTRO =        -0.00000000
  eigenvalues    EBANDS =       176.79432326
  atomic energy  EATOM  =      6564.76702419
  Solvation  Ediel_sol  =         0.00000000
  ---------------------------------------------------
  free energy    TOTEN  =      -367.49985083 eV

  energy without entropy =     -367.49985083  energy(sigma->0) =     -367.49985083


--------------------------------------------------------------------------------------------------------




--------------------------------------- Iteration      1(  15)  ---------------------------------------


    POTLOK:  cpu time      0.0215: real time      0.0217
    SETDIJ:  cpu time      0.0216: real time      0.0217
     EDDAV:  cpu time      1.7869: real time      1.7959
       DOS:  cpu time      0.0003: real time      0.0003
    CHARGE:  cpu time      0.0932: real time      0.0936
    MIXING:  cpu time      0.0018: real time      0.0018
    --------------------------------------------
      LOOP:  cpu time      1.9253: real time      1.9350

 eigenvalue-minimisations  :  1864
 total energy-change (2. order) : 0.1428634E-07  (-0.9069767E-09)
 number of electron     255.9999994 magnetization 
 augmentation part      -14.6436497 magnetization 

 Broyden mixing:
  rms(total) = 0.11894E-04    rms(broyden)= 0.11894E-04
  rms(prec ) = 0.12763E-04
  weight for this iteration     100.00

 eigenvalues of (default mixing * dielectric matrix)
  average eigenvalue GAMMA=   1.7695
  3.0879  2.6381  2.3074  2.3074  1.7549  1.7549  0.9941  0.9941  0.9281  0.9281

 Free energy of the ion-electron system (eV)
  ---------------------------------------------------
  alpha Z        PSCENC =       107.38120932
  Ewald energy   TEWEN  =     -7307.87507019
  -Hartree energ DENC   =      -468.78637075
  -exchange      EXHF   =         0.00000000
  -V(xc)+E(xc)   XCENC  =      -539.35379560
  PAW double counting   =     28474.93025100   -27375.35699740
  entropy T*S    EENTRO =        -0.00000000
  eigenvalues    EBANDS =       176.79389862
  atomic energy  EATOM  =      6564.76702419
  Solvation  Ediel_sol  =         0.00000000
  ---------------------------------------------------
  free energy    TOTEN  =      -367.49985082 eV

  energy without entropy =     -367.49985082  energy(sigma->0) =     -367.49985082


--------------------------------------------------------------------------------------------------------




--------------------------------------- Iteration      1(  16)  ---------------------------------------


    POTLOK:  cpu time      0.0214: real time      0.0216
    SETDIJ:  cpu time      0.0210: real time      0.0211
     EDDAV:  cpu time      1.7346: real time      1.7436
       DOS:  cpu time      0.0003: real time      0.0003
    --------------------------------------------
      LOOP:  cpu time      1.7773: real time      1.7867

 eigenvalue-minimisations  :  1752
 total energy-change (2. order) : 0.5959919E-08  (-0.1377085E-09)
 number of electron     255.9999994 magnetization 
 augmentation part      -14.6436497 magnetization 

 Free energy of the ion-electron system (eV)
  ---------------------------------------------------
  alpha Z        PSCENC =       107.38120932
  Ewald energy   TEWEN  =     -7307.87507019
  -Hartree energ DENC   =      -468.78621600
  -exchange      EXHF   =         0.00000000
  -V(xc)+E(xc)   XCENC  =      -539.35382522
  PAW double counting   =     28474.86741605   -27375.29416046
  entropy T*S    EENTRO =        -0.00000000
  eigenvalues    EBANDS =       176.79377150
  atomic energy  EATOM  =      6564.76702419
  Solvation  Ediel_sol  =         0.00000000
  ---------------------------------------------------
  free energy    TOTEN  =      -367.49985081 eV

  energy without entropy =     -367.49985081  energy(sigma->0) =     -367.49985081


--------------------------------------------------------------------------------------------------------




 average (electrostatic) potential at core
  the test charge radii are     0.9892
  (the norm of the test charge is              1.0000)
       1 -83.0574       2 -83.0572       3 -83.0572       4 -83.0574       5 -83.0574
       6 -83.0572       7 -83.0572       8 -83.0574       9 -83.0595      10 -83.0569
      11 -83.0553      12 -83.0575      13 -83.0551      14 -83.0577      15 -83.0593
      16 -83.0571      17 -83.0574      18 -83.0572      19 -83.0572      20 -83.0574
      21 -83.0574      22 -83.0572      23 -83.0572      24 -83.0574      25 -83.0595
      26 -83.0569      27 -83.0553      28 -83.0575      29 -83.0551      30 -83.0577
      31 -83.0593      32 -83.0571      33 -83.0573      34 -83.0568      35 -83.0569
      36 -83.0588      37 -83.0568      38 -83.0573      39 -83.0588      40 -83.0569
      41 -83.0568      42 -83.0568      43 -83.0573      44 -83.0573      45 -83.0573
      46 -83.0573      47 -83.0584      48 -83.0584      49 -83.0578      50 -83.0579
      51 -83.0578      52 -83.0568      53 -83.0578      54 -83.0568      55 -83.0547
      56 -83.0576      57 -83.0578      58 -83.0574      59 -83.0562      60 -83.0572
      61 -83.0578      62 -83.0574      63 -83.0562      64 -83.0572
 
 
 
 E-fermi :   5.8931     XC(G=0):  -9.5445     alpha+bet :-11.9543

 Fermi energy:         5.8931462812

 k-point     1 :       0.0000    0.0000    0.0000
  band No.  band energies     occupation 
      1      -6.2055      2.00000
      2      -5.1238      2.00000
      3      -5.1224      2.00000
      4      -5.1217      2.00000
      5      -5.1208      2.00000
      6      -5.1207      2.00000
      7      -5.1181      2.00000
      8      -4.1607      2.00000
      9      -4.1577      2.00000
     10      -4.1568      2.00000
     11      -4.1559      2.00000
     12      -4.1553      2.00000
     13      -4.1551      2.00000
     14      -4.1550      2.00000
     15      -4.1548      2.00000
     16      -4.1547      2.00000
     17      -4.1537      2.00000
     18      -4.1518      2.00000
     19      -4.1491      2.00000
     20      -3.8623      2.00000
     21      -3.8623      2.00000
     22      -3.8590      2.00000
     23      -3.8589      2.00000
     24      -2.0544      2.00000
     25      -2.0539      2.00000
     26      -2.0520      2.00000
     27      -2.0519      2.00000
     28      -2.0500      2.00000
     29      -2.0495      2.00000
     30      -1.8867      2.00000
     31      -1.8863      2.00000
     32      -1.8846      2.00000
     33      -1.8841      2.00000
     34      -1.8831      2.00000
     35      -1.8828      2.00000
     36      -1.8828      2.00000
     37      -1.8825      2.00000
     38      -1.8823      2.00000
     39      -1.8796      2.00000
     40      -1.8795      2.00000
     41      -1.8782      2.00000
     42      -1.2358      2.00000
     43      -1.2358      2.00000
     44      -1.2336      2.00000
     45      -1.2336      2.00000
     46       0.2783      2.00000
     47       0.2785      2.00000
     48       0.2801      2.00000
     49       0.2812      2.00000
     50       0.2817      2.00000
     51       0.2818      2.00000
     52       0.2820      2.00000
     53       0.2822      2.00000
     54       0.2826      2.00000
     55       0.2840      2.00000
     56       0.2851      2.00000
     57       0.2859      2.00000
     58       1.8688      2.00000
     59       1.8693      2.00000
     60       1.8703      2.00000
     61       1.8707      2.00000
     62       1.8709      2.00000
     63       1.8709      2.00000
     64       1.8712      2.00000
     65       1.8712      2.00000
     66       1.8720      2.00000
     67       1.8720      2.00000
     68       1.8731      2.00000
     69       1.8736      2.00000
     70       1.9706      2.00000
     71       1.9713      2.00000
     72       1.9719      2.00000
     73       1.9721      2.00000
     74       1.9727      2.00000
     75       1.9730      2.00000
     76       1.9733      2.00000
     77       1.9735      2.00000
     78       1.9740      2.00000
     79       1.9752      2.00000
     80       1.9760      2.00000
     81       1.9761      2.00000
     82       2.2486      2.00000
     83       2.2502      2.00000
     84       2.2510      2.00000
     85       2.2520      2.00000
     86       2.2525      2.00000
     87       2.2542      2.00000
     88       2.9005      2.00000
     89       2.9017      2.00000
     90       2.9017      2.00000
     91       2.9017      2.00000
     92       2.9017      2.00000
     93       2.9029      2.00000
     94       3.8624      2.00000
     95       3.8637      2.00000
     96       3.8659      2.00000
     97       3.8663      2.00000
     98       3.8665      2.00000
     99       3.8667      2.00000
    100       3.8667      2.00000
    101       3.8668      2.00000
    102       3.8668      2.00000
    103       3.8673      2.00000
    104       3.8698      2.00000
    105       3.8710      2.00000
    106       4.4331      2.00000
    107       4.4336      2.00000
    108       4.4349      2.00000
    109       4.4362      2.00000
    110       4.4364      2.00000
    111       4.4368      2.00000
    112       4.4372      2.00000
    113       4.4372      2.00000
    114       4.4377      2.00000
    115       4.4393      2.00000
    116       4.4406      2.00000
    117       4.4410      2.00000
    118       4.5671      2.00000
    119       4.5671      2.00000
    120       4.5693      2.00000
    121       4.5693      2.00000
    122       4.5703      2.00000
    123       4.5703      2.00000
    124       4.5727      2.00000
    125       4.5727      2.00000
    126       5.7720      2.00000
    127       5.7720      2.00000
    128       5.7720      2.00000
    129       6.3629      0.00000
    130       6.3651      0.00000
    131       6.3658      0.00000
    132       6.3658      0.00000
    133       6.3665      0.00000
    134       6.3686      0.00000
    135       6.8058      0.00000
    136       6.8067      0.00000
    137       6.8077      0.00000
    138       6.8087      0.00000
    139       6.8095      0.00000
    140       6.8101      0.00000
    141       7.2318      0.00000
    142       7.2318      0.00000
    143       7.2321      0.00000
    144       7.2321      0.00000
    145       8.1349      0.00000
    146       8.1351      0.00000
    147       8.1358      0.00000
    148       8.1363      0.00000
    149       8.1377      0.00000
    150       8.1378      0.00000
    151       8.1380      0.00000
    152       8.1381      0.00000
    153       8.1397      0.00000
    154       8.1397      0.00000
    155       8.1406      0.00000
    156       8.1411      0.00000
    157       8.2889      0.00000
    158       8.2889      0.00000
    159       8.2889      0.00000
    160       8.7963      0.00000
    161       8.7970      0.00000
    162       8.7979      0.00000
    163       8.7979      0.00000
    164       8.7989      0.00000
    165       8.7995      0.00000
    166       9.0485      0.00000
    167       9.0501      0.00000
    168       9.0530      0.00000

 k-point     2 :       0.5000    0.0000    0.0000
  band No.  band energies     occupation 
      1      -5.9330      2.00000
      2      -5.9311      2.00000
      3      -4.8753      2.00000
      4      -4.8742      2.00000
      5      -4.8734      2.00000
      6      -4.8734      2.00000
      7      -4.8728      2.00000
      8      -4.8717      2.00000
      9      -4.8713      2.00000
     10      -4.8699      2.00000
     11      -4.0247      2.00000
     12      -4.0247      2.00000
     13      -4.0236      2.00000
     14      -4.0236      2.00000
     15      -4.0229      2.00000
     16      -4.0229      2.00000
     17      -4.0197      2.00000
     18      -4.0197      2.00000
     19      -3.8072      2.00000
     20      -3.8040      2.00000
     21      -3.0809      2.00000
     22      -3.0786      2.00000
     23      -3.0774      2.00000
     24      -3.0770      2.00000
     25      -3.0760      2.00000
     26      -3.0753      2.00000
     27      -3.0742      2.00000
     28      -3.0718      2.00000
     29      -1.9736      2.00000
     30      -1.9736      2.00000
     31      -1.9718      2.00000
     32      -1.9718      2.00000
     33      -1.9716      2.00000
     34      -1.9712      2.00000
     35      -1.9712      2.00000
     36      -1.9672      2.00000
     37      -0.8062      2.00000
     38      -0.8049      2.00000
     39      -0.8037      2.00000
     40      -0.8037      2.00000
     41      -0.8025      2.00000
     42      -0.8020      2.00000
     43      -0.8011      2.00000
     44      -0.8000      2.00000
     45      -0.6356      2.00000
     46      -0.6356      2.00000
     47      -0.6347      2.00000
     48      -0.6347      2.00000
     49      -0.6344      2.00000
     50      -0.6344      2.00000
     51      -0.6311      2.00000
     52      -0.6310      2.00000
     53       0.0223      2.00000
     54       0.0242      2.00000
     55       1.4702      2.00000
     56       1.4718      2.00000
     57       1.4733      2.00000
     58       1.4741      2.00000
     59       1.4745      2.00000
     60       1.4747      2.00000
     61       1.4758      2.00000
     62       1.4777      2.00000
     63       1.4914      2.00000
     64       1.4921      2.00000
     65       1.4930      2.00000
     66       1.4932      2.00000
     67       1.4939      2.00000
     68       1.4940      2.00000
     69       1.4950      2.00000
     70       1.4958      2.00000
     71       2.3170      2.00000
     72       2.3176      2.00000
     73       2.3176      2.00000
     74       2.3176      2.00000
     75       2.3185      2.00000
     76       2.3185      2.00000
     77       2.3187      2.00000
     78       2.3189      2.00000
     79       3.0218      2.00000
     80       3.0232      2.00000
     81       3.0243      2.00000
     82       3.0244      2.00000
     83       3.0248      2.00000
     84       3.0253      2.00000
     85       3.0264      2.00000
     86       3.0280      2.00000
     87       3.1467      2.00000
     88       3.1468      2.00000
     89       3.1492      2.00000
     90       3.1493      2.00000
     91       3.1566      2.00000
     92       3.1579      2.00000
     93       3.1585      2.00000
     94       3.1591      2.00000
     95       3.1597      2.00000
     96       3.1600      2.00000
     97       3.1610      2.00000
     98       3.1615      2.00000
     99       3.2842      2.00000
    100       3.2842      2.00000
    101       3.2855      2.00000
    102       3.2855      2.00000
    103       3.2862      2.00000
    104       3.2862      2.00000
    105       3.2871      2.00000
    106       3.2871      2.00000
    107       4.3306      2.00000
    108       4.3307      2.00000
    109       4.3313      2.00000
    110       4.3313      2.00000
    111       4.3320      2.00000
    112       4.3324      2.00000
    113       4.3327      2.00000
    114       4.3335      2.00000
    115       4.4329      2.00000
    116       4.4330      2.00000
    117       4.4967      2.00000
    118       4.4967      2.00000
    119       4.5002      2.00000
    120       4.5002      2.00000
    121       4.5008      2.00000
    122       4.5008      2.00000
    123       4.5058      2.00000
    124       4.5058      2.00000
    125       4.9532      2.00000
    126       4.9532      2.00000
    127       4.9573      2.00000
    128       4.9573      2.00000
    129       6.2787      0.00000
    130       6.2807      0.00000
    131       7.1930      0.00000
    132       7.1948      0.00000
    133       7.6424      0.00000
    134       7.6449      0.00000
    135       7.6449      0.00000
    136       7.6451      0.00000
    137       7.6463      0.00000
    138       7.6467      0.00000
    139       7.6468      0.00000
    140       7.6496      0.00000
    141       7.7137      0.00000
    142       7.7146      0.00000
    143       8.0573      0.00000
    144       8.0574      0.00000
    145       8.0591      0.00000
    146       8.0591      0.00000
    147       8.0595      0.00000
    148       8.0595      0.00000
    149       8.0628      0.00000
    150       8.0628      0.00000
    151       8.1429      0.00000
    152       8.1443      0.00000
    153       8.1454      0.00000
    154       8.1454      0.00000
    155       8.1459      0.00000
    156       8.1461      0.00000
    157       8.1469      0.00000
    158       8.1482      0.00000
    159       8.5505      0.00000
    160       8.5511      0.00000
    161       8.5517      0.00000
    162       8.5526      0.00000
    163       8.5529      0.00000
    164       8.5533      0.00000
    165       8.5546      0.00000
    166       8.5556      0.00000
    167       9.3188      0.00000
    168       9.3224      0.00000

 k-point     3 :      -0.0000    0.5000    0.0000
  band No.  band energies     occupation 
      1      -5.9320      2.00000
      2      -5.9320      2.00000
      3      -4.8777      2.00000
      4      -4.8739      2.00000
      5      -4.8733      2.00000
      6      -4.8728      2.00000
      7      -4.8726      2.00000
      8      -4.8721      2.00000
      9      -4.8716      2.00000
     10      -4.8679      2.00000
     11      -4.0263      2.00000
     12      -4.0262      2.00000
     13      -4.0230      2.00000
     14      -4.0230      2.00000
     15      -4.0224      2.00000
     16      -4.0224      2.00000
     17      -4.0192      2.00000
     18      -4.0192      2.00000
     19      -3.8057      2.00000
     20      -3.8057      2.00000
     21      -3.0796      2.00000
     22      -3.0781      2.00000
     23      -3.0780      2.00000
     24      -3.0766      2.00000
     25      -3.0762      2.00000
     26      -3.0748      2.00000
     27      -3.0747      2.00000
     28      -3.0731      2.00000
     29      -1.9715      2.00000
     30      -1.9715      2.00000
     31      -1.9715      2.00000
     32      -1.9715      2.00000
     33      -1.9715      2.00000
     34      -1.9715      2.00000
     35      -1.9714      2.00000
     36      -1.9714      2.00000
     37      -0.8062      2.00000
     38      -0.8058      2.00000
     39      -0.8040      2.00000
     40      -0.8031      2.00000
     41      -0.8029      2.00000
     42      -0.8021      2.00000
     43      -0.8002      2.00000
     44      -0.7999      2.00000
     45      -0.6360      2.00000
     46      -0.6360      2.00000
     47      -0.6347      2.00000
     48      -0.6347      2.00000
     49      -0.6332      2.00000
     50      -0.6332      2.00000
     51      -0.6319      2.00000
     52      -0.6318      2.00000
     53       0.0232      2.00000
     54       0.0232      2.00000
     55       1.4717      2.00000
     56       1.4721      2.00000
     57       1.4735      2.00000
[...]
         0         1         2         3         4         5         6         7         8         9
 total charge-density along one line
 
 pseudopotential strength for first ion, spin component:           1
 18.404  25.676   0.000   0.000   0.000   0.000   0.000   0.000
 25.676  35.825   0.000   0.000   0.000   0.000   0.000   0.001
  0.000   0.000   4.177   0.000   0.000   7.782   0.000   0.000
  0.000   0.000   0.000   4.177  -0.000   0.000   7.782  -0.000
  0.000   0.000   0.000  -0.000   4.177   0.000  -0.000   7.782
  0.000   0.000   7.782   0.000   0.000  14.509   0.000   0.000
  0.000   0.000   0.000   7.782  -0.000   0.000  14.509  -0.000
  0.000   0.001   0.000  -0.000   7.782   0.000  -0.000  14.509
 total augmentation occupancy for first ion, spin component:           1
  5.947  -2.288   0.000   0.000   0.019  -0.000  -0.000  -0.006
 -2.288   0.989  -0.000   0.000  -0.009   0.000   0.000   0.003
  0.000  -0.000   3.000   0.022   0.000  -0.681  -0.006   0.000
  0.000   0.000   0.022   3.001   0.000  -0.006  -0.681  -0.000
  0.019  -0.009   0.000   0.000   3.000  -0.000  -0.000  -0.681
 -0.000   0.000  -0.681  -0.006  -0.000   0.164   0.002   0.000
 -0.000   0.000  -0.006  -0.681  -0.000   0.002   0.164   0.000
 -0.006   0.003   0.000  -0.000  -0.681   0.000   0.000   0.164


------------------------ aborting loop because EDIFF is reached ----------------------------------------


    CHARGE:  cpu time      0.0907: real time      0.0911
    FORLOC:  cpu time      0.0091: real time      0.0091
    FORNL :  cpu time      1.0556: real time      1.0598
    STRESS:  cpu time      2.1468: real time      2.1562
    FORCOR:  cpu time      0.0297: real time      0.0298
    FORHAR:  cpu time      0.0116: real time      0.0117
    MIXING:  cpu time      0.0009: real time      0.0009
    OFIELD:  cpu time      0.0000: real time      0.0000

  FORCE on cell =-STRESS in cart. coord.  units (eV):
  Direction    XX          YY          ZZ          XY          YZ          ZX
  --------------------------------------------------------------------------------------
  Alpha Z   107.38121   107.38121   107.38121
  Ewald   -2435.98724 -2435.96733 -2435.96638    -0.00000     0.00000    -0.00028
  Hartree   156.25915   156.26327   156.26367    -0.00000    -0.00000    -0.00037
  E(xc)    -817.39768  -817.39794  -817.39794    -0.00000     0.00000     0.00000
  Local    -931.44474  -931.46776  -931.46913    -0.00000    -0.00000     0.00068
  n-local  2483.02237  2483.02632  2483.02635    -0.00000    -0.00000    -0.00001
  augment  -368.16885  -368.16907  -368.16907    -0.00000     0.00000     0.00000
  Kinetic  1806.30908  1806.30837  1806.30835    -0.00000    -0.00000    -0.00001
  Fock        0.00000     0.00000     0.00000     0.00000     0.00000     0.00000
  -------------------------------------------------------------------------------------
  Total      -0.02671    -0.02293    -0.02292     0.00000    -0.00000     0.00001
  in kB      -0.03333    -0.02861    -0.02860     0.00000    -0.00000     0.00002
  external pressure =       -0.03 kB  Pullay stress =        0.00 kB


 VOLUME and BASIS-vectors are now :
 -----------------------------------------------------------------------------
  energy-cutoff  :      318.00
  volume of cell :     1284.06
      direct lattice vectors                 reciprocal lattice vectors
    10.869145120 -0.000000000 -0.000000000     0.092003556  0.000000000 -0.000000000
    -0.000000000 10.869145120  0.000000000     0.000000000  0.092003556 -0.000000000
     0.000000000  0.000000000 10.869145120     0.000000000 -0.000000000  0.092003556

  length of vectors
    10.869145120 10.869145120 10.869145120     0.092003556  0.092003556  0.092003556


 FORCES acting on ions
    electron-ion (+dipol)            ewald-force                    non-local-force                 convergence-correction
 -----------------------------------------------------------------------------------------------
   0.551E+00 -.164E-02 0.554E-01   -.503E+00 -.118E-13 -.560E-01   -.182E+00 0.693E-03 -.116E-02   0.551E-05 0.640E-06 -.183E-05
   -.309E-01 -.171E-02 -.560E-01   0.319E-01 -.102E-13 0.567E-01   -.271E-02 0.757E-03 0.118E-02   -.439E-05 -.849E-06 -.430E-05
   0.215E-01 -.508E-03 0.607E-02   -.205E-01 -.355E-14 -.466E-02   -.865E-03 0.433E-03 -.805E-03   0.241E-05 -.137E-05 -.121E-05
   -.156E-01 -.505E-03 -.607E-02   0.144E-01 -.355E-14 0.467E-02   0.952E-03 0.429E-03 0.801E-03   -.478E-06 -.900E-06 -.257E-05
   0.509E-01 0.165E-02 -.557E-01   -.492E-01 -.622E-14 0.564E-01   -.307E-02 -.710E-03 0.118E-02   0.385E-05 -.126E-05 0.123E-05
   0.137E-01 0.171E-02 0.560E-01   -.143E-01 -.622E-14 -.567E-01   -.127E-02 -.758E-03 -.118E-02   -.155E-05 -.122E-05 0.421E-05
   -.185E-02 0.508E-03 -.607E-02   -.902E-02 -.622E-14 0.466E-02   0.661E-02 -.432E-03 0.805E-03   -.321E-06 0.129E-05 0.102E-05
   -.641E-02 0.502E-03 0.607E-02   0.660E-02 -.142E-13 -.467E-02   -.294E-03 -.428E-03 -.800E-03   -.189E-05 0.335E-05 0.952E-06
   0.566E-01 -.607E-01 -.332E-02   -.664E-01 0.565E-01 0.106E-03   0.371E-02 0.698E-02 0.511E-02   0.361E-05 -.488E-05 0.317E-05
   0.980E-02 0.562E-01 0.182E-02   -.891E-02 -.568E-01 -.318E-04   -.281E-02 -.118E-02 -.758E-03   -.130E-05 -.218E-05 0.481E-06
   0.566E-01 0.510E-01 0.306E-02   -.664E-01 -.565E-01 0.106E-03   0.371E-02 0.458E-02 -.505E-02   0.200E-05 0.733E-05 0.243E-05
   0.981E-02 -.560E-01 -.177E-02   -.891E-02 0.568E-01 -.318E-04   -.281E-02 0.118E-02 0.766E-03   -.771E-06 0.204E-05 0.285E-05
   0.272E-01 -.137E-02 -.419E-02   -.377E-01 0.477E-02 -.106E-03   0.590E-02 -.494E-02 0.531E-02   0.296E-05 -.736E-05 -.121E-07
   -.195E-01 0.602E-02 0.556E-03   0.197E-01 -.470E-02 0.318E-04   -.587E-03 -.793E-03 -.434E-03   -.439E-05 -.490E-05 -.162E-06
   0.272E-01 0.110E-01 0.446E-02   -.377E-01 -.477E-02 -.106E-03   0.592E-02 -.662E-02 -.538E-02   0.349E-05 0.560E-05 -.565E-05
   -.195E-01 -.618E-02 -.612E-03   0.197E-01 0.470E-02 0.318E-04   -.582E-03 0.802E-03 0.430E-03   -.213E-05 0.461E-05 -.238E-05
   -.551E+00 -.164E-02 -.554E-01   0.503E+00 -.888E-15 0.560E-01   0.182E+00 0.693E-03 0.116E-02   -.551E-05 0.640E-06 0.183E-05
   0.309E-01 -.171E-02 0.560E-01   -.319E-01 0.000E+00 -.567E-01   0.271E-02 0.757E-03 -.118E-02   0.439E-05 -.849E-06 0.430E-05
   -.215E-01 -.508E-03 -.607E-02   0.205E-01 -.577E-14 0.466E-02   0.865E-03 0.433E-03 0.805E-03   -.241E-05 -.137E-05 0.121E-05
   0.156E-01 -.505E-03 0.607E-02   -.144E-01 -.355E-14 -.467E-02   -.952E-03 0.429E-03 -.801E-03   0.478E-06 -.900E-06 0.257E-05
   -.509E-01 0.165E-02 0.557E-01   0.492E-01 -.755E-14 -.564E-01   0.307E-02 -.710E-03 -.118E-02   -.385E-05 -.126E-05 -.123E-05
   -.137E-01 0.171E-02 -.560E-01   0.143E-01 -.400E-14 0.567E-01   0.127E-02 -.758E-03 0.118E-02   0.155E-05 -.122E-05 -.421E-05
   0.185E-02 0.508E-03 0.607E-02   0.902E-02 -.131E-13 -.466E-02   -.661E-02 -.432E-03 -.805E-03   0.321E-06 0.129E-05 -.102E-05
   0.641E-02 0.502E-03 -.607E-02   -.660E-02 0.311E-14 0.467E-02   0.294E-03 -.428E-03 0.800E-03   0.189E-05 0.335E-05 -.952E-06
   -.566E-01 -.607E-01 0.332E-02   0.664E-01 0.565E-01 -.106E-03   -.371E-02 0.698E-02 -.511E-02   -.361E-05 -.488E-05 -.317E-05
   -.980E-02 0.562E-01 -.182E-02   0.891E-02 -.568E-01 0.318E-04   0.281E-02 -.118E-02 0.758E-03   0.130E-05 -.218E-05 -.481E-06
   -.566E-01 0.510E-01 -.306E-02   0.664E-01 -.565E-01 -.106E-03   -.371E-02 0.458E-02 0.505E-02   -.200E-05 0.733E-05 -.243E-05
   -.981E-02 -.560E-01 0.177E-02   0.891E-02 0.568E-01 0.318E-04   0.281E-02 0.118E-02 -.766E-03   0.771E-06 0.204E-05 -.285E-05
   -.272E-01 -.137E-02 0.419E-02   0.377E-01 0.477E-02 0.106E-03   -.590E-02 -.494E-02 -.531E-02   -.296E-05 -.736E-05 0.121E-07
   0.195E-01 0.602E-02 -.556E-03   -.197E-01 -.470E-02 -.318E-04   0.587E-03 -.793E-03 0.434E-03   0.439E-05 -.490E-05 0.162E-06
   -.272E-01 0.110E-01 -.446E-02   0.377E-01 -.477E-02 0.106E-03   -.592E-02 -.662E-02 0.538E-02   -.349E-05 0.560E-05 0.565E-05
   0.195E-01 -.618E-02 0.612E-03   -.197E-01 0.470E-02 -.318E-04   0.582E-03 0.802E-03 -.430E-03   0.213E-05 0.461E-05 0.238E-05
   0.693E-02 -.199E+00 -.194E+00   -.842E-02 0.173E+00 0.168E+00   0.337E-01 0.495E-01 0.484E-01   0.513E-05 0.444E-05 -.376E-05
   -.648E-01 0.121E-01 -.546E-03   0.671E-01 -.100E-01 0.576E-04   -.186E-02 -.134E-02 0.493E-03   -.398E-05 0.302E-05 -.662E-05
   0.208E-01 0.157E-01 -.306E-02   -.225E-01 -.141E-01 0.407E-02   0.135E-02 -.952E-03 -.871E-03   0.123E-05 -.363E-05 -.145E-05
   -.292E-01 -.792E-02 0.288E-02   0.226E-01 0.444E-02 0.460E-05   0.477E-02 0.395E-02 -.288E-02   -.391E-05 -.255E-05 -.281E-06
   0.648E-01 0.121E-01 0.546E-03   -.671E-01 -.100E-01 -.576E-04   0.186E-02 -.134E-02 -.493E-03   0.398E-05 0.302E-05 0.662E-05
   -.693E-02 -.199E+00 0.194E+00   0.842E-02 0.173E+00 -.168E+00   -.337E-01 0.495E-01 -.484E-01   -.513E-05 0.444E-05 0.376E-05
   0.292E-01 -.792E-02 -.288E-02   -.226E-01 0.444E-02 -.460E-05   -.477E-02 0.395E-02 0.288E-02   0.391E-05 -.255E-05 0.281E-06
   -.208E-01 0.157E-01 0.306E-02   0.225E-01 -.141E-01 -.407E-02   -.135E-02 -.952E-03 0.871E-03   -.123E-05 -.363E-05 0.145E-05
   0.432E-01 0.185E+00 0.220E+00   -.456E-01 -.160E+00 -.193E+00   0.350E-01 -.490E-01 -.496E-01   0.495E-05 -.138E-05 -.212E-06
   -.432E-01 0.185E+00 -.220E+00   0.456E-01 -.160E+00 0.193E+00   -.350E-01 -.490E-01 0.496E-01   -.495E-05 -.138E-05 0.212E-06
   0.286E-01 -.908E-02 0.893E-02   -.300E-01 0.868E-02 -.103E-01   0.616E-03 -.160E-03 0.119E-02   0.235E-05 0.194E-05 0.199E-05
   -.286E-01 -.908E-02 -.893E-02   0.300E-01 0.868E-02 0.103E-01   -.616E-03 -.160E-03 -.119E-02   -.235E-05 0.194E-05 -.199E-05
   0.286E-01 0.149E-02 -.266E-01   -.300E-01 -.307E-02 0.248E-01   0.615E-03 0.924E-03 0.170E-02   0.585E-05 -.646E-05 -.177E-05
   -.286E-01 0.149E-02 0.266E-01   0.300E-01 -.307E-02 -.248E-01   -.615E-03 0.924E-03 -.170E-02   -.585E-05 -.646E-05 0.177E-05
   0.214E-01 0.131E-02 -.300E-02   -.151E-01 0.100E-02 0.622E-02   -.403E-02 -.284E-02 -.320E-02   0.102E-05 0.556E-05 -.175E-05
   -.214E-01 0.131E-02 0.300E-02   0.151E-01 0.100E-02 -.622E-02   0.403E-02 -.284E-02 0.320E-02   -.102E-05 0.556E-05 0.175E-05
   0.145E-11 0.403E+00 0.153E-09   0.172E-13 -.351E+00 -.311E-14   0.268E-17 -.972E-01 -.268E-17   -.243E-13 0.457E-05 -.124E-12
   -.114E-12 -.349E-01 0.243E-10   0.388E-14 0.337E-01 0.711E-14   -.153E-19 0.554E-03 0.153E-19   0.199E-13 0.370E-05 -.135E-12
   0.146E-11 -.358E-01 0.153E-09   0.155E-13 0.336E-01 0.266E-14   -.430E-19 0.156E-02 0.430E-19   -.353E-13 -.662E-05 -.114E-12
   -.170E-12 0.177E-01 0.243E-10   0.927E-14 -.162E-01 0.711E-14   0.518E-19 -.188E-02 -.518E-19   0.317E-13 -.317E-05 -.114E-12
   -.903E-12 0.105E-01 0.531E-10   -.752E-14 -.134E-01 0.120E-13   -.580E-19 0.210E-02 0.580E-19   0.239E-13 0.587E-05 0.121E-12
   0.175E-12 -.756E-02 0.301E-11   0.939E-14 0.726E-02 0.355E-14   0.584E-20 -.211E-03 -.584E-20   -.288E-13 -.903E-06 0.133E-12
   -.904E-12 -.170E-02 0.530E-10   0.141E-14 0.725E-02 0.622E-14   0.167E-18 -.606E-02 -.167E-18   0.134E-13 -.288E-05 0.112E-12
   0.128E-12 0.435E-02 0.298E-11   0.236E-14 -.525E-02 0.533E-14   -.101E-19 0.365E-03 0.101E-19   -.183E-13 -.322E-07 0.111E-12
   -.236E-01 -.207E+00 0.220E+00   0.232E-01 0.182E+00 -.192E+00   0.331E-01 0.476E-01 -.494E-01   0.271E-05 -.508E-05 -.265E-05
   -.364E-01 0.212E-01 -.263E-01   0.373E-01 -.205E-01 0.250E-01   -.125E-02 -.171E-03 0.122E-02   0.649E-06 -.302E-05 -.127E-05
   -.692E-03 0.187E-01 0.609E-02   -.730E-02 -.204E-01 -.103E-01   0.540E-02 0.225E-02 0.408E-02   0.924E-06 0.423E-05 -.365E-05
   -.785E-02 -.110E-01 -.595E-02   0.751E-02 0.107E-01 0.626E-02   0.746E-03 0.758E-03 -.285E-03   -.290E-05 0.274E-05 -.504E-05
   0.236E-01 -.207E+00 -.220E+00   -.232E-01 0.182E+00 0.192E+00   -.331E-01 0.476E-01 0.494E-01   -.271E-05 -.508E-05 0.265E-05
   0.364E-01 0.212E-01 0.263E-01   -.373E-01 -.205E-01 -.250E-01   0.125E-02 -.171E-03 -.122E-02   -.649E-06 -.302E-05 0.127E-05
   0.692E-03 0.187E-01 -.609E-02   0.730E-02 -.204E-01 0.103E-01   -.540E-02 0.225E-02 -.408E-02   -.924E-06 0.423E-05 0.365E-05
   0.785E-02 -.110E-01 0.595E-02   -.751E-02 0.107E-01 -.626E-02   -.746E-03 0.758E-03 0.285E-03   0.290E-05 0.274E-05 0.504E-05
 -----------------------------------------------------------------------------------------------
   -.610E-10 -.236E-04 0.137E-11   -.438E-13 0.148E-13 0.480E-13   -.737E-17 0.229E-04 0.249E-17   0.148E-13 -.119E-07 0.388E-13
 
 
 POSITION                                       TOTAL-FORCE (eV/Angst)
 -----------------------------------------------------------------------------------
      2.72729      2.71729      2.71729        -0.133978     -0.000950     -0.001833
      8.15186      2.71729      2.71729        -0.001696     -0.000952      0.001866
      2.71729      8.15186      2.71729         0.000154     -0.000077      0.000603
      8.15186      8.15186      2.71729        -0.000280     -0.000077     -0.000602
      2.71729      2.71729      8.15186        -0.001380      0.000942      0.001853
      8.15186      2.71729      8.15186        -0.001829      0.000953     -0.001865
      2.71729      8.15186      8.15186        -0.004255      0.000077     -0.000603
      8.15186      8.15186      8.15186        -0.000102      0.000077      0.000602
      2.71729     -0.00000     -0.00000        -0.006135      0.002806      0.001895
      8.15186     -0.00000     -0.00000        -0.001916     -0.001789      0.001028
      2.71729      5.43457      0.00000        -0.006125     -0.000906     -0.001883
      8.15186      5.43457     -0.00000        -0.001914      0.001943     -0.001030
      2.71729      0.00000      5.43457        -0.004595     -0.001546      0.001018
      8.15186     -0.00000      5.43457        -0.000364      0.000524      0.000153
      2.71729      5.43457      5.43457        -0.004603     -0.000350     -0.001031
      8.15186      5.43457      5.43457        -0.000367     -0.000678     -0.000153
     10.85915      2.71729     -0.00000         0.133978     -0.000950      0.001833
      5.43457      2.71729     -0.00000         0.001696     -0.000952     -0.001866
     -0.00000      8.15186      0.00000        -0.000154     -0.000077     -0.000603
      5.43457      8.15186      0.00000         0.000280     -0.000077      0.000602
      0.00000      2.71729      5.43457         0.001380      0.000942     -0.001853
      5.43457      2.71729      5.43457         0.001829      0.000953      0.001865
     -0.00000      8.15186      5.43457         0.004255      0.000077      0.000603
      5.43457      8.15186      5.43457         0.000102      0.000077     -0.000602
      0.00000      0.00000      2.71729         0.006135      0.002806     -0.001895
      5.43457     -0.00000      2.71729         0.001916     -0.001789     -0.001028
     -0.00000      5.43457      2.71729         0.006125     -0.000906      0.001883
      5.43457      5.43457      2.71729         0.001914      0.001943      0.001030
      0.00000      0.00000      8.15186         0.004595     -0.001546     -0.001018
      5.43457      0.00000      8.15186         0.000364      0.000524     -0.000153
      0.00000      5.43457      8.15186         0.004603     -0.000350      0.001031
      5.43457      5.43457      8.15186         0.000367     -0.000678      0.000153
      4.07593      4.07593      4.07593         0.032266      0.023256      0.022794
      9.51050      4.07593      4.07593         0.000427      0.000748     -0.000002
      4.07593      9.51050      4.07593        -0.000337      0.000613      0.000135
      9.51050      9.51050      4.07593        -0.001871      0.000465     -0.000004
      4.07593      4.07593      9.51050        -0.000427      0.000748      0.000002
      9.51050      4.07593      9.51050        -0.032266      0.023256     -0.022794
      4.07593      9.51050      9.51050         0.001871      0.000465      0.000004
      9.51050      9.51050      9.51050         0.000337      0.000613     -0.000135
      4.07593      1.35864      1.35864         0.032576     -0.023345     -0.022666
      9.51050      1.35864      1.35864        -0.032576     -0.023345      0.022666
      4.07593      6.79322      1.35864        -0.000733     -0.000555     -0.000157
      9.51050      6.79322      1.35864         0.000733     -0.000555      0.000157
      4.07593      1.35864      6.79322        -0.000734     -0.000658     -0.000130
      9.51050      1.35864      6.79322         0.000734     -0.000658      0.000130
      4.07593      6.79322      6.79322         0.002266     -0.000523      0.000017
      9.51050      6.79322      6.79322        -0.002266     -0.000523     -0.000017
      1.35864      4.07593      1.35864         0.000000     -0.044797     -0.000000
      6.79322      4.07593      1.35864         0.000000     -0.000678      0.000000
      1.35864      9.51050      1.35864         0.000000     -0.000677      0.000000
      6.79322      9.51050      1.35864         0.000000     -0.000433      0.000000
      1.35864      4.07593      6.79322         0.000000     -0.000819     -0.000000
      6.79322      4.07593      6.79322         0.000000     -0.000510      0.000000
      1.35864      9.51050      6.79322         0.000000     -0.000504      0.000000
      6.79322      9.51050      6.79322         0.000000     -0.000539      0.000000
      1.35864      1.35864      4.07593         0.032693      0.022810     -0.022061
      6.79322      1.35864      4.07593        -0.000311      0.000594     -0.000123
      1.35864      6.79322      4.07593        -0.002590      0.000590     -0.000157
      6.79322      6.79322      4.07593         0.000401      0.000485      0.000014
      1.35864      1.35864      9.51050        -0.032693      0.022810      0.022061
      6.79322      1.35864      9.51050         0.000311      0.000594      0.000123
      1.35864      6.79322      9.51050         0.002590      0.000590      0.000157
      6.79322      6.79322      9.51050        -0.000401      0.000485     -0.000014
 -----------------------------------------------------------------------------------
    total drift:                               -0.000000     -0.000001      0.000000


--------------------------------------------------------------------------------------------------------



  FREE ENERGIE OF THE ION-ELECTRON SYSTEM (eV)
  ---------------------------------------------------
  free  energy   TOTEN  =      -367.49985081 eV

  energy  without entropy=     -367.49985081  energy(sigma->0) =     -367.49985081
 


--------------------------------------------------------------------------------------------------------


    POTLOK:  cpu time      0.0423: real time      0.0425


--------------------------------------------------------------------------------------------------------


     LOOP+:  cpu time     43.9016: real time     44.1330
    4ORBIT:  cpu time      0.0000: real time      0.0000

 total amount of memory used by VASP MPI-rank0    65387. kBytes
=======================================================================

   base      :      30000. kBytes
   nonl-proj :       6402. kBytes
   fftplans  :      11573. kBytes
   grid      :       5816. kBytes
   one-center:         49. kBytes
   wavefun   :      11547. kBytes
 
  
  
 General timing and accounting informations for this job:
 ========================================================
  
                  Total CPU time used (sec):       45.903
                            User time (sec):       44.654
                          System time (sec):        1.250
                         Elapsed time (sec):       46.306
  
                   Maximum memory used (kb):      224952.
                   Average memory used (kb):          N/A
  
                          Minor page faults:        87433
                          Major page faults:            0
                 Voluntary context switches:          765
