<?xml version="1.0" encoding="ISO-8859-1"?>
<modeling>
 <generator>
  <i name="program" type="string">vasp </i>
  <i name="version" type="string">6.3.2  </i>
  <i name="subversion" type="string">27Jun22 (build Oct 14 2022 12:13:54) complex                          parallel </i>
  <i name="platform" type="string">LinuxIFC </i>
  <i name="date" type="string">2023 04 03 </i>
  <i name="time" type="string">14:45:54 </i>
 </generator>
 <incar>
  <i type="string" name="PREC">Accurate</i>
  <i type="int" name="IALGO">    38</i>
  <i type="logical" name="ADDGRID"> T  </i>
  <i type="int" name="NELMIN">     5</i>
  <i type="int" name="IBRION">    -1</i>
  <i name="EDIFF">      0.00000001</i>
  <i name="ENCUT">    318.00000000</i>
  <i type="logical" name="LREAL"> F  </i>
  <i type="int" name="ISMEAR">     0</i>
  <i name="SIGMA">      0.02000000</i>
  <i type="logical" name="LWAVE"> F  </i>
  <i type="logical" name="LCHARG"> F  </i>
  <i type="string" name="GGA">Ps</i>
 </incar>
 <primitive_cell>
  <structure name="primitive_cell" >
   <crystal>
    <varray name="basis" >
     <v>      10.86914512      -0.00000000      -0.00000000 </v>
     <v>      -0.00000000      10.86914512       0.00000000 </v>
     <v>       0.00000000       0.00000000      10.86914512 </v>
    </varray>
    <i name="volume">   1284.06249692 </i>
    <varray name="rec_basis" >
     <v>       0.09200356       0.00000000      -0.00000000 </v>
     <v>       0.00000000       0.09200356      -0.00000000 </v>
     <v>       0.00000000      -0.00000000       0.09200356 </v>
    </varray>
   </crystal>
   <varray name="positions" >
    <v>       0.25092004       0.25000000       0.25000000 </v>
    <v>       0.75000000       0.25000000       0.25000000 </v>
    <v>       0.25000000       0.75000000       0.25000000 </v>
    <v>       0.75000000       0.75000000       0.25000000 </v>
    <v>       0.25000000       0.25000000       0.75000000 </v>
    <v>       0.75000000       0.25000000       0.75000000 </v>
    <v>       0.25000000       0.75000000       0.75000000 </v>
    <v>       0.75000000       0.75000000       0.75000000 </v>
    <v>       0.25000000       1.00000000       1.00000000 </v>
    <v>       0.75000000       1.00000000       1.00000000 </v>
    <v>       0.25000000       0.50000000       0.00000000 </v>
    <v>       0.75000000       0.50000000       1.00000000 </v>
    <v>       0.25000000       0.00000000       0.50000000 </v>
    <v>       0.75000000       1.00000000       0.50000000 </v>
    <v>       0.25000000       0.50000000       0.50000000 </v>
    <v>       0.75000000       0.50000000       0.50000000 </v>
    <v>       0.99907996       0.25000000       1.00000000 </v>
    <v>       0.50000000       0.25000000       1.00000000 </v>
    <v>       1.00000000       0.75000000       0.00000000 </v>
    <v>       0.50000000       0.75000000       0.00000000 </v>
    <v>       0.00000000       0.25000000       0.50000000 </v>
    <v>       0.50000000       0.25000000       0.50000000 </v>
    <v>       1.00000000       0.75000000       0.50000000 </v>
    <v>       0.50000000       0.75000000       0.50000000 </v>
    <v>       0.00000000       0.00000000       0.25000000 </v>
    <v>       0.50000000       1.00000000       0.25000000 </v>
    <v>       1.00000000       0.50000000       0.25000000 </v>
    <v>       0.50000000       0.50000000       0.25000000 </v>
    <v>       0.00000000       0.00000000       0.75000000 </v>
    <v>       0.50000000       0.00000000       0.75000000 </v>
    <v>       0.00000000       0.50000000       0.75000000 </v>
    <v>       0.50000000       0.50000000       0.75000000 </v>
    <v>       0.37500000       0.37500000       0.37500000 </v>
    <v>       0.87500000       0.37500000       0.37500000 </v>
    <v>       0.37500000       0.87500000       0.37500000 </v>
    <v>       0.87500000       0.87500000       0.37500000 </v>
    <v>       0.37500000       0.37500000       0.87500000 </v>
    <v>       0.87500000       0.37500000       0.87500000 </v>
    <v>       0.37500000       0.87500000       0.87500000 </v>
    <v>       0.87500000       0.87500000       0.87500000 </v>
    <v>       0.37500000       0.12500000       0.12500000 </v>
    <v>       0.87500000       0.12500000       0.12500000 </v>
    <v>       0.37500000       0.62500000       0.12500000 </v>
    <v>       0.87500000       0.62500000       0.12500000 </v>
    <v>       0.37500000       0.12500000       0.62500000 </v>
    <v>       0.87500000       0.12500000       0.62500000 </v>
    <v>       0.37500000       0.62500000       0.62500000 </v>
    <v>       0.87500000       0.62500000       0.62500000 </v>
    <v>       0.12500000       0.37500000       0.12500000 </v>
    <v>       0.62500000       0.37500000       0.12500000 </v>
    <v>       0.12500000       0.87500000       0.12500000 </v>
    <v>       0.62500000       0.87500000       0.12500000 </v>
    <v>       0.12500000       0.37500000       0.62500000 </v>
    <v>       0.62500000       0.37500000       0.62500000 </v>
    <v>       0.12500000       0.87500000       0.62500000 </v>
    <v>       0.62500000       0.87500000       0.62500000 </v>
    <v>       0.12500000       0.12500000       0.37500000 </v>
    <v>       0.62500000       0.12500000       0.37500000 </v>
    <v>       0.12500000       0.62500000       0.37500000 </v>
    <v>       0.62500000       0.62500000       0.37500000 </v>
    <v>       0.12500000       0.12500000       0.87500000 </v>
    <v>       0.62500000       0.12500000       0.87500000 </v>
    <v>       0.12500000       0.62500000       0.87500000 </v>
    <v>       0.62500000       0.62500000       0.87500000 </v>
   </varray>
  </structure>
  <varray name="primitive_index" >
   <v type="int" >        1 </v>
   <v type="int" >        2 </v>
   <v type="int" >        3 </v>
   <v type="int" >        4 </v>
   <v type="int" >        5 </v>
   <v type="int" >        6 </v>
   <v type="int" >        7 </v>
   <v type="int" >        8 </v>
   <v type="int" >        9 </v>
   <v type="int" >       10 </v>
   <v type="int" >       11 </v>
   <v type="int" >       12 </v>
   <v type="int" >       13 </v>
   <v type="int" >       14 </v>
   <v type="int" >       15 </v>
   <v type="int" >       16 </v>
   <v type="int" >       17 </v>
   <v type="int" >       18 </v>
   <v type="int" >       19 </v>
   <v type="int" >       20 </v>
   <v type="int" >       21 </v>
   <v type="int" >       22 </v>
   <v type="int" >       23 </v>
   <v type="int" >       24 </v>
   <v type="int" >       25 </v>
   <v type="int" >       26 </v>
   <v type="int" >       27 </v>
   <v type="int" >       28 </v>
   <v type="int" >       29 </v>
   <v type="int" >       30 </v>
   <v type="int" >       31 </v>
   <v type="int" >       32 </v>
   <v type="int" >       33 </v>
   <v type="int" >       34 </v>
   <v type="int" >       35 </v>
   <v type="int" >       36 </v>
   <v type="int" >       37 </v>
   <v type="int" >       38 </v>
   <v type="int" >       39 </v>
   <v type="int" >       40 </v>
   <v type="int" >       41 </v>
   <v type="int" >       42 </v>
   <v type="int" >       43 </v>
   <v type="int" >       44 </v>
   <v type="int" >       45 </v>
   <v type="int" >       46 </v>
   <v type="int" >       47 </v>
   <v type="int" >       48 </v>
   <v type="int" >       49 </v>
   <v type="int" >       50 </v>
   <v type="int" >       51 </v>
   <v type="int" >       52 </v>
   <v type="int" >       53 </v>
   <v type="int" >       54 </v>
   <v type="int" >       55 </v>
   <v type="int" >       56 </v>
   <v type="int" >       57 </v>
   <v type="int" >       58 </v>
   <v type="int" >       59 </v>
   <v type="int" >       60 </v>
   <v type="int" >       61 </v>
   <v type="int" >       62 </v>
   <v type="int" >       63 </v>
   <v type="int" >       64 </v>
  </varray>
 </primitive_cell>
 <kpoints>
  <generation param="Gamma">
   <v type="int" name="divisions">       2        2        2 </v>
   <v name="usershift">      0.00000000       0.00000000       0.00000000 </v>
   <v name="genvec1">      0.50000000      -0.00000000       0.00000000 </v>
   <v name="genvec2">     -0.00000000       0.50000000       0.00000000 </v>
   <v name="genvec3">     -0.00000000       0.00000000       0.50000000 </v>
   <v name="shift">      0.00000000       0.00000000       0.00000000 </v>
  </generation>
  <varray name="kpointlist" >
   <v>       0.00000000       0.00000000       0.00000000 </v>
   <v>       0.50000000       0.00000000       0.00000000 </v>
   <v>      -0.00000000       0.50000000       0.00000000 </v>
   <v>       0.00000000      -0.00000000       0.50000000 </v>
   <v>       0.50000000       0.50000000       0.00000000 </v>
   <v>       0.00000000       0.50000000       0.50000000 </v>
   <v>       0.50000000      -0.00000000       0.50000000 </v>
   <v>       0.50000000       0.50000000       0.50000000 </v>
  </varray>
  <varray name="weights" >
   <v>       0.12500000 </v>
   <v>       0.12500000 </v>
   <v>       0.12500000 </v>
   <v>       0.12500000 </v>
   <v>       0.12500000 </v>
   <v>       0.12500000 </v>
   <v>       0.12500000 </v>
   <v>       0.12500000 </v>
  </varray>
 </kpoints>
 <parameters>
  <separator name="general" >
   <i type="string" name="SYSTEM">unknown system</i>
   <i type="logical" name="LCOMPAT"> F  </i>
  </separator>
  <separator name="electronic" >
   <i type="string" name="PREC">accura</i>
   <i name="ENMAX">    318.00000000</i>
   <i name="ENAUG">    322.06900000</i>
   <i name="EDIFF">      0.00000001</i>
   <i type="int" name="IALGO">    38</i>
   <i type="int" name="IWAVPR">    10</i>
   <i type="int" name="NBANDS">   168</i>
   <i type="int" name="NBANDSLOW">    -1</i>
   <i type="int" name="NBANDSHIGH">    -1</i>
   <i name="NELECT">    256.00000000</i>
   <i type="int" name="TURBO">     0</i>
   <i type="int" name="IRESTART">     0</i>
   <i type="int" name="NREBOOT">     0</i>
   <i type="int" name="NMIN">     0</i>
   <i name="EREF">      0.00000000</i>
   <separator name="electronic smearing" >
    <i type="int" name="ISMEAR">     0</i>
    <i name="SIGMA">      0.02000000</i>
    <i name="KSPACING">      0.50000000</i>
    <i type="logical" name="KGAMMA"> T  </i>
    <i type="logical" name="KBLOWUP"> T  </i>
   </separator>
   <separator name="electronic projectors" >
    <i type="logical" name="LREAL"> F  </i>
    <v name="ROPT">      0.00000000</v>
    <i type="int" name="LMAXPAW">  -100</i>
    <i type="int" name="LMAXMIX">     2</i>
    <i type="logical" name="NLSPLINE"> F  </i>
   </separator>
   <separator name="electronic startup" >
    <i type="int" name="ISTART">     0</i>
    <i type="int" name="ICHARG">     2</i>
    <i type="int" name="INIWAV">     1</i>
   </separator>
   <separator name="electronic spin" >
    <i type="int" name="ISPIN">     1</i>
    <i type="logical" name="LNONCOLLINEAR"> F  </i>
    <v name="MAGMOM">      1.00000000      1.00000000      1.00000000      1.00000000      1.00000000      1.00000000      1.00000000      1.00000000      1.00000000      1.00000000      1.00000000      1.00000000      1.00000000      1.00000000      1.00000000      1.00000000      1.00000000      1.00000000      1.00000000      1.00000000
      1.00000000      1.00000000      1.00000000      1.00000000      1.00000000      1.00000000      1.00000000      1.00000000      1.00000000      1.00000000      1.00000000      1.00000000      1.00000000      1.00000000      1.00000000      1.00000000      1.00000000      1.00000000      1.00000000      1.00000000
      1.00000000      1.00000000      1.00000000      1.00000000      1.00000000      1.00000000      1.00000000      1.00000000      1.00000000      1.00000000      1.00000000      1.00000000      1.00000000      1.00000000      1.00000000      1.00000000      1.00000000      1.00000000      1.00000000      1.00000000
      1.00000000      1.00000000      1.00000000      1.00000000</v>
    <i name="NUPDOWN">     -1.00000000</i>
    <i type="logical" name="LSORBIT"> F  </i>
    <v name="SAXIS">      0.00000000      0.00000000      1.00000000</v>
    <i type="logical" name="LSPIRAL"> F  </i>
    <v name="QSPIRAL">      0.00000000      0.00000000      0.00000000</v>
    <i type="logical" name="LZEROZ"> F  </i>
   </separator>
   <separator name="electronic exchange-correlation" >
    <i type="logical" name="LASPH"> F  </i>
    <i type="logical" name="LMETAGGA"> F  </i>
   </separator>
   <separator name="electronic convergence" >
    <i type="int" name="NELM">    60</i>
    <i type="int" name="NELMDL">    -5</i>
    <i type="int" name="NELMIN">     5</i>
    <i name="ENINI">    318.00000000</i>
    <separator name="electronic convergence detail" >
     <i type="logical" name="LDIAG"> T  </i>
     <i type="logical" name="LSUBROT"> F  </i>
     <i name="WEIMIN">      0.00000000</i>
     <i name="EBREAK">      0.00000000</i>
     <i name="DEPER">      0.30000000</i>
     <i type="int" name="NRMM">     4</i>
     <i name="TIME">      0.40000000</i>
    </separator>
   </separator>
   <separator name="electronic mixer" >
    <i name="AMIX">      0.40000000</i>
    <i name="BMIX">      1.00000000</i>
    <i name="AMIN">      0.10000000</i>
    <i name="AMIX_MAG">      1.60000000</i>
    <i name="BMIX_MAG">      1.00000000</i>
    <separator name="electronic mixer details" >
     <i type="int" name="IMIX">     4</i>
     <i type="logical" name="MIXFIRST"> F  </i>
     <i type="int" name="MAXMIX">   -45</i>
     <i name="WC">    100.00000000</i>
     <i type="int" name="INIMIX">     1</i>
     <i type="int" name="MIXPRE">     1</i>
     <i type="int" name="MREMOVE">     5</i>
    </separator>
   </separator>
   <separator name="electronic dipolcorrection" >
    <i type="logical" name="LDIPOL"> F  </i>
    <i type="logical" name="LMONO"> F  </i>
    <i type="int" name="IDIPOL">     0</i>
    <i name="EPSILON">      1.00000000</i>
    <v name="DIPOL">   -100.00000000   -100.00000000   -100.00000000</v>
    <i name="EFIELD">      0.00000000</i>
   </separator>
  </separator>
  <separator name="grids" >
   <i type="int" name="NGX">    64</i>
   <i type="int" name="NGY">    64</i>
   <i type="int" name="NGZ">    64</i>
   <i type="int" name="NGXF">   128</i>
   <i type="int" name="NGYF">   128</i>
   <i type="int" name="NGZF">   128</i>
   <i type="logical" name="ADDGRID"> T  </i>
  </separator>
  <separator name="ionic" >
   <i type="int" name="NSW">     0</i>
   <i type="int" name="IBRION">    -1</i>
   <i type="int" name="MDALGO">     0</i>
   <i type="int" name="ISIF">     2</i>
   <i name="PSTRESS">      0.00000000</i>
   <i name="EDIFFG">      0.00000010</i>
   <i type="int" name="NFREE">     0</i>
   <i name="POTIM">      0.50000000</i>
   <i name="SMASS">     -3.00000000</i>
   <i name="SCALEE">      1.00000000</i>
  </separator>
  <separator name="ionic md" >
   <i name="TEBEG">      0.00010000</i>
   <i name="TEEND">      0.00010000</i>
   <i type="int" name="NBLOCK">     1</i>
   <i type="int" name="KBLOCK">     1</i>
   <i type="int" name="NPACO">   256</i>
   <i name="APACO">     10.00000000</i>
  </separator>
  <separator name="symmetry" >
   <i type="int" name="ISYM">     2</i>
   <i name="SYMPREC">      0.00001000</i>
  </separator>
  <separator name="dos" >
   <i type="int" name="LORBIT">     0</i>
   <v name="RWIGS">     -1.00000000</v>
   <i type="int" name="NEDOS">   301</i>
   <i name="EMIN">     10.00000000</i>
   <i name="EMAX">    -10.00000000</i>
   <i name="EFERMI">      0.00000000</i>
  </separator>
  <separator name="writing" >
   <i type="int" name="NWRITE">     2</i>
   <i type="logical" name="LWAVE"> F  </i>
   <i type="logical" name="LDOWNSAMPLE"> F  </i>
   <i type="logical" name="LCHARG"> F  </i>
   <i type="logical" name="LPARD"> F  </i>
   <i type="logical" name="LVTOT"> F  </i>
   <i type="logical" name="LVHAR"> F  </i>
   <i type="logical" name="LELF"> F  </i>
   <i type="logical" name="LOPTICS"> F  </i>
   <v name="STM">      0.00000000      0.00000000      0.00000000      0.00000000      0.00000000      0.00000000      0.00000000</v>
  </separator>
  <separator name="performance" >
   <i type="int" name="NPAR">     8</i>
   <i type="int" name="NSIM">     4</i>
   <i type="int" name="NBLK">    -1</i>
   <i type="logical" name="LPLANE"> T  </i>
   <i type="logical" name="LSCALAPACK"> T  </i>
   <i type="logical" name="LSCAAWARE"> F  </i>
   <i type="logical" name="LSCALU"> F  </i>
   <i type="logical" name="LASYNC"> F  </i>
   <i type="logical" name="LORBITALREAL"> F  </i>
  </separator>
  <separator name="miscellaneous" >
   <i type="int" name="IDIOT">     3</i>
   <i type="int" name="PHON_NSTRUCT">    -1</i>
   <i type="logical" name="LMUSIC"> F  </i>
   <v name="POMASS">     28.08500000</v>
   <v name="DARWINR">      0.00000000</v>
   <v name="DARWINV">      1.00000000</v>
   <i type="logical" name="LCORR"> T  </i>
  </separator>
  <i type="logical" name="GGA_COMPAT"> T  </i>
  <i type="logical" name="LBERRY"> F  </i>
  <i type="int" name="ICORELEVEL">     0</i>
  <i type="logical" name="LDAU"> F  </i>
  <i type="int" name="I_CONSTRAINED_M">     0</i>
  <separator name="electronic exchange-correlation" >
   <i type="string" name="GGA">PS</i>
   <i type="int" name="VOSKOWN">     0</i>
   <i type="logical" name="LHFCALC"> F  </i>
   <i type="string" name="PRECFOCK"></i>
   <i type="logical" name="LSYMGRAD"> F  </i>
   <i type="logical" name="LHFONE"> F  </i>
   <i type="logical" name="LRHFCALC"> F  </i>
   <i type="logical" name="LTHOMAS"> F  </i>
   <i type="logical" name="LMODELHF"> F  </i>
   <i type="logical" name="LFOCKACE"> F  </i>
   <i name="ENCUT4O">     -1.00000000</i>
   <i type="int" name="EXXOEP">     0</i>
   <i type="int" name="FOURORBIT">     0</i>
   <i name="AEXX">      0.00000000</i>
   <i name="HFALPHA">      0.00000000</i>
   <i name="MCALPHA">      0.00000000</i>
   <i name="ALDAX">      1.00000000</i>
   <i name="AGGAX">      1.00000000</i>
   <i name="ALDAC">      1.00000000</i>
   <i name="AGGAC">      1.00000000</i>
   <i type="int" name="NKREDX">     1</i>
   <i type="int" name="NKREDY">     1</i>
   <i type="int" name="NKREDZ">     1</i>
   <i type="logical" name="SHIFTRED"> F  </i>
   <i type="logical" name="ODDONLY"> F  </i>
   <i type="logical" name="EVENONLY"> F  </i>
   <i type="int" name="LMAXFOCK">     0</i>
   <i type="int" name="NMAXFOCKAE">     0</i>
   <i type="logical" name="LFOCKAEDFT"> F  </i>
   <i name="HFSCREEN">      0.00000000</i>
   <i name="HFSCREENC">      0.00000000</i>
   <i type="int" name="NBANDSGWLOW">     0</i>
  </separator>
  <separator name="vdW DFT" >
   <i type="logical" name="LUSE_VDW"> F  </i>
   <i name="Zab_VDW">     -0.84910000</i>
   <i name="PARAM1">      0.12340000</i>
   <i name="PARAM2">      1.00000000</i>
   <i name="PARAM3">      0.00000000</i>
  </separator>
  <separator name="model GW" >
   <i type="int" name="MODEL_GW">     0</i>
   <i name="MODEL_EPS0">     12.03808591</i>
   <i name="MODEL_ALPHA">      1.00000000</i>
  </separator>
  <separator name="linear response parameters" >
   <i type="logical" name="LEPSILON"> F  </i>
   <i type="logical" name="LRPA"> F  </i>
   <i type="logical" name="LNABLA"> F  </i>
   <i type="logical" name="LVEL"> F  </i>
   <i name="CSHIFT">      0.10000000</i>
   <i name="OMEGAMAX">     -1.00000000</i>
   <i name="DEG_THRESHOLD">      0.00200000</i>
   <i name="RTIME">     -0.10000000</i>
   <i name="WPLASMAI">      0.00000000</i>
   <v name="DFIELD">      0.00000000      0.00000000      0.00000000</v>
   <v name="WPLASMA">      0.00000000      0.00000000      0.00000000      0.00000000      0.00000000      0.00000000      0.00000000      0.00000000      0.00000000</v>
  </separator>
  <separator name="orbital magnetization" >
   <i type="logical" name="NUCIND"> F  </i>
   <v name="MAGPOS">      0.00000000      0.00000000      0.00000000</v>
   <i type="logical" name="LNICSALL"> T  </i>
   <i type="logical" name="ORBITALMAG"> F  </i>
   <i type="logical" name="LMAGBLOCH"> F  </i>
   <i type="logical" name="LCHIMAG"> F  </i>
   <i type="logical" name="LGAUGE"> T  </i>
   <i type="int" name="MAGATOM">     0</i>
   <v name="MAGDIPOL">      0.00000000      0.00000000      0.00000000</v>
   <v name="AVECCONST">      0.00000000      0.00000000      0.00000000</v>
  </separator>
  <separator name="response functions" >
   <i type="logical" name="LFINITE_TEMPERATURE"> F  </i>
   <i type="logical" name="LADDER"> F  </i>
   <i type="logical" name="LRPAFORCE"> F  </i>
   <i type="logical" name="LFXC"> F  </i>
   <i type="logical" name="LHARTREE"> T  </i>
   <i type="int" name="IBSE">     0</i>
   <v type="int" name="KPOINT">    -1     0     0     0</v>
   <i type="logical" name="LTCTC"> F  </i>
   <i type="logical" name="LTCTE"> F  </i>
   <i type="logical" name="LTETE"> F  </i>
   <i type="logical" name="LTRIPLET"> F  </i>
   <i type="logical" name="LFXCEPS"> F  </i>
   <i type="logical" name="LFXHEG"> F  </i>
   <i type="int" name="NATURALO">     2</i>
   <i type="logical" name="LHOLEGF"> F  </i>
   <i type="logical" name="L2ORDER"> F  </i>
   <i type="logical" name="LDMP1"> F  </i>
   <i type="logical" name="LMP2LT"> F  </i>
   <i type="logical" name="LSMP2LT"> F  </i>
   <i type="logical" name="LGWLF"> F  </i>
   <i name="ENCUTGW">     -2.00000000</i>
   <i name="ENCUTGWSOFT">     -2.00000000</i>
   <i name="ENCUTLF">     -1.00000000</i>
   <i type="logical" name="LESF_SPLINES"> F  </i>
   <i type="int" name="LMAXMP2">    -1</i>
   <i name="SCISSOR">      0.00000000</i>
   <i type="int" name="NOMEGA">     0</i>
   <i type="int" name="NOMEGAR">     0</i>
   <i type="int" name="NBANDSGW">    -1</i>
   <i type="int" name="NBANDSO">    -1</i>
   <i type="int" name="NBANDSV">    -1</i>
   <i type="int" name="NELMGW">     1</i>
   <i type="int" name="NELMHF">     1</i>
   <i type="int" name="DIM">     3</i>
   <i type="int" name="IESPILON">     4</i>
   <i type="int" name="ANTIRES">     0</i>
   <i name="OMEGAMAX">    -30.00000000</i>
   <i name="OMEGAMIN">    -30.00000000</i>
   <i name="OMEGATL">   -200.00000000</i>
   <i type="int" name="OMEGAGRID">     0</i>
   <i name="CSHIFT">     -0.10000000</i>
   <i type="logical" name="LSELFENERGY"> F  </i>
   <i type="logical" name="LSPECTRAL"> F  </i>
   <i type="logical" name="LSPECTRALGW"> F  </i>
   <i type="logical" name="LSINGLES"> F  </i>
   <i type="logical" name="LFERMIGW"> F  </i>
   <i type="logical" name="ODDONLYGW"> F  </i>
   <i type="logical" name="EVENONLYGW"> F  </i>
   <i type="int" name="NKREDLFX">     1</i>
   <i type="int" name="NKREDLFY">     1</i>
   <i type="int" name="NKREDLFZ">     1</i>
   <i type="int" name="MAXMEM">  2800</i>
   <i type="int" name="TELESCOPE">     0</i>
   <i type="int" name="NTAUPAR">    -1</i>
   <i type="int" name="NOMEGAPAR">    -1</i>
   <i name="DAMP_NEWTON">      0.80000001</i>
   <i name="LAMBDA">      1.00000000</i>
  </separator>
  <separator name="External order field" >
   <i name="OFIELD_KAPPA">      0.00000000</i>
   <v name="OFIELD_K">      0.00000000      0.00000000      0.00000000</v>
   <i name="OFIELD_Q6_NEAR">      0.00000000</i>
   <i name="OFIELD_Q6_FAR">      0.00000000</i>
   <i name="OFIELD_A">      0.00000000</i>
  </separator>
  <separator name="optional k-points parameters" >
   <i type="int" name="KPOINTS_OPT_MODE">     1</i>
   <i type="logical" name="LKPOINTS_OPT"> F  </i>
  </separator>
 </parameters>
 <atominfo>
  <atoms>      64 </atoms>
  <types>       1 </types>
  <array name="atoms" >
   <dimension dim="1">ion</dimension>
   <field type="string">element</field>
   <field type="int">atomtype</field>
   <set>
    <rc><c>Si</c><c>   1</c></rc>
    <rc><c>Si</c><c>   1</c></rc>
    <rc><c>Si</c><c>   1</c></rc>
    <rc><c>Si</c><c>   1</c></rc>
    <rc><c>Si</c><c>   1</c></rc>
    <rc><c>Si</c><c>   1</c></rc>
    <rc><c>Si</c><c>   1</c></rc>
    <rc><c>Si</c><c>   1</c></rc>
    <rc><c>Si</c><c>   1</c></rc>
    <rc><c>Si</c><c>   1</c></rc>
    <rc><c>Si</c><c>   1</c></rc>
    <rc><c>Si</c><c>   1</c></rc>
    <rc><c>Si</c><c>   1</c></rc>
    <rc><c>Si</c><c>   1</c></rc>
    <rc><c>Si</c><c>   1</c></rc>
    <rc><c>Si</c><c>   1</c></rc>
    <rc><c>Si</c><c>   1</c></rc>
    <rc><c>Si</c><c>   1</c></rc>
    <rc><c>Si</c><c>   1</c></rc>
    <rc><c>Si</c><c>   1</c></rc>
    <rc><c>Si</c><c>   1</c></rc>
    <rc><c>Si</c><c>   1</c></rc>
    <rc><c>Si</c><c>   1</c></rc>
    <rc><c>Si</c><c>   1</c></rc>
    <rc><c>Si</c><c>   1</c></rc>
    <rc><c>Si</c><c>   1</c></rc>
    <rc><c>Si</c><c>   1</c></rc>
    <rc><c>Si</c><c>   1</c></rc>
    <rc><c>Si</c><c>   1</c></rc>
    <rc><c>Si</c><c>   1</c></rc>
    <rc><c>Si</c><c>   1</c></rc>
    <rc><c>Si</c><c>   1</c></rc>
    <rc><c>Si</c><c>   1</c></rc>
    <rc><c>Si</c><c>   1</c></rc>
    <rc><c>Si</c><c>   1</c></rc>
    <rc><c>Si</c><c>   1</c></rc>
    <rc><c>Si</c><c>   1</c></rc>
    <rc><c>Si</c><c>   1</c></rc>
    <rc><c>Si</c><c>   1</c></rc>
    <rc><c>Si</c><c>   1</c></rc>
    <rc><c>Si</c><c>   1</c></rc>
    <rc><c>Si</c><c>   1</c></rc>
    <rc><c>Si</c><c>   1</c></rc>
    <rc><c>Si</c><c>   1</c></rc>
    <rc><c>Si</c><c>   1</c></rc>
    <rc><c>Si</c><c>   1</c></rc>
    <rc><c>Si</c><c>   1</c></rc>
    <rc><c>Si</c><c>   1</c></rc>
    <rc><c>Si</c><c>   1</c></rc>
    <rc><c>Si</c><c>   1</c></rc>
    <rc><c>Si</c><c>   1</c></rc>
    <rc><c>Si</c><c>   1</c></rc>
    <rc><c>Si</c><c>   1</c></rc>
    <rc><c>Si</c><c>   1</c></rc>
    <rc><c>Si</c><c>   1</c></rc>
    <rc><c>Si</c><c>   1</c></rc>
    <rc><c>Si</c><c>   1</c></rc>
    <rc><c>Si</c><c>   1</c></rc>
    <rc><c>Si</c><c>   1</c></rc>
    <rc><c>Si</c><c>   1</c></rc>
    <rc><c>Si</c><c>   1</c></rc>
    <rc><c>Si</c><c>   1</c></rc>
    <rc><c>Si</c><c>   1</c></rc>
    <rc><c>Si</c><c>   1</c></rc>
   </set>
  </array>
  <array name="atomtypes" >
   <dimension dim="1">type</dimension>
   <field type="int">atomspertype</field>
   <field type="string">element</field>
   <field>mass</field>
   <field>valence</field>
   <field type="string">pseudopotential</field>
   <set>
    <rc><c>  64</c><c>Si</c><c>     28.08500000</c><c>      4.00000000</c><c>  PAW_PBE Si 05Jan2001                  </c></rc>
   </set>
  </array>
 </atominfo>
 <structure name="initialpos" >
  <crystal>
   <varray name="basis" >
    <v>      10.86914512      -0.00000000      -0.00000000 </v>
    <v>      -0.00000000      10.86914512       0.00000000 </v>
    <v>       0.00000000       0.00000000      10.86914512 </v>
   </varray>
   <i name="volume">   1284.06249692 </i>
   <varray name="rec_basis" >
    <v>       0.09200356       0.00000000      -0.00000000 </v>
    <v>       0.00000000       0.09200356      -0.00000000 </v>
    <v>       0.00000000      -0.00000000       0.09200356 </v>
   </varray>
  </crystal>
  <varray name="positions" >
   <v>       0.25092004       0.25000000       0.25000000 </v>
   <v>       0.75000000       0.25000000       0.25000000 </v>
   <v>       0.25000000       0.75000000       0.25000000 </v>
   <v>       0.75000000       0.75000000       0.25000000 </v>
   <v>       0.25000000       0.25000000       0.75000000 </v>
   <v>       0.75000000       0.25000000       0.75000000 </v>
   <v>       0.25000000       0.75000000       0.75000000 </v>
   <v>       0.75000000       0.75000000       0.75000000 </v>
   <v>       0.25000000       0.00000000       0.00000000 </v>
   <v>       0.75000000       0.00000000       0.00000000 </v>
   <v>       0.25000000       0.50000000       0.00000000 </v>
   <v>       0.75000000       0.50000000       0.00000000 </v>
   <v>       0.25000000       0.00000000       0.50000000 </v>
   <v>       0.75000000       0.00000000       0.50000000 </v>
   <v>       0.25000000       0.50000000       0.50000000 </v>
   <v>       0.75000000       0.50000000       0.50000000 </v>
   <v>       0.99907996       0.25000000       0.00000000 </v>
   <v>       0.50000000       0.25000000       0.00000000 </v>
   <v>       0.00000000       0.75000000       0.00000000 </v>
   <v>       0.50000000       0.75000000       0.00000000 </v>
   <v>       0.00000000       0.25000000       0.50000000 </v>
   <v>       0.50000000       0.25000000       0.50000000 </v>
   <v>       0.00000000       0.75000000       0.50000000 </v>
   <v>       0.50000000       0.75000000       0.50000000 </v>
   <v>       0.00000000       0.00000000       0.25000000 </v>
   <v>       0.50000000       0.00000000       0.25000000 </v>
   <v>       0.00000000       0.50000000       0.25000000 </v>
   <v>       0.50000000       0.50000000       0.25000000 </v>
   <v>       0.00000000       0.00000000       0.75000000 </v>
   <v>       0.50000000       0.00000000       0.75000000 </v>
   <v>       0.00000000       0.50000000       0.75000000 </v>
   <v>       0.50000000       0.50000000       0.75000000 </v>
   <v>       0.37500000       0.37500000       0.37500000 </v>
   <v>       0.87500000       0.37500000       0.37500000 </v>
   <v>       0.37500000       0.87500000       0.37500000 </v>
   <v>       0.87500000       0.87500000       0.37500000 </v>
   <v>       0.37500000       0.37500000       0.87500000 </v>
   <v>       0.87500000       0.37500000       0.87500000 </v>
   <v>       0.37500000       0.87500000       0.87500000 </v>
   <v>       0.87500000       0.87500000       0.87500000 </v>
   <v>       0.37500000       0.12500000       0.12500000 </v>
   <v>       0.87500000       0.12500000       0.12500000 </v>
   <v>       0.37500000       0.62500000       0.12500000 </v>
   <v>       0.87500000       0.62500000       0.12500000 </v>
   <v>       0.37500000       0.12500000       0.62500000 </v>
   <v>       0.87500000       0.12500000       0.62500000 </v>
   <v>       0.37500000       0.62500000       0.62500000 </v>
   <v>       0.87500000       0.62500000       0.62500000 </v>
   <v>       0.12500000       0.37500000       0.12500000 </v>
   <v>       0.62500000       0.37500000       0.12500000 </v>
   <v>       0.12500000       0.87500000       0.12500000 </v>
   <v>       0.62500000       0.87500000       0.12500000 </v>
   <v>       0.12500000       0.37500000       0.62500000 </v>
   <v>       0.62500000       0.37500000       0.62500000 </v>
   <v>       0.12500000       0.87500000       0.62500000 </v>
   <v>       0.62500000       0.87500000       0.62500000 </v>
   <v>       0.12500000       0.12500000       0.37500000 </v>
   <v>       0.62500000       0.12500000       0.37500000 </v>
   <v>       0.12500000       0.62500000       0.37500000 </v>
   <v>       0.62500000       0.62500000       0.37500000 </v>
   <v>       0.12500000       0.12500000       0.87500000 </v>
   <v>       0.62500000       0.12500000       0.87500000 </v>
   <v>       0.12500000       0.62500000       0.87500000 </v>
   <v>       0.62500000       0.62500000       0.87500000 </v>
  </varray>
 </structure>
 <calculation>
  <scstep>
   <time name="dav">    2.29    2.30</time>
   <time name="total">    2.34    2.35</time>
   <energy>
    <i name="alphaZ">    107.38120932 </i>
    <i name="ewald">  -7307.87507019 </i>
    <i name="hartreedc">   -353.25119212 </i>
    <i name="XCdc">   -558.85370490 </i>
    <i name="pawpsdc">   5598.62625415 </i>
    <i name="pawaedc">  -4492.17844134 </i>
    <i name="eentropy">     -0.00321990 </i>
    <i name="bandstr">    892.39955255 </i>
    <i name="atom">   6564.76702419 </i>
    <i name="e_fr_energy">    451.01241176 </i>
    <i name="e_wo_entrp">    451.01563166 </i>
    <i name="e_0_energy">    451.01402171 </i>
   </energy>
  </scstep>
  <scstep>
   <time name="dav">    2.62    2.64</time>
   <time name="total">    2.62    2.64</time>
   <energy>
    <i name="e_fr_energy">   -322.07174175 </i>
    <i name="e_wo_entrp">   -322.07174175 </i>
    <i name="e_0_energy">   -322.07174175 </i>
   </energy>
  </scstep>
  <scstep>
   <time name="dav">    2.67    2.68</time>
   <time name="total">    2.67    2.68</time>
   <energy>
    <i name="e_fr_energy">   -373.41435880 </i>
    <i name="e_wo_entrp">   -373.41435880 </i>
    <i name="e_0_energy">   -373.41435880 </i>
   </energy>
  </scstep>
  <scstep>
   <time name="dav">    2.62    2.64</time>
   <time name="total">    2.62    2.64</time>
   <energy>
    <i name="e_fr_energy">   -374.59979585 </i>
    <i name="e_wo_entrp">   -374.59979585 </i>
    <i name="e_0_energy">   -374.59979585 </i>
   </energy>
  </scstep>
  <scstep>
   <time name="dav">    2.60    2.61</time>
   <time name="total">    2.69    2.71</time>
   <energy>
    <i name="e_fr_energy">   -374.64070029 </i>
    <i name="e_wo_entrp">   -374.64070029 </i>
    <i name="e_0_energy">   -374.64070029 </i>
   </energy>
  </scstep>
  <scstep>
   <time name="dav">    2.52    2.53</time>
   <time name="total">    2.66    2.68</time>
   <energy>
    <i name="e_fr_energy">   -369.72147465 </i>
    <i name="e_wo_entrp">   -369.72147465 </i>
    <i name="e_0_energy">   -369.72147465 </i>
   </energy>
  </scstep>
  <scstep>
   <time name="dav">    2.51    2.53</time>
   <time name="total">    2.65    2.66</time>
   <energy>
    <i name="e_fr_energy">   -367.49034163 </i>
    <i name="e_wo_entrp">   -367.49034163 </i>
    <i name="e_0_energy">   -367.49034163 </i>
   </energy>
  </scstep>
  <scstep>
   <time name="dav">    2.52    2.53</time>
   <time name="total">    2.66    2.67</time>
   <energy>
    <i name="e_fr_energy">   -367.49746161 </i>
    <i name="e_wo_entrp">   -367.49746161 </i>
    <i name="e_0_energy">   -367.49746161 </i>
   </energy>
  </scstep>
  <scstep>
   <time name="dav">    2.67    2.68</time>
   <time name="total">    2.80    2.82</time>
   <energy>
    <i name="e_fr_energy">   -367.49895902 </i>
    <i name="e_wo_entrp">   -367.49895902 </i>
    <i name="e_0_energy">   -367.49895902 </i>
   </energy>
  </scstep>
  <scstep>
   <time name="dav">    2.47    2.49</time>
   <time name="total">    2.61    2.63</time>
   <energy>
    <i name="e_fr_energy">   -367.49981230 </i>
    <i name="e_wo_entrp">   -367.49981230 </i>
    <i name="e_0_energy">   -367.49981230 </i>
   </energy>
  </scstep>
  <scstep>
   <time name="dav">    2.56    2.57</time>
   <time name="total">    2.70    2.71</time>
   <energy>
    <i name="e_fr_energy">   -367.49984965 </i>
    <i name="e_wo_entrp">   -367.49984965 </i>
    <i name="e_0_energy">   -367.49984965 </i>
   </energy>
  </scstep>
  <scstep>
   <time name="dav">    2.63    2.64</time>
   <time name="total">    2.76    2.78</time>
   <energy>
    <i name="e_fr_energy">   -367.49985202 </i>
    <i name="e_wo_entrp">   -367.49985202 </i>
    <i name="e_0_energy">   -367.49985202 </i>
   </energy>
  </scstep>
  <scstep>
   <time name="dav">    2.49    2.50</time>
   <time name="total">    2.63    2.64</time>
   <energy>
    <i name="e_fr_energy">   -367.49985099 </i>
    <i name="e_wo_entrp">   -367.49985099 </i>
    <i name="e_0_energy">   -367.49985099 </i>
   </energy>
  </scstep>
  <scstep>
   <time name="dav">    2.22    2.23</time>
   <time name="total">    2.36    2.37</time>
   <energy>
    <i name="e_fr_energy">   -367.49985083 </i>
    <i name="e_wo_entrp">   -367.49985083 </i>
    <i name="e_0_energy">   -367.49985083 </i>
   </energy>
  </scstep>
  <scstep>
   <time name="dav">    1.79    1.80</time>
   <time name="total">    1.93    1.93</time>
   <energy>
    <i name="e_fr_energy">   -367.49985082 </i>
    <i name="e_wo_entrp">   -367.49985082 </i>
    <i name="e_0_energy">   -367.49985082 </i>
   </energy>
  </scstep>
  <scstep>
   <time name="dav">    1.73    1.74</time>
   <time name="total">    1.78    1.79</time>
   <energy>
    <i name="alphaZ">    107.38120932 </i>
    <i name="ewald">  -7307.87507019 </i>
    <i name="hartreedc">   -468.78621600 </i>
    <i name="XCdc">   -539.35382522 </i>
    <i name="pawpsdc">  28474.86741605 </i>
    <i name="pawaedc"> -27375.29416046 </i>
    <i name="eentropy">     -0.00000000 </i>
    <i name="bandstr">    176.79377150 </i>
    <i name="atom">   6564.76702419 </i>
    <i name="e_fr_energy">   -367.49985081 </i>
    <i name="e_wo_entrp">   -367.49985081 </i>
    <i name="e_0_energy">   -367.49985081 </i>
   </energy>
  </scstep>
  <structure>
   <crystal>
    <varray name="basis" >
     <v>      10.86914512      -0.00000000      -0.00000000 </v>
     <v>      -0.00000000      10.86914512       0.00000000 </v>
     <v>       0.00000000       0.00000000      10.86914512 </v>
    </varray>
    <i name="volume">   1284.06249692 </i>
    <varray name="rec_basis" >
     <v>       0.09200356       0.00000000      -0.00000000 </v>
     <v>       0.00000000       0.09200356      -0.00000000 </v>
     <v>       0.00000000      -0.00000000       0.09200356 </v>
    </varray>
   </crystal>
   <varray name="positions" >
    <v>       0.25092004       0.25000000       0.25000000 </v>
    <v>       0.75000000       0.25000000       0.25000000 </v>
    <v>       0.25000000       0.75000000       0.25000000 </v>
    <v>       0.75000000       0.75000000       0.25000000 </v>
    <v>       0.25000000       0.25000000       0.75000000 </v>
    <v>       0.75000000       0.25000000       0.75000000 </v>
    <v>       0.25000000       0.75000000       0.75000000 </v>
    <v>       0.75000000       0.75000000       0.75000000 </v>
    <v>       0.25000000       0.00000000       0.00000000 </v>
    <v>       0.75000000       0.00000000       0.00000000 </v>
    <v>       0.25000000       0.50000000       0.00000000 </v>
    <v>       0.75000000       0.50000000       0.00000000 </v>
    <v>       0.25000000       0.00000000       0.50000000 </v>
    <v>       0.75000000       0.00000000       0.50000000 </v>
    <v>       0.25000000       0.50000000       0.50000000 </v>
    <v>       0.75000000       0.50000000       0.50000000 </v>
    <v>       0.99907996       0.25000000       0.00000000 </v>
    <v>       0.50000000       0.25000000       0.00000000 </v>
    <v>       0.00000000       0.75000000       0.00000000 </v>
    <v>       0.50000000       0.75000000       0.00000000 </v>
    <v>       0.00000000       0.25000000       0.50000000 </v>
    <v>       0.50000000       0.25000000       0.50000000 </v>
    <v>       0.00000000       0.75000000       0.50000000 </v>
    <v>       0.50000000       0.75000000       0.50000000 </v>
    <v>       0.00000000       0.00000000       0.25000000 </v>
    <v>       0.50000000       0.00000000       0.25000000 </v>
    <v>       0.00000000       0.50000000       0.25000000 </v>
    <v>       0.50000000       0.50000000       0.25000000 </v>
    <v>       0.00000000       0.00000000       0.75000000 </v>
    <v>       0.50000000       0.00000000       0.75000000 </v>
    <v>       0.00000000       0.50000000       0.75000000 </v>
    <v>       0.50000000       0.50000000       0.75000000 </v>
    <v>       0.37500000       0.37500000       0.37500000 </v>
    <v>       0.87500000       0.37500000       0.37500000 </v>
    <v>       0.37500000       0.87500000       0.37500000 </v>
    <v>       0.87500000       0.87500000       0.37500000 </v>
    <v>       0.37500000       0.37500000       0.87500000 </v>
    <v>       0.87500000       0.37500000       0.87500000 </v>
    <v>       0.37500000       0.87500000       0.87500000 </v>
    <v>       0.87500000       0.87500000       0.87500000 </v>
    <v>       0.37500000       0.12500000       0.12500000 </v>
    <v>       0.87500000       0.12500000       0.12500000 </v>
    <v>       0.37500000       0.62500000       0.12500000 </v>
    <v>       0.87500000       0.62500000       0.12500000 </v>
    <v>       0.37500000       0.12500000       0.62500000 </v>
    <v>       0.87500000       0.12500000       0.62500000 </v>
    <v>       0.37500000       0.62500000       0.62500000 </v>
    <v>       0.87500000       0.62500000       0.62500000 </v>
    <v>       0.12500000       0.37500000       0.12500000 </v>
    <v>       0.62500000       0.37500000       0.12500000 </v>
    <v>       0.12500000       0.87500000       0.12500000 </v>
    <v>       0.62500000       0.87500000       0.12500000 </v>
    <v>       0.12500000       0.37500000       0.62500000 </v>
    <v>       0.62500000       0.37500000       0.62500000 </v>
    <v>       0.12500000       0.87500000       0.62500000 </v>
    <v>       0.62500000       0.87500000       0.62500000 </v>
    <v>       0.12500000       0.12500000       0.37500000 </v>
    <v>       0.62500000       0.12500000       0.37500000 </v>
    <v>       0.12500000       0.62500000       0.37500000 </v>
    <v>       0.62500000       0.62500000       0.37500000 </v>
    <v>       0.12500000       0.12500000       0.87500000 </v>
    <v>       0.62500000       0.12500000       0.87500000 </v>
    <v>       0.12500000       0.62500000       0.87500000 </v>
    <v>       0.62500000       0.62500000       0.87500000 </v>
   </varray>
  </structure>
  <varray name="forces" >
   <v>      -0.13397788      -0.00094981      -0.00183264 </v>
   <v>      -0.00169569      -0.00095219       0.00186567 </v>
   <v>       0.00015384      -0.00007673       0.00060335 </v>
   <v>      -0.00028036      -0.00007672      -0.00060158 </v>
   <v>      -0.00138028       0.00094228       0.00185348 </v>
   <v>      -0.00182947       0.00095313      -0.00186540 </v>
   <v>      -0.00425460       0.00007696      -0.00060342 </v>
   <v>      -0.00010224       0.00007707       0.00060155 </v>
   <v>      -0.00613531       0.00280607       0.00189540 </v>
   <v>      -0.00191564      -0.00178950       0.00102843 </v>
   <v>      -0.00612508      -0.00090552      -0.00188326 </v>
   <v>      -0.00191422       0.00194264      -0.00103007 </v>
   <v>      -0.00459459      -0.00154615       0.00101824 </v>
   <v>      -0.00036408       0.00052441       0.00015348 </v>
   <v>      -0.00460261      -0.00034992      -0.00103131 </v>
   <v>      -0.00036662      -0.00067802      -0.00015293 </v>
   <v>       0.13397788      -0.00094981       0.00183264 </v>
   <v>       0.00169569      -0.00095219      -0.00186567 </v>
   <v>      -0.00015384      -0.00007673      -0.00060335 </v>
   <v>       0.00028036      -0.00007672       0.00060158 </v>
   <v>       0.00138028       0.00094228      -0.00185348 </v>
   <v>       0.00182947       0.00095313       0.00186540 </v>
   <v>       0.00425460       0.00007696       0.00060342 </v>
   <v>       0.00010224       0.00007707      -0.00060155 </v>
   <v>       0.00613531       0.00280607      -0.00189540 </v>
   <v>       0.00191564      -0.00178950      -0.00102843 </v>
   <v>       0.00612508      -0.00090552       0.00188326 </v>
   <v>       0.00191422       0.00194264       0.00103007 </v>
   <v>       0.00459459      -0.00154615      -0.00101824 </v>
   <v>       0.00036408       0.00052441      -0.00015348 </v>
   <v>       0.00460261      -0.00034992       0.00103131 </v>
   <v>       0.00036662      -0.00067802       0.00015293 </v>
   <v>       0.03226642       0.02325582       0.02279440 </v>
   <v>       0.00042746       0.00074780      -0.00000225 </v>
   <v>      -0.00033745       0.00061254       0.00013544 </v>
   <v>      -0.00187056       0.00046525      -0.00000400 </v>
   <v>      -0.00042746       0.00074780       0.00000225 </v>
   <v>      -0.03226642       0.02325582      -0.02279440 </v>
   <v>       0.00187056       0.00046525       0.00000400 </v>
   <v>       0.00033745       0.00061254      -0.00013544 </v>
   <v>       0.03257567      -0.02334499      -0.02266609 </v>
   <v>      -0.03257567      -0.02334499       0.02266609 </v>
   <v>      -0.00073345      -0.00055455      -0.00015670 </v>
   <v>       0.00073345      -0.00055455       0.00015670 </v>
   <v>      -0.00073383      -0.00065753      -0.00013015 </v>
   <v>       0.00073383      -0.00065753       0.00013015 </v>
   <v>       0.00226622      -0.00052319       0.00001702 </v>
   <v>      -0.00226622      -0.00052319      -0.00001702 </v>
   <v>       0.00000000      -0.04479714      -0.00000000 </v>
   <v>       0.00000000      -0.00067819       0.00000000 </v>
   <v>       0.00000000      -0.00067738       0.00000000 </v>
   <v>       0.00000000      -0.00043288       0.00000000 </v>
   <v>       0.00000000      -0.00081915      -0.00000000 </v>
   <v>       0.00000000      -0.00050971       0.00000000 </v>
   <v>       0.00000000      -0.00050391       0.00000000 </v>
   <v>       0.00000000      -0.00053902       0.00000000 </v>
   <v>       0.03269333       0.02280997      -0.02206107 </v>
   <v>      -0.00031119       0.00059370      -0.00012350 </v>
   <v>      -0.00259028       0.00059047      -0.00015749 </v>
   <v>       0.00040108       0.00048541       0.00001368 </v>
   <v>      -0.03269333       0.02280997       0.02206107 </v>
   <v>       0.00031119       0.00059370       0.00012350 </v>
   <v>       0.00259028       0.00059047       0.00015749 </v>
   <v>      -0.00040108       0.00048541      -0.00001368 </v>
  </varray>
  <varray name="stress" >
   <v>      -0.03333233       0.00000000       0.00001533 </v>
   <v>       0.00000000      -0.02861260      -0.00000000 </v>
   <v>       0.00001535      -0.00000000      -0.02860363 </v>
  </varray>
  <energy>
   <i name="e_fr_energy">   -367.49985081 </i>
   <i name="e_wo_entrp">   -367.49985081 </i>
   <i name="e_0_energy">   -367.49985081 </i>
  </energy>
  <time name="totalsc">   43.90   44.13</time>
  <eigenvalues>
   <array>
    <dimension dim="1">band</dimension>
    <dimension dim="2">kpoint</dimension>
    <dimension dim="3">spin</dimension>
    <field>eigene</field>
    <field>occ</field>
    <set>
     <set comment="spin 1">
      <set comment="kpoint 1">
       <r>   -6.2055    1.0000 </r>
       <r>   -5.1238    1.0000 </r>
       <r>   -5.1224    1.0000 </r>
       <r>   -5.1217    1.0000 </r>
       <r>   -5.1208    1.0000 </r>
       <r>   -5.1207    1.0000 </r>
       <r>   -5.1181    1.0000 </r>
       <r>   -4.1607    1.0000 </r>
       <r>   -4.1577    1.0000 </r>
       <r>   -4.1568    1.0000 </r>
       <r>   -4.1559    1.0000 </r>
       <r>   -4.1553    1.0000 </r>
       <r>   -4.1551    1.0000 </r>
       <r>   -4.1550    1.0000 </r>
       <r>   -4.1548    1.0000 </r>
       <r>   -4.1547    1.0000 </r>
       <r>   -4.1537    1.0000 </r>
       <r>   -4.1518    1.0000 </r>
       <r>   -4.1491    1.0000 </r>
       <r>   -3.8623    1.0000 </r>
       <r>   -3.8623    1.0000 </r>
       <r>   -3.8590    1.0000 </r>
       <r>   -3.8589    1.0000 </r>
       <r>   -2.0544    1.0000 </r>
       <r>   -2.0539    1.0000 </r>
       <r>   -2.0520    1.0000 </r>
       <r>   -2.0519    1.0000 </r>
       <r>   -2.0500    1.0000 </r>
       <r>   -2.0495    1.0000 </r>
       <r>   -1.8867    1.0000 </r>
       <r>   -1.8863    1.0000 </r>
       <r>   -1.8846    1.0000 </r>
       <r>   -1.8841    1.0000 </r>
       <r>   -1.8831    1.0000 </r>
       <r>   -1.8828    1.0000 </r>
       <r>   -1.8828    1.0000 </r>
       <r>   -1.8825    1.0000 </r>
       <r>   -1.8823    1.0000 </r>
       <r>   -1.8796    1.0000 </r>
       <r>   -1.8795    1.0000 </r>
       <r>   -1.8782    1.0000 </r>
       <r>   -1.2358    1.0000 </r>
       <r>   -1.2358    1.0000 </r>
       <r>   -1.2336    1.0000 </r>
       <r>   -1.2336    1.0000 </r>
       <r>    0.2783    1.0000 </r>
       <r>    0.2785    1.0000 </r>
       <r>    0.2801    1.0000 </r>
       <r>    0.2812    1.0000 </r>
       <r>    0.2817    1.0000 </r>
       <r>    0.2818    1.0000 </r>
       <r>    0.2820    1.0000 </r>
       <r>    0.2822    1.0000 </r>
       <r>    0.2826    1.0000 </r>
       <r>    0.2840    1.0000 </r>
       <r>    0.2851    1.0000 </r>
       <r>    0.2859    1.0000 </r>
       <r>    1.8688    1.0000 </r>
       <r>    1.8693    1.0000 </r>
       <r>    1.8703    1.0000 </r>
       <r>    1.8707    1.0000 </r>
       <r>    1.8709    1.0000 </r>
       <r>    1.8709    1.0000 </r>
       <r>    1.8712    1.0000 </r>
       <r>    1.8712    1.0000 </r>
       <r>    1.8720    1.0000 </r>
       <r>    1.8720    1.0000 </r>
       <r>    1.8731    1.0000 </r>
       <r>    1.8736    1.0000 </r>
       <r>    1.9706    1.0000 </r>
       <r>    1.9713    1.0000 </r>
       <r>    1.9719    1.0000 </r>
       <r>    1.9721    1.0000 </r>
       <r>    1.9727    1.0000 </r>
       <r>    1.9730    1.0000 </r>
       <r>    1.9733    1.0000 </r>
       <r>    1.9735    1.0000 </r>
       <r>    1.9740    1.0000 </r>
       <r>    1.9752    1.0000 </r>
       <r>    1.9760    1.0000 </r>
       <r>    1.9761    1.0000 </r>
       <r>    2.2486    1.0000 </r>
       <r>    2.2502    1.0000 </r>
       <r>    2.2510    1.0000 </r>
       <r>    2.2520    1.0000 </r>
       <r>    2.2525    1.0000 </r>
       <r>    2.2542    1.0000 </r>
       <r>    2.9005    1.0000 </r>
       <r>    2.9017    1.0000 </r>
       <r>    2.9017    1.0000 </r>
       <r>    2.9017    1.0000 </r>
       <r>    2.9017    1.0000 </r>
       <r>    2.9029    1.0000 </r>
       <r>    3.8624    1.0000 </r>
       <r>    3.8637    1.0000 </r>
       <r>    3.8659    1.0000 </r>
       <r>    3.8663    1.0000 </r>
       <r>    3.8665    1.0000 </r>
       <r>    3.8667    1.0000 </r>
       <r>    3.8667    1.0000 </r>
       <r>    3.8668    1.0000 </r>
       <r>    3.8668    1.0000 </r>
       <r>    3.8673    1.0000 </r>
       <r>    3.8698    1.0000 </r>
       <r>    3.8710    1.0000 </r>
       <r>    4.4331    1.0000 </r>
       <r>    4.4336    1.0000 </r>
       <r>    4.4349    1.0000 </r>
       <r>    4.4362    1.0000 </r>
       <r>    4.4364    1.0000 </r>
       <r>    4.4368    1.0000 </r>
       <r>    4.4372    1.0000 </r>
       <r>    4.4372    1.0000 </r>
       <r>    4.4377    1.0000 </r>
       <r>    4.4393    1.0000 </r>
       <r>    4.4406    1.0000 </r>
       <r>    4.4410    1.0000 </r>
       <r>    4.5671    1.0000 </r>
       <r>    4.5671    1.0000 </r>
       <r>    4.5693    1.0000 </r>
       <r>    4.5693    1.0000 </r>
       <r>    4.5703    1.0000 </r>
       <r>    4.5703    1.0000 </r>
       <r>    4.5727    1.0000 </r>
       <r>    4.5727    1.0000 </r>
       <r>    5.7720    1.0000 </r>
       <r>    5.7720    1.0000 </r>
       <r>    5.7720    1.0000 </r>
       <r>    6.3629    0.0000 </r>
       <r>    6.3651    0.0000 </r>
       <r>    6.3658    0.0000 </r>
       <r>    6.3658    0.0000 </r>
       <r>    6.3665    0.0000 </r>
       <r>    6.3686    0.0000 </r>
       <r>    6.8058    0.0000 </r>
       <r>    6.8067    0.0000 </r>
       <r>    6.8077    0.0000 </r>
       <r>    6.8087    0.0000 </r>
       <r>    6.8095    0.0000 </r>
       <r>    6.8101    0.0000 </r>
       <r>    7.2318    0.0000 </r>
       <r>    7.2318    0.0000 </r>
       <r>    7.2321    0.0000 </r>
       <r>    7.2321    0.0000 </r>
       <r>    8.1349    0.0000 </r>
       <r>    8.1351    0.0000 </r>
       <r>    8.1358    0.0000 </r>
       <r>    8.1363    0.0000 </r>
       <r>    8.1377    0.0000 </r>
       <r>    8.1378    0.0000 </r>
       <r>    8.1380    0.0000 </r>
       <r>    8.1381    0.0000 </r>
       <r>    8.1397    0.0000 </r>
       <r>    8.1397    0.0000 </r>
       <r>    8.1406    0.0000 </r>
       <r>    8.1411    0.0000 </r>
       <r>    8.2889    0.0000 </r>
       <r>    8.2889    0.0000 </r>
       <r>    8.2889    0.0000 </r>
       <r>    8.7963    0.0000 </r>
       <r>    8.7970    0.0000 </r>
       <r>    8.7979    0.0000 </r>
       <r>    8.7979    0.0000 </r>
       <r>    8.7989    0.0000 </r>
       <r>    8.7995    0.0000 </r>
       <r>    9.0485    0.0000 </r>
       <r>    9.0501    0.0000 </r>
       <r>    9.0530    0.0000 </r>
      </set>
      <set comment="kpoint 2">
       <r>   -5.9330    1.0000 </r>
       <r>   -5.9311    1.0000 </r>
       <r>   -4.8753    1.0000 </r>
       <r>   -4.8742    1.0000 </r>
       <r>   -4.8734    1.0000 </r>
       <r>   -4.8734    1.0000 </r>
       <r>   -4.8728    1.0000 </r>
       <r>   -4.8717    1.0000 </r>
       <r>   -4.8713    1.0000 </r>
       <r>   -4.8699    1.0000 </r>
       <r>   -4.0247    1.0000 </r>
       <r>   -4.0247    1.0000 </r>
       <r>   -4.0236    1.0000 </r>
       <r>   -4.0236    1.0000 </r>
       <r>   -4.0229    1.0000 </r>
       <r>   -4.0229    1.0000 </r>
       <r>   -4.0197    1.0000 </r>
       <r>   -4.0197    1.0000 </r>
       <r>   -3.8072    1.0000 </r>
       <r>   -3.8040    1.0000 </r>
       <r>   -3.0809    1.0000 </r>
       <r>   -3.0786    1.0000 </r>
       <r>   -3.0774    1.0000 </r>
       <r>   -3.0770    1.0000 </r>
       <r>   -3.0760    1.0000 </r>
       <r>   -3.0753    1.0000 </r>
       <r>   -3.0742    1.0000 </r>
       <r>   -3.0718    1.0000 </r>
       <r>   -1.9736    1.0000 </r>
       <r>   -1.9736    1.0000 </r>
       <r>   -1.9718    1.0000 </r>
       <r>   -1.9718    1.0000 </r>
       <r>   -1.9716    1.0000 </r>
       <r>   -1.9712    1.0000 </r>
       <r>   -1.9712    1.0000 </r>
       <r>   -1.9672    1.0000 </r>
       <r>   -0.8062    1.0000 </r>
       <r>   -0.8049    1.0000 </r>
       <r>   -0.8037    1.0000 </r>
       <r>   -0.8037    1.0000 </r>
       <r>   -0.8025    1.0000 </r>
       <r>   -0.8020    1.0000 </r>
       <r>   -0.8011    1.0000 </r>
       <r>   -0.8000    1.0000 </r>
       <r>   -0.6356    1.0000 </r>
       <r>   -0.6356    1.0000 </r>
       <r>   -0.6347    1.0000 </r>
       <r>   -0.6347    1.0000 </r>
       <r>   -0.6344    1.0000 </r>
       <r>   -0.6344    1.0000 </r>
       <r>   -0.6311    1.0000 </r>
       <r>   -0.6310    1.0000 </r>
       <r>    0.0223    1.0000 </r>
       <r>    0.0242    1.0000 </r>
       <r>    1.4702    1.0000 </r>
       <r>    1.4718    1.0000 </r>
       <r>    1.4733    1.0000 </r>
       <r>    1.4741    1.0000 </r>
       <r>    1.4745    1.0000 </r>
       <r>    1.4747    1.0000 </r>
       <r>    1.4758    1.0000 </r>
       <r>    1.4777    1.0000 </r>
       <r>    1.4914    1.0000 </r>
       <r>    1.4921    1.0000 </r>
       <r>    1.4930    1.0000 </r>
       <r>    1.4932    1.0000 </r>
       <r>    1.4939    1.0000 </r>
       <r>    1.4940    1.0000 </r>
       <r>    1.4950    1.0000 </r>
       <r>    1.4958    1.0000 </r>
       <r>    2.3170    1.0000 </r>
       <r>    2.3176    1.0000 </r>
       <r>    2.3176    1.0000 </r>
       <r>    2.3176    1.0000 </r>
       <r>    2.3185    1.0000 </r>
       <r>    2.3185    1.0000 </r>
       <r>    2.3187    1.0000 </r>
       <r>    2.3189    1.0000 </r>
       <r>    3.0218    1.0000 </r>
       <r>    3.0232    1.0000 </r>
       <r>    3.0243    1.0000 </r>
       <r>    3.0244    1.0000 </r>
       <r>    3.0248    1.0000 </r>
       <r>    3.0253    1.0000 </r>
       <r>    3.0264    1.0000 </r>
       <r>    3.0280    1.0000 </r>
       <r>    3.1467    1.0000 </r>
       <r>    3.1468    1.0000 </r>
       <r>    3.1492    1.0000 </r>
       <r>    3.1493    1.0000 </r>
       <r>    3.1566    1.0000 </r>
       <r>    3.1579    1.0000 </r>
       <r>    3.1585    1.0000 </r>
       <r>    3.1591    1.0000 </r>
       <r>    3.1597    1.0000 </r>
       <r>    3.1600    1.0000 </r>
       <r>    3.1610    1.0000 </r>
       <r>    3.1615    1.0000 </r>
       <r>    3.2842    1.0000 </r>
       <r>    3.2842    1.0000 </r>
       <r>    3.2855    1.0000 </r>
       <r>    3.2855    1.0000 </r>
       <r>    3.2862    1.0000 </r>
       <r>    3.2862    1.0000 </r>
       <r>    3.2871    1.0000 </r>
       <r>    3.2871    1.0000 </r>
       <r>    4.3306    1.0000 </r>
       <r>    4.3307    1.0000 </r>
       <r>    4.3313    1.0000 </r>
       <r>    4.3313    1.0000 </r>
       <r>    4.3320    1.0000 </r>
       <r>    4.3324    1.0000 </r>
       <r>    4.3327    1.0000 </r>
       <r>    4.3335    1.0000 </r>
       <r>    4.4329    1.0000 </r>
       <r>    4.4330    1.0000 </r>
       <r>    4.4967    1.0000 </r>
       <r>    4.4967    1.0000 </r>
       <r>    4.5002    1.0000 </r>
       <r>    4.5002    1.0000 </r>
       <r>    4.5008    1.0000 </r>
       <r>    4.5008    1.0000 </r>
       <r>    4.5058    1.0000 </r>
       <r>    4.5058    1.0000 </r>
       <r>    4.9532    1.0000 </r>
       <r>    4.9532    1.0000 </r>
       <r>    4.9573    1.0000 </r>
       <r>    4.9573    1.0000 </r>
       <r>    6.2787    0.0000 </r>
       <r>    6.2807    0.0000 </r>
       <r>    7.1930    0.0000 </r>
       <r>    7.1948    0.0000 </r>
       <r>    7.6424    0.0000 </r>
       <r>    7.6449    0.0000 </r>
       <r>    7.6449    0.0000 </r>
       <r>    7.6451    0.0000 </r>
       <r>    7.6463    0.0000 </r>
       <r>    7.6467    0.0000 </r>
       <r>    7.6468    0.0000 </r>
       <r>    7.6496    0.0000 </r>
       <r>    7.7137    0.0000 </r>
       <r>    7.7146    0.0000 </r>
       <r>    8.0573    0.0000 </r>
       <r>    8.0574    0.0000 </r>
       <r>    8.0591    0.0000 </r>
       <r>    8.0591    0.0000 </r>
       <r>    8.0595    0.0000 </r>
       <r>    8.0595    0.0000 </r>
       <r>    8.0628    0.0000 </r>
       <r>    8.0628    0.0000 </r>
       <r>    8.1429    0.0000 </r>
       <r>    8.1443    0.0000 </r>
       <r>    8.1454    0.0000 </r>
       <r>    8.1454    0.0000 </r>
       <r>    8.1459    0.0000 </r>
       <r>    8.1461    0.0000 </r>
       <r>    8.1469    0.0000 </r>
       <r>    8.1482    0.0000 </r>
       <r>    8.5505    0.0000 </r>
       <r>    8.5511    0.0000 </r>
       <r>    8.5517    0.0000 </r>
       <r>    8.5526    0.0000 </r>
       <r>    8.5529    0.0000 </r>
       <r>    8.5533    0.0000 </r>
       <r>    8.5546    0.0000 </r>
       <r>    8.5556    0.0000 </r>
       <r>    9.3188    0.0000 </r>
       <r>    9.3224    0.0000 </r>
      </set>
      <set comment="kpoint 3">
       <r>   -5.9320    1.0000 </r>
       <r>   -5.9320    1.0000 </r>
       <r>   -4.8777    1.0000 </r>
       <r>   -4.8739    1.0000 </r>
       <r>   -4.8733    1.0000 </r>
       <r>   -4.8728    1.0000 </r>
       <r>   -4.8726    1.0000 </r>
       <r>   -4.8721    1.0000 </r>
       <r>   -4.8716    1.0000 </r>
       <r>   -4.8679    1.0000 </r>
       <r>   -4.0263    1.0000 </r>
       <r>   -4.0262    1.0000 </r>
       <r>   -4.0230    1.0000 </r>
       <r>   -4.0230    1.0000 </r>
       <r>   -4.0224    1.0000 </r>
       <r>   -4.0224    1.0000 </r>
       <r>   -4.0192    1.0000 </r>
       <r>   -4.0192    1.0000 </r>
       <r>   -3.8057    1.0000 </r>
       <r>   -3.8057    1.0000 </r>
       <r>   -3.0796    1.0000 </r>
       <r>   -3.0781    1.0000 </r>
       <r>   -3.0780    1.0000 </r>
       <r>   -3.0766    1.0000 </r>
       <r>   -3.0762    1.0000 </r>
       <r>   -3.0748    1.0000 </r>
       <r>   -3.0747    1.0000 </r>
       <r>   -3.0731    1.0000 </r>
       <r>   -1.9715    1.0000 </r>
       <r>   -1.9715    1.0000 </r>
       <r>   -1.9715    1.0000 </r>
       <r>   -1.9715    1.0000 </r>
       <r>   -1.9715    1.0000 </r>
       <r>   -1.9715    1.0000 </r>
       <r>   -1.9714    1.0000 </r>
       <r>   -1.9714    1.0000 </r>
       <r>   -0.8062    1.0000 </r>
       <r>   -0.8058    1.0000 </r>
       <r>   -0.8040    1.0000 </r>
       <r>   -0.8031    1.0000 </r>
       <r>   -0.8029    1.0000 </r>
       <r>   -0.8021    1.0000 </r>
       <r>   -0.8002    1.0000 </r>
       <r>   -0.7999    1.0000 </r>
       <r>   -0.6360    1.0000 </r>
       <r>   -0.6360    1.0000 </r>
       <r>   -0.6347    1.0000 </r>
       <r>   -0.6347    1.0000 </r>
       <r>   -0.6332    1.0000 </r>
       <r>   -0.6332    1.0000 </r>
       <r>   -0.6319    1.0000 </r>
       <r>   -0.6318    1.0000 </r>
       <r>    0.0232    1.0000 </r>
       <r>    0.0232    1.0000 </r>
       <r>    1.4717    1.0000 </r>
       <r>    1.4721    1.0000 </r>
       <r>    1.4735    1.0000 </r>
       <r>    1.4742    1.0000 </r>
       <r>    1.4743    1.0000 </r>
       <r>    1.4749    1.0000 </r>
       <r>    1.4762    1.0000 </r>
       <r>    1.4764    1.0000 </r>
       <r>    1.4913    1.0000 </r>
       <r>    1.4924    1.0000 </r>
       <r>    1.4929    1.0000 </r>
       <r>    1.4933    1.0000 </r>
       <r>    1.4933    1.0000 </r>
       <r>    1.4938    1.0000 </r>
       <r>    1.4946    1.0000 </r>
       <r>    1.4959    1.0000 </r>
       <r>    2.3180    1.0000 </r>
       <r>    2.3180    1.0000 </r>
       <r>    2.3180    1.0000 </r>
       <r>    2.3180    1.0000 </r>
       <r>    2.3180    1.0000 </r>
       <r>    2.3180    1.0000 </r>
       <r>    2.3181    1.0000 </r>
       <r>    2.3181    1.0000 </r>
       <r>    3.0232    1.0000 </r>
       <r>    3.0238    1.0000 </r>
       <r>    3.0239    1.0000 </r>
       <r>    3.0248    1.0000 </r>
       <r>    3.0248    1.0000 </r>
       <r>    3.0257    1.0000 </r>
       <r>    3.0259    1.0000 </r>
       <r>    3.0263    1.0000 </r>
       <r>    3.1478    1.0000 </r>
       <r>    3.1480    1.0000 </r>
       <r>    3.1481    1.0000 </r>
       <r>    3.1481    1.0000 </r>
       <r>    3.1573    1.0000 </r>
       <r>    3.1581    1.0000 </r>
       <r>    3.1583    1.0000 </r>
       <r>    3.1588    1.0000 </r>
       <r>    3.1595    1.0000 </r>
       <r>    3.1603    1.0000 </r>
       <r>    3.1603    1.0000 </r>
       <r>    3.1611    1.0000 </r>
       <r>    3.2830    1.0000 </r>
       <r>    3.2831    1.0000 </r>
       <r>    3.2851    1.0000 </r>
       <r>    3.2851    1.0000 </r>
       <r>    3.2864    1.0000 </r>
       <r>    3.2864    1.0000 </r>
       <r>    3.2885    1.0000 </r>
       <r>    3.2885    1.0000 </r>
       <r>    4.3288    1.0000 </r>
       <r>    4.3295    1.0000 </r>
       <r>    4.3305    1.0000 </r>
       <r>    4.3314    1.0000 </r>
       <r>    4.3323    1.0000 </r>
       <r>    4.3332    1.0000 </r>
       <r>    4.3341    1.0000 </r>
       <r>    4.3347    1.0000 </r>
       <r>    4.4329    1.0000 </r>
       <r>    4.4330    1.0000 </r>
       <r>    4.4991    1.0000 </r>
       <r>    4.4992    1.0000 </r>
       <r>    4.5008    1.0000 </r>
       <r>    4.5008    1.0000 </r>
       <r>    4.5009    1.0000 </r>
       <r>    4.5009    1.0000 </r>
       <r>    4.5028    1.0000 </r>
       <r>    4.5029    1.0000 </r>
       <r>    4.9552    1.0000 </r>
       <r>    4.9552    1.0000 </r>
       <r>    4.9552    1.0000 </r>
       <r>    4.9553    1.0000 </r>
       <r>    6.2797    0.0000 </r>
       <r>    6.2797    0.0000 </r>
       <r>    7.1939    0.0000 </r>
       <r>    7.1939    0.0000 </r>
       <r>    7.6457    0.0000 </r>
       <r>    7.6458    0.0000 </r>
       <r>    7.6458    0.0000 </r>
       <r>    7.6459    0.0000 </r>
       <r>    7.6459    0.0000 </r>
       <r>    7.6459    0.0000 </r>
       <r>    7.6459    0.0000 </r>
       <r>    7.6459    0.0000 </r>
       <r>    7.7141    0.0000 </r>
       <r>    7.7143    0.0000 </r>
       <r>    8.0589    0.0000 </r>
       <r>    8.0589    0.0000 </r>
       <r>    8.0593    0.0000 </r>
       <r>    8.0593    0.0000 </r>
       <r>    8.0601    0.0000 </r>
       <r>    8.0602    0.0000 </r>
       <r>    8.0604    0.0000 </r>
       <r>    8.0604    0.0000 </r>
       <r>    8.1432    0.0000 </r>
       <r>    8.1445    0.0000 </r>
       <r>    8.1446    0.0000 </r>
       <r>    8.1455    0.0000 </r>
       <r>    8.1458    0.0000 </r>
       <r>    8.1467    0.0000 </r>
       <r>    8.1470    0.0000 </r>
       <r>    8.1481    0.0000 </r>
       <r>    8.5514    0.0000 </r>
       <r>    8.5520    0.0000 </r>
       <r>    8.5520    0.0000 </r>
       <r>    8.5528    0.0000 </r>
       <r>    8.5528    0.0000 </r>
       <r>    8.5536    0.0000 </r>
       <r>    8.5536    0.0000 </r>
       <r>    8.5541    0.0000 </r>
       <r>    9.3202    0.0000 </r>
       <r>    9.3215    0.0000 </r>
      </set>
      <set comment="kpoint 4">
       <r>   -5.9320    1.0000 </r>
       <r>   -5.9320    1.0000 </r>
       <r>   -4.8766    1.0000 </r>
       <r>   -4.8749    1.0000 </r>
       <r>   -4.8732    1.0000 </r>
       <r>   -4.8729    1.0000 </r>
       <r>   -4.8725    1.0000 </r>
       <r>   -4.8725    1.0000 </r>
       <r>   -4.8713    1.0000 </r>
       <r>   -4.8679    1.0000 </r>
       <r>   -4.0273    1.0000 </r>
       <r>   -4.0243    1.0000 </r>
       <r>   -4.0239    1.0000 </r>
       <r>   -4.0230    1.0000 </r>
       <r>   -4.0224    1.0000 </r>
       <r>   -4.0215    1.0000 </r>
       <r>   -4.0211    1.0000 </r>
       <r>   -4.0182    1.0000 </r>
       <r>   -3.8057    1.0000 </r>
       <r>   -3.8057    1.0000 </r>
       <r>   -3.0790    1.0000 </r>
       <r>   -3.0780    1.0000 </r>
       <r>   -3.0775    1.0000 </r>
       <r>   -3.0773    1.0000 </r>
       <r>   -3.0762    1.0000 </r>
       <r>   -3.0760    1.0000 </r>
       <r>   -3.0736    1.0000 </r>
       <r>   -3.0736    1.0000 </r>
       <r>   -1.9755    1.0000 </r>
       <r>   -1.9734    1.0000 </r>
       <r>   -1.9715    1.0000 </r>
       <r>   -1.9715    1.0000 </r>
       <r>   -1.9715    1.0000 </r>
       <r>   -1.9714    1.0000 </r>
       <r>   -1.9695    1.0000 </r>
       <r>   -1.9674    1.0000 </r>
       <r>   -0.8052    1.0000 </r>
       <r>   -0.8050    1.0000 </r>
       <r>   -0.8047    1.0000 </r>
       <r>   -0.8038    1.0000 </r>
       <r>   -0.8028    1.0000 </r>
       <r>   -0.8018    1.0000 </r>
       <r>   -0.8013    1.0000 </r>
       <r>   -0.7994    1.0000 </r>
       <r>   -0.6375    1.0000 </r>
       <r>   -0.6360    1.0000 </r>
       <r>   -0.6347    1.0000 </r>
       <r>   -0.6343    1.0000 </r>
       <r>   -0.6337    1.0000 </r>
       <r>   -0.6333    1.0000 </r>
       <r>   -0.6320    1.0000 </r>
       <r>   -0.6304    1.0000 </r>
       <r>    0.0232    1.0000 </r>
       <r>    0.0232    1.0000 </r>
       <r>    1.4715    1.0000 </r>
       <r>    1.4727    1.0000 </r>
       <r>    1.4735    1.0000 </r>
       <r>    1.4740    1.0000 </r>
       <r>    1.4746    1.0000 </r>
       <r>    1.4750    1.0000 </r>
       <r>    1.4759    1.0000 </r>
       <r>    1.4762    1.0000 </r>
       <r>    1.4914    1.0000 </r>
       <r>    1.4927    1.0000 </r>
       <r>    1.4930    1.0000 </r>
       <r>    1.4931    1.0000 </r>
       <r>    1.4934    1.0000 </r>
       <r>    1.4935    1.0000 </r>
       <r>    1.4948    1.0000 </r>
       <r>    1.4955    1.0000 </r>
       <r>    2.3164    1.0000 </r>
       <r>    2.3172    1.0000 </r>
       <r>    2.3173    1.0000 </r>
       <r>    2.3177    1.0000 </r>
       <r>    2.3183    1.0000 </r>
       <r>    2.3188    1.0000 </r>
       <r>    2.3189    1.0000 </r>
       <r>    2.3197    1.0000 </r>
       <r>    3.0238    1.0000 </r>
       <r>    3.0239    1.0000 </r>
       <r>    3.0240    1.0000 </r>
       <r>    3.0241    1.0000 </r>
       <r>    3.0250    1.0000 </r>
       <r>    3.0250    1.0000 </r>
       <r>    3.0262    1.0000 </r>
       <r>    3.0265    1.0000 </r>
       <r>    3.1480    1.0000 </r>
       <r>    3.1481    1.0000 </r>
       <r>    3.1481    1.0000 </r>
       <r>    3.1481    1.0000 </r>
       <r>    3.1579    1.0000 </r>
       <r>    3.1580    1.0000 </r>
       <r>    3.1584    1.0000 </r>
       <r>    3.1585    1.0000 </r>
       <r>    3.1591    1.0000 </r>
       <r>    3.1598    1.0000 </r>
       <r>    3.1606    1.0000 </r>
       <r>    3.1613    1.0000 </r>
       <r>    3.2828    1.0000 </r>
       <r>    3.2831    1.0000 </r>
       <r>    3.2849    1.0000 </r>
       <r>    3.2855    1.0000 </r>
       <r>    3.2860    1.0000 </r>
       <r>    3.2866    1.0000 </r>
       <r>    3.2885    1.0000 </r>
       <r>    3.2888    1.0000 </r>
       <r>    4.3285    1.0000 </r>
       <r>    4.3303    1.0000 </r>
       <r>    4.3308    1.0000 </r>
       <r>    4.3318    1.0000 </r>
       <r>    4.3319    1.0000 </r>
       <r>    4.3325    1.0000 </r>
       <r>    4.3341    1.0000 </r>
       <r>    4.3345    1.0000 </r>
       <r>    4.4328    1.0000 </r>
       <r>    4.4330    1.0000 </r>
       <r>    4.4983    1.0000 </r>
       <r>    4.5001    1.0000 </r>
       <r>    4.5007    1.0000 </r>
       <r>    4.5008    1.0000 </r>
       <r>    4.5009    1.0000 </r>
       <r>    4.5013    1.0000 </r>
       <r>    4.5018    1.0000 </r>
       <r>    4.5035    1.0000 </r>
       <r>    4.9552    1.0000 </r>
       <r>    4.9552    1.0000 </r>
       <r>    4.9552    1.0000 </r>
       <r>    4.9552    1.0000 </r>
       <r>    6.2797    0.0000 </r>
       <r>    6.2797    0.0000 </r>
       <r>    7.1939    0.0000 </r>
       <r>    7.1939    0.0000 </r>
       <r>    7.6435    0.0000 </r>
       <r>    7.6442    0.0000 </r>
       <r>    7.6451    0.0000 </r>
       <r>    7.6456    0.0000 </r>
       <r>    7.6462    0.0000 </r>
       <r>    7.6466    0.0000 </r>
       <r>    7.6475    0.0000 </r>
       <r>    7.6482    0.0000 </r>
       <r>    7.7141    0.0000 </r>
       <r>    7.7141    0.0000 </r>
       <r>    8.0588    0.0000 </r>
       <r>    8.0590    0.0000 </r>
       <r>    8.0594    0.0000 </r>
       <r>    8.0596    0.0000 </r>
       <r>    8.0598    0.0000 </r>
       <r>    8.0599    0.0000 </r>
       <r>    8.0604    0.0000 </r>
       <r>    8.0605    0.0000 </r>
       <r>    8.1434    0.0000 </r>
       <r>    8.1446    0.0000 </r>
       <r>    8.1448    0.0000 </r>
       <r>    8.1453    0.0000 </r>
       <r>    8.1456    0.0000 </r>
       <r>    8.1461    0.0000 </r>
       <r>    8.1476    0.0000 </r>
       <r>    8.1479    0.0000 </r>
       <r>    8.5516    0.0000 </r>
       <r>    8.5518    0.0000 </r>
       <r>    8.5524    0.0000 </r>
       <r>    8.5526    0.0000 </r>
       <r>    8.5529    0.0000 </r>
       <r>    8.5531    0.0000 </r>
       <r>    8.5538    0.0000 </r>
       <r>    8.5542    0.0000 </r>
       <r>    9.3199    0.0000 </r>
       <r>    9.3230    0.0000 </r>
      </set>
      <set comment="kpoint 5">
       <r>   -5.6656    1.0000 </r>
       <r>   -5.6641    1.0000 </r>
       <r>   -5.6637    1.0000 </r>
       <r>   -5.6623    1.0000 </r>
       <r>   -4.6460    1.0000 </r>
       <r>   -4.6460    1.0000 </r>
       <r>   -4.6444    1.0000 </r>
       <r>   -4.6444    1.0000 </r>
       <r>   -4.6442    1.0000 </r>
       <r>   -4.6442    1.0000 </r>
       <r>   -4.6420    1.0000 </r>
       <r>   -4.6420    1.0000 </r>
       <r>   -3.6091    1.0000 </r>
       <r>   -3.6076    1.0000 </r>
       <r>   -3.6062    1.0000 </r>
       <r>   -3.6057    1.0000 </r>
       <r>   -3.6056    1.0000 </r>
       <r>   -3.6055    1.0000 </r>
       <r>   -3.6040    1.0000 </r>
       <r>   -3.5993    1.0000 </r>
       <r>   -3.3243    1.0000 </r>
       <r>   -3.3242    1.0000 </r>
       <r>   -3.3222    1.0000 </r>
       <r>   -3.3222    1.0000 </r>
       <r>   -3.3218    1.0000 </r>
       <r>   -3.3218    1.0000 </r>
       <r>   -3.3182    1.0000 </r>
       <r>   -3.3181    1.0000 </r>
       <r>   -2.4610    1.0000 </r>
       <r>   -2.4606    1.0000 </r>
       <r>   -2.4590    1.0000 </r>
       <r>   -2.4585    1.0000 </r>
       <r>   -1.4638    1.0000 </r>
       <r>   -1.4636    1.0000 </r>
       <r>   -1.4617    1.0000 </r>
       <r>   -1.4616    1.0000 </r>
       <r>   -1.0404    1.0000 </r>
       <r>   -1.0404    1.0000 </r>
       <r>   -1.0389    1.0000 </r>
       <r>   -1.0389    1.0000 </r>
       <r>   -1.0384    1.0000 </r>
       <r>   -1.0384    1.0000 </r>
       <r>   -1.0357    1.0000 </r>
       <r>   -1.0356    1.0000 </r>
       <r>   -0.1997    1.0000 </r>
       <r>   -0.1968    1.0000 </r>
       <r>   -0.1961    1.0000 </r>
       <r>   -0.1954    1.0000 </r>
       <r>   -0.1952    1.0000 </r>
       <r>   -0.1932    1.0000 </r>
       <r>   -0.1929    1.0000 </r>
       <r>   -0.1927    1.0000 </r>
       <r>    0.4630    1.0000 </r>
       <r>    0.4630    1.0000 </r>
       <r>    0.4642    1.0000 </r>
       <r>    0.4642    1.0000 </r>
       <r>    0.4655    1.0000 </r>
       <r>    0.4655    1.0000 </r>
       <r>    0.4673    1.0000 </r>
       <r>    0.4673    1.0000 </r>
       <r>    1.4163    1.0000 </r>
       <r>    1.4169    1.0000 </r>
       <r>    1.4172    1.0000 </r>
       <r>    1.4177    1.0000 </r>
       <r>    2.2857    1.0000 </r>
       <r>    2.2857    1.0000 </r>
       <r>    2.2868    1.0000 </r>
       <r>    2.2868    1.0000 </r>
       <r>    2.2877    1.0000 </r>
       <r>    2.2877    1.0000 </r>
       <r>    2.2890    1.0000 </r>
       <r>    2.2890    1.0000 </r>
       <r>    2.3711    1.0000 </r>
       <r>    2.3712    1.0000 </r>
       <r>    2.3712    1.0000 </r>
       <r>    2.3715    1.0000 </r>
       <r>    2.3719    1.0000 </r>
       <r>    2.3727    1.0000 </r>
       <r>    2.3735    1.0000 </r>
       <r>    2.3744    1.0000 </r>
       <r>    2.9810    1.0000 </r>
       <r>    2.9823    1.0000 </r>
       <r>    2.9829    1.0000 </r>
       <r>    2.9831    1.0000 </r>
       <r>    2.9833    1.0000 </r>
       <r>    2.9840    1.0000 </r>
       <r>    2.9844    1.0000 </r>
       <r>    2.9845    1.0000 </r>
       <r>    3.0761    1.0000 </r>
       <r>    3.0762    1.0000 </r>
       <r>    3.0773    1.0000 </r>
       <r>    3.0773    1.0000 </r>
       <r>    3.3303    1.0000 </r>
       <r>    3.3314    1.0000 </r>
       <r>    3.3314    1.0000 </r>
       <r>    3.3325    1.0000 </r>
       <r>    3.5891    1.0000 </r>
       <r>    3.5891    1.0000 </r>
       <r>    3.5908    1.0000 </r>
       <r>    3.5908    1.0000 </r>
       <r>    3.5917    1.0000 </r>
       <r>    3.5917    1.0000 </r>
       <r>    3.5928    1.0000 </r>
       <r>    3.5928    1.0000 </r>
       <r>    3.9161    1.0000 </r>
       <r>    3.9161    1.0000 </r>
       <r>    3.9175    1.0000 </r>
       <r>    3.9175    1.0000 </r>
       <r>    3.9184    1.0000 </r>
       <r>    3.9184    1.0000 </r>
       <r>    3.9210    1.0000 </r>
       <r>    3.9210    1.0000 </r>
       <r>    4.1181    1.0000 </r>
       <r>    4.1182    1.0000 </r>
       <r>    4.1186    1.0000 </r>
       <r>    4.1188    1.0000 </r>
       <r>    4.1731    1.0000 </r>
       <r>    4.1731    1.0000 </r>
       <r>    4.1739    1.0000 </r>
       <r>    4.1739    1.0000 </r>
       <r>    4.1742    1.0000 </r>
       <r>    4.1743    1.0000 </r>
       <r>    4.1754    1.0000 </r>
       <r>    4.1755    1.0000 </r>
       <r>    5.4796    1.0000 </r>
       <r>    5.4799    1.0000 </r>
       <r>    5.4805    1.0000 </r>
       <r>    5.4809    1.0000 </r>
       <r>    6.8650    0.0000 </r>
       <r>    6.8656    0.0000 </r>
       <r>    6.8660    0.0000 </r>
       <r>    6.8665    0.0000 </r>
       <r>    7.6287    0.0000 </r>
       <r>    7.6298    0.0000 </r>
       <r>    7.6310    0.0000 </r>
       <r>    7.6312    0.0000 </r>
       <r>    7.6327    0.0000 </r>
       <r>    7.6329    0.0000 </r>
       <r>    7.6329    0.0000 </r>
       <r>    7.6336    0.0000 </r>
       <r>    7.9393    0.0000 </r>
       <r>    7.9393    0.0000 </r>
       <r>    7.9395    0.0000 </r>
       <r>    7.9395    0.0000 </r>
       <r>    7.9404    0.0000 </r>
       <r>    7.9404    0.0000 </r>
       <r>    7.9407    0.0000 </r>
       <r>    7.9407    0.0000 </r>
       <r>    8.3136    0.0000 </r>
       <r>    8.3147    0.0000 </r>
       <r>    8.3148    0.0000 </r>
       <r>    8.3149    0.0000 </r>
       <r>    8.3151    0.0000 </r>
       <r>    8.3155    0.0000 </r>
       <r>    8.3164    0.0000 </r>
       <r>    8.3165    0.0000 </r>
       <r>    8.7642    0.0000 </r>
       <r>    8.7667    0.0000 </r>
       <r>    8.7676    0.0000 </r>
       <r>    8.7691    0.0000 </r>
       <r>    8.7705    0.0000 </r>
       <r>    8.7722    0.0000 </r>
       <r>    8.7737    0.0000 </r>
       <r>    8.7777    0.0000 </r>
       <r>    8.7832    0.0000 </r>
       <r>    8.7907    0.0000 </r>
       <r>    8.7999    0.0000 </r>
       <r>    8.8131    0.0000 </r>
      </set>
      <set comment="kpoint 6">
       <r>   -5.6643    1.0000 </r>
       <r>   -5.6643    1.0000 </r>
       <r>   -5.6635    1.0000 </r>
       <r>   -5.6635    1.0000 </r>
       <r>   -4.6502    1.0000 </r>
       <r>   -4.6458    1.0000 </r>
       <r>   -4.6446    1.0000 </r>
       <r>   -4.6444    1.0000 </r>
       <r>   -4.6439    1.0000 </r>
       <r>   -4.6437    1.0000 </r>
       <r>   -4.6425    1.0000 </r>
       <r>   -4.6381    1.0000 </r>
       <r>   -3.6076    1.0000 </r>
       <r>   -3.6068    1.0000 </r>
       <r>   -3.6061    1.0000 </r>
       <r>   -3.6057    1.0000 </r>
       <r>   -3.6050    1.0000 </r>
       <r>   -3.6046    1.0000 </r>
       <r>   -3.6039    1.0000 </r>
       <r>   -3.6032    1.0000 </r>
       <r>   -3.3245    1.0000 </r>
       <r>   -3.3237    1.0000 </r>
       <r>   -3.3228    1.0000 </r>
       <r>   -3.3220    1.0000 </r>
       <r>   -3.3212    1.0000 </r>
       <r>   -3.3205    1.0000 </r>
       <r>   -3.3196    1.0000 </r>
       <r>   -3.3188    1.0000 </r>
       <r>   -2.4614    1.0000 </r>
       <r>   -2.4614    1.0000 </r>
       <r>   -2.4581    1.0000 </r>
       <r>   -2.4581    1.0000 </r>
       <r>   -1.4635    1.0000 </r>
       <r>   -1.4635    1.0000 </r>
       <r>   -1.4619    1.0000 </r>
       <r>   -1.4618    1.0000 </r>
       <r>   -1.0408    1.0000 </r>
       <r>   -1.0406    1.0000 </r>
       <r>   -1.0403    1.0000 </r>
       <r>   -1.0386    1.0000 </r>
       <r>   -1.0381    1.0000 </r>
       <r>   -1.0364    1.0000 </r>
       <r>   -1.0361    1.0000 </r>
       <r>   -1.0358    1.0000 </r>
       <r>   -0.1988    1.0000 </r>
       <r>   -0.1970    1.0000 </r>
       <r>   -0.1965    1.0000 </r>
       <r>   -0.1955    1.0000 </r>
       <r>   -0.1950    1.0000 </r>
       <r>   -0.1940    1.0000 </r>
       <r>   -0.1935    1.0000 </r>
       <r>   -0.1917    1.0000 </r>
       <r>    0.4617    1.0000 </r>
       <r>    0.4632    1.0000 </r>
       <r>    0.4637    1.0000 </r>
       <r>    0.4646    1.0000 </r>
       <r>    0.4653    1.0000 </r>
       <r>    0.4662    1.0000 </r>
       <r>    0.4667    1.0000 </r>
       <r>    0.4683    1.0000 </r>
       <r>    1.4164    1.0000 </r>
       <r>    1.4164    1.0000 </r>
       <r>    1.4176    1.0000 </r>
       <r>    1.4177    1.0000 </r>
       <r>    2.2846    1.0000 </r>
       <r>    2.2853    1.0000 </r>
       <r>    2.2858    1.0000 </r>
       <r>    2.2868    1.0000 </r>
       <r>    2.2878    1.0000 </r>
       <r>    2.2888    1.0000 </r>
       <r>    2.2893    1.0000 </r>
       <r>    2.2900    1.0000 </r>
       <r>    2.3707    1.0000 </r>
       <r>    2.3709    1.0000 </r>
       <r>    2.3718    1.0000 </r>
       <r>    2.3720    1.0000 </r>
       <r>    2.3724    1.0000 </r>
       <r>    2.3725    1.0000 </r>
       <r>    2.3736    1.0000 </r>
       <r>    2.3737    1.0000 </r>
       <r>    2.9804    1.0000 </r>
       <r>    2.9812    1.0000 </r>
       <r>    2.9816    1.0000 </r>
       <r>    2.9827    1.0000 </r>
       <r>    2.9836    1.0000 </r>
       <r>    2.9848    1.0000 </r>
       <r>    2.9852    1.0000 </r>
       <r>    2.9859    1.0000 </r>
       <r>    3.0760    1.0000 </r>
       <r>    3.0760    1.0000 </r>
       <r>    3.0775    1.0000 </r>
       <r>    3.0775    1.0000 </r>
       <r>    3.3303    1.0000 </r>
       <r>    3.3303    1.0000 </r>
       <r>    3.3325    1.0000 </r>
       <r>    3.3325    1.0000 </r>
       <r>    3.5900    1.0000 </r>
       <r>    3.5900    1.0000 </r>
       <r>    3.5908    1.0000 </r>
       <r>    3.5909    1.0000 </r>
       <r>    3.5913    1.0000 </r>
       <r>    3.5914    1.0000 </r>
       <r>    3.5922    1.0000 </r>
       <r>    3.5922    1.0000 </r>
       <r>    3.9171    1.0000 </r>
       <r>    3.9172    1.0000 </r>
[...]
      </set>
     </set>
    </set>
   </array>
  </eigenvalues>
  <separator name="orbital magnetization" >
   <v name="MAGDIPOLOUT">      0.00000000      0.00000000      0.00000000</v>
  </separator>
  <dos>
   <i name="efermi">      5.89314628 </i>
   <total>
    <array>
     <dimension dim="1">gridpoints</dimension>
     <dimension dim="2">spin</dimension>
     <field>energy</field>
     <field>total</field>
     <field>integrated</field>
     <set>
      <set comment="spin 1">
       <r>    -6.9819     0.0000     0.0000 </r>
       <r>    -6.9250     0.0000     0.0000 </r>
       <r>    -6.8681     0.0000     0.0000 </r>
       <r>    -6.8111     0.0000     0.0000 </r>
       <r>    -6.7542     0.0000     0.0000 </r>
       <r>    -6.6973     0.0000     0.0000 </r>
       <r>    -6.6403     0.0000     0.0000 </r>
       <r>    -6.5834     0.0000     0.0000 </r>
       <r>    -6.5264     0.0000     0.0000 </r>
       <r>    -6.4695     0.0000     0.0000 </r>
       <r>    -6.4126     0.0000     0.0000 </r>
       <r>    -6.3556     0.0000     0.0000 </r>
       <r>    -6.2987     0.0000     0.0000 </r>
       <r>    -6.2418     0.0228     0.0013 </r>
       <r>    -6.1848     4.0536     0.2321 </r>
       <r>    -6.1279     0.3143     0.2500 </r>
       <r>    -6.0709     0.0000     0.2500 </r>
       <r>    -6.0140     0.0000     0.2500 </r>
       <r>    -5.9571     1.0132     0.3077 </r>
       <r>    -5.9001    25.0127     1.7319 </r>
       <r>    -5.8432     0.3186     1.7500 </r>
       <r>    -5.7862     0.0000     1.7500 </r>
       <r>    -5.7293     0.0001     1.7500 </r>
       <r>    -5.6724    14.5185     2.5767 </r>
       <r>    -5.6154    38.1539     4.7491 </r>
       <r>    -5.5585     0.0165     4.7500 </r>
       <r>    -5.5016     0.0000     4.7500 </r>
       <r>    -5.4446     0.0719     4.7541 </r>
       <r>    -5.3877    30.4978     6.4906 </r>
       <r>    -5.3307     4.5563     6.7500 </r>
       <r>    -5.2738     0.0000     6.7500 </r>
       <r>    -5.2169     0.0000     6.7500 </r>
       <r>    -5.1599     0.0877     6.7550 </r>
       <r>    -5.1030    23.6266     8.1002 </r>
       <r>    -5.0461     2.6301     8.2500 </r>
       <r>    -4.9891     0.0000     8.2500 </r>
       <r>    -4.9322     0.0017     8.2501 </r>
       <r>    -4.8752    45.3808    10.8340 </r>
       <r>    -4.8183    59.9877    14.2496 </r>
       <r>    -4.7614     0.0076    14.2500 </r>
       <r>    -4.7044     0.0013    14.2501 </r>
       <r>    -4.6475    42.9348    16.6947 </r>
       <r>    -4.5906    62.4322    20.2495 </r>
       <r>    -4.5336     0.0095    20.2500 </r>
       <r>    -4.4767     0.0000    20.2500 </r>
       <r>    -4.4197     0.0000    20.2500 </r>
       <r>    -4.3628     0.0000    20.2500 </r>
       <r>    -4.3059     0.0000    20.2500 </r>
       <r>    -4.2489     0.0000    20.2500 </r>
       <r>    -4.1920     0.2718    20.2655 </r>
       <r>    -4.1350    48.0675    23.0023 </r>
       <r>    -4.0781     4.3554    23.2503 </r>
       <r>    -4.0212    57.1886    26.5065 </r>
       <r>    -3.9642    48.1812    29.2499 </r>
       <r>    -3.9073     0.0116    29.2505 </r>
       <r>    -3.8504    13.4428    30.0159 </r>
       <r>    -3.7934    25.3442    31.4590 </r>
       <r>    -3.7365     5.1113    31.7500 </r>
       <r>    -3.6795     0.0000    31.7500 </r>
       <r>    -3.6226    12.0281    32.4349 </r>
       <r>    -3.5657    93.0563    37.7333 </r>
       <r>    -3.5087     2.0717    37.8512 </r>
       <r>    -3.4518    99.5885    43.5216 </r>
       <r>    -3.3949     4.0112    43.7500 </r>
       <r>    -3.3379    13.3803    44.5118 </r>
       <r>    -3.2810    91.7630    49.7366 </r>
       <r>    -3.2240     0.2346    49.7500 </r>
       <r>    -3.1671     0.0000    49.7500 </r>
       <r>    -3.1102     0.9606    49.8047 </r>
       <r>    -3.0532    98.8612    55.4336 </r>
       <r>    -2.9963     5.5561    55.7500 </r>
       <r>    -2.9394     0.0000    55.7500 </r>
       <r>    -2.8824     0.0000    55.7500 </r>
       <r>    -2.8255     0.0000    55.7500 </r>
       <r>    -2.7685     0.0000    55.7500 </r>
       <r>    -2.7116     0.0000    55.7500 </r>
       <r>    -2.6547     0.0000    55.7500 </r>
       <r>    -2.5977     0.0000    55.7500 </r>
       <r>    -2.5408     0.0000    55.7500 </r>
       <r>    -2.4838     2.3666    55.8848 </r>
       <r>    -2.4269    49.7766    58.7189 </r>
       <r>    -2.3700     0.5457    58.7500 </r>
       <r>    -2.3130     0.0000    58.7500 </r>
       <r>    -2.2561     0.0000    58.7500 </r>
       <r>    -2.1992     0.0000    58.7500 </r>
       <r>    -2.1422     0.0000    58.7500 </r>
       <r>    -2.0853     0.2561    58.7646 </r>
       <r>    -2.0283    24.8055    60.1770 </r>
       <r>    -1.9714    54.1630    63.2609 </r>
       <r>    -1.9145    53.2041    66.2902 </r>
       <r>    -1.8575    49.8807    69.1303 </r>
       <r>    -1.8006     2.1020    69.2500 </r>
       <r>    -1.7437     0.0000    69.2500 </r>
       <r>    -1.6867     0.0000    69.2500 </r>
       <r>    -1.6298     0.0000    69.2500 </r>
       <r>    -1.5728     0.0000    69.2500 </r>
       <r>    -1.5159     0.0046    69.2503 </r>
       <r>    -1.4590    31.7811    71.0598 </r>
       <r>    -1.4020    20.9027    72.2500 </r>
       <r>    -1.3451     0.0005    72.2500 </r>
       <r>    -1.2882     0.0014    72.2501 </r>
       <r>    -1.2312    10.4808    72.8468 </r>
       <r>    -1.1743     7.0806    73.2500 </r>
       <r>    -1.1173     0.0002    73.2500 </r>
       <r>    -1.0604     6.4077    73.6148 </r>
       <r>    -1.0035    98.2115    79.2068 </r>
       <r>    -0.9465     0.7587    79.2500 </r>
       <r>    -0.8896     0.0000    79.2500 </r>
       <r>    -0.8326     2.0027    79.3640 </r>
       <r>    -0.7757   100.4292    85.0823 </r>
       <r>    -0.7188     2.9460    85.2500 </r>
       <r>    -0.6618     3.2044    85.4325 </r>
       <r>    -0.6049   196.0935    96.5976 </r>
       <r>    -0.5480    11.4578    97.2500 </r>
       <r>    -0.4910     0.0000    97.2500 </r>
       <r>    -0.4341     0.0000    97.2500 </r>
       <r>    -0.3771     0.0000    97.2500 </r>
       <r>    -0.3202     0.0000    97.2500 </r>
       <r>    -0.2633     0.0001    97.2500 </r>
       <r>    -0.2063    23.0652    98.5633 </r>
       <r>    -0.1494    82.2435   103.2461 </r>
       <r>    -0.0925     0.0692   103.2500 </r>
       <r>    -0.0355     0.0004   103.2500 </r>
       <r>     0.0214    11.8259   103.9234 </r>
       <r>     0.0784    14.5168   104.7499 </r>
       <r>     0.1353     0.0013   104.7500 </r>
       <r>     0.1922     0.0000   104.7500 </r>
       <r>     0.2492     0.5804   104.7830 </r>
       <r>     0.3061    49.7017   107.6130 </r>
       <r>     0.3630     2.4068   107.7500 </r>
       <r>     0.4200     0.0836   107.7548 </r>
       <r>     0.4769    84.1206   112.5444 </r>
       <r>     0.5339    21.1736   113.7500 </r>
       <r>     0.5908     0.0001   113.7500 </r>
       <r>     0.6477     0.0000   113.7500 </r>
       <r>     0.7047     0.0000   113.7500 </r>
       <r>     0.7616     0.0000   113.7500 </r>
       <r>     0.8186     0.0000   113.7500 </r>
       <r>     0.8755     0.0000   113.7500 </r>
       <r>     0.9324     0.0000   113.7500 </r>
       <r>     0.9894     0.0000   113.7500 </r>
       <r>     1.0463     0.0000   113.7500 </r>
       <r>     1.1032     0.0000   113.7500 </r>
       <r>     1.1602     0.0000   113.7500 </r>
       <r>     1.2171     0.0000   113.7500 </r>
       <r>     1.2741     0.0000   113.7500 </r>
       <r>     1.3310     0.0000   113.7500 </r>
       <r>     1.3879     1.0516   113.8099 </r>
       <r>     1.4449    52.4978   116.7990 </r>
       <r>     1.5018   177.7860   126.9218 </r>
       <r>     1.5587    32.1092   128.7500 </r>
       <r>     1.6157     0.0002   128.7500 </r>
       <r>     1.6726     0.0000   128.7500 </r>
       <r>     1.7296     0.0000   128.7500 </r>
       <r>     1.7865     0.1935   128.7610 </r>
       <r>     1.8434    33.7395   130.6821 </r>
       <r>     1.9004    52.8340   133.6903 </r>
       <r>     1.9573     7.9281   134.1417 </r>
       <r>     2.0142    45.7019   136.7439 </r>
       <r>     2.0712     0.1069   136.7500 </r>
       <r>     2.1281     0.0001   136.7500 </r>
       <r>     2.1851    18.6210   137.8102 </r>
       <r>     2.2420    93.4033   143.1284 </r>
       <r>     2.2989   112.6654   149.5434 </r>
       <r>     2.3559   130.5660   156.9775 </r>
       <r>     2.4128    92.3802   162.2375 </r>
       <r>     2.4698     0.2201   162.2500 </r>
       <r>     2.5267     0.0000   162.2500 </r>
       <r>     2.5836     0.0000   162.2500 </r>
       <r>     2.6406     0.0000   162.2500 </r>
       <r>     2.6975     0.0000   162.2500 </r>
       <r>     2.7544     0.0000   162.2500 </r>
       <r>     2.8114     0.0000   162.2500 </r>
       <r>     2.8683     0.2415   162.2638 </r>
       <r>     2.9253    24.8352   163.6778 </r>
       <r>     2.9822    51.1501   166.5902 </r>
       <r>     3.0391   144.6014   174.8235 </r>
       <r>     3.0961    64.4344   178.4923 </r>
       <r>     3.1530    72.9682   182.6469 </r>
       <r>     3.2099    89.6064   187.7489 </r>
       <r>     3.2669     9.7722   188.3053 </r>
       <r>     3.3238   110.8383   194.6162 </r>
       <r>     3.3808    37.4623   196.7493 </r>
       <r>     3.4377     0.0131   196.7500 </r>
       <r>     3.4946     0.0030   196.7502 </r>
       <r>     3.5516    50.3580   199.6174 </r>
       <r>     3.6085   148.8037   208.0900 </r>
       <r>     3.6654    11.5911   208.7500 </r>
       <r>     3.7224     0.0000   208.7500 </r>
       <r>     3.7793     0.0000   208.7500 </r>
       <r>     3.8363     0.8843   208.8004 </r>
       <r>     3.8932    54.2532   211.8894 </r>
       <r>     3.9501   101.6195   217.6754 </r>
       <r>     4.0071     1.3098   217.7500 </r>
       <r>     4.0640     0.0031   217.7502 </r>
       <r>     4.1210    30.0684   219.4622 </r>
       <r>     4.1779    86.2028   224.3704 </r>
       <r>     4.2348    41.7913   226.7499 </r>
       <r>     4.2918     0.2606   226.7648 </r>
       <r>     4.3487    92.7188   232.0440 </r>
       <r>     4.4056    13.8628   232.8333 </r>
       <r>     4.4626    75.5199   237.1333 </r>
       <r>     4.5195    97.2265   242.6691 </r>
       <r>     4.5765    34.0127   244.6058 </r>
       <r>     4.6334    11.3148   245.2500 </r>
       <r>     4.6903     0.0002   245.2500 </r>
       <r>     4.7473     0.0000   245.2500 </r>
       <r>     4.8042     0.0000   245.2500 </r>
       <r>     4.8611     0.0000   245.2500 </r>
       <r>     4.9181     0.2339   245.2633 </r>
       <r>     4.9750    48.9951   248.0530 </r>
       <r>     5.0320    70.4854   252.0663 </r>
       <r>     5.0889     3.2265   252.2500 </r>
       <r>     5.1458     0.0000   252.2500 </r>
       <r>     5.2028     0.0000   252.2500 </r>
       <r>     5.2597     0.0000   252.2500 </r>
       <r>     5.3166     0.0000   252.2500 </r>
       <r>     5.3736     0.0000   252.2500 </r>
       <r>     5.4305     0.0123   252.2507 </r>
       <r>     5.4875    36.5793   254.3335 </r>
       <r>     5.5444    16.0972   255.2500 </r>
       <r>     5.6013     0.0002   255.2500 </r>
       <r>     5.6583     0.0000   255.2500 </r>
       <r>     5.7152     0.0004   255.2500 </r>
       <r>     5.7722     6.6575   255.6291 </r>
       <r>     5.8291     6.5140   256.0000 </r>
       <r>     5.8860     0.0004   256.0000 </r>
       <r>     5.9430     0.0000   256.0000 </r>
       <r>     5.9999     0.0000   256.0000 </r>
       <r>     6.0568     0.0000   256.0000 </r>
       <r>     6.1138     0.0000   256.0000 </r>
       <r>     6.1707     0.0000   256.0000 </r>
       <r>     6.2277     0.0031   256.0002 </r>
       <r>     6.2846    16.7184   256.9521 </r>
       <r>     6.3415    10.7938   257.5667 </r>
       <r>     6.3985    24.8885   258.9838 </r>
       <r>     6.4554     0.2852   259.0000 </r>
       <r>     6.5123     0.0000   259.0000 </r>
       <r>     6.5693     0.0000   259.0000 </r>
       <r>     6.6262     0.0000   259.0000 </r>
       <r>     6.6832     0.0000   259.0000 </r>
       <r>     6.7401     0.0000   259.0000 </r>
       <r>     6.7970     5.7711   259.3286 </r>
       <r>     6.8540    31.1986   261.1050 </r>
       <r>     6.9109    42.0256   263.4978 </r>
       <r>     6.9678     0.0382   263.5000 </r>
       <r>     7.0248     0.0000   263.5000 </r>
       <r>     7.0817     0.0000   263.5000 </r>
       <r>     7.1387     0.0289   263.5016 </r>
       <r>     7.1956    86.4207   268.4223 </r>
       <r>     7.2525    61.5521   271.9269 </r>
       <r>     7.3095     1.2837   272.0000 </r>
       <r>     7.3664     0.0000   272.0000 </r>
       <r>     7.4234     0.0000   272.0000 </r>
       <r>     7.4803     0.0000   272.0000 </r>
       <r>     7.5372     0.0000   272.0000 </r>
       <r>     7.5942     0.4618   272.0263 </r>
       <r>     7.6511   163.8359   281.3548 </r>
       <r>     7.7080    58.7286   284.6987 </r>
       <r>     7.7650    49.0854   287.4935 </r>
       <r>     7.8219     0.1146   287.5000 </r>
       <r>     7.8789     0.0009   287.5001 </r>
       <r>     7.9358    40.4548   289.8035 </r>
       <r>     7.9927    64.9113   293.4994 </r>
       <r>     8.0497    25.3282   294.9415 </r>
       <r>     8.1066    81.0756   299.5578 </r>
       <r>     8.1635   144.1543   307.7656 </r>
       <r>     8.2205    12.8975   308.5000 </r>
       <r>     8.2774     3.1545   308.6796 </r>
       <r>     8.3344   106.0437   314.7175 </r>
       <r>     8.3913     9.3520   315.2500 </r>
       <r>     8.4482     0.0000   315.2500 </r>
       <r>     8.5052     0.0416   315.2524 </r>
       <r>     8.5621    78.3914   319.7158 </r>
       <r>     8.6191    26.9447   321.2500 </r>
       <r>     8.6760     0.0002   321.2500 </r>
       <r>     8.7329     0.6080   321.2846 </r>
       <r>     8.7899   121.1120   328.1805 </r>
       <r>     8.8468    62.5438   331.7416 </r>
       <r>     8.9037     0.1476   331.7500 </r>
       <r>     8.9607     0.0000   331.7500 </r>
       <r>     9.0176     0.1385   331.7579 </r>
       <r>     9.0746    12.4278   332.4655 </r>
       <r>     9.1315     0.6059   332.5000 </r>
       <r>     9.1884     0.0556   332.5032 </r>
       <r>     9.2454    29.8935   334.2052 </r>
       <r>     9.3023     7.6641   334.6416 </r>
       <r>     9.3592    23.7635   335.9947 </r>
       <r>     9.4162     0.0938   336.0000 </r>
       <r>     9.4731     0.0000   336.0000 </r>
       <r>     9.5301     0.0000   336.0000 </r>
       <r>     9.5870     0.0000   336.0000 </r>
       <r>     9.6439     0.0000   336.0000 </r>
       <r>     9.7009     0.0000   336.0000 </r>
       <r>     9.7578     0.0000   336.0000 </r>
       <r>     9.8147     0.0000   336.0000 </r>
       <r>     9.8717     0.0000   336.0000 </r>
       <r>     9.9286     0.0000   336.0000 </r>
       <r>     9.9856     0.0000   336.0000 </r>
       <r>    10.0425     0.0000   336.0000 </r>
       <r>    10.0994     0.0000   336.0000 </r>
      </set>
     </set>
    </array>
   </total>
  </dos>
 </calculation>
 <structure name="finalpos" >
  <crystal>
   <varray name="basis" >
    <v>      10.86914512      -0.00000000      -0.00000000 </v>
    <v>      -0.00000000      10.86914512       0.00000000 </v>
    <v>       0.00000000       0.00000000      10.86914512 </v>
   </varray>
   <i name="volume">   1284.06249692 </i>
   <varray name="rec_basis" >
    <v>       0.09200356       0.00000000      -0.00000000 </v>
    <v>       0.00000000       0.09200356      -0.00000000 </v>
    <v>       0.00000000      -0.00000000       0.09200356 </v>
   </varray>
  </crystal>
  <varray name="positions" >
   <v>       0.25092004       0.25000000       0.25000000 </v>
   <v>       0.75000000       0.25000000       0.25000000 </v>
   <v>       0.25000000       0.75000000       0.25000000 </v>
   <v>       0.75000000       0.75000000       0.25000000 </v>
   <v>       0.25000000       0.25000000       0.75000000 </v>
   <v>       0.75000000       0.25000000       0.75000000 </v>
   <v>       0.25000000       0.75000000       0.75000000 </v>
   <v>       0.75000000       0.75000000       0.75000000 </v>
   <v>       0.25000000       0.00000000       0.00000000 </v>
   <v>       0.75000000       0.00000000       0.00000000 </v>
   <v>       0.25000000       0.50000000       0.00000000 </v>
   <v>       0.75000000       0.50000000       0.00000000 </v>
   <v>       0.25000000       0.00000000       0.50000000 </v>
   <v>       0.75000000       0.00000000       0.50000000 </v>
   <v>       0.25000000       0.50000000       0.50000000 </v>
   <v>       0.75000000       0.50000000       0.50000000 </v>
   <v>       0.99907996       0.25000000       0.00000000 </v>
   <v>       0.50000000       0.25000000       0.00000000 </v>
   <v>       0.00000000       0.75000000       0.00000000 </v>
   <v>       0.50000000       0.75000000       0.00000000 </v>
   <v>       0.00000000       0.25000000       0.50000000 </v>
   <v>       0.50000000       0.25000000       0.50000000 </v>
   <v>       0.00000000       0.75000000       0.50000000 </v>
   <v>       0.50000000       0.75000000       0.50000000 </v>
   <v>       0.00000000       0.00000000       0.25000000 </v>
   <v>       0.50000000       0.00000000       0.25000000 </v>
   <v>       0.00000000       0.50000000       0.25000000 </v>
   <v>       0.50000000       0.50000000       0.25000000 </v>
   <v>       0.00000000       0.00000000       0.75000000 </v>
   <v>       0.50000000       0.00000000       0.75000000 </v>
   <v>       0.00000000       0.50000000       0.75000000 </v>
   <v>       0.50000000       0.50000000       0.75000000 </v>
   <v>       0.37500000       0.37500000       0.37500000 </v>
   <v>       0.87500000       0.37500000       0.37500000 </v>
   <v>       0.37500000       0.87500000       0.37500000 </v>
   <v>       0.87500000       0.87500000       0.37500000 </v>
   <v>       0.37500000       0.37500000       0.87500000 </v>
   <v>       0.87500000       0.37500000       0.87500000 </v>
   <v>       0.37500000       0.87500000       0.87500000 </v>
   <v>       0.87500000       0.87500000       0.87500000 </v>
   <v>       0.37500000       0.12500000       0.12500000 </v>
   <v>       0.87500000       0.12500000       0.12500000 </v>
   <v>       0.37500000       0.62500000       0.12500000 </v>
   <v>       0.87500000       0.62500000       0.12500000 </v>
   <v>       0.37500000       0.12500000       0.62500000 </v>
   <v>       0.87500000       0.12500000       0.62500000 </v>
   <v>       0.37500000       0.62500000       0.62500000 </v>
   <v>       0.87500000       0.62500000       0.62500000 </v>
   <v>       0.12500000       0.37500000       0.12500000 </v>
   <v>       0.62500000       0.37500000       0.12500000 </v>
   <v>       0.12500000       0.87500000       0.12500000 </v>
   <v>       0.62500000       0.87500000       0.12500000 </v>
   <v>       0.12500000       0.37500000       0.62500000 </v>
   <v>       0.62500000       0.37500000       0.62500000 </v>
   <v>       0.12500000       0.87500000       0.62500000 </v>
   <v>       0.62500000       0.87500000       0.62500000 </v>
   <v>       0.12500000       0.12500000       0.37500000 </v>
   <v>       0.62500000       0.12500000       0.37500000 </v>
   <v>       0.12500000       0.62500000       0.37500000 </v>
   <v>       0.62500000       0.62500000       0.37500000 </v>
   <v>       0.12500000       0.12500000       0.87500000 </v>
   <v>       0.62500000       0.12500000       0.87500000 </v>
   <v>       0.12500000       0.62500000       0.87500000 </v>
   <v>       0.62500000       0.62500000       0.87500000 </v>
  </varray>
 </structure>
</modeling>
