  64  64   0   0
  0.2006348E+02  0.1086915E-08  0.1086915E-08  0.1086915E-08  0.5000000E-15
  1.000000000000000E-004
  CAR 
 unknown system                          
     10.10108544     -6.98202188  301      5.89437026      1.00000000
     -6.982  0.0000E+00  0.0000E+00
     -6.925  0.0000E+00  0.0000E+00
     -6.868  0.0000E+00  0.0000E+00
     -6.811  0.0000E+00  0.0000E+00
     -6.754  0.0000E+00  0.0000E+00
     -6.697  0.0000E+00  0.0000E+00
     -6.640  0.0000E+00  0.0000E+00
     -6.583  0.0000E+00  0.0000E+00
     -6.526  0.0000E+00  0.0000E+00
     -6.470  0.0000E+00  0.0000E+00
     -6.413  0.0000E+00  0.0000E+00
     -6.356  0.0000E+00  0.0000E+00
     -6.299  0.9729E-10  0.5540E-11
     -6.242  0.2282E-01  0.1300E-02
     -6.185  0.4053E+01  0.2321E+00
     -6.128  0.3142E+00  0.2500E+00
     -6.071  0.8787E-07  0.2500E+00
     -6.014  0.9247E-07  0.2500E+00
     -5.957  0.1017E+01  0.3079E+00
     -5.900  0.2501E+02  0.1732E+01
     -5.843  0.3168E+00  0.1750E+01
     -5.786  0.4468E-08  0.1750E+01
     -5.729  0.1068E-03  0.1750E+01
     -5.672  0.1458E+02  0.2580E+01
     -5.615  0.3808E+02  0.4749E+01
     -5.558  0.1625E-01  0.4750E+01
     -5.501  0.1201E-09  0.4750E+01
     -5.445  0.7327E-01  0.4754E+01
     -5.388  0.3054E+02  0.6493E+01
     -5.331  0.4514E+01  0.6750E+01
     -5.274  0.5047E-05  0.6750E+01
     -5.217  0.2520E-09  0.6750E+01
     -5.160  0.8862E-01  0.6755E+01
     -5.103  0.2367E+02  0.8103E+01
     -5.046  0.2583E+01  0.8250E+01
     -4.989  0.1560E-05  0.8250E+01
     -4.932  0.1732E-02  0.8250E+01
     -4.875  0.4574E+02  0.1085E+02
     -4.818  0.5962E+02  0.1425E+02
     -4.761  0.6975E-02  0.1425E+02
     -4.704  0.1314E-02  0.1425E+02
     -4.647  0.4335E+02  0.1672E+02
     -4.590  0.6200E+02  0.2025E+02
     -4.533  0.8642E-02  0.2025E+02
     -4.476  0.0000E+00  0.2025E+02
     -4.420  0.0000E+00  0.2025E+02
     -4.363  0.0000E+00  0.2025E+02
     -4.306  0.0000E+00  0.2025E+02
     -4.249  0.2019E-08  0.2025E+02
     -4.192  0.2770E+00  0.2027E+02
     -4.135  0.4822E+02  0.2301E+02
     -4.078  0.4195E+01  0.2325E+02
     -4.021  0.5785E+02  0.2654E+02
     -3.964  0.4751E+02  0.2925E+02
     -3.907  0.1151E-01  0.2925E+02
     -3.850  0.1354E+02  0.3002E+02
     -3.793  0.2536E+02  0.3147E+02
     -3.736  0.4986E+01  0.3175E+02
     -3.679  0.2494E-04  0.3175E+02
     -3.622  0.1237E+02  0.3245E+02
     -3.565  0.9273E+02  0.3773E+02
     -3.508  0.2151E+01  0.3786E+02
     -3.452  0.9971E+02  0.4353E+02
     -3.395  0.3776E+01  0.4375E+02
     -3.338  0.1380E+02  0.4454E+02
     -3.281  0.9135E+02  0.4974E+02
     -3.224  0.2166E+00  0.4975E+02
     -3.167  0.1380E-07  0.4975E+02
     -3.110  0.1011E+01  0.4981E+02
     -3.053  0.9908E+02  0.5545E+02
     -2.996  0.5279E+01  0.5575E+02
     -2.939  0.9638E-06  0.5575E+02
     -2.882  0.0000E+00  0.5575E+02
     -2.825  0.0000E+00  0.5575E+02
     -2.768  0.0000E+00  0.5575E+02
     -2.711  0.0000E+00  0.5575E+02
     -2.654  0.0000E+00  0.5575E+02
     -2.597  0.0000E+00  0.5575E+02
     -2.540  0.3665E-06  0.5575E+02
     -2.483  0.2511E+01  0.5589E+02
     -2.427  0.4966E+02  0.5872E+02
     -2.370  0.5107E+00  0.5875E+02
     -2.313  0.5870E-08  0.5875E+02
     -2.256  0.0000E+00  0.5875E+02
     -2.199  0.0000E+00  0.5875E+02
     -2.142  0.3937E-08  0.5875E+02
     -2.085  0.2773E+00  0.5877E+02
     -2.028  0.2486E+02  0.6018E+02
     -1.971  0.5533E+02  0.6333E+02
     -1.914  0.5200E+02  0.6629E+02
     -1.857  0.4994E+02  0.6914E+02
     -1.800  0.1972E+01  0.6925E+02
     -1.743  0.2720E-06  0.6925E+02
     -1.686  0.0000E+00  0.6925E+02
     -1.629  0.0000E+00  0.6925E+02
     -1.572  0.2912E-12  0.6925E+02
     -1.515  0.5347E-02  0.6925E+02
     -1.458  0.3245E+02  0.7110E+02
     -1.402  0.2023E+02  0.7225E+02
     -1.345  0.4381E-03  0.7225E+02
     -1.288  0.1689E-02  0.7225E+02
     -1.231  0.1072E+02  0.7286E+02
     -1.174  0.6841E+01  0.7325E+02
     -1.117  0.1592E-03  0.7325E+02
     -1.060  0.6929E+01  0.7364E+02
     -1.003  0.9774E+02  0.7921E+02
     -0.946  0.6940E+00  0.7925E+02
     -0.889  0.9993E-07  0.7925E+02
     -0.832  0.2206E+01  0.7938E+02
     -0.775  0.1005E+03  0.8510E+02
     -0.718  0.2700E+01  0.8525E+02
     -0.661  0.3562E+01  0.8545E+02
     -0.604  0.1965E+03  0.9664E+02
     -0.547  0.1064E+02  0.9725E+02
     -0.490  0.1095E-04  0.9725E+02
     -0.433  0.0000E+00  0.9725E+02
     -0.377  0.0000E+00  0.9725E+02
     -0.320  0.0000E+00  0.9725E+02
     -0.263  0.1244E-03  0.9725E+02
     -0.206  0.2441E+02  0.9864E+02
     -0.149  0.8090E+02  0.1032E+03
     -0.092  0.5995E-01  0.1032E+03
     -0.035  0.5276E-03  0.1033E+03
      0.022  0.1229E+02  0.1039E+03
      0.079  0.1405E+02  0.1047E+03
      0.136  0.1077E-02  0.1048E+03
      0.193  0.1490E-07  0.1048E+03
      0.250  0.6607E+00  0.1048E+03
      0.307  0.4983E+02  0.1076E+03
      0.364  0.2195E+01  0.1077E+03
      0.421  0.9852E-01  0.1078E+03
      0.478  0.8547E+02  0.1126E+03
      0.535  0.1980E+02  0.1137E+03
      0.591  0.5565E-04  0.1138E+03
      0.648  0.0000E+00  0.1138E+03
      0.705  0.0000E+00  0.1138E+03
      0.762  0.0000E+00  0.1138E+03
      0.819  0.0000E+00  0.1138E+03
      0.876  0.0000E+00  0.1138E+03
      0.933  0.0000E+00  0.1138E+03
      0.990  0.0000E+00  0.1138E+03
      1.047  0.0000E+00  0.1138E+03
      1.104  0.0000E+00  0.1138E+03
      1.161  0.0000E+00  0.1138E+03
      1.218  0.0000E+00  0.1138E+03
      1.275  0.0000E+00  0.1138E+03
      1.332  0.4531E-07  0.1138E+03
      1.389  0.1199E+01  0.1138E+03
      1.446  0.5279E+02  0.1168E+03
      1.503  0.1797E+03  0.1271E+03
      1.560  0.2976E+02  0.1287E+03
      1.616  0.1700E-03  0.1288E+03
      1.673  0.0000E+00  0.1288E+03
      1.730  0.1618E-08  0.1288E+03
      1.787  0.2292E+00  0.1288E+03
      1.844  0.3415E+02  0.1307E+03
      1.901  0.5252E+02  0.1337E+03
      1.958  0.8453E+01  0.1342E+03
      2.015  0.4506E+02  0.1367E+03
      2.072  0.8783E-01  0.1367E+03
      2.129  0.7151E-04  0.1368E+03
      2.186  0.2028E+02  0.1379E+03
      2.243  0.9229E+02  0.1432E+03
      2.300  0.1150E+03  0.1497E+03
      2.357  0.1291E+03  0.1571E+03
      2.414  0.9099E+02  0.1622E+03
      2.471  0.1802E+00  0.1622E+03
      2.528  0.2005E-09  0.1622E+03
      2.585  0.0000E+00  0.1622E+03
      2.641  0.0000E+00  0.1622E+03
      2.698  0.0000E+00  0.1622E+03
      2.755  0.0000E+00  0.1622E+03
      2.812  0.3560E-08  0.1623E+03
      2.869  0.2872E+00  0.1623E+03
      2.926  0.2495E+02  0.1637E+03
      2.983  0.5376E+02  0.1667E+03
      3.040  0.1435E+03  0.1749E+03
      3.097  0.6328E+02  0.1785E+03
      3.154  0.7635E+02  0.1829E+03
      3.211  0.8571E+02  0.1877E+03
      3.268  0.1095E+02  0.1884E+03
      3.325  0.1110E+03  0.1947E+03
      3.382  0.3611E+02  0.1967E+03
      3.439  0.1017E-01  0.1967E+03
      3.496  0.4062E-02  0.1968E+03
      3.553  0.5331E+02  0.1998E+03
      3.610  0.1471E+03  0.2082E+03
      3.666  0.1029E+02  0.2087E+03
      3.723  0.5963E-05  0.2088E+03
      3.780  0.4040E-07  0.2088E+03
      3.837  0.1043E+01  0.2088E+03
      3.894  0.5506E+02  0.2119E+03
      3.951  0.1009E+03  0.2177E+03
      4.008  0.1089E+01  0.2177E+03
      4.065  0.4250E-02  0.2178E+03
      4.122  0.3160E+02  0.2195E+03
      4.179  0.8763E+02  0.2245E+03
      4.236  0.3882E+02  0.2267E+03
      4.293  0.3300E+00  0.2268E+03
      4.350  0.9411E+02  0.2321E+03
      4.407  0.1267E+02  0.2328E+03
      4.464  0.7572E+02  0.2372E+03
      4.521  0.9808E+02  0.2427E+03
      4.578  0.3361E+02  0.2447E+03
      4.634  0.1036E+02  0.2452E+03
      4.691  0.1054E-03  0.2452E+03
      4.748  0.0000E+00  0.2452E+03
      4.805  0.0000E+00  0.2452E+03
      4.862  0.1611E-08  0.2453E+03
      4.919  0.2972E+00  0.2453E+03
      4.976  0.4973E+02  0.2481E+03
      5.033  0.7012E+02  0.2521E+03
      5.090  0.2782E+01  0.2522E+03
      5.147  0.6270E-06  0.2522E+03
      5.204  0.0000E+00  0.2522E+03
      5.261  0.0000E+00  0.2522E+03
      5.318  0.0000E+00  0.2522E+03
      5.375  0.3475E-11  0.2523E+03
      5.432  0.1733E-01  0.2523E+03
      5.489  0.3804E+02  0.2544E+03
      5.546  0.1462E+02  0.2552E+03
      5.603  0.1187E-03  0.2552E+03
      5.659  0.1828E-13  0.2552E+03
      5.716  0.6364E-03  0.2553E+03
      5.773  0.7101E+01  0.2557E+03
      5.830  0.6069E+01  0.2560E+03
      5.887  0.2770E-03  0.2560E+03
      5.944  0.0000E+00  0.2560E+03
      6.001  0.0000E+00  0.2560E+03
      6.058  0.0000E+00  0.2560E+03
      6.115  0.0000E+00  0.2560E+03
      6.172  0.3529E-12  0.2560E+03
      6.229  0.4362E-02  0.2560E+03
      6.286  0.1758E+02  0.2570E+03
      6.343  0.1015E+02  0.2576E+03
      6.400  0.2472E+02  0.2590E+03
      6.457  0.2209E+00  0.2590E+03
      6.514  0.2040E-08  0.2590E+03
      6.571  0.0000E+00  0.2590E+03
      6.628  0.0000E+00  0.2590E+03
      6.684  0.0000E+00  0.2590E+03
      6.741  0.3623E-04  0.2590E+03
      6.798  0.6514E+01  0.2594E+03
      6.855  0.3190E+02  0.2612E+03
      6.912  0.4058E+02  0.2635E+03
      6.969  0.2784E-01  0.2635E+03
      7.026  0.3733E-11  0.2635E+03
      7.083  0.1903E-10  0.2635E+03
      7.140  0.4161E-01  0.2635E+03
      7.197  0.9086E+02  0.2687E+03
      7.254  0.5730E+02  0.2719E+03
      7.311  0.1065E+01  0.2720E+03
      7.368  0.2172E-06  0.2720E+03
      7.425  0.0000E+00  0.2720E+03
      7.482  0.0000E+00  0.2720E+03
      7.539  0.3216E-08  0.2720E+03
      7.596  0.6134E+00  0.2720E+03
      7.653  0.1690E+03  0.2817E+03
      7.709  0.5506E+02  0.2848E+03
      7.766  0.4748E+02  0.2875E+03
      7.823  0.8420E-01  0.2875E+03
      7.880  0.1402E-02  0.2875E+03
      7.937  0.4454E+02  0.2900E+03
      7.994  0.6082E+02  0.2935E+03
      8.051  0.2875E+02  0.2951E+03
      8.108  0.7798E+02  0.2996E+03
      8.165  0.1460E+03  0.3079E+03
      8.222  0.1067E+02  0.3085E+03
      8.279  0.3707E+01  0.3087E+03
      8.336  0.1072E+03  0.3148E+03
      8.393  0.7677E+01  0.3152E+03
      8.450  0.2407E-05  0.3153E+03
      8.507  0.6115E-01  0.3153E+03
      8.564  0.8178E+02  0.3199E+03
      8.621  0.2352E+02  0.3212E+03
      8.677  0.9662E-04  0.3213E+03
      8.734  0.6754E+00  0.3213E+03
      8.791  0.1180E+03  0.3280E+03
      8.848  0.6537E+02  0.3317E+03
      8.905  0.3839E+00  0.3317E+03
      8.962  0.3228E-07  0.3318E+03
      9.019  0.1933E+00  0.3318E+03
      9.076  0.1253E+02  0.3325E+03
      9.133  0.4430E+00  0.3325E+03
      9.190  0.7685E-01  0.3325E+03
      9.247  0.3068E+02  0.3343E+03
      9.304  0.7103E+01  0.3347E+03
      9.361  0.2352E+02  0.3360E+03
      9.418  0.8743E-01  0.3360E+03
      9.475  0.2752E-09  0.3360E+03
      9.532  0.0000E+00  0.3360E+03
      9.589  0.0000E+00  0.3360E+03
      9.646  0.0000E+00  0.3360E+03
      9.702  0.0000E+00  0.3360E+03
      9.759  0.0000E+00  0.3360E+03
      9.816  0.0000E+00  0.3360E+03
      9.873  0.0000E+00  0.3360E+03
      9.930  0.0000E+00  0.3360E+03
      9.987  0.0000E+00  0.3360E+03
     10.044  0.0000E+00  0.3360E+03
     10.101  0.0000E+00  0.3360E+03
