       N       E                     dE             d eps       ncg     rms          rms(c)
DAV:   1     0.456448304840E+03    0.45645E+03   -0.72709E+04  2016   0.852E+02
DAV:   2    -0.321374930011E+03   -0.77782E+03   -0.73422E+03  2416   0.156E+02
DAV:   3    -0.373422911313E+03   -0.52048E+02   -0.51232E+02  2472   0.368E+01
DAV:   4    -0.374599079827E+03   -0.11762E+01   -0.11675E+01  2408   0.671E+00
DAV:   5    -0.374640662101E+03   -0.41582E-01   -0.41526E-01  2376   0.112E+00    0.285E+01
DAV:   6    -0.369721738725E+03    0.49189E+01   -0.25898E+00  2272   0.242E+00    0.172E+01
DAV:   7    -0.367490329615E+03    0.22314E+01   -0.52391E+00  2264   0.349E+00    0.996E-01
DAV:   8    -0.367497511352E+03   -0.71817E-02   -0.28301E-01  2288   0.969E-01    0.352E-01
DAV:   9    -0.367498969859E+03   -0.14585E-02   -0.72585E-03  2488   0.163E-01    0.309E-01
DAV:  10    -0.367499830402E+03   -0.86054E-03   -0.21023E-03  2240   0.835E-02    0.228E-01
DAV:  11    -0.367499868099E+03   -0.37697E-04   -0.88397E-05  2336   0.189E-02    0.902E-03
DAV:  12    -0.367499870400E+03   -0.23011E-05   -0.32897E-06  2408   0.357E-03    0.825E-03
DAV:  13    -0.367499869404E+03    0.99596E-06   -0.85579E-07  2272   0.195E-03    0.201E-03
DAV:  14    -0.367499869238E+03    0.16641E-06   -0.28122E-08  1912   0.377E-04    0.491E-04
DAV:  15    -0.367499869231E+03    0.69640E-08   -0.10311E-08  1368   0.197E-04
   1 F= -.36749987E+03 E0= -.36749987E+03  d E =-.372342E-18
