 vasp.6.3.2 27Jun22 (build Oct 14 2022 12:13:54) complex                        
  
 executed on             LinuxIFC date 2023.04.03  14:33:02
 running on   32 total cores
 distrk:  each k-point on   32 cores,    1 groups
 distr:  one band on NCORE=   4 cores,    8 groups


--------------------------------------------------------------------------------------------------------


 INCAR:
   ADDGRID = True
   EDIFF = 1e-08
   ENCUT = 318
   GGA = Ps
   IALGO = 38
   IBRION = -1
   ISMEAR = 0
   LCHARG = False
   LREAL = False
   LWAVE = False
   NELMIN = 5
   NPAR = 8
   PREC = Accurate
   SIGMA = 0.02

 POTCAR:    PAW_PBE Si 05Jan2001                  
 POTCAR:    PAW_PBE Si 05Jan2001                  
   SHA256 =  79d9987ad8750f624c4d6acb2a16d13abf6a777132adc04dc6c8399be72b42bb Si/POTCAR             
   COPYR  = (c) Copyright 05Jan2001 Georg Kresse                                                    
   COPYR  = This file is part of the software VASP. Any use, copying, and all other rights are regul
   COPYR  = If you do not have a valid VASP license, you may not use, copy or distribute this file. 
   VRHFIN =Si: s2p2                                                                                 
   LEXCH  = PE                                                                                      
   EATOM  =   103.0669 eV,    7.5752 Ry                                                             
                                                                                                    
   TITEL  = PAW_PBE Si 05Jan2001                                                                    
   LULTRA =        F    use ultrasoft PP ?                                                          
   IUNSCR =        1    unscreen: 0-lin 1-nonlin 2-no                                               
   RPACOR =    1.500    partial core radius                                                         
   POMASS =   28.085; ZVAL   =    4.000    mass and valenz                                          
   RCORE  =    1.900    outmost cutoff radius                                                       
   RWIGS  =    2.480; RWIGS  =    1.312    wigner-seitz radius (au A)                               
   ENMAX  =  245.345; ENMIN  =  184.009 eV                                                          
   ICORE  =        2    local potential                                                             
   LCOR   =        T    correct aug charges                                                         
   LPAW   =        T    paw PP                                                                      
   EAUG   =  322.069                                                                                
   DEXC   =    0.000                                                                                
   RMAX   =    1.950    core radius for proj-oper                                                   
   RAUG   =    1.300    factor for augmentation sphere                                              
   RDEP   =    1.993    radius for radial grids                                                     
   RDEPT  =    1.837    core radius for aug-charge                                                  
                                                                                                    
   Atomic configuration                                                                             
    6 entries                                                                                       
     n  l   j            E        occ.                                                              
     1  0  0.50     -1785.8828   2.0000                                                             
     2  0  0.50      -139.4969   2.0000                                                             
     2  1  1.50       -95.5546   6.0000                                                             
     3  0  0.50       -10.8127   2.0000                                                             
     3  1  0.50        -4.0811   2.0000                                                             
     3  2  1.50        -4.0817   0.0000                                                             
   Description                                                                                      
     l       E           TYP  RCUT    TYP  RCUT                                                     
     0    -10.8127223     23  1.900                                                                 
     0     -7.6451159     23  1.900                                                                 
     1     -4.0811372     23  1.900                                                                 
     1      2.4879257     23  1.900                                                                 
     2     -4.0817478      7  1.900                                                                 
  local pseudopotential read in
  partial core-charges read in
  partial kinetic energy density read in
  atomic valenz-charges read in
  non local Contribution for L=           0  read in
    real space projection operators read in
  non local Contribution for L=           0  read in
    real space projection operators read in
  non local Contribution for L=           1  read in
    real space projection operators read in
  non local Contribution for L=           1  read in
    real space projection operators read in
    PAW grid and wavefunctions read in
 
   number of l-projection  operators is LMAX  =           4
   number of lm-projection operators is LMMAX =           8
 
 -----------------------------------------------------------------------------
|                                                                             |
|               ----> ADVICE to this user running VASP <----                  |
|                                                                             |
|     You have a (more or less) 'large supercell' and for larger cells it     |
|     might be more efficient to use real-space projection operators.         |
|     Therefore, try LREAL= Auto in the INCAR file.                           |
|     Mind: For very accurate calculation, you might also keep the            |
|     reciprocal projection scheme (i.e. LREAL=.FALSE.).                      |
|                                                                             |
 -----------------------------------------------------------------------------

 -----------------------------------------------------------------------------
|                                                                             |
|               ----> ADVICE to this user running VASP <----                  |
|                                                                             |
|     You enforced a specific xc type in the INCAR file but a different       |
|     type was found in the POTCAR file.                                      |
|     I HOPE YOU KNOW WHAT YOU ARE DOING!                                     |
|                                                                             |
 -----------------------------------------------------------------------------

  PAW_PBE Si 05Jan2001                  :
 energy of atom  1       EATOM= -103.0669
 kinetic energy error for atom=    0.0016 (will be added to EATOM!!)
 
 
 POSCAR: Si
  positions in cartesian coordinates
  No initial velocities read in
 exchange correlation table for  LEXCH =       14
   RHO(1)=    0.500       N(1)  =     2000
   RHO(2)=  100.500       N(2)  =     4000
 


--------------------------------------------------------------------------------------------------------


 ion  position               nearest neighbor table
   1  0.251  0.251  0.250-  33 2.34  41 2.35  49 2.35  57 2.36
   2  0.750  0.250  0.250-  34 2.35  42 2.35  50 2.35  58 2.35
   3  0.250  0.750  0.250-  35 2.35  43 2.35  51 2.35  59 2.35
   4  0.750  0.750  0.250-  36 2.35  44 2.35  52 2.35  60 2.35
   5  0.250  0.250  0.750-  37 2.35  45 2.35  53 2.35  61 2.35
   6  0.750  0.250  0.750-  38 2.35  46 2.35  54 2.35  62 2.35
   7  0.250  0.750  0.750-  39 2.35  47 2.35  55 2.35  63 2.35
   8  0.750  0.750  0.750-  40 2.35  48 2.35  56 2.35  64 2.35
   9  0.250  0.000  0.000-  39 2.35  41 2.35  51 2.35  61 2.35
  10  0.750  0.000  0.000-  40 2.35  42 2.35  52 2.35  62 2.35
  11  0.250  0.500  0.000-  37 2.35  43 2.35  49 2.35  63 2.35
  12  0.750  0.500  0.000-  38 2.35  44 2.35  50 2.35  64 2.35
  13  0.250  0.000  0.500-  35 2.35  45 2.35  55 2.35  57 2.35
  14  0.750  0.000  0.500-  36 2.35  46 2.35  56 2.35  58 2.35
  15  0.250  0.500  0.500-  33 2.35  47 2.35  53 2.35  59 2.35
  16  0.750  0.500  0.500-  34 2.35  48 2.35  54 2.35  60 2.35
  17  0.000  0.250  0.000-  38 2.35  42 2.35  49 2.35  61 2.35
  18  0.500  0.250  0.000-  37 2.35  41 2.35  50 2.35  62 2.35
  19  0.000  0.750  0.000-  40 2.35  44 2.35  51 2.35  63 2.35
  20  0.500  0.750  0.000-  39 2.35  43 2.35  52 2.35  64 2.35
  21  0.000  0.250  0.500-  34 2.35  46 2.35  53 2.35  57 2.35
  22  0.500  0.250  0.500-  33 2.35  45 2.35  54 2.35  58 2.35
  23  0.000  0.750  0.500-  36 2.35  48 2.35  55 2.35  59 2.35
  24  0.500  0.750  0.500-  35 2.35  47 2.35  56 2.35  60 2.35
  25  0.000  0.000  0.250-  36 2.35  42 2.35  51 2.35  57 2.35
  26  0.500  0.000  0.250-  35 2.35  41 2.35  52 2.35  58 2.35
  27  0.000  0.500  0.250-  34 2.35  44 2.35  49 2.35  59 2.35
  28  0.500  0.500  0.250-  33 2.35  43 2.35  50 2.35  60 2.35
  29  0.000  0.000  0.750-  40 2.35  46 2.35  55 2.35  61 2.35
  30  0.500  0.000  0.750-  39 2.35  45 2.35  56 2.35  62 2.35
  31  0.000  0.500  0.750-  38 2.35  48 2.35  53 2.35  63 2.35
  32  0.500  0.500  0.750-  37 2.35  47 2.35  54 2.35  64 2.35
  33  0.375  0.375  0.375-   1 2.34  15 2.35  22 2.35  28 2.35
  34  0.875  0.375  0.375-   2 2.35  16 2.35  21 2.35  27 2.35
  35  0.375  0.875  0.375-   3 2.35  13 2.35  24 2.35  26 2.35
  36  0.875  0.875  0.375-   4 2.35  14 2.35  23 2.35  25 2.35
  37  0.375  0.375  0.875-   5 2.35  11 2.35  18 2.35  32 2.35
  38  0.875  0.375  0.875-   6 2.35  12 2.35  17 2.35  31 2.35
  39  0.375  0.875  0.875-   7 2.35   9 2.35  20 2.35  30 2.35
  40  0.875  0.875  0.875-   8 2.35  10 2.35  19 2.35  29 2.35
  41  0.375  0.125  0.125-   9 2.35  18 2.35  26 2.35   1 2.35
  42  0.875  0.125  0.125-   2 2.35  10 2.35  17 2.35  25 2.35
  43  0.375  0.625  0.125-   3 2.35  11 2.35  20 2.35  28 2.35
  44  0.875  0.625  0.125-   4 2.35  12 2.35  19 2.35  27 2.35
  45  0.375  0.125  0.625-   5 2.35  13 2.35  22 2.35  30 2.35
  46  0.875  0.125  0.625-   6 2.35  14 2.35  21 2.35  29 2.35
  47  0.375  0.625  0.625-   7 2.35  15 2.35  24 2.35  32 2.35
  48  0.875  0.625  0.625-   8 2.35  16 2.35  23 2.35  31 2.35
  49  0.125  0.375  0.125-  11 2.35  17 2.35  27 2.35   1 2.35
  50  0.625  0.375  0.125-   2 2.35  12 2.35  18 2.35  28 2.35
  51  0.125  0.875  0.125-   3 2.35   9 2.35  19 2.35  25 2.35
  52  0.625  0.875  0.125-   4 2.35  10 2.35  20 2.35  26 2.35
  53  0.125  0.375  0.625-   5 2.35  15 2.35  21 2.35  31 2.35
  54  0.625  0.375  0.625-   6 2.35  16 2.35  22 2.35  32 2.35
  55  0.125  0.875  0.625-   7 2.35  13 2.35  23 2.35  29 2.35
  56  0.625  0.875  0.625-   8 2.35  14 2.35  24 2.35  30 2.35
  57  0.125  0.125  0.375-  13 2.35  21 2.35  25 2.35   1 2.36
  58  0.625  0.125  0.375-   2 2.35  14 2.35  22 2.35  26 2.35
  59  0.125  0.625  0.375-   3 2.35  15 2.35  23 2.35  27 2.35
  60  0.625  0.625  0.375-   4 2.35  16 2.35  24 2.35  28 2.35
  61  0.125  0.125  0.875-   5 2.35   9 2.35  17 2.35  29 2.35
  62  0.625  0.125  0.875-   6 2.35  10 2.35  18 2.35  30 2.35
  63  0.125  0.625  0.875-   7 2.35  11 2.35  19 2.35  31 2.35
  64  0.625  0.625  0.875-   8 2.35  12 2.35  20 2.35  32 2.35
 
  LATTYP: Found a simple cubic cell.
 ALAT       =    10.8691451200
  
  Lattice vectors:
  
 A1 = (  10.8691451200,  -0.0000000000,  -0.0000000000)
 A2 = (  -0.0000000000,  10.8691451200,   0.0000000000)
 A3 = (   0.0000000000,   0.0000000000,  10.8691451200)


Analysis of symmetry for initial positions (statically):
=====================================================================
 Subroutine PRICEL returns:
 Original cell was already a primitive cell.
 

 Routine SETGRP: Setting up the symmetry group for a 
 simple cubic supercell.


 Subroutine GETGRP returns: Found  2 space group operations
 (whereof  2 operations were pure point group operations)
 out of a pool of 48 trial point group operations.


The static configuration has the point symmetry C_1h.


Analysis of symmetry for dynamics (positions and initial velocities):
=====================================================================
 Subroutine PRICEL returns:
 Original cell was already a primitive cell.
 

 Routine SETGRP: Setting up the symmetry group for a 
 simple cubic supercell.


 Subroutine GETGRP returns: Found  2 space group operations
 (whereof  2 operations were pure point group operations)
 out of a pool of 48 trial point group operations.


The dynamic configuration has the point symmetry C_1h.


 Subroutine INISYM returns: Found  2 space group operations
 (whereof  2 operations are pure point group operations),
 and found     1 'primitive' translations


----------------------------------------------------------------------------------------

                                     Primitive cell                                     

  volume of cell :    1284.0625

  direct lattice vectors                    reciprocal lattice vectors
    10.869145120 -0.000000000 -0.000000000     0.092003556  0.000000000 -0.000000000
    -0.000000000 10.869145120  0.000000000     0.000000000  0.092003556 -0.000000000
     0.000000000  0.000000000 10.869145120     0.000000000 -0.000000000  0.092003556

  length of vectors
    10.869145120 10.869145120 10.869145120     0.092003556  0.092003556  0.092003556

  position of ions in fractional coordinates (direct lattice)
     0.250920036  0.250920036  0.250000000
     0.750000000  0.250000000  0.250000000
     0.250000000  0.750000000  0.250000000
     0.750000000  0.750000000  0.250000000
     0.250000000  0.250000000  0.750000000
     0.750000000  0.250000000  0.750000000
     0.250000000  0.750000000  0.750000000
     0.750000000  0.750000000  0.750000000
     0.250000000  1.000000000  1.000000000
     0.750000000  1.000000000  1.000000000
     0.250000000  0.500000000  0.000000000
     0.750000000  0.500000000  1.000000000
     0.250000000  0.000000000  0.500000000
     0.750000000  1.000000000  0.500000000
     0.250000000  0.500000000  0.500000000
     0.750000000  0.500000000  0.500000000
     1.000000000  0.250000000  0.000000000
     0.500000000  0.250000000  1.000000000
     1.000000000  0.750000000  0.000000000
     0.500000000  0.750000000  0.000000000
     0.000000000  0.250000000  0.500000000
     0.500000000  0.250000000  0.500000000
     1.000000000  0.750000000  0.500000000
     0.500000000  0.750000000  0.500000000
     0.000000000  0.000000000  0.250000000
     0.500000000  1.000000000  0.250000000
     1.000000000  0.500000000  0.250000000
     0.500000000  0.500000000  0.250000000
     0.000000000  0.000000000  0.750000000
     0.500000000  0.000000000  0.750000000
     0.000000000  0.500000000  0.750000000
     0.500000000  0.500000000  0.750000000
     0.375000000  0.375000000  0.375000000
     0.875000000  0.375000000  0.375000000
     0.375000000  0.875000000  0.375000000
     0.875000000  0.875000000  0.375000000
     0.375000000  0.375000000  0.875000000
     0.875000000  0.375000000  0.875000000
     0.375000000  0.875000000  0.875000000
     0.875000000  0.875000000  0.875000000
     0.375000000  0.125000000  0.125000000
     0.875000000  0.125000000  0.125000000
     0.375000000  0.625000000  0.125000000
     0.875000000  0.625000000  0.125000000
     0.375000000  0.125000000  0.625000000
     0.875000000  0.125000000  0.625000000
     0.375000000  0.625000000  0.625000000
     0.875000000  0.625000000  0.625000000
     0.125000000  0.375000000  0.125000000
     0.625000000  0.375000000  0.125000000
     0.125000000  0.875000000  0.125000000
     0.625000000  0.875000000  0.125000000
     0.125000000  0.375000000  0.625000000
     0.625000000  0.375000000  0.625000000
     0.125000000  0.875000000  0.625000000
     0.625000000  0.875000000  0.625000000
     0.125000000  0.125000000  0.375000000
     0.625000000  0.125000000  0.375000000
     0.125000000  0.625000000  0.375000000
     0.625000000  0.625000000  0.375000000
     0.125000000  0.125000000  0.875000000
     0.625000000  0.125000000  0.875000000
     0.125000000  0.625000000  0.875000000
     0.625000000  0.625000000  0.875000000

  ion indices of the primitive-cell ions
   primitive index   ion index
                 1           1
                 2           2
                 3           3
                 4           4
                 5           5
                 6           6
                 7           7
                 8           8
                 9           9
                10          10
                11          11
                12          12
                13          13
                14          14
                15          15
                16          16
                17          17
                18          18
                19          19
                20          20
                21          21
                22          22
                23          23
                24          24
                25          25
                26          26
                27          27
                28          28
                29          29
                30          30
                31          31
                32          32
                33          33
                34          34
                35          35
                36          36
                37          37
                38          38
                39          39
                40          40
                41          41
                42          42
                43          43
                44          44
                45          45
                46          46
                47          47
                48          48
                49          49
                50          50
                51          51
                52          52
                53          53
                54          54
                55          55
                56          56
                57          57
                58          58
                59          59
                60          60
                61          61
                62          62
                63          63
                64          64

----------------------------------------------------------------------------------------

 
 
 KPOINTS: KPOINTS created by Atomic Simulation Env

Automatic generation of k-mesh.
 Grid dimensions read from file:
 generate k-points for:    2    2    2

 Generating k-lattice:

  Cartesian coordinates                     Fractional coordinates (reciprocal lattice)
     0.046001778  0.000000000 -0.000000000     0.500000000 -0.000000000  0.000000000
     0.000000000  0.046001778 -0.000000000    -0.000000000  0.500000000  0.000000000
     0.000000000 -0.000000000  0.046001778    -0.000000000  0.000000000  0.500000000

  Length of vectors
     0.046001778  0.046001778  0.046001778

  Shift w.r.t. Gamma in fractional coordinates (k-lattice)
     0.000000000  0.000000000  0.000000000

 
 Subroutine IBZKPT returns following result:
 ===========================================
 
 Found      6 irreducible k-points:
 
 Following reciprocal coordinates:
            Coordinates               Weight
  0.000000  0.000000  0.000000      1.000000
  0.500000  0.000000  0.000000      2.000000
  0.000000 -0.000000  0.500000      1.000000
  0.500000  0.500000  0.000000      1.000000
  0.000000  0.500000  0.500000      2.000000
  0.500000  0.500000  0.500000      1.000000
 
 Following cartesian coordinates:
            Coordinates               Weight
  0.000000  0.000000  0.000000      1.000000
  0.046002  0.000000  0.000000      2.000000
  0.000000 -0.000000  0.046002      1.000000
  0.046002  0.046002  0.000000      1.000000
  0.000000  0.046002  0.046002      2.000000
  0.046002  0.046002  0.046002      1.000000
 


--------------------------------------------------------------------------------------------------------




 Dimension of arrays:
   k-points           NKPTS =      6   k-points in BZ     NKDIM =      6   number of bands    NBANDS=    168
   number of dos      NEDOS =    301   number of ions     NIONS =     64
   non local maximal  LDIM  =      4   non local SUM 2l+1 LMDIM =      8
   total plane-waves  NPLWV = 262144
   max r-space proj   IRMAX =      1   max aug-charges    IRDMAX=  54800
   dimension x,y,z NGX =    64 NGY =   64 NGZ =   64
   dimension x,y,z NGXF=   128 NGYF=  128 NGZF=  128
   support grid    NGXF=   256 NGYF=  256 NGZF=  256
   ions per type =              64
   NGX,Y,Z   is equivalent  to a cutoff of   9.79,  9.79,  9.79 a.u.
   NGXF,Y,Z  is equivalent  to a cutoff of  19.58, 19.58, 19.58 a.u.

 SYSTEM =  unknown system                          
 POSCAR =  Si                                      

 Startparameter for this run:
   NWRITE =      2    write-flag & timer
   PREC   = accura    normal or accurate (medium, high low for compatibility)
   ISTART =      0    job   : 0-new  1-cont  2-samecut
   ICHARG =      2    charge: 1-file 2-atom 10-const
   ISPIN  =      1    spin polarized calculation?
   LNONCOLLINEAR =      F non collinear calculations
   LSORBIT =      F    spin-orbit coupling
   INIWAV =      1    electr: 0-lowe 1-rand  2-diag
   LASPH  =      F    aspherical Exc in radial PAW
 Electronic Relaxation 1
   ENCUT  =  318.0 eV  23.37 Ry    4.83 a.u.  15.80 15.80 15.80*2*pi/ulx,y,z
   ENINI  =  318.0     initial cutoff
   ENAUG  =  322.1 eV  augmentation charge cutoff
   NELM   =     60;   NELMIN=  5; NELMDL= -5     # of ELM steps 
   EDIFF  = 0.1E-07   stopping-criterion for ELM
   LREAL  =      F    real-space projection
   NLSPLINE    = F    spline interpolate recip. space projectors
   LCOMPAT=      F    compatible to vasp.4.4
   GGA_COMPAT  = T    GGA compatible to vasp.4.4-vasp.4.6
   LMAXPAW     = -100 max onsite density
   LMAXMIX     =    2 max onsite mixed and CHGCAR
   VOSKOWN=      0    Vosko Wilk Nusair interpolation
   ROPT   =    0.00000
 Ionic relaxation
   EDIFFG = 0.1E-06   stopping-criterion for IOM
   NSW    =      0    number of steps for IOM
   NBLOCK =      1;   KBLOCK =      1    inner block; outer block 
   IBRION =     -1    ionic relax: 0-MD 1-quasi-New 2-CG
   NFREE  =      0    steps in history (QN), initial steepest desc. (CG)
   ISIF   =      2    stress and relaxation
   IWAVPR =     10    prediction:  0-non 1-charg 2-wave 3-comb
   ISYM   =      2    0-nonsym 1-usesym 2-fastsym
   LCORR  =      T    Harris-Foulkes like correction to forces

   POTIM  = 0.5000    time-step for ionic-motion
   TEIN   =    0.0    initial temperature
   TEBEG  =    0.0;   TEEND  =   0.0 temperature during run
   SMASS  =  -3.00    Nose mass-parameter (am)
   estimated Nose-frequenzy (Omega)   =  0.10E-29 period in steps = 0.13E+47 mass=  -0.270E-26a.u.
   SCALEE = 1.0000    scale energy and forces
   NPACO  =    256;   APACO  = 10.0  distance and # of slots for P.C.
   PSTRESS=    0.0 pullay stress

  Mass of Ions in am
   POMASS =  28.09
  Ionic Valenz
   ZVAL   =   4.00
  Atomic Wigner-Seitz radii
   RWIGS  =  -1.00
  virtual crystal weights 
   VCA    =   1.00
   NELECT =     256.0000    total number of electrons
   NUPDOWN=      -1.0000    fix difference up-down

 DOS related values:
   EMIN   =  10.00;   EMAX   =-10.00  energy-range for DOS
   EFERMI =   0.00
   ISMEAR =     0;   SIGMA  =   0.02  broadening in eV -4-tet -1-fermi 0-gaus

 Electronic relaxation 2 (details)
   IALGO  =     38    algorithm
   LDIAG  =      T    sub-space diagonalisation (order eigenvalues)
   LSUBROT=      F    optimize rotation matrix (better conditioning)
   TURBO    =      0    0=normal 1=particle mesh
   IRESTART =      0    0=no restart 2=restart with 2 vectors
   NREBOOT  =      0    no. of reboots
   NMIN     =      0    reboot dimension
   EREF     =   0.00    reference energy to select bands
   IMIX   =      4    mixing-type and parameters
     AMIX     =   0.40;   BMIX     =  1.00
     AMIX_MAG =   1.60;   BMIX_MAG =  1.00
     AMIN     =   0.10
     WC   =   100.;   INIMIX=   1;  MIXPRE=   1;  MAXMIX= -45

 Intra band minimization:
   WEIMIN = 0.0000     energy-eigenvalue tresh-hold
   EBREAK =  0.15E-10  absolut break condition
   DEPER  =   0.30     relativ break condition  

   TIME   =   0.40     timestep for ELM

  volume/ion in A,a.u.               =      20.06       135.40
  Fermi-wavevector in a.u.,A,eV,Ry     =   0.956370  1.807278 12.444490  0.914644
  Thomas-Fermi vector in A             =   2.085292
 
 Write flags
   LWAVE        =      F    write WAVECAR
   LDOWNSAMPLE  =      F    k-point downsampling of WAVECAR
   LCHARG       =      F    write CHGCAR
   LVTOT        =      F    write LOCPOT, total local potential
   LVHAR        =      F    write LOCPOT, Hartree potential only
   LELF         =      F    write electronic localiz. function (ELF)
   LORBIT       =      0    0 simple, 1 ext, 2 COOP (PROOUT), +10 PAW based schemes


 Dipole corrections
   LMONO  =      F    monopole corrections only (constant potential shift)
   LDIPOL =      F    correct potential (dipole corrections)
   IDIPOL =      0    1-x, 2-y, 3-z, 4-all directions 
   EPSILON=  1.0000000 bulk dielectric constant

 Exchange correlation treatment:
   GGA     =    PS    GGA type
   LEXCH   =    14    internal setting for exchange type
   LIBXC   =     F    Libxc                    
   VOSKOWN =     0    Vosko Wilk Nusair interpolation
   LHFCALC =     F    Hartree Fock is set to
   LHFONE  =     F    Hartree Fock one center treatment
   AEXX    =    0.0000 exact exchange contribution

 Linear response parameters
   LEPSILON=     F    determine dielectric tensor
   LRPA    =     F    only Hartree local field effects (RPA)
   LNABLA  =     F    use nabla operator in PAW spheres
   LVEL    =     F    velocity operator in full k-point grid
   CSHIFT  =0.1000    complex shift for real part using Kramers Kronig
   OMEGAMAX=  -1.0    maximum frequency
   DEG_THRESHOLD= 0.2000000E-02 threshold for treating states as degnerate
   RTIME   =   -0.100 relaxation time in fs
  (WPLASMAI=    0.000 imaginary part of plasma frequency in eV, 0.658/RTIME)
   DFIELD  = 0.0000000 0.0000000 0.0000000 field for delta impulse in time
 
  Optional k-point grid parameters
   LKPOINTS_OPT  =     F    use optional k-point grid
   KPOINTS_OPT_MODE=     1    mode for optional k-point grid
 
 Orbital magnetization related:
   ORBITALMAG=     F  switch on orbital magnetization
   LCHIMAG   =     F  perturbation theory with respect to B field
   DQ        =  0.001000  dq finite difference perturbation B field
   LLRAUG    =     F  two centre corrections for induced B field



--------------------------------------------------------------------------------------------------------


 Static calculation
 charge density and potential will be updated during run
 non-spin polarized calculation
 Variant of blocked Davidson
 Davidson routine will perform the subspace rotation
 perform sub-space diagonalisation
    after iterative eigenvector-optimisation
 modified Broyden-mixing scheme, WC =      100.0
 initial mixing is a Kerker type mixing with AMIX =  0.4000 and BMIX =      1.0000
 Hartree-type preconditioning will be used
 using additional bands           40
 reciprocal scheme for non local part
 use partial core corrections
 calculate Harris-corrections to forces 
   (improved forces if not selfconsistent)
 use gradient corrections 
 use of overlap-Matrix (Vanderbilt PP)
 Gauss-broadening in eV      SIGMA  =   0.02


--------------------------------------------------------------------------------------------------------


  energy-cutoff  :      318.00
  volume of cell :     1284.06
      direct lattice vectors                 reciprocal lattice vectors
    10.869145120 -0.000000000 -0.000000000     0.092003556  0.000000000 -0.000000000
    -0.000000000 10.869145120  0.000000000     0.000000000  0.092003556 -0.000000000
     0.000000000  0.000000000 10.869145120     0.000000000 -0.000000000  0.092003556

  length of vectors
    10.869145120 10.869145120 10.869145120     0.092003556  0.092003556  0.092003556


 
 k-points in units of 2pi/SCALE and weight: KPOINTS created by Atomic Simulation Env
   0.00000000  0.00000000  0.00000000       0.125
   0.04600178  0.00000000  0.00000000       0.250
   0.00000000 -0.00000000  0.04600178       0.125
   0.04600178  0.04600178  0.00000000       0.125
   0.00000000  0.04600178  0.04600178       0.250
   0.04600178  0.04600178  0.04600178       0.125
 
 k-points in reciprocal lattice and weights: KPOINTS created by Atomic Simulation Env
   0.00000000  0.00000000  0.00000000       0.125
   0.50000000  0.00000000  0.00000000       0.250
   0.00000000 -0.00000000  0.50000000       0.125
   0.50000000  0.50000000  0.00000000       0.125
   0.00000000  0.50000000  0.50000000       0.250
   0.50000000  0.50000000  0.50000000       0.125
 
 position of ions in fractional coordinates (direct lattice) 
   0.25092004  0.25092004  0.25000000
   0.75000000  0.25000000  0.25000000
   0.25000000  0.75000000  0.25000000
   0.75000000  0.75000000  0.25000000
   0.25000000  0.25000000  0.75000000
   0.75000000  0.25000000  0.75000000
   0.25000000  0.75000000  0.75000000
   0.75000000  0.75000000  0.75000000
   0.25000000  0.00000000  0.00000000
   0.75000000  0.00000000  0.00000000
   0.25000000  0.50000000  0.00000000
   0.75000000  0.50000000  0.00000000
   0.25000000  0.00000000  0.50000000
   0.75000000  0.00000000  0.50000000
   0.25000000  0.50000000  0.50000000
   0.75000000  0.50000000  0.50000000
   0.00000000  0.25000000  0.00000000
   0.50000000  0.25000000  0.00000000
   0.00000000  0.75000000  0.00000000
   0.50000000  0.75000000  0.00000000
   0.00000000  0.25000000  0.50000000
   0.50000000  0.25000000  0.50000000
   0.00000000  0.75000000  0.50000000
   0.50000000  0.75000000  0.50000000
   0.00000000  0.00000000  0.25000000
   0.50000000  0.00000000  0.25000000
   0.00000000  0.50000000  0.25000000
   0.50000000  0.50000000  0.25000000
   0.00000000  0.00000000  0.75000000
   0.50000000  0.00000000  0.75000000
   0.00000000  0.50000000  0.75000000
   0.50000000  0.50000000  0.75000000
   0.37500000  0.37500000  0.37500000
   0.87500000  0.37500000  0.37500000
   0.37500000  0.87500000  0.37500000
   0.87500000  0.87500000  0.37500000
   0.37500000  0.37500000  0.87500000
   0.87500000  0.37500000  0.87500000
   0.37500000  0.87500000  0.87500000
   0.87500000  0.87500000  0.87500000
   0.37500000  0.12500000  0.12500000
   0.87500000  0.12500000  0.12500000
   0.37500000  0.62500000  0.12500000
   0.87500000  0.62500000  0.12500000
   0.37500000  0.12500000  0.62500000
   0.87500000  0.12500000  0.62500000
   0.37500000  0.62500000  0.62500000
   0.87500000  0.62500000  0.62500000
   0.12500000  0.37500000  0.12500000
   0.62500000  0.37500000  0.12500000
   0.12500000  0.87500000  0.12500000
   0.62500000  0.87500000  0.12500000
   0.12500000  0.37500000  0.62500000
   0.62500000  0.37500000  0.62500000
   0.12500000  0.87500000  0.62500000
   0.62500000  0.87500000  0.62500000
   0.12500000  0.12500000  0.37500000
   0.62500000  0.12500000  0.37500000
   0.12500000  0.62500000  0.37500000
   0.62500000  0.62500000  0.37500000
   0.12500000  0.12500000  0.87500000
   0.62500000  0.12500000  0.87500000
   0.12500000  0.62500000  0.87500000
   0.62500000  0.62500000  0.87500000
 
 position of ions in cartesian coordinates  (Angst):
   2.72728628  2.72728628  2.71728628
   8.15185884  2.71728628  2.71728628
   2.71728628  8.15185884  2.71728628
   8.15185884  8.15185884  2.71728628
   2.71728628  2.71728628  8.15185884
   8.15185884  2.71728628  8.15185884
   2.71728628  8.15185884  8.15185884
   8.15185884  8.15185884  8.15185884
   2.71728628 -0.00000000 -0.00000000
   8.15185884 -0.00000000 -0.00000000
   2.71728628  5.43457256  0.00000000
   8.15185884  5.43457256 -0.00000000
   2.71728628  0.00000000  5.43457256
   8.15185884 -0.00000000  5.43457256
   2.71728628  5.43457256  5.43457256
   8.15185884  5.43457256  5.43457256
  -0.00000000  2.71728628  0.00000000
   5.43457256  2.71728628 -0.00000000
  -0.00000000  8.15185884  0.00000000
   5.43457256  8.15185884  0.00000000
   0.00000000  2.71728628  5.43457256
   5.43457256  2.71728628  5.43457256
  -0.00000000  8.15185884  5.43457256
   5.43457256  8.15185884  5.43457256
   0.00000000  0.00000000  2.71728628
   5.43457256 -0.00000000  2.71728628
  -0.00000000  5.43457256  2.71728628
   5.43457256  5.43457256  2.71728628
   0.00000000  0.00000000  8.15185884
   5.43457256  0.00000000  8.15185884
   0.00000000  5.43457256  8.15185884
   5.43457256  5.43457256  8.15185884
   4.07592942  4.07592942  4.07592942
   9.51050198  4.07592942  4.07592942
   4.07592942  9.51050198  4.07592942
   9.51050198  9.51050198  4.07592942
   4.07592942  4.07592942  9.51050198
   9.51050198  4.07592942  9.51050198
   4.07592942  9.51050198  9.51050198
   9.51050198  9.51050198  9.51050198
   4.07592942  1.35864314  1.35864314
   9.51050198  1.35864314  1.35864314
   4.07592942  6.79321570  1.35864314
   9.51050198  6.79321570  1.35864314
   4.07592942  1.35864314  6.79321570
   9.51050198  1.35864314  6.79321570
   4.07592942  6.79321570  6.79321570
   9.51050198  6.79321570  6.79321570
   1.35864314  4.07592942  1.35864314
   6.79321570  4.07592942  1.35864314
   1.35864314  9.51050198  1.35864314
   6.79321570  9.51050198  1.35864314
   1.35864314  4.07592942  6.79321570
   6.79321570  4.07592942  6.79321570
   1.35864314  9.51050198  6.79321570
   6.79321570  9.51050198  6.79321570
   1.35864314  1.35864314  4.07592942
   6.79321570  1.35864314  4.07592942
   1.35864314  6.79321570  4.07592942
   6.79321570  6.79321570  4.07592942
   1.35864314  1.35864314  9.51050198
   6.79321570  1.35864314  9.51050198
   1.35864314  6.79321570  9.51050198
   6.79321570  6.79321570  9.51050198
 


--------------------------------------------------------------------------------------------------------


 k-point   1 :   0.0000 0.0000 0.0000  plane waves:   16519
 k-point   2 :   0.5000 0.0000 0.0000  plane waves:   16488
 k-point   3 :   0.0000-0.0000 0.5000  plane waves:   16488
 k-point   4 :   0.5000 0.5000 0.0000  plane waves:   16588
 k-point   5 :   0.0000 0.5000 0.5000  plane waves:   16588
 k-point   6 :   0.5000 0.5000 0.5000  plane waves:   16560

 maximum and minimum number of plane-waves per node :      4165     4107

 maximum number of plane-waves:     16588
 maximum index in each direction: 
   IXMAX=   15   IYMAX=   15   IZMAX=   15
   IXMIN=  -16   IYMIN=  -16   IZMIN=  -16


 parallel 3D FFT for wavefunctions:
    minimum data exchange during FFTs selected (reduces bandwidth)
 parallel 3D FFT for charge:
    minimum data exchange during FFTs selected (reduces bandwidth)


 total amount of memory used by VASP MPI-rank0    61966. kBytes
=======================================================================

   base      :      30000. kBytes
   nonl-proj :       5868. kBytes
   fftplans  :      11573. kBytes
   grid      :       5816. kBytes
   one-center:         49. kBytes
   wavefun   :       8660. kBytes
 
     INWAV:  cpu time      0.0000: real time      0.0000
 Broyden mixing: mesh for mixing (old mesh)
   NGX = 31   NGY = 31   NGZ = 31
  (NGX  =128   NGY  =128   NGZ  =128)
  gives a total of  29791 points

 initial charge density was supplied:
 charge density of overlapping atoms calculated
 number of electron     256.0000000 magnetization 
 keeping initial charge density in first step


--------------------------------------------------------------------------------------------------------


 Maximum index for augmentation-charges         1707 (set IRDMAX)


--------------------------------------------------------------------------------------------------------


 First call to EWALD:  gamma=   0.163
 Maximum number of real-space cells 3x 3x 3
 Maximum number of reciprocal cells 3x 3x 3

    FEWALD:  cpu time      0.0016: real time      0.0016


--------------------------------------- Iteration      1(   1)  ---------------------------------------


    POTLOK:  cpu time      0.0232: real time      0.0234
    SETDIJ:  cpu time      0.0229: real time      0.0230
     EDDAV:  cpu time      1.6768: real time      1.6881
       DOS:  cpu time      0.0005: real time      0.0005
    --------------------------------------------
      LOOP:  cpu time      1.7233: real time      1.7350

 eigenvalue-minimisations  :  2016
 total energy-change (2. order) : 0.4564483E+03  (-0.7270900E+04)
 number of electron     256.0000000 magnetization 
 augmentation part      256.0000000 magnetization 

 Free energy of the ion-electron system (eV)
  ---------------------------------------------------
  alpha Z        PSCENC =       107.38120932
  Ewald energy   TEWEN  =     -7307.87536780
  -Hartree energ DENC   =      -353.25092965
  -exchange      EXHF   =         0.00000000
  -V(xc)+E(xc)   XCENC  =      -558.85370838
  PAW double counting   =      5598.62625415    -4492.17844134
  entropy T*S    EENTRO =        -0.00387156
  eigenvalues    EBANDS =       897.83613591
  atomic energy  EATOM  =      6564.76702419
  Solvation  Ediel_sol  =         0.00000000
  ---------------------------------------------------
  free energy    TOTEN  =       456.44830484 eV

  energy without entropy =      456.45217640  energy(sigma->0) =      456.45024062


--------------------------------------------------------------------------------------------------------




--------------------------------------- Iteration      1(   2)  ---------------------------------------


     EDDAV:  cpu time      1.9239: real time      1.9357
       DOS:  cpu time      0.0006: real time      0.0006
    --------------------------------------------
      LOOP:  cpu time      1.9245: real time      1.9364

 eigenvalue-minimisations  :  2416
 total energy-change (2. order) :-0.7778232E+03  (-0.7342188E+03)
 number of electron     256.0000000 magnetization 
 augmentation part      256.0000000 magnetization 

 Free energy of the ion-electron system (eV)
  ---------------------------------------------------
  alpha Z        PSCENC =       107.38120932
  Ewald energy   TEWEN  =     -7307.87536780
  -Hartree energ DENC   =      -353.25092965
  -exchange      EXHF   =         0.00000000
  -V(xc)+E(xc)   XCENC  =      -558.85370838
  PAW double counting   =      5598.62625415    -4492.17844134
  entropy T*S    EENTRO =        -0.00000000
  eigenvalues    EBANDS =       120.00902950
  atomic energy  EATOM  =      6564.76702419
  Solvation  Ediel_sol  =         0.00000000
  ---------------------------------------------------
  free energy    TOTEN  =      -321.37493001 eV

  energy without entropy =     -321.37493001  energy(sigma->0) =     -321.37493001


--------------------------------------------------------------------------------------------------------




--------------------------------------- Iteration      1(   3)  ---------------------------------------


     EDDAV:  cpu time      1.9547: real time      1.9661
       DOS:  cpu time      0.0002: real time      0.0002
    --------------------------------------------
      LOOP:  cpu time      1.9549: real time      1.9663

 eigenvalue-minimisations  :  2472
 total energy-change (2. order) :-0.5204798E+02  (-0.5123208E+02)
 number of electron     256.0000000 magnetization 
 augmentation part      256.0000000 magnetization 

 Free energy of the ion-electron system (eV)
  ---------------------------------------------------
  alpha Z        PSCENC =       107.38120932
  Ewald energy   TEWEN  =     -7307.87536780
  -Hartree energ DENC   =      -353.25092965
  -exchange      EXHF   =         0.00000000
  -V(xc)+E(xc)   XCENC  =      -558.85370838
  PAW double counting   =      5598.62625415    -4492.17844134
  entropy T*S    EENTRO =        -0.00000000
  eigenvalues    EBANDS =        67.96104820
  atomic energy  EATOM  =      6564.76702419
  Solvation  Ediel_sol  =         0.00000000
  ---------------------------------------------------
  free energy    TOTEN  =      -373.42291131 eV

  energy without entropy =     -373.42291131  energy(sigma->0) =     -373.42291131


--------------------------------------------------------------------------------------------------------




--------------------------------------- Iteration      1(   4)  ---------------------------------------


     EDDAV:  cpu time      1.9127: real time      1.9237
       DOS:  cpu time      0.0002: real time      0.0002
    --------------------------------------------
      LOOP:  cpu time      1.9129: real time      1.9239

 eigenvalue-minimisations  :  2408
 total energy-change (2. order) :-0.1176169E+01  (-0.1167485E+01)
 number of electron     256.0000000 magnetization 
 augmentation part      256.0000000 magnetization 

 Free energy of the ion-electron system (eV)
  ---------------------------------------------------
  alpha Z        PSCENC =       107.38120932
  Ewald energy   TEWEN  =     -7307.87536780
  -Hartree energ DENC   =      -353.25092965
  -exchange      EXHF   =         0.00000000
  -V(xc)+E(xc)   XCENC  =      -558.85370838
  PAW double counting   =      5598.62625415    -4492.17844134
  entropy T*S    EENTRO =        -0.00000000
  eigenvalues    EBANDS =        66.78487969
  atomic energy  EATOM  =      6564.76702419
  Solvation  Ediel_sol  =         0.00000000
  ---------------------------------------------------
  free energy    TOTEN  =      -374.59907983 eV

  energy without entropy =     -374.59907983  energy(sigma->0) =     -374.59907983


--------------------------------------------------------------------------------------------------------




--------------------------------------- Iteration      1(   5)  ---------------------------------------


     EDDAV:  cpu time      1.8952: real time      1.9060
       DOS:  cpu time      0.0002: real time      0.0002
    CHARGE:  cpu time      0.0803: real time      0.0810
    MIXING:  cpu time      0.0014: real time      0.0014
    --------------------------------------------
      LOOP:  cpu time      1.9771: real time      1.9886

 eigenvalue-minimisations  :  2376
 total energy-change (2. order) :-0.4158227E-01  (-0.4152575E-01)
 number of electron     255.9999994 magnetization 
 augmentation part      -14.9588876 magnetization 

 Broyden mixing:
  rms(total) = 0.28467E+01    rms(broyden)= 0.28466E+01
  rms(prec ) = 0.31322E+01
  weight for this iteration     100.00

 Free energy of the ion-electron system (eV)
  ---------------------------------------------------
  alpha Z        PSCENC =       107.38120932
  Ewald energy   TEWEN  =     -7307.87536780
  -Hartree energ DENC   =      -353.25092965
  -exchange      EXHF   =         0.00000000
  -V(xc)+E(xc)   XCENC  =      -558.85370838
  PAW double counting   =      5598.62625415    -4492.17844134
  entropy T*S    EENTRO =        -0.00000000
  eigenvalues    EBANDS =        66.74329741
  atomic energy  EATOM  =      6564.76702419
  Solvation  Ediel_sol  =         0.00000000
  ---------------------------------------------------
  free energy    TOTEN  =      -374.64066210 eV

  energy without entropy =     -374.64066210  energy(sigma->0) =     -374.64066210


--------------------------------------------------------------------------------------------------------




--------------------------------------- Iteration      1(   6)  ---------------------------------------


    POTLOK:  cpu time      0.0225: real time      0.0227
    SETDIJ:  cpu time      0.0219: real time      0.0220
     EDDAV:  cpu time      1.8285: real time      1.8390
       DOS:  cpu time      0.0005: real time      0.0005
    CHARGE:  cpu time      0.0786: real time      0.0790
    MIXING:  cpu time      0.0016: real time      0.0016
    --------------------------------------------
      LOOP:  cpu time      1.9537: real time      1.9648

 eigenvalue-minimisations  :  2272
 total energy-change (2. order) : 0.4918923E+01  (-0.2589781E+00)
 number of electron     255.9999994 magnetization 
 augmentation part      -14.7997268 magnetization 

 Broyden mixing:
  rms(total) = 0.17162E+01    rms(broyden)= 0.17162E+01
  rms(prec ) = 0.18754E+01
  weight for this iteration     100.00

 eigenvalues of (default mixing * dielectric matrix)
  average eigenvalue GAMMA=   2.5108
  2.5108

 Free energy of the ion-electron system (eV)
  ---------------------------------------------------
  alpha Z        PSCENC =       107.38120932
  Ewald energy   TEWEN  =     -7307.87536780
  -Hartree energ DENC   =      -399.23322907
  -exchange      EXHF   =         0.00000000
  -V(xc)+E(xc)   XCENC  =      -551.57565461
  PAW double counting   =     12483.32944184   -11380.12700263
  entropy T*S    EENTRO =        -0.00000000
  eigenvalues    EBANDS =       113.61184003
  atomic energy  EATOM  =      6564.76702419
  Solvation  Ediel_sol  =         0.00000000
  ---------------------------------------------------
  free energy    TOTEN  =      -369.72173872 eV

  energy without entropy =     -369.72173872  energy(sigma->0) =     -369.72173872


--------------------------------------------------------------------------------------------------------




--------------------------------------- Iteration      1(   7)  ---------------------------------------


    POTLOK:  cpu time      0.0220: real time      0.0222
    SETDIJ:  cpu time      0.0221: real time      0.0225
     EDDAV:  cpu time      1.8230: real time      1.8333
       DOS:  cpu time      0.0002: real time      0.0002
    CHARGE:  cpu time      0.0792: real time      0.0796
    MIXING:  cpu time      0.0013: real time      0.0013
    --------------------------------------------
      LOOP:  cpu time      1.9479: real time      1.9592

 eigenvalue-minimisations  :  2264
 total energy-change (2. order) : 0.2231409E+01  (-0.5239106E+00)
 number of electron     255.9999994 magnetization 
 augmentation part      -14.5985621 magnetization 

 Broyden mixing:
  rms(total) = 0.99610E-01    rms(broyden)= 0.99610E-01
  rms(prec ) = 0.12385E+00
  weight for this iteration     100.00

 eigenvalues of (default mixing * dielectric matrix)
  average eigenvalue GAMMA=   2.2520
  2.2520  2.2520

 Free energy of the ion-electron system (eV)
  ---------------------------------------------------
  alpha Z        PSCENC =       107.38120932
  Ewald energy   TEWEN  =     -7307.87536780
  -Hartree energ DENC   =      -473.64620983
  -exchange      EXHF   =         0.00000000
  -V(xc)+E(xc)   XCENC  =      -539.13803557
  PAW double counting   =     29120.70554343   -28021.87489068
  entropy T*S    EENTRO =        -0.00000000
  eigenvalues    EBANDS =       182.19039733
  atomic energy  EATOM  =      6564.76702419
  Solvation  Ediel_sol  =         0.00000000
  ---------------------------------------------------
  free energy    TOTEN  =      -367.49032962 eV

  energy without entropy =     -367.49032962  energy(sigma->0) =     -367.49032962


--------------------------------------------------------------------------------------------------------




--------------------------------------- Iteration      1(   8)  ---------------------------------------


    POTLOK:  cpu time      0.0213: real time      0.0215
    SETDIJ:  cpu time      0.0223: real time      0.0225
     EDDAV:  cpu time      1.8415: real time      1.8521
       DOS:  cpu time      0.0002: real time      0.0002
    CHARGE:  cpu time      0.0809: real time      0.0813
    MIXING:  cpu time      0.0014: real time      0.0014
    --------------------------------------------
      LOOP:  cpu time      1.9677: real time      1.9790

 eigenvalue-minimisations  :  2288
 total energy-change (2. order) :-0.7181737E-02  (-0.2830105E-01)
 number of electron     255.9999994 magnetization 
 augmentation part      -14.6403752 magnetization 

 Broyden mixing:
  rms(total) = 0.35166E-01    rms(broyden)= 0.35165E-01
  rms(prec ) = 0.40504E-01
  weight for this iteration     100.00

 eigenvalues of (default mixing * dielectric matrix)
  average eigenvalue GAMMA=   2.4177
  2.7963  2.2284  2.2284

 Free energy of the ion-electron system (eV)
  ---------------------------------------------------
  alpha Z        PSCENC =       107.38120932
  Ewald energy   TEWEN  =     -7307.87536780
  -Hartree energ DENC   =      -466.68558918
  -exchange      EXHF   =         0.00000000
  -V(xc)+E(xc)   XCENC  =      -539.74280909
  PAW double counting   =     28623.56026515   -27523.92867567
  entropy T*S    EENTRO =        -0.00000000
  eigenvalues    EBANDS =       175.02643172
  atomic energy  EATOM  =      6564.76702419
  Solvation  Ediel_sol  =         0.00000000
  ---------------------------------------------------
  free energy    TOTEN  =      -367.49751135 eV

  energy without entropy =     -367.49751135  energy(sigma->0) =     -367.49751135


--------------------------------------------------------------------------------------------------------




--------------------------------------- Iteration      1(   9)  ---------------------------------------


    POTLOK:  cpu time      0.0218: real time      0.0220
    SETDIJ:  cpu time      0.0223: real time      0.0224
     EDDAV:  cpu time      1.9576: real time      1.9689
       DOS:  cpu time      0.0002: real time      0.0002
    CHARGE:  cpu time      0.0802: real time      0.0808
    MIXING:  cpu time      0.0011: real time      0.0011
    --------------------------------------------
      LOOP:  cpu time      2.0831: real time      2.0954

 eigenvalue-minimisations  :  2488
 total energy-change (2. order) :-0.1458507E-02  (-0.7258460E-03)
 number of electron     255.9999994 magnetization 
 augmentation part      -14.6409310 magnetization 

 Broyden mixing:
  rms(total) = 0.30928E-01    rms(broyden)= 0.30928E-01
  rms(prec ) = 0.32048E-01
  weight for this iteration     100.00

 eigenvalues of (default mixing * dielectric matrix)
  average eigenvalue GAMMA=   2.3594
  3.8104  2.3894  2.3894  0.8483

 Free energy of the ion-electron system (eV)
  ---------------------------------------------------
  alpha Z        PSCENC =       107.38120932
  Ewald energy   TEWEN  =     -7307.87536780
  -Hartree energ DENC   =      -468.64261089
  -exchange      EXHF   =         0.00000000
  -V(xc)+E(xc)   XCENC  =      -539.41468993
  PAW double counting   =     28767.45788198   -27667.93165738
  entropy T*S    EENTRO =        -0.00000000
  eigenvalues    EBANDS =       176.75924065
  atomic energy  EATOM  =      6564.76702419
  Solvation  Ediel_sol  =         0.00000000
  ---------------------------------------------------
  free energy    TOTEN  =      -367.49896986 eV

  energy without entropy =     -367.49896986  energy(sigma->0) =     -367.49896986


--------------------------------------------------------------------------------------------------------




--------------------------------------- Iteration      1(  10)  ---------------------------------------


    POTLOK:  cpu time      0.0212: real time      0.0214
    SETDIJ:  cpu time      0.0223: real time      0.0224
     EDDAV:  cpu time      1.8087: real time      1.8188
       DOS:  cpu time      0.0002: real time      0.0002
    CHARGE:  cpu time      0.0791: real time      0.0794
    MIXING:  cpu time      0.0016: real time      0.0016
    --------------------------------------------
      LOOP:  cpu time      1.9330: real time      1.9438

 eigenvalue-minimisations  :  2240
 total energy-change (2. order) :-0.8605436E-03  (-0.2102312E-03)
 number of electron     255.9999994 magnetization 
 augmentation part      -14.6429295 magnetization 

 Broyden mixing:
  rms(total) = 0.22768E-01    rms(broyden)= 0.22768E-01
  rms(prec ) = 0.22885E-01
  weight for this iteration     100.00

 eigenvalues of (default mixing * dielectric matrix)
  average eigenvalue GAMMA=   1.8665
  2.8602  2.2496  2.2496  0.9866  0.9866

 Free energy of the ion-electron system (eV)
  ---------------------------------------------------
  alpha Z        PSCENC =       107.38120932
  Ewald energy   TEWEN  =     -7307.87536780
  -Hartree energ DENC   =      -468.88166937
  -exchange      EXHF   =         0.00000000
  -V(xc)+E(xc)   XCENC  =      -539.33996382
  PAW double counting   =     28255.22313641   -27155.66541554
  entropy T*S    EENTRO =        -0.00000000
  eigenvalues    EBANDS =       176.89121621
  atomic energy  EATOM  =      6564.76702419
  Solvation  Ediel_sol  =         0.00000000
  ---------------------------------------------------
  free energy    TOTEN  =      -367.49983040 eV

  energy without entropy =     -367.49983040  energy(sigma->0) =     -367.49983040


--------------------------------------------------------------------------------------------------------




--------------------------------------- Iteration      1(  11)  ---------------------------------------


    POTLOK:  cpu time      0.0215: real time      0.0217
    SETDIJ:  cpu time      0.0224: real time      0.0225
     EDDAV:  cpu time      1.8768: real time      1.8877
       DOS:  cpu time      0.0002: real time      0.0002
    CHARGE:  cpu time      0.0777: real time      0.0781
    MIXING:  cpu time      0.0030: real time      0.0030
    --------------------------------------------
      LOOP:  cpu time      2.0016: real time      2.0133

 eigenvalue-minimisations  :  2336
 total energy-change (2. order) :-0.3769704E-04  (-0.8839710E-05)
 number of electron     255.9999994 magnetization 
 augmentation part      -14.6438072 magnetization 

 Broyden mixing:
  rms(total) = 0.90180E-03    rms(broyden)= 0.90178E-03
  rms(prec ) = 0.99536E-03
  weight for this iteration     100.00

 eigenvalues of (default mixing * dielectric matrix)
  average eigenvalue GAMMA=   1.7502
  2.8880  2.2554  2.2554  1.1724  1.1724  0.7578

 Free energy of the ion-electron system (eV)
  ---------------------------------------------------
  alpha Z        PSCENC =       107.38120932
  Ewald energy   TEWEN  =     -7307.87536780
  -Hartree energ DENC   =      -468.75128326
  -exchange      EXHF   =         0.00000000
  -V(xc)+E(xc)   XCENC  =      -539.35262982
  PAW double counting   =     28480.09353069   -27380.52372045
  entropy T*S    EENTRO =        -0.00000000
  eigenvalues    EBANDS =       176.76136903
  atomic energy  EATOM  =      6564.76702419
  Solvation  Ediel_sol  =         0.00000000
  ---------------------------------------------------
  free energy    TOTEN  =      -367.49986810 eV

  energy without entropy =     -367.49986810  energy(sigma->0) =     -367.49986810


--------------------------------------------------------------------------------------------------------




--------------------------------------- Iteration      1(  12)  ---------------------------------------


    POTLOK:  cpu time      0.0211: real time      0.0212
    SETDIJ:  cpu time      0.0219: real time      0.0223
     EDDAV:  cpu time      1.9166: real time      1.9275
       DOS:  cpu time      0.0002: real time      0.0002
    CHARGE:  cpu time      0.0775: real time      0.0781
    MIXING:  cpu time      0.0029: real time      0.0029
    --------------------------------------------
      LOOP:  cpu time      2.0402: real time      2.0523

 eigenvalue-minimisations  :  2408
 total energy-change (2. order) :-0.2301074E-05  (-0.3289660E-06)
 number of electron     255.9999994 magnetization 
 augmentation part      -14.6436963 magnetization 

 Broyden mixing:
  rms(total) = 0.82451E-03    rms(broyden)= 0.82451E-03
  rms(prec ) = 0.85459E-03
  weight for this iteration     100.00

 eigenvalues of (default mixing * dielectric matrix)
  average eigenvalue GAMMA=   1.8549
  3.0083  2.5023  2.5023  2.1923  0.9866  0.8962  0.8962

 Free energy of the ion-electron system (eV)
  ---------------------------------------------------
  alpha Z        PSCENC =       107.38120932
  Ewald energy   TEWEN  =     -7307.87536780
  -Hartree energ DENC   =      -468.78303307
  -exchange      EXHF   =         0.00000000
  -V(xc)+E(xc)   XCENC  =      -539.35102828
  PAW double counting   =     28481.81426450   -27382.24363365
  entropy T*S    EENTRO =        -0.00000000
  eigenvalues    EBANDS =       176.79069440
  atomic energy  EATOM  =      6564.76702419
  Solvation  Ediel_sol  =         0.00000000
  ---------------------------------------------------
  free energy    TOTEN  =      -367.49987040 eV

  energy without entropy =     -367.49987040  energy(sigma->0) =     -367.49987040


--------------------------------------------------------------------------------------------------------




--------------------------------------- Iteration      1(  13)  ---------------------------------------


    POTLOK:  cpu time      0.0215: real time      0.0216
    SETDIJ:  cpu time      0.0224: real time      0.0226
     EDDAV:  cpu time      1.8340: real time      1.8443
       DOS:  cpu time      0.0002: real time      0.0002
    CHARGE:  cpu time      0.0776: real time      0.0779
    MIXING:  cpu time      0.0034: real time      0.0034
    --------------------------------------------
      LOOP:  cpu time      1.9591: real time      1.9701

 eigenvalue-minimisations  :  2272
 total energy-change (2. order) : 0.9959622E-06  (-0.8557864E-07)
 number of electron     255.9999994 magnetization 
 augmentation part      -14.6436555 magnetization 

 Broyden mixing:
  rms(total) = 0.20100E-03    rms(broyden)= 0.20100E-03
  rms(prec ) = 0.20733E-03
  weight for this iteration     100.00

 eigenvalues of (default mixing * dielectric matrix)
  average eigenvalue GAMMA=   1.7736
  3.0658  2.6298  2.3355  2.2400  0.9519  0.9519  1.0070  1.0070

 Free energy of the ion-electron system (eV)
  ---------------------------------------------------
  alpha Z        PSCENC =       107.38120932
  Ewald energy   TEWEN  =     -7307.87536780
  -Hartree energ DENC   =      -468.78688120
  -exchange      EXHF   =         0.00000000
  -V(xc)+E(xc)   XCENC  =      -539.35328531
  PAW double counting   =     28476.62007874   -27377.04699651
  entropy T*S    EENTRO =        -0.00000000
  eigenvalues    EBANDS =       176.79434917
  atomic energy  EATOM  =      6564.76702419
  Solvation  Ediel_sol  =         0.00000000
  ---------------------------------------------------
  free energy    TOTEN  =      -367.49986940 eV

  energy without entropy =     -367.49986940  energy(sigma->0) =     -367.49986940


--------------------------------------------------------------------------------------------------------




--------------------------------------- Iteration      1(  14)  ---------------------------------------


    POTLOK:  cpu time      0.0214: real time      0.0218
    SETDIJ:  cpu time      0.0220: real time      0.0221
     EDDAV:  cpu time      1.6209: real time      1.6302
       DOS:  cpu time      0.0002: real time      0.0002
    CHARGE:  cpu time      0.0788: real time      0.0792
    MIXING:  cpu time      0.0034: real time      0.0035
    --------------------------------------------
      LOOP:  cpu time      1.7467: real time      1.7569

 eigenvalue-minimisations  :  1912
 total energy-change (2. order) : 0.1664075E-06  (-0.2812163E-08)
 number of electron     255.9999994 magnetization 
 augmentation part      -14.6436499 magnetization 

 Broyden mixing:
  rms(total) = 0.49123E-04    rms(broyden)= 0.49122E-04
  rms(prec ) = 0.51567E-04
  weight for this iteration     100.00

 eigenvalues of (default mixing * dielectric matrix)
  average eigenvalue GAMMA=   1.7987
  3.0741  2.4999  2.4999  2.1717  1.9471  1.1793  0.9781  0.9191  0.9191

 Free energy of the ion-electron system (eV)
  ---------------------------------------------------
  alpha Z        PSCENC =       107.38120932
  Ewald energy   TEWEN  =     -7307.87536780
  -Hartree energ DENC   =      -468.78656374
  -exchange      EXHF   =         0.00000000
  -V(xc)+E(xc)   XCENC  =      -539.35373829
  PAW double counting   =     28475.04600700   -27375.47271479
  entropy T*S    EENTRO =        -0.00000000
  eigenvalues    EBANDS =       176.79427488
  atomic energy  EATOM  =      6564.76702419
  Solvation  Ediel_sol  =         0.00000000
  ---------------------------------------------------
  free energy    TOTEN  =      -367.49986924 eV

  energy without entropy =     -367.49986924  energy(sigma->0) =     -367.49986924


--------------------------------------------------------------------------------------------------------




--------------------------------------- Iteration      1(  15)  ---------------------------------------


    POTLOK:  cpu time      0.0211: real time      0.0213
    SETDIJ:  cpu time      0.0222: real time      0.0223
     EDDAV:  cpu time      1.2960: real time      1.3039
       DOS:  cpu time      0.0002: real time      0.0002
    --------------------------------------------
      LOOP:  cpu time      1.3395: real time      1.3476

 eigenvalue-minimisations  :  1368
 total energy-change (2. order) : 0.6964001E-08  (-0.1031064E-08)
 number of electron     255.9999994 magnetization 
 augmentation part      -14.6436499 magnetization 

 Free energy of the ion-electron system (eV)
  ---------------------------------------------------
  alpha Z        PSCENC =       107.38120932
  Ewald energy   TEWEN  =     -7307.87536780
  -Hartree energ DENC   =      -468.78611450
  -exchange      EXHF   =         0.00000000
  -V(xc)+E(xc)   XCENC  =      -539.35379007
  PAW double counting   =     28474.94812999   -27375.37488657
  entropy T*S    EENTRO =        -0.00000000
  eigenvalues    EBANDS =       176.79392621
  atomic energy  EATOM  =      6564.76702419
  Solvation  Ediel_sol  =         0.00000000
  ---------------------------------------------------
  free energy    TOTEN  =      -367.49986923 eV

  energy without entropy =     -367.49986923  energy(sigma->0) =     -367.49986923


--------------------------------------------------------------------------------------------------------




 average (electrostatic) potential at core
  the test charge radii are     0.9892
  (the norm of the test charge is              1.0000)
       1 -83.0574       2 -83.0573       3 -83.0573       4 -83.0573       5 -83.0573
       6 -83.0573       7 -83.0573       8 -83.0573       9 -83.0595      10 -83.0569
      11 -83.0551      12 -83.0577      13 -83.0553      14 -83.0575      15 -83.0594
      16 -83.0571      17 -83.0595      18 -83.0551      19 -83.0569      20 -83.0577
      21 -83.0553      22 -83.0594      23 -83.0575      24 -83.0571      25 -83.0575
      26 -83.0573      27 -83.0573      28 -83.0572      29 -83.0571      30 -83.0573
      31 -83.0573      32 -83.0575      33 -83.0568      34 -83.0568      35 -83.0568
      36 -83.0578      37 -83.0569      38 -83.0589      39 -83.0589      40 -83.0570
      41 -83.0574      42 -83.0572      43 -83.0574      44 -83.0573      45 -83.0573
      46 -83.0563      47 -83.0584      48 -83.0573      49 -83.0574      50 -83.0574
      51 -83.0572      52 -83.0573      53 -83.0573      54 -83.0584      55 -83.0563
      56 -83.0573      57 -83.0578      58 -83.0578      59 -83.0578      60 -83.0568
      61 -83.0577      62 -83.0558      63 -83.0558      64 -83.0576
 
 
 
 E-fermi :   5.8944     XC(G=0):  -9.5445     alpha+bet :-11.9543

 Fermi energy:         5.8943702632

 k-point     1 :       0.0000    0.0000    0.0000
  band No.  band energies     occupation 
      1      -6.2055      2.00000
      2      -5.1240      2.00000
      3      -5.1213      2.00000
      4      -5.1213      2.00000
      5      -5.1213      2.00000
      6      -5.1212      2.00000
      7      -5.1186      2.00000
      8      -4.1611      2.00000
      9      -4.1555      2.00000
     10      -4.1555      2.00000
     11      -4.1552      2.00000
     12      -4.1551      2.00000
     13      -4.1550      2.00000
     14      -4.1550      2.00000
     15      -4.1550      2.00000
     16      -4.1549      2.00000
     17      -4.1546      2.00000
     18      -4.1546      2.00000
     19      -4.1492      2.00000
     20      -3.8625      2.00000
     21      -3.8606      2.00000
     22      -3.8606      2.00000
     23      -3.8588      2.00000
     24      -2.0552      2.00000
     25      -2.0522      2.00000
     26      -2.0519      2.00000
     27      -2.0519      2.00000
     28      -2.0517      2.00000
     29      -2.0489      2.00000
     30      -1.8889      2.00000
     31      -1.8832      2.00000
     32      -1.8830      2.00000
     33      -1.8829      2.00000
     34      -1.8828      2.00000
     35      -1.8827      2.00000
     36      -1.8827      2.00000
     37      -1.8826      2.00000
     38      -1.8825      2.00000
     39      -1.8825      2.00000
     40      -1.8822      2.00000
     41      -1.8764      2.00000
     42      -1.2365      2.00000
     43      -1.2347      2.00000
     44      -1.2347      2.00000
     45      -1.2328      2.00000
     46       0.2763      2.00000
     47       0.2810      2.00000
     48       0.2815      2.00000
     49       0.2817      2.00000
     50       0.2817      2.00000
     51       0.2819      2.00000
     52       0.2819      2.00000
     53       0.2822      2.00000
     54       0.2822      2.00000
     55       0.2824      2.00000
     56       0.2829      2.00000
     57       0.2876      2.00000
     58       1.8683      2.00000
     59       1.8692      2.00000
     60       1.8704      2.00000
     61       1.8709      2.00000
     62       1.8710      2.00000
     63       1.8712      2.00000
     64       1.8712      2.00000
     65       1.8714      2.00000
     66       1.8715      2.00000
     67       1.8720      2.00000
     68       1.8730      2.00000
     69       1.8739      2.00000
     70       1.9707      2.00000
     71       1.9713      2.00000
     72       1.9714      2.00000
     73       1.9731      2.00000
     74       1.9732      2.00000
     75       1.9733      2.00000
     76       1.9733      2.00000
     77       1.9734      2.00000
     78       1.9735      2.00000
     79       1.9753      2.00000
     80       1.9753      2.00000
     81       1.9760      2.00000
     82       2.2484      2.00000
     83       2.2511      2.00000
     84       2.2514      2.00000
     85       2.2514      2.00000
     86       2.2517      2.00000
     87       2.2545      2.00000
     88       2.9005      2.00000
     89       2.9016      2.00000
     90       2.9017      2.00000
     91       2.9017      2.00000
     92       2.9019      2.00000
     93       2.9030      2.00000
     94       3.8620      2.00000
     95       3.8655      2.00000
     96       3.8659      2.00000
     97       3.8665      2.00000
     98       3.8667      2.00000
     99       3.8667      2.00000
    100       3.8667      2.00000
    101       3.8667      2.00000
    102       3.8669      2.00000
    103       3.8674      2.00000
    104       3.8678      2.00000
    105       3.8713      2.00000
    106       4.4320      2.00000
    107       4.4350      2.00000
    108       4.4365      2.00000
    109       4.4366      2.00000
    110       4.4368      2.00000
    111       4.4370      2.00000
    112       4.4370      2.00000
    113       4.4373      2.00000
    114       4.4375      2.00000
    115       4.4375      2.00000
    116       4.4391      2.00000
    117       4.4419      2.00000
    118       4.5663      2.00000
    119       4.5688      2.00000
    120       4.5695      2.00000
    121       4.5695      2.00000
    122       4.5701      2.00000
    123       4.5701      2.00000
    124       4.5709      2.00000
    125       4.5737      2.00000
    126       5.7698      2.00000
    127       5.7719      2.00000
    128       5.7741      2.00000
    129       6.3636      0.00000
    130       6.3647      0.00000
    131       6.3658      0.00000
    132       6.3658      0.00000
    133       6.3669      0.00000
    134       6.3679      0.00000
    135       6.8058      0.00000
    136       6.8068      0.00000
    137       6.8081      0.00000
    138       6.8081      0.00000
    139       6.8093      0.00000
    140       6.8103      0.00000
    141       7.2316      0.00000
    142       7.2320      0.00000
    143       7.2320      0.00000
    144       7.2324      0.00000
    145       8.1341      0.00000
    146       8.1350      0.00000
    147       8.1371      0.00000
    148       8.1377      0.00000
    149       8.1378      0.00000
    150       8.1379      0.00000
    151       8.1379      0.00000
    152       8.1381      0.00000
    153       8.1381      0.00000
    154       8.1388      0.00000
    155       8.1407      0.00000
    156       8.1416      0.00000
    157       8.2877      0.00000
    158       8.2889      0.00000
    159       8.2902      0.00000
    160       8.7962      0.00000
    161       8.7975      0.00000
    162       8.7979      0.00000
    163       8.7980      0.00000
    164       8.7984      0.00000
    165       8.7997      0.00000
    166       9.0486      0.00000
    167       9.0499      0.00000
    168       9.0518      0.00000

 k-point     2 :       0.5000    0.0000    0.0000
  band No.  band energies     occupation 
      1      -5.9327      2.00000
      2      -5.9313      2.00000
      3      -4.8765      2.00000
      4      -4.8731      2.00000
      5      -4.8730      2.00000
      6      -4.8728      2.00000
      7      -4.8727      2.00000
      8      -4.8724      2.00000
      9      -4.8723      2.00000
     10      -4.8690      2.00000
     11      -4.0264      2.00000
     12      -4.0230      2.00000
     13      -4.0228      2.00000
     14      -4.0227      2.00000
     15      -4.0227      2.00000
     16      -4.0226      2.00000
     17      -4.0223      2.00000
     18      -4.0191      2.00000
     19      -3.8068      2.00000
     20      -3.8045      2.00000
     21      -3.0807      2.00000
     22      -3.0768      2.00000
     23      -3.0767      2.00000
     24      -3.0765      2.00000
     25      -3.0763      2.00000
     26      -3.0761      2.00000
     27      -3.0760      2.00000
     28      -3.0721      2.00000
     29      -1.9752      2.00000
     30      -1.9717      2.00000
     31      -1.9716      2.00000
     32      -1.9715      2.00000
     33      -1.9715      2.00000
     34      -1.9713      2.00000
     35      -1.9712      2.00000
     36      -1.9677      2.00000
     37      -0.8071      2.00000
     38      -0.8035      2.00000
     39      -0.8034      2.00000
     40      -0.8031      2.00000
     41      -0.8029      2.00000
     42      -0.8026      2.00000
     43      -0.8025      2.00000
     44      -0.7991      2.00000
     45      -0.6376      2.00000
     46      -0.6348      2.00000
     47      -0.6343      2.00000
     48      -0.6341      2.00000
     49      -0.6339      2.00000
     50      -0.6336      2.00000
     51      -0.6332      2.00000
     52      -0.6302      2.00000
     53       0.0225      2.00000
     54       0.0240      2.00000
     55       1.4700      2.00000
     56       1.4736      2.00000
     57       1.4741      2.00000
     58       1.4743      2.00000
     59       1.4743      2.00000
     60       1.4745      2.00000
     61       1.4748      2.00000
     62       1.4776      2.00000
     63       1.4914      2.00000
     64       1.4920      2.00000
     65       1.4928      2.00000
     66       1.4932      2.00000
     67       1.4934      2.00000
     68       1.4940      2.00000
     69       1.4952      2.00000
     70       1.4954      2.00000
     71       2.3166      2.00000
     72       2.3172      2.00000
     73       2.3176      2.00000
     74       2.3179      2.00000
     75       2.3182      2.00000
     76       2.3185      2.00000
     77       2.3189      2.00000
     78       2.3195      2.00000
     79       3.0223      2.00000
     80       3.0235      2.00000
     81       3.0243      2.00000
     82       3.0248      2.00000
     83       3.0249      2.00000
     84       3.0253      2.00000
     85       3.0261      2.00000
     86       3.0272      2.00000
     87       3.1465      2.00000
     88       3.1477      2.00000
     89       3.1484      2.00000
     90       3.1494      2.00000
     91       3.1570      2.00000
     92       3.1577      2.00000
     93       3.1587      2.00000
     94       3.1591      2.00000
     95       3.1592      2.00000
     96       3.1596      2.00000
     97       3.1610      2.00000
     98       3.1614      2.00000
     99       3.2834      2.00000
    100       3.2845      2.00000
    101       3.2850      2.00000
    102       3.2857      2.00000
    103       3.2858      2.00000
    104       3.2865      2.00000
    105       3.2870      2.00000
    106       3.2883      2.00000
    107       4.3288      2.00000
    108       4.3307      2.00000
    109       4.3315      2.00000
    110       4.3318      2.00000
    111       4.3319      2.00000
    112       4.3322      2.00000
    113       4.3329      2.00000
    114       4.3348      2.00000
    115       4.4329      2.00000
    116       4.4330      2.00000
    117       4.4964      2.00000
    118       4.5004      2.00000
    119       4.5008      2.00000
    120       4.5009      2.00000
    121       4.5009      2.00000
    122       4.5010      2.00000
    123       4.5014      2.00000
    124       4.5056      2.00000
    125       4.9528      2.00000
    126       4.9547      2.00000
    127       4.9557      2.00000
    128       4.9577      2.00000
    129       6.2790      0.00000
    130       6.2804      0.00000
    131       7.1933      0.00000
    132       7.1946      0.00000
    133       7.6431      0.00000
    134       7.6446      0.00000
    135       7.6455      0.00000
    136       7.6458      0.00000
    137       7.6459      0.00000
    138       7.6463      0.00000
    139       7.6471      0.00000
    140       7.6486      0.00000
    141       7.7139      0.00000
    142       7.7144      0.00000
    143       8.0570      0.00000
    144       8.0590      0.00000
    145       8.0594      0.00000
    146       8.0597      0.00000
    147       8.0598      0.00000
    148       8.0601      0.00000
    149       8.0604      0.00000
    150       8.0622      0.00000
    151       8.1430      0.00000
    152       8.1448      0.00000
    153       8.1452      0.00000
    154       8.1456      0.00000
    155       8.1457      0.00000
    156       8.1462      0.00000
    157       8.1465      0.00000
    158       8.1483      0.00000
    159       8.5504      0.00000
    160       8.5516      0.00000
    161       8.5523      0.00000
    162       8.5525      0.00000
    163       8.5531      0.00000
    164       8.5533      0.00000
    165       8.5540      0.00000
    166       8.5552      0.00000
    167       9.3192      0.00000
    168       9.3246      0.00000

 k-point     3 :       0.0000   -0.0000    0.5000
  band No.  band energies     occupation 
      1      -5.9320      2.00000
      2      -5.9320      2.00000
      3      -4.8770      2.00000
      4      -4.8732      2.00000
      5      -4.8731      2.00000
      6      -4.8727      2.00000
      7      -4.8727      2.00000
      8      -4.8723      2.00000
      9      -4.8722      2.00000
     10      -4.8686      2.00000
     11      -4.0268      2.00000
     12      -4.0230      2.00000
     13      -4.0227      2.00000
     14      -4.0227      2.00000
     15      -4.0227      2.00000
     16      -4.0227      2.00000
     17      -4.0224      2.00000
     18      -4.0187      2.00000
     19      -3.8057      2.00000
     20      -3.8057      2.00000
     21      -3.0797      2.00000
     22      -3.0769      2.00000
     23      -3.0767      2.00000
     24      -3.0765      2.00000
     25      -3.0763      2.00000
     26      -3.0761      2.00000
     27      -3.0759      2.00000
     28      -3.0731      2.00000
     29      -1.9758      2.00000
     30      -1.9718      2.00000
     31      -1.9715      2.00000
     32      -1.9715      2.00000
     33      -1.9715      2.00000
     34      -1.9714      2.00000
     35      -1.9711      2.00000
     36      -1.9672      2.00000
     37      -0.8074      2.00000
     38      -0.8034      2.00000
     39      -0.8031      2.00000
     40      -0.8031      2.00000
     41      -0.8029      2.00000
     42      -0.8029      2.00000
     43      -0.8026      2.00000
     44      -0.7988      2.00000
     45      -0.6374      2.00000
     46      -0.6351      2.00000
     47      -0.6340      2.00000
     48      -0.6340      2.00000
     49      -0.6340      2.00000
     50      -0.6340      2.00000
     51      -0.6329      2.00000
     52      -0.6304      2.00000
     53       0.0232      2.00000
     54       0.0232      2.00000
     55       1.4706      2.00000
     56       1.4737      2.00000
     57       1.4739      2.00000
     58       1.4740      2.00000
     59       1.4746      2.00000
     60       1.4747      2.00000
     61       1.4748      2.00000
     62       1.4773      2.00000
     63       1.4912      2.00000
     64       1.4926      2.00000
     65       1.4929      2.00000
     66       1.4933      2.00000
     67       1.4936      2.00000
     68       1.4937      2.00000
     69       1.4944      2.00000
     70       1.4954      2.00000
     71       2.3165      2.00000
     72       2.3167      2.00000
     73       2.3177      2.00000
     74       2.3179      2.00000
     75       2.3182      2.00000
     76       2.3184      2.00000
     77       2.3193      2.00000
     78       2.3196      2.00000
     79       3.0234      2.00000
     80       3.0239      2.00000
     81       3.0243      2.00000
     82       3.0245      2.00000
     83       3.0251      2.00000
     84       3.0253      2.00000
     85       3.0258      2.00000
     86       3.0263      2.00000
     87       3.1478      2.00000
     88       3.1481      2.00000
     89       3.1481      2.00000
     90       3.1481      2.00000
     91       3.1569      2.00000
     92       3.1584      2.00000
     93       3.1588      2.00000
     94       3.1589      2.00000
     95       3.1595      2.00000
     96       3.1596      2.00000
     97       3.1600      2.00000
     98       3.1617      2.00000
     99       3.2827      2.00000
    100       3.2846      2.00000
    101       3.2857      2.00000
    102       3.2857      2.00000
    103       3.2857      2.00000
    104       3.2858      2.00000
    105       3.2869      2.00000
    106       3.2890      2.00000
    107       4.3279      2.00000
    108       4.3304      2.00000
    109       4.3313      2.00000
    110       4.3315      2.00000
    111       4.3322      2.00000
    112       4.3323      2.00000
    113       4.3332      2.00000
    114       4.3356      2.00000
    115       4.4329      2.00000
    116       4.4330      2.00000
    117       4.4986      2.00000
    118       4.5008      2.00000
    119       4.5009      2.00000
    120       4.5009      2.00000
    121       4.5009      2.00000
    122       4.5009      2.00000
    123       4.5014      2.00000
    124       4.5032      2.00000
    125       4.9552      2.00000
    126       4.9552      2.00000
    127       4.9552      2.00000
    128       4.9553      2.00000
    129       6.2797      0.00000
    130       6.2797      0.00000
    131       7.1939      0.00000
    132       7.1939      0.00000
[...]
         0         1         2         3         4         5         6         7         8         9
 total charge-density along one line
 
 pseudopotential strength for first ion, spin component:           1
 18.404  25.676   0.000   0.000   0.000   0.000   0.000   0.000
 25.676  35.825   0.000   0.000   0.000   0.001   0.000   0.001
  0.000   0.000   4.177   0.000   0.000   7.782   0.000   0.000
  0.000   0.000   0.000   4.177   0.000   0.000   7.782   0.000
  0.000   0.000   0.000   0.000   4.177   0.000   0.000   7.782
  0.000   0.001   7.782   0.000   0.000  14.509   0.000   0.000
  0.000   0.000   0.000   7.782   0.000   0.000  14.509   0.000
  0.000   0.001   0.000   0.000   7.782   0.000   0.000  14.509
 total augmentation occupancy for first ion, spin component:           1
  5.948  -2.288   0.019   0.001   0.019  -0.006  -0.000  -0.006
 -2.288   0.989  -0.009  -0.000  -0.009   0.003   0.000   0.003
  0.019  -0.009   3.000   0.022   0.000  -0.681  -0.006  -0.000
  0.001  -0.000   0.022   3.001   0.022  -0.006  -0.682  -0.006
  0.019  -0.009   0.000   0.022   3.000  -0.000  -0.006  -0.681
 -0.006   0.003  -0.681  -0.006  -0.000   0.164   0.002   0.000
 -0.000   0.000  -0.006  -0.682  -0.006   0.002   0.164   0.002
 -0.006   0.003  -0.000  -0.006  -0.681   0.000   0.002   0.164


------------------------ aborting loop because EDIFF is reached ----------------------------------------


    CHARGE:  cpu time      0.0765: real time      0.0771
    FORLOC:  cpu time      0.0100: real time      0.0100
    FORNL :  cpu time      0.8246: real time      0.8285
    STRESS:  cpu time      1.6853: real time      1.6937
    FORCOR:  cpu time      0.0303: real time      0.0304
    FORHAR:  cpu time      0.0115: real time      0.0116
    MIXING:  cpu time      0.0009: real time      0.0009
    OFIELD:  cpu time      0.0000: real time      0.0000

  FORCE on cell =-STRESS in cart. coord.  units (eV):
  Direction    XX          YY          ZZ          XY          YZ          ZX
  --------------------------------------------------------------------------------------
  Alpha Z   107.38121   107.38121   107.38121
  Ewald   -2435.97696 -2435.97696 -2435.96733     0.00326     0.78455     0.78455
  Hartree   156.26134   156.26134   156.26316    -0.00034     0.08694     0.08694
  E(xc)    -817.39781  -817.39781  -817.39794    -0.00007    -0.01015    -0.01015
  Local    -931.45671  -931.45671  -931.46768    -0.00177    -0.81823    -0.81823
  n-local  2475.44126  2490.60745  2483.02635     0.00120     0.16207     0.16345
  augment  -368.16896  -368.16896  -368.16907    -0.00005    -0.00718    -0.00718
  Kinetic  1795.78384  1816.83362  1806.30834     0.00007    -0.10083    -0.09893
  Fock        0.00000     0.00000     0.00000     0.00000     0.00000     0.00000
  -------------------------------------------------------------------------------------
  Total      -0.02482    -0.02482    -0.02297     0.00230     0.09881     0.09881
  in kB      -0.03096    -0.03096    -0.02866     0.00287     0.12329     0.12329
  external pressure =       -0.03 kB  Pullay stress =        0.00 kB


 VOLUME and BASIS-vectors are now :
 -----------------------------------------------------------------------------
  energy-cutoff  :      318.00
  volume of cell :     1284.06
      direct lattice vectors                 reciprocal lattice vectors
    10.869145120 -0.000000000 -0.000000000     0.092003556  0.000000000 -0.000000000
    -0.000000000 10.869145120  0.000000000     0.000000000  0.092003556 -0.000000000
     0.000000000  0.000000000 10.869145120     0.000000000 -0.000000000  0.092003556

  length of vectors
    10.869145120 10.869145120 10.869145120     0.092003556  0.092003556  0.092003556


 FORCES acting on ions
    electron-ion (+dipol)            ewald-force                    non-local-force                 convergence-correction
 -----------------------------------------------------------------------------------------------
   0.521E+00 0.521E+00 0.956E-02   -.474E+00 -.474E+00 -.812E-02   -.179E+00 -.179E+00 -.470E-02   0.161E-04 0.161E-04 -.329E-04
   -.608E-01 0.208E-01 0.258E-04   0.615E-01 -.195E-01 0.000E+00   -.483E-03 -.845E-03 0.844E-05   0.937E-05 -.671E-05 -.315E-04
   0.208E-01 -.608E-01 0.258E-04   -.195E-01 0.615E-01 0.666E-14   -.845E-03 -.483E-03 0.844E-05   -.671E-05 0.937E-05 -.315E-04
   -.162E-01 -.162E-01 0.334E-04   0.153E-01 0.153E-01 0.266E-14   0.956E-03 0.956E-03 -.561E-05   0.138E-04 0.138E-04 -.262E-04
   0.208E-01 0.208E-01 -.194E-04   -.195E-01 -.195E-01 -.577E-14   -.845E-03 -.845E-03 -.455E-05   -.448E-05 -.448E-05 0.275E-04
   -.162E-01 -.250E-02 -.252E-04   0.153E-01 -.804E-02 -.844E-14   0.958E-03 0.664E-02 0.281E-05   0.716E-05 -.318E-04 0.245E-04
   -.250E-02 -.162E-01 -.252E-04   -.804E-02 0.153E-01 0.266E-14   0.664E-02 0.958E-03 0.281E-05   -.318E-04 0.716E-05 0.245E-04
   -.702E-02 -.702E-02 -.150E-04   0.752E-02 0.752E-02 -.711E-14   -.294E-03 -.294E-03 -.610E-05   0.197E-04 0.197E-04 0.242E-04
   0.247E-01 -.350E-01 -.607E-01   -.365E-01 0.298E-01 0.565E-01   0.663E-02 0.801E-02 0.696E-02   -.946E-05 -.498E-05 0.106E-04
   -.206E-01 -.569E-03 -.596E-02   0.206E-01 0.948E-03 0.463E-02   -.136E-03 0.182E-04 0.808E-03   -.352E-06 0.389E-05 -.472E-05
   0.250E-01 -.347E-01 0.608E-01   -.369E-01 0.295E-01 -.566E-01   0.670E-02 0.800E-02 -.696E-02   -.164E-04 0.613E-05 0.611E-05
   -.207E-01 -.538E-03 0.601E-02   0.207E-01 0.943E-03 -.470E-02   -.161E-03 -.450E-05 -.793E-03   0.892E-05 0.553E-05 0.709E-05
   0.280E-01 -.254E-01 0.510E-01   -.365E-01 0.298E-01 -.565E-01   0.519E-02 -.349E-02 0.453E-02   -.134E-04 -.211E-04 0.721E-05
   -.196E-01 -.710E-03 0.611E-02   0.206E-01 0.948E-03 -.463E-02   -.102E-02 0.180E-04 -.807E-03   0.215E-04 -.408E-05 0.654E-05
   0.284E-01 -.249E-01 -.511E-01   -.369E-01 0.295E-01 0.566E-01   0.520E-02 -.360E-02 -.465E-02   -.113E-04 -.581E-05 -.207E-04
   -.197E-01 -.713E-03 -.617E-02   0.207E-01 0.943E-03 0.470E-02   -.101E-02 0.173E-04 0.806E-03   0.238E-04 0.193E-05 -.992E-05
   -.350E-01 0.247E-01 -.607E-01   0.298E-01 -.365E-01 0.565E-01   0.801E-02 0.663E-02 0.696E-02   -.498E-05 -.946E-05 0.106E-04
   -.347E-01 0.250E-01 0.608E-01   0.295E-01 -.369E-01 -.566E-01   0.800E-02 0.670E-02 -.696E-02   0.613E-05 -.164E-04 0.611E-05
   -.569E-03 -.206E-01 -.596E-02   0.948E-03 0.206E-01 0.463E-02   0.182E-04 -.136E-03 0.808E-03   0.389E-05 -.352E-06 -.472E-05
   -.538E-03 -.207E-01 0.601E-02   0.943E-03 0.207E-01 -.470E-02   -.450E-05 -.161E-03 -.793E-03   0.553E-05 0.892E-05 0.709E-05
   -.254E-01 0.280E-01 0.510E-01   0.298E-01 -.365E-01 -.565E-01   -.349E-02 0.519E-02 0.453E-02   -.211E-04 -.134E-04 0.721E-05
   -.249E-01 0.284E-01 -.511E-01   0.295E-01 -.369E-01 0.566E-01   -.360E-02 0.520E-02 -.465E-02   -.581E-05 -.113E-04 -.207E-04
   -.710E-03 -.196E-01 0.611E-02   0.948E-03 0.206E-01 -.463E-02   0.180E-04 -.102E-02 -.807E-03   -.408E-05 0.215E-04 0.654E-05
   -.713E-03 -.197E-01 -.617E-02   0.943E-03 0.207E-01 0.470E-02   0.173E-04 -.101E-02 0.806E-03   0.193E-05 0.238E-04 -.992E-05
   -.854E-01 -.854E-01 -.326E-02   0.857E-01 0.857E-01 -.289E-14   0.341E-02 0.341E-02 0.140E-02   -.159E-04 -.159E-04 -.261E-04
   0.261E-01 0.256E-01 -.159E-04   -.272E-01 -.267E-01 0.444E-15   0.106E-02 0.104E-02 0.271E-04   0.181E-05 0.136E-05 -.252E-04
   0.256E-01 0.261E-01 -.159E-04   -.267E-01 -.272E-01 -.755E-14   0.104E-02 0.106E-02 0.271E-04   0.136E-05 0.181E-05 -.252E-04
   -.863E-01 -.863E-01 0.347E-02   0.867E-01 0.867E-01 -.622E-14   0.343E-02 0.343E-02 -.154E-02   -.142E-04 -.142E-04 -.270E-04
   -.672E-02 -.672E-02 -.103E-02   0.564E-02 0.564E-02 -.466E-14   0.820E-03 0.820E-03 0.864E-03   -.101E-04 -.101E-04 0.100E-04
   0.547E-02 0.539E-02 -.109E-04   -.376E-02 -.368E-02 -.311E-14   -.805E-03 -.782E-03 -.195E-04   0.214E-04 0.532E-05 0.315E-04
   0.539E-02 0.547E-02 -.109E-04   -.368E-02 -.376E-02 -.533E-14   -.782E-03 -.805E-03 -.195E-04   0.532E-05 0.214E-04 0.315E-04
   -.667E-02 -.667E-02 0.981E-03   0.558E-02 0.558E-02 0.000E+00   0.811E-03 0.811E-03 -.871E-03   0.308E-06 0.308E-06 0.440E-04
   -.212E+00 -.212E+00 -.408E+00   0.184E+00 0.184E+00 0.355E+00   0.847E-01 0.847E-01 0.100E+00   -.535E-05 -.535E-05 -.351E-04
   -.340E-01 0.304E-01 0.122E-01   0.356E-01 -.315E-01 -.101E-01   -.136E-02 0.982E-03 -.132E-02   0.638E-05 0.307E-05 -.294E-04
   0.304E-01 -.340E-01 0.122E-01   -.315E-01 0.356E-01 -.101E-01   0.982E-03 -.136E-02 -.132E-02   0.307E-05 0.638E-05 -.294E-04
   -.242E-01 -.242E-01 0.741E-02   0.230E-01 0.230E-01 -.719E-02   0.158E-02 0.158E-02 0.284E-03   0.113E-04 0.113E-04 -.517E-05
   0.797E-02 0.797E-02 0.357E-01   -.828E-02 -.828E-02 -.335E-01   0.219E-03 0.219E-03 -.156E-02   -.699E-05 -.699E-05 0.322E-04
   -.147E-01 0.174E-01 -.796E-02   0.115E-01 -.111E-01 0.446E-02   0.368E-02 -.398E-02 0.394E-02   -.519E-05 -.377E-05 0.249E-04
   0.174E-01 -.147E-01 -.796E-02   -.111E-01 0.115E-01 0.446E-02   -.398E-02 0.368E-02 0.394E-02   -.377E-05 -.519E-05 0.249E-04
   -.976E-02 -.976E-02 -.430E-02   0.101E-01 0.101E-01 0.520E-02   -.267E-03 -.267E-03 -.377E-03   0.140E-05 0.140E-05 0.131E-04
   0.194E+00 0.191E+00 -.162E-02   -.170E+00 -.167E+00 0.129E-02   -.152E-01 -.139E-01 0.582E-03   0.111E-04 0.110E-05 -.119E-04
   -.694E-01 -.434E-02 -.225E-01   0.688E-01 0.195E-02 0.233E-01   0.186E-03 0.155E-02 -.763E-03   -.123E-05 -.979E-05 -.180E-04
   -.426E-02 -.698E-01 0.227E-01   0.186E-02 0.692E-01 -.236E-01   0.156E-02 0.182E-03 0.789E-03   -.835E-05 0.378E-05 -.195E-04
   -.672E-02 -.662E-02 0.383E-04   0.700E-02 0.689E-02 -.576E-05   -.284E-03 -.272E-03 -.624E-05   0.109E-04 -.146E-06 -.224E-04
   0.184E-01 0.182E-01 0.113E-03   -.216E-01 -.215E-01 -.122E-03   0.232E-02 0.233E-02 -.157E-04   0.207E-06 -.265E-05 0.160E-04
   -.163E-01 0.996E-02 0.958E-02   0.187E-01 -.386E-02 -.117E-01   -.237E-02 -.426E-02 0.209E-02   -.674E-05 -.173E-04 0.167E-04
   0.998E-02 -.163E-01 -.972E-02   -.392E-02 0.186E-01 0.117E-01   -.420E-02 -.237E-02 -.209E-02   -.227E-04 0.176E-04 0.204E-04
   -.548E-02 -.544E-02 -.239E-04   0.493E-02 0.487E-02 0.599E-05   0.961E-04 0.910E-04 -.380E-06   0.144E-04 0.265E-04 0.163E-04
   0.191E+00 0.194E+00 -.162E-02   -.167E+00 -.170E+00 0.129E-02   -.139E-01 -.152E-01 0.582E-03   0.110E-05 0.111E-04 -.119E-04
   -.698E-01 -.426E-02 0.227E-01   0.692E-01 0.186E-02 -.236E-01   0.182E-03 0.156E-02 0.789E-03   0.378E-05 -.835E-05 -.195E-04
   -.434E-02 -.694E-01 -.225E-01   0.195E-02 0.688E-01 0.233E-01   0.155E-02 0.186E-03 -.763E-03   -.979E-05 -.123E-05 -.180E-04
   -.662E-02 -.672E-02 0.383E-04   0.689E-02 0.700E-02 -.576E-05   -.272E-03 -.284E-03 -.624E-05   -.146E-06 0.109E-04 -.224E-04
   0.182E-01 0.184E-01 0.113E-03   -.215E-01 -.216E-01 -.122E-03   0.233E-02 0.232E-02 -.157E-04   -.265E-05 0.207E-06 0.160E-04
   -.163E-01 0.998E-02 -.972E-02   0.186E-01 -.392E-02 0.117E-01   -.237E-02 -.420E-02 -.209E-02   0.176E-04 -.227E-04 0.204E-04
   0.996E-02 -.163E-01 0.958E-02   -.386E-02 0.187E-01 -.117E-01   -.426E-02 -.237E-02 0.209E-02   -.173E-04 -.674E-05 0.167E-04
   -.544E-02 -.548E-02 -.239E-04   0.487E-02 0.493E-02 0.599E-05   0.910E-04 0.961E-04 -.380E-06   0.265E-04 0.144E-04 0.163E-04
   -.211E+00 -.211E+00 0.401E+00   0.183E+00 0.183E+00 -.349E+00   0.821E-01 0.821E-01 -.959E-01   -.138E-04 -.138E-04 -.196E-04
   -.337E-01 0.305E-01 -.122E-01   0.354E-01 -.317E-01 0.101E-01   -.136E-02 0.101E-02 0.134E-02   -.410E-06 -.151E-04 -.222E-04
   0.305E-01 -.337E-01 -.122E-01   -.317E-01 0.354E-01 0.101E-01   0.101E-02 -.136E-02 0.134E-02   -.151E-04 -.410E-06 -.222E-04
   -.243E-01 -.243E-01 -.758E-02   0.232E-01 0.232E-01 0.728E-02   0.160E-02 0.160E-02 -.186E-03   0.835E-05 0.835E-05 -.272E-04
   0.773E-02 0.773E-02 -.358E-01   -.806E-02 -.806E-02 0.335E-01   0.229E-03 0.229E-03 0.154E-02   -.114E-04 -.114E-04 0.197E-04
   -.146E-01 0.175E-01 0.795E-02   0.114E-01 -.111E-01 -.446E-02   0.368E-02 -.402E-02 -.398E-02   0.141E-04 -.669E-05 0.225E-04
   0.175E-01 -.146E-01 0.795E-02   -.111E-01 0.114E-01 -.446E-02   -.402E-02 0.368E-02 -.398E-02   -.669E-05 0.141E-04 0.225E-04
   -.980E-02 -.980E-02 0.434E-02   0.101E-01 0.101E-01 -.526E-02   -.267E-03 -.267E-03 0.352E-03   0.123E-04 0.123E-04 0.338E-04
 -----------------------------------------------------------------------------------------------
   0.590E-05 0.590E-05 -.204E-03   -.371E-13 -.763E-16 0.365E-13   -.536E-05 -.536E-05 0.211E-03   0.276E-05 0.276E-05 -.443E-05
 
 
 POSITION                                       TOTAL-FORCE (eV/Angst)
 -----------------------------------------------------------------------------------
      2.72729      2.72729      2.71729        -0.132158     -0.132158     -0.003293
      8.15186      2.71729      2.71729         0.000180      0.000480      0.000003
      2.71729      8.15186      2.71729         0.000480      0.000180      0.000003
      8.15186      8.15186      2.71729         0.000049      0.000049      0.000002
      2.71729      2.71729      8.15186         0.000481      0.000481      0.000004
      8.15186      2.71729      8.15186         0.000048     -0.003928      0.000002
      2.71729      8.15186      8.15186        -0.003928      0.000048      0.000002
      8.15186      8.15186      8.15186         0.000226      0.000226      0.000003
      2.71729     -0.00000     -0.00000        -0.005218      0.002822      0.002800
      8.15186     -0.00000     -0.00000        -0.000116      0.000401     -0.000527
      2.71729      5.43457      0.00000        -0.005221      0.002810     -0.002813
      8.15186      5.43457     -0.00000        -0.000114      0.000406      0.000526
      2.71729      0.00000      5.43457        -0.003324      0.000911     -0.000919
      8.15186     -0.00000      5.43457         0.000041      0.000252      0.000680
      2.71729      5.43457      5.43457        -0.003323      0.000932      0.000905
      8.15186      5.43457      5.43457         0.000037      0.000249     -0.000678
     -0.00000      2.71729      0.00000         0.002822     -0.005218      0.002800
      5.43457      2.71729     -0.00000         0.002810     -0.005221     -0.002813
     -0.00000      8.15186      0.00000         0.000401     -0.000116     -0.000527
      5.43457      8.15186      0.00000         0.000406     -0.000114      0.000526
      0.00000      2.71729      5.43457         0.000911     -0.003324     -0.000919
      5.43457      2.71729      5.43457         0.000932     -0.003323      0.000905
     -0.00000      8.15186      5.43457         0.000252      0.000041      0.000680
      5.43457      8.15186      5.43457         0.000249      0.000037     -0.000678
      0.00000      0.00000      2.71729         0.003693      0.003693     -0.001885
      5.43457     -0.00000      2.71729         0.000004      0.000014     -0.000014
     -0.00000      5.43457      2.71729         0.000014      0.000004     -0.000014
      5.43457      5.43457      2.71729         0.003762      0.003762      0.001905
      0.00000      0.00000      8.15186        -0.000277     -0.000277     -0.000154
      5.43457      0.00000      8.15186         0.000932      0.000927      0.000001
      0.00000      5.43457      8.15186         0.000927      0.000932      0.000001
      5.43457      5.43457      8.15186        -0.000276     -0.000276      0.000154
      4.07593      4.07593      4.07593         0.056111      0.056111      0.046872
      9.51050      4.07593      4.07593         0.000256     -0.000174      0.000746
      4.07593      9.51050      4.07593        -0.000174      0.000256      0.000746
      9.51050      9.51050      4.07593         0.000427      0.000427      0.000499
      4.07593      4.07593      9.51050        -0.000103     -0.000103      0.000684
      9.51050      4.07593      9.51050         0.000472      0.002338      0.000464
      4.07593      9.51050      9.51050         0.002338      0.000472      0.000464
      9.51050      9.51050      9.51050         0.000095      0.000095      0.000542
      4.07593      1.35864      1.35864         0.009481      0.009792      0.000240
      9.51050      1.35864      1.35864        -0.000427     -0.000851      0.000068
      4.07593      6.79322      1.35864        -0.000858     -0.000431     -0.000068
      9.51050      6.79322      1.35864         0.000008      0.000008      0.000004
      4.07593      1.35864      6.79322        -0.000931     -0.000912     -0.000008
      9.51050      1.35864      6.79322        -0.000034      0.001828      0.000038
      4.07593      6.79322      6.79322         0.001833     -0.000030     -0.000039
      9.51050      6.79322      6.79322        -0.000447     -0.000448     -0.000002
      1.35864      4.07593      1.35864         0.009792      0.009481      0.000240
      6.79322      4.07593      1.35864        -0.000431     -0.000858     -0.000068
      1.35864      9.51050      1.35864        -0.000851     -0.000427      0.000068
      6.79322      9.51050      1.35864         0.000008      0.000008      0.000004
      1.35864      4.07593      6.79322        -0.000912     -0.000931     -0.000008
      6.79322      4.07593      6.79322        -0.000030      0.001833     -0.000039
      1.35864      9.51050      6.79322         0.001828     -0.000034      0.000038
      6.79322      9.51050      6.79322        -0.000448     -0.000447     -0.000002
      1.35864      1.35864      4.07593         0.053978      0.053978     -0.043973
      6.79322      1.35864      4.07593         0.000253     -0.000174     -0.000750
      1.35864      6.79322      4.07593        -0.000174      0.000253     -0.000750
      6.79322      6.79322      4.07593         0.000444      0.000444     -0.000512
      1.35864      1.35864      9.51050        -0.000107     -0.000107     -0.000681
      6.79322      1.35864      9.51050         0.000476      0.002335     -0.000470
      1.35864      6.79322      9.51050         0.002335      0.000476     -0.000470
      6.79322      6.79322      9.51050         0.000091      0.000091     -0.000539
 -----------------------------------------------------------------------------------
    total drift:                                0.000003      0.000003      0.000003


--------------------------------------------------------------------------------------------------------



  FREE ENERGIE OF THE ION-ELECTRON SYSTEM (eV)
  ---------------------------------------------------
  free  energy   TOTEN  =      -367.49986923 eV

  energy  without entropy=     -367.49986923  energy(sigma->0) =     -367.49986923
 


--------------------------------------------------------------------------------------------------------


    POTLOK:  cpu time      0.0424: real time      0.0426


--------------------------------------------------------------------------------------------------------


     LOOP+:  cpu time     31.1741: real time     31.3634
    4ORBIT:  cpu time      0.0000: real time      0.0000

 total amount of memory used by VASP MPI-rank0    61966. kBytes
=======================================================================

   base      :      30000. kBytes
   nonl-proj :       5868. kBytes
   fftplans  :      11573. kBytes
   grid      :       5816. kBytes
   one-center:         49. kBytes
   wavefun   :       8660. kBytes
 
  
  
 General timing and accounting informations for this job:
 ========================================================
  
                  Total CPU time used (sec):       32.888
                            User time (sec):       31.984
                          System time (sec):        0.905
                         Elapsed time (sec):       33.247
  
                   Maximum memory used (kb):      222624.
                   Average memory used (kb):          N/A
  
                          Minor page faults:        74290
                          Major page faults:            0
                 Voluntary context switches:          775
