  64  64   0   0
  0.2006348E+02  0.1086915E-08  0.1086915E-08  0.1086915E-08  0.5000000E-15
  1.000000000000000E-004
  CAR 
 unknown system                          
     10.09866915     -6.98190842  301      5.89257693      1.00000000
     -6.982  0.0000E+00  0.0000E+00
     -6.925  0.0000E+00  0.0000E+00
     -6.868  0.0000E+00  0.0000E+00
     -6.811  0.0000E+00  0.0000E+00
     -6.754  0.0000E+00  0.0000E+00
     -6.697  0.0000E+00  0.0000E+00
     -6.640  0.0000E+00  0.0000E+00
     -6.583  0.0000E+00  0.0000E+00
     -6.526  0.0000E+00  0.0000E+00
     -6.469  0.0000E+00  0.0000E+00
     -6.413  0.0000E+00  0.0000E+00
     -6.356  0.0000E+00  0.0000E+00
     -6.299  0.9795E-10  0.5577E-11
     -6.242  0.2285E-01  0.1301E-02
     -6.185  0.4054E+01  0.2321E+00
     -6.128  0.3144E+00  0.2500E+00
     -6.071  0.8829E-07  0.2500E+00
     -6.014  0.9135E-07  0.2500E+00
     -5.957  0.1011E+01  0.3076E+00
     -5.900  0.2501E+02  0.1732E+01
     -5.843  0.3194E+00  0.1750E+01
     -5.786  0.4576E-08  0.1750E+01
     -5.729  0.1044E-03  0.1750E+01
     -5.672  0.1449E+02  0.2575E+01
     -5.615  0.3818E+02  0.4749E+01
     -5.559  0.1669E-01  0.4750E+01
     -5.502  0.1096E-09  0.4750E+01
     -5.445  0.7157E-01  0.4754E+01
     -5.388  0.3047E+02  0.6489E+01
     -5.331  0.4584E+01  0.6750E+01
     -5.274  0.5495E-05  0.6750E+01
     -5.217  0.2338E-09  0.6750E+01
     -5.160  0.8614E-01  0.6755E+01
     -5.103  0.2362E+02  0.8100E+01
     -5.046  0.2641E+01  0.8250E+01
     -4.989  0.1720E-05  0.8250E+01
     -4.932  0.1615E-02  0.8250E+01
     -4.875  0.4520E+02  0.1082E+02
     -4.818  0.6018E+02  0.1425E+02
     -4.761  0.7580E-02  0.1425E+02
     -4.704  0.1239E-02  0.1425E+02
     -4.648  0.4272E+02  0.1668E+02
     -4.591  0.6266E+02  0.2025E+02
     -4.534  0.9488E-02  0.2025E+02
     -4.477  0.0000E+00  0.2025E+02
     -4.420  0.0000E+00  0.2025E+02
     -4.363  0.0000E+00  0.2025E+02
     -4.306  0.0000E+00  0.2025E+02
     -4.249  0.1534E-08  0.2025E+02
     -4.192  0.2621E+00  0.2026E+02
     -4.135  0.4804E+02  0.2300E+02
     -4.078  0.4390E+01  0.2325E+02
     -4.021  0.5691E+02  0.2649E+02
     -3.964  0.4847E+02  0.2925E+02
     -3.907  0.1100E-01  0.2925E+02
     -3.850  0.1341E+02  0.3001E+02
     -3.794  0.2532E+02  0.3146E+02
     -3.737  0.5170E+01  0.3175E+02
     -3.680  0.2512E-04  0.3175E+02
     -3.623  0.1184E+02  0.3242E+02
     -3.566  0.9324E+02  0.3773E+02
     -3.509  0.2047E+01  0.3785E+02
     -3.452  0.9954E+02  0.4352E+02
     -3.395  0.4094E+01  0.4375E+02
     -3.338  0.1317E+02  0.4450E+02
     -3.281  0.9198E+02  0.4974E+02
     -3.224  0.2415E+00  0.4975E+02
     -3.167  0.1090E-07  0.4975E+02
     -3.110  0.9273E+00  0.4980E+02
     -3.053  0.9880E+02  0.5543E+02
     -2.996  0.5656E+01  0.5575E+02
     -2.940  0.1184E-05  0.5575E+02
     -2.883  0.0000E+00  0.5575E+02
     -2.826  0.0000E+00  0.5575E+02
     -2.769  0.0000E+00  0.5575E+02
     -2.712  0.0000E+00  0.5575E+02
     -2.655  0.0000E+00  0.5575E+02
     -2.598  0.0000E+00  0.5575E+02
     -2.541  0.2900E-06  0.5575E+02
     -2.484  0.2312E+01  0.5588E+02
     -2.427  0.4981E+02  0.5872E+02
     -2.370  0.5663E+00  0.5875E+02
     -2.313  0.7500E-08  0.5875E+02
     -2.256  0.0000E+00  0.5875E+02
     -2.199  0.0000E+00  0.5875E+02
     -2.142  0.2895E-08  0.5875E+02
     -2.085  0.2470E+00  0.5876E+02
     -2.029  0.2478E+02  0.6017E+02
     -1.972  0.5361E+02  0.6323E+02
     -1.915  0.5377E+02  0.6629E+02
     -1.858  0.4985E+02  0.6913E+02
     -1.801  0.2166E+01  0.6925E+02
     -1.744  0.3107E-06  0.6925E+02
     -1.687  0.0000E+00  0.6925E+02
     -1.630  0.0000E+00  0.6925E+02
     -1.573  0.1904E-12  0.6925E+02
     -1.516  0.4353E-02  0.6925E+02
     -1.459  0.3146E+02  0.7104E+02
     -1.402  0.2123E+02  0.7225E+02
     -1.345  0.5418E-03  0.7225E+02
     -1.288  0.1377E-02  0.7225E+02
     -1.231  0.1037E+02  0.7284E+02
     -1.175  0.7194E+01  0.7325E+02
     -1.118  0.2003E-03  0.7325E+02
     -1.061  0.6234E+01  0.7360E+02
     -1.004  0.9834E+02  0.7920E+02
     -0.947  0.8054E+00  0.7925E+02
     -0.890  0.6997E-07  0.7925E+02
     -0.833  0.1920E+01  0.7936E+02
     -0.776  0.1004E+03  0.8508E+02
     -0.719  0.3068E+01  0.8525E+02
     -0.662  0.3083E+01  0.8543E+02
     -0.605  0.1958E+03  0.9657E+02
     -0.548  0.1191E+02  0.9725E+02
     -0.491  0.1057E-04  0.9725E+02
     -0.434  0.0000E+00  0.9725E+02
     -0.377  0.0000E+00  0.9725E+02
     -0.320  0.0000E+00  0.9725E+02
     -0.264  0.8829E-04  0.9725E+02
     -0.207  0.2244E+02  0.9853E+02
     -0.150  0.8286E+02  0.1032E+03
     -0.093  0.7412E-01  0.1032E+03
     -0.036  0.3982E-03  0.1033E+03
      0.021  0.1161E+02  0.1039E+03
      0.078  0.1473E+02  0.1047E+03
      0.135  0.1414E-02  0.1048E+03
      0.192  0.9105E-08  0.1048E+03
      0.249  0.5574E+00  0.1048E+03
      0.306  0.4960E+02  0.1076E+03
      0.363  0.2538E+01  0.1077E+03
      0.420  0.7799E-01  0.1078E+03
      0.477  0.8347E+02  0.1125E+03
      0.534  0.2184E+02  0.1137E+03
      0.590  0.7839E-04  0.1138E+03
      0.647  0.0000E+00  0.1138E+03
      0.704  0.0000E+00  0.1138E+03
      0.761  0.0000E+00  0.1138E+03
      0.818  0.0000E+00  0.1138E+03
      0.875  0.0000E+00  0.1138E+03
      0.932  0.0000E+00  0.1138E+03
      0.989  0.0000E+00  0.1138E+03
      1.046  0.0000E+00  0.1138E+03
      1.103  0.0000E+00  0.1138E+03
      1.160  0.0000E+00  0.1138E+03
      1.217  0.0000E+00  0.1138E+03
      1.274  0.0000E+00  0.1138E+03
      1.331  0.2750E-07  0.1138E+03
      1.388  0.9892E+00  0.1138E+03
      1.445  0.5233E+02  0.1168E+03
      1.501  0.1771E+03  0.1269E+03
      1.558  0.3306E+02  0.1287E+03
      1.615  0.2517E-03  0.1288E+03
      1.672  0.0000E+00  0.1288E+03
      1.729  0.9323E-09  0.1288E+03
      1.786  0.1808E+00  0.1288E+03
      1.843  0.3354E+02  0.1307E+03
      1.900  0.5297E+02  0.1337E+03
      1.957  0.7711E+01  0.1341E+03
      2.014  0.4599E+02  0.1367E+03
      2.071  0.1162E+00  0.1367E+03
      2.128  0.4369E-04  0.1368E+03
      2.185  0.1788E+02  0.1378E+03
      2.242  0.9389E+02  0.1431E+03
      2.299  0.1117E+03  0.1495E+03
      2.355  0.1312E+03  0.1569E+03
      2.412  0.9302E+02  0.1622E+03
      2.469  0.2405E+00  0.1622E+03
      2.526  0.3842E-09  0.1622E+03
      2.583  0.0000E+00  0.1622E+03
      2.640  0.0000E+00  0.1622E+03
      2.697  0.0000E+00  0.1622E+03
      2.754  0.0000E+00  0.1622E+03
      2.811  0.1924E-08  0.1623E+03
      2.868  0.2227E+00  0.1623E+03
      2.925  0.2477E+02  0.1637E+03
      2.982  0.4994E+02  0.1665E+03
      3.039  0.1451E+03  0.1748E+03
      3.096  0.6496E+02  0.1785E+03
      3.153  0.7147E+02  0.1825E+03
      3.210  0.9139E+02  0.1877E+03
      3.266  0.9198E+01  0.1883E+03
      3.323  0.1108E+03  0.1946E+03
      3.380  0.3805E+02  0.1967E+03
      3.437  0.1490E-01  0.1967E+03
      3.494  0.2598E-02  0.1968E+03
      3.551  0.4901E+02  0.1995E+03
      3.608  0.1495E+03  0.2081E+03
      3.665  0.1228E+02  0.2087E+03
      3.722  0.1043E-04  0.2088E+03
      3.779  0.2041E-07  0.2088E+03
      3.836  0.8062E+00  0.2088E+03
      3.893  0.5394E+02  0.2119E+03
      3.950  0.1019E+03  0.2177E+03
      4.007  0.1431E+01  0.2177E+03
      4.064  0.2750E-02  0.2178E+03
      4.120  0.2938E+02  0.2194E+03
      4.177  0.8550E+02  0.2243E+03
      4.234  0.4319E+02  0.2267E+03
      4.291  0.2354E+00  0.2268E+03
      4.348  0.9199E+02  0.2320E+03
      4.405  0.1449E+02  0.2328E+03
      4.462  0.7543E+02  0.2371E+03
      4.519  0.9685E+02  0.2426E+03
      4.576  0.3417E+02  0.2446E+03
      4.633  0.1176E+02  0.2452E+03
      4.690  0.1769E-03  0.2452E+03
      4.747  0.0000E+00  0.2452E+03
      4.804  0.0000E+00  0.2452E+03
      4.861  0.7413E-09  0.2453E+03
      4.918  0.2123E+00  0.2453E+03
      4.974  0.4865E+02  0.2480E+03
      5.031  0.7053E+02  0.2520E+03
      5.088  0.3554E+01  0.2522E+03
      5.145  0.1171E-05  0.2522E+03
      5.202  0.0000E+00  0.2522E+03
      5.259  0.0000E+00  0.2522E+03
      5.316  0.0000E+00  0.2522E+03
      5.373  0.1370E-11  0.2523E+03
      5.430  0.1101E-01  0.2523E+03
      5.487  0.3584E+02  0.2543E+03
      5.544  0.1684E+02  0.2552E+03
      5.601  0.2100E-03  0.2552E+03
      5.658  0.6825E-14  0.2552E+03
      5.715  0.3790E-03  0.2553E+03
      5.772  0.6450E+01  0.2556E+03
      5.829  0.6722E+01  0.2560E+03
      5.885  0.4719E-03  0.2560E+03
      5.942  0.0000E+00  0.2560E+03
      5.999  0.0000E+00  0.2560E+03
      6.056  0.0000E+00  0.2560E+03
      6.113  0.0000E+00  0.2560E+03
      6.170  0.1282E-12  0.2560E+03
      6.227  0.2627E-02  0.2560E+03
      6.284  0.1631E+02  0.2569E+03
      6.341  0.1110E+02  0.2576E+03
      6.398  0.2497E+02  0.2590E+03
      6.455  0.3137E+00  0.2590E+03
      6.512  0.4816E-08  0.2590E+03
      6.569  0.0000E+00  0.2590E+03
      6.626  0.0000E+00  0.2590E+03
      6.683  0.0000E+00  0.2590E+03
      6.739  0.1784E-04  0.2590E+03
      6.796  0.5431E+01  0.2593E+03
      6.853  0.3092E+02  0.2611E+03
      6.910  0.4264E+02  0.2635E+03
      6.967  0.4508E-01  0.2635E+03
      7.024  0.2167E-10  0.2635E+03
      7.081  0.3831E-11  0.2635E+03
      7.138  0.2356E-01  0.2635E+03
      7.195  0.8433E+02  0.2683E+03
      7.252  0.6354E+02  0.2719E+03
      7.309  0.1397E+01  0.2720E+03
      7.366  0.4853E-06  0.2720E+03
      7.423  0.0000E+00  0.2720E+03
      7.480  0.0000E+00  0.2720E+03
      7.537  0.1201E-08  0.2720E+03
      7.594  0.4003E+00  0.2720E+03
      7.650  0.1613E+03  0.2812E+03
      7.707  0.6063E+02  0.2847E+03
      7.764  0.4977E+02  0.2875E+03
      7.821  0.1321E+00  0.2875E+03
      7.878  0.7258E-03  0.2875E+03
      7.935  0.3858E+02  0.2897E+03
      7.992  0.6679E+02  0.2935E+03
      8.049  0.2379E+02  0.2949E+03
      8.106  0.8248E+02  0.2995E+03
      8.163  0.1432E+03  0.3077E+03
      8.220  0.1400E+02  0.3085E+03
      8.277  0.2923E+01  0.3087E+03
      8.334  0.1055E+03  0.3147E+03
      8.391  0.1015E+02  0.3152E+03
      8.448  0.5629E-05  0.3153E+03
      8.504  0.3533E-01  0.3153E+03
      8.561  0.7669E+02  0.3196E+03
      8.618  0.2865E+02  0.3212E+03
      8.675  0.2061E-03  0.3213E+03
      8.732  0.5445E+00  0.3213E+03
      8.789  0.1219E+03  0.3282E+03
      8.846  0.6179E+02  0.3317E+03
      8.903  0.1628E+00  0.3317E+03
      8.960  0.3419E-08  0.3318E+03
      9.017  0.1115E+00  0.3318E+03
      9.074  0.1235E+02  0.3325E+03
      9.131  0.7095E+00  0.3325E+03
      9.188  0.4424E-01  0.3325E+03
      9.245  0.2930E+02  0.3342E+03
      9.302  0.8051E+01  0.3346E+03
      9.359  0.2397E+02  0.3360E+03
      9.415  0.1062E+00  0.3360E+03
      9.472  0.3482E-09  0.3360E+03
      9.529  0.0000E+00  0.3360E+03
      9.586  0.0000E+00  0.3360E+03
      9.643  0.0000E+00  0.3360E+03
      9.700  0.0000E+00  0.3360E+03
      9.757  0.0000E+00  0.3360E+03
      9.814  0.0000E+00  0.3360E+03
      9.871  0.0000E+00  0.3360E+03
      9.928  0.0000E+00  0.3360E+03
      9.985  0.0000E+00  0.3360E+03
     10.042  0.0000E+00  0.3360E+03
     10.099  0.0000E+00  0.3360E+03
