 vasp.6.3.2 27Jun22 (build Oct 14 2022 12:13:54) complex                        
  
 executed on             LinuxIFC date 2023.04.03  14:42:53
 running on   32 total cores
 distrk:  each k-point on   32 cores,    1 groups
 distr:  one band on NCORE=   4 cores,    8 groups


--------------------------------------------------------------------------------------------------------


 INCAR:
   ADDGRID = True
   EDIFF = 1e-08
   ENCUT = 318
   GGA = Ps
   IALGO = 38
   IBRION = -1
   ISMEAR = 0
   LCHARG = False
   LREAL = False
   LWAVE = False
   NELMIN = 5
   NPAR = 8
   PREC = Accurate
   SIGMA = 0.02

 POTCAR:    PAW_PBE Si 05Jan2001                  
 POTCAR:    PAW_PBE Si 05Jan2001                  
   SHA256 =  79d9987ad8750f624c4d6acb2a16d13abf6a777132adc04dc6c8399be72b42bb Si/POTCAR             
   COPYR  = (c) Copyright 05Jan2001 Georg Kresse                                                    
   COPYR  = This file is part of the software VASP. Any use, copying, and all other rights are regul
   COPYR  = If you do not have a valid VASP license, you may not use, copy or distribute this file. 
   VRHFIN =Si: s2p2                                                                                 
   LEXCH  = PE                                                                                      
   EATOM  =   103.0669 eV,    7.5752 Ry                                                             
                                                                                                    
   TITEL  = PAW_PBE Si 05Jan2001                                                                    
   LULTRA =        F    use ultrasoft PP ?                                                          
   IUNSCR =        1    unscreen: 0-lin 1-nonlin 2-no                                               
   RPACOR =    1.500    partial core radius                                                         
   POMASS =   28.085; ZVAL   =    4.000    mass and valenz                                          
   RCORE  =    1.900    outmost cutoff radius                                                       
   RWIGS  =    2.480; RWIGS  =    1.312    wigner-seitz radius (au A)                               
   ENMAX  =  245.345; ENMIN  =  184.009 eV                                                          
   ICORE  =        2    local potential                                                             
   LCOR   =        T    correct aug charges                                                         
   LPAW   =        T    paw PP                                                                      
   EAUG   =  322.069                                                                                
   DEXC   =    0.000                                                                                
   RMAX   =    1.950    core radius for proj-oper                                                   
   RAUG   =    1.300    factor for augmentation sphere                                              
   RDEP   =    1.993    radius for radial grids                                                     
   RDEPT  =    1.837    core radius for aug-charge                                                  
                                                                                                    
   Atomic configuration                                                                             
    6 entries                                                                                       
     n  l   j            E        occ.                                                              
     1  0  0.50     -1785.8828   2.0000                                                             
     2  0  0.50      -139.4969   2.0000                                                             
     2  1  1.50       -95.5546   6.0000                                                             
     3  0  0.50       -10.8127   2.0000                                                             
     3  1  0.50        -4.0811   2.0000                                                             
     3  2  1.50        -4.0817   0.0000                                                             
   Description                                                                                      
     l       E           TYP  RCUT    TYP  RCUT                                                     
     0    -10.8127223     23  1.900                                                                 
     0     -7.6451159     23  1.900                                                                 
     1     -4.0811372     23  1.900                                                                 
     1      2.4879257     23  1.900                                                                 
     2     -4.0817478      7  1.900                                                                 
  local pseudopotential read in
  partial core-charges read in
  partial kinetic energy density read in
  atomic valenz-charges read in
  non local Contribution for L=           0  read in
    real space projection operators read in
  non local Contribution for L=           0  read in
    real space projection operators read in
  non local Contribution for L=           1  read in
    real space projection operators read in
  non local Contribution for L=           1  read in
    real space projection operators read in
    PAW grid and wavefunctions read in
 
   number of l-projection  operators is LMAX  =           4
   number of lm-projection operators is LMMAX =           8
 
 -----------------------------------------------------------------------------
|                                                                             |
|               ----> ADVICE to this user running VASP <----                  |
|                                                                             |
|     You have a (more or less) 'large supercell' and for larger cells it     |
|     might be more efficient to use real-space projection operators.         |
|     Therefore, try LREAL= Auto in the INCAR file.                           |
|     Mind: For very accurate calculation, you might also keep the            |
|     reciprocal projection scheme (i.e. LREAL=.FALSE.).                      |
|                                                                             |
 -----------------------------------------------------------------------------

 -----------------------------------------------------------------------------
|                                                                             |
|               ----> ADVICE to this user running VASP <----                  |
|                                                                             |
|     You enforced a specific xc type in the INCAR file but a different       |
|     type was found in the POTCAR file.                                      |
|     I HOPE YOU KNOW WHAT YOU ARE DOING!                                     |
|                                                                             |
 -----------------------------------------------------------------------------

  PAW_PBE Si 05Jan2001                  :
 energy of atom  1       EATOM= -103.0669
 kinetic energy error for atom=    0.0016 (will be added to EATOM!!)
 
 
 POSCAR: Si
  positions in cartesian coordinates
  No initial velocities read in
 exchange correlation table for  LEXCH =       14
   RHO(1)=    0.500       N(1)  =     2000
   RHO(2)=  100.500       N(2)  =     4000
 


--------------------------------------------------------------------------------------------------------


 ion  position               nearest neighbor table
   1  0.249  0.250  0.250-  49 2.35  57 2.35  33 2.36  41 2.36
   2  0.750  0.250  0.250-  34 2.35  42 2.35  50 2.35  58 2.35
   3  0.250  0.750  0.250-  35 2.35  43 2.35  51 2.35  59 2.35
   4  0.750  0.750  0.250-  36 2.35  44 2.35  52 2.35  60 2.35
   5  0.250  0.250  0.750-  37 2.35  45 2.35  53 2.35  61 2.35
   6  0.750  0.250  0.750-  38 2.35  46 2.35  54 2.35  62 2.35
   7  0.250  0.750  0.750-  39 2.35  47 2.35  55 2.35  63 2.35
   8  0.750  0.750  0.750-  40 2.35  48 2.35  56 2.35  64 2.35
   9  0.250  0.999  0.000-  39 2.35  51 2.35  41 2.36  61 2.36
  10  0.750  0.000  0.000-  40 2.35  42 2.35  52 2.35  62 2.35
  11  0.250  0.500  0.000-  37 2.35  43 2.35  49 2.35  63 2.35
  12  0.750  0.500  0.000-  38 2.35  44 2.35  50 2.35  64 2.35
  13  0.250  0.000  0.500-  35 2.35  45 2.35  55 2.35  57 2.35
  14  0.750  0.000  0.500-  36 2.35  46 2.35  56 2.35  58 2.35
  15  0.250  0.500  0.500-  33 2.35  47 2.35  53 2.35  59 2.35
  16  0.750  0.500  0.500-  34 2.35  48 2.35  54 2.35  60 2.35
  17  0.000  0.250  0.000-  38 2.35  42 2.35  49 2.35  61 2.35
  18  0.500  0.250  0.000-  37 2.35  41 2.35  50 2.35  62 2.35
  19  0.000  0.750  0.000-  40 2.35  44 2.35  51 2.35  63 2.35
  20  0.500  0.750  0.000-  39 2.35  43 2.35  52 2.35  64 2.35
  21  0.000  0.250  0.500-  34 2.35  46 2.35  53 2.35  57 2.35
  22  0.500  0.250  0.500-  33 2.35  45 2.35  54 2.35  58 2.35
  23  0.000  0.750  0.500-  36 2.35  48 2.35  55 2.35  59 2.35
  24  0.500  0.750  0.500-  35 2.35  47 2.35  56 2.35  60 2.35
  25  0.000  0.000  0.250-  36 2.35  42 2.35  51 2.35  57 2.35
  26  0.500  0.000  0.250-  35 2.35  41 2.35  52 2.35  58 2.35
  27  0.000  0.500  0.250-  34 2.35  44 2.35  49 2.35  59 2.35
  28  0.500  0.500  0.250-  33 2.35  43 2.35  50 2.35  60 2.35
  29  0.000  0.000  0.750-  40 2.35  46 2.35  55 2.35  61 2.35
  30  0.500  0.000  0.750-  39 2.35  45 2.35  56 2.35  62 2.35
  31  0.000  0.500  0.750-  38 2.35  48 2.35  53 2.35  63 2.35
  32  0.500  0.500  0.750-  37 2.35  47 2.35  54 2.35  64 2.35
  33  0.375  0.375  0.375-  15 2.35  22 2.35  28 2.35   1 2.36
  34  0.875  0.375  0.375-   2 2.35  16 2.35  21 2.35  27 2.35
  35  0.375  0.875  0.375-   3 2.35  13 2.35  24 2.35  26 2.35
  36  0.875  0.875  0.375-   4 2.35  14 2.35  23 2.35  25 2.35
  37  0.375  0.375  0.875-   5 2.35  11 2.35  18 2.35  32 2.35
  38  0.875  0.375  0.875-   6 2.35  12 2.35  17 2.35  31 2.35
  39  0.375  0.875  0.875-   9 2.35   7 2.35  20 2.35  30 2.35
  40  0.875  0.875  0.875-   8 2.35  10 2.35  19 2.35  29 2.35
  41  0.375  0.125  0.125-  18 2.35  26 2.35   1 2.36   9 2.36
  42  0.875  0.125  0.125-   2 2.35  10 2.35  17 2.35  25 2.35
  43  0.375  0.625  0.125-   3 2.35  11 2.35  20 2.35  28 2.35
  44  0.875  0.625  0.125-   4 2.35  12 2.35  19 2.35  27 2.35
  45  0.375  0.125  0.625-   5 2.35  13 2.35  22 2.35  30 2.35
  46  0.875  0.125  0.625-   6 2.35  14 2.35  21 2.35  29 2.35
  47  0.375  0.625  0.625-   7 2.35  15 2.35  24 2.35  32 2.35
  48  0.875  0.625  0.625-   8 2.35  16 2.35  23 2.35  31 2.35
  49  0.125  0.375  0.125-   1 2.35  11 2.35  17 2.35  27 2.35
  50  0.625  0.375  0.125-   2 2.35  12 2.35  18 2.35  28 2.35
  51  0.125  0.875  0.125-   9 2.35   3 2.35  19 2.35  25 2.35
  52  0.625  0.875  0.125-   4 2.35  10 2.35  20 2.35  26 2.35
  53  0.125  0.375  0.625-   5 2.35  15 2.35  21 2.35  31 2.35
  54  0.625  0.375  0.625-   6 2.35  16 2.35  22 2.35  32 2.35
  55  0.125  0.875  0.625-   7 2.35  13 2.35  23 2.35  29 2.35
  56  0.625  0.875  0.625-   8 2.35  14 2.35  24 2.35  30 2.35
  57  0.125  0.125  0.375-   1 2.35  13 2.35  21 2.35  25 2.35
  58  0.625  0.125  0.375-   2 2.35  14 2.35  22 2.35  26 2.35
  59  0.125  0.625  0.375-   3 2.35  15 2.35  23 2.35  27 2.35
  60  0.625  0.625  0.375-   4 2.35  16 2.35  24 2.35  28 2.35
  61  0.125  0.125  0.875-   5 2.35  17 2.35  29 2.35   9 2.36
  62  0.625  0.125  0.875-   6 2.35  10 2.35  18 2.35  30 2.35
  63  0.125  0.625  0.875-   7 2.35  11 2.35  19 2.35  31 2.35
  64  0.625  0.625  0.875-   8 2.35  12 2.35  20 2.35  32 2.35
 
  LATTYP: Found a simple cubic cell.
 ALAT       =    10.8691451200
  
  Lattice vectors:
  
 A1 = (  10.8691451200,  -0.0000000000,  -0.0000000000)
 A2 = (  -0.0000000000,  10.8691451200,   0.0000000000)
 A3 = (   0.0000000000,   0.0000000000,  10.8691451200)


Analysis of symmetry for initial positions (statically):
=====================================================================
 Subroutine PRICEL returns:
 Original cell was already a primitive cell.
 

 Routine SETGRP: Setting up the symmetry group for a 
 simple cubic supercell.


 Subroutine GETGRP returns: Found  1 space group operations
 (whereof  1 operations were pure point group operations)
 out of a pool of 48 trial point group operations.


The static configuration has the point symmetry C_1 .


Analysis of symmetry for dynamics (positions and initial velocities):
=====================================================================
 Subroutine PRICEL returns:
 Original cell was already a primitive cell.
 

 Routine SETGRP: Setting up the symmetry group for a 
 simple cubic supercell.


 Subroutine GETGRP returns: Found  1 space group operations
 (whereof  1 operations were pure point group operations)
 out of a pool of 48 trial point group operations.


The dynamic configuration has the point symmetry C_1 .


 Subroutine INISYM returns: Found  1 space group operations
 (whereof  1 operations are pure point group operations),
 and found     1 'primitive' translations


----------------------------------------------------------------------------------------

                                     Primitive cell                                     

  volume of cell :    1284.0625

  direct lattice vectors                    reciprocal lattice vectors
    10.869145120 -0.000000000 -0.000000000     0.092003556  0.000000000 -0.000000000
    -0.000000000 10.869145120  0.000000000     0.000000000  0.092003556 -0.000000000
     0.000000000  0.000000000 10.869145120     0.000000000 -0.000000000  0.092003556

  length of vectors
    10.869145120 10.869145120 10.869145120     0.092003556  0.092003556  0.092003556

  position of ions in fractional coordinates (direct lattice)
     0.249079964  0.250000000  0.250000000
     0.750000000  0.250000000  0.250000000
     0.250000000  0.750000000  0.250000000
     0.750000000  0.750000000  0.250000000
     0.250000000  0.250000000  0.750000000
     0.750000000  0.250000000  0.750000000
     0.250000000  0.750000000  0.750000000
     0.750000000  0.750000000  0.750000000
     0.250000000  0.999079964  0.000000000
     0.750000000  1.000000000  1.000000000
     0.250000000  0.500000000  0.000000000
     0.750000000  0.500000000  1.000000000
     0.250000000  0.000000000  0.500000000
     0.750000000  1.000000000  0.500000000
     0.250000000  0.500000000  0.500000000
     0.750000000  0.500000000  0.500000000
     1.000000000  0.250000000  0.000000000
     0.500000000  0.250000000  1.000000000
     1.000000000  0.750000000  0.000000000
     0.500000000  0.750000000  0.000000000
     0.000000000  0.250000000  0.500000000
     0.500000000  0.250000000  0.500000000
     1.000000000  0.750000000  0.500000000
     0.500000000  0.750000000  0.500000000
     0.000000000  0.000000000  0.250000000
     0.500000000  1.000000000  0.250000000
     1.000000000  0.500000000  0.250000000
     0.500000000  0.500000000  0.250000000
     0.000000000  0.000000000  0.750000000
     0.500000000  0.000000000  0.750000000
     0.000000000  0.500000000  0.750000000
     0.500000000  0.500000000  0.750000000
     0.375000000  0.375000000  0.375000000
     0.875000000  0.375000000  0.375000000
     0.375000000  0.875000000  0.375000000
     0.875000000  0.875000000  0.375000000
     0.375000000  0.375000000  0.875000000
     0.875000000  0.375000000  0.875000000
     0.375000000  0.875000000  0.875000000
     0.875000000  0.875000000  0.875000000
     0.375000000  0.125000000  0.125000000
     0.875000000  0.125000000  0.125000000
     0.375000000  0.625000000  0.125000000
     0.875000000  0.625000000  0.125000000
     0.375000000  0.125000000  0.625000000
     0.875000000  0.125000000  0.625000000
     0.375000000  0.625000000  0.625000000
     0.875000000  0.625000000  0.625000000
     0.125000000  0.375000000  0.125000000
     0.625000000  0.375000000  0.125000000
     0.125000000  0.875000000  0.125000000
     0.625000000  0.875000000  0.125000000
     0.125000000  0.375000000  0.625000000
     0.625000000  0.375000000  0.625000000
     0.125000000  0.875000000  0.625000000
     0.625000000  0.875000000  0.625000000
     0.125000000  0.125000000  0.375000000
     0.625000000  0.125000000  0.375000000
     0.125000000  0.625000000  0.375000000
     0.625000000  0.625000000  0.375000000
     0.125000000  0.125000000  0.875000000
     0.625000000  0.125000000  0.875000000
     0.125000000  0.625000000  0.875000000
     0.625000000  0.625000000  0.875000000

  ion indices of the primitive-cell ions
   primitive index   ion index
                 1           1
                 2           2
                 3           3
                 4           4
                 5           5
                 6           6
                 7           7
                 8           8
                 9           9
                10          10
                11          11
                12          12
                13          13
                14          14
                15          15
                16          16
                17          17
                18          18
                19          19
                20          20
                21          21
                22          22
                23          23
                24          24
                25          25
                26          26
                27          27
                28          28
                29          29
                30          30
                31          31
                32          32
                33          33
                34          34
                35          35
                36          36
                37          37
                38          38
                39          39
                40          40
                41          41
                42          42
                43          43
                44          44
                45          45
                46          46
                47          47
                48          48
                49          49
                50          50
                51          51
                52          52
                53          53
                54          54
                55          55
                56          56
                57          57
                58          58
                59          59
                60          60
                61          61
                62          62
                63          63
                64          64

----------------------------------------------------------------------------------------

 
 
 KPOINTS: KPOINTS created by Atomic Simulation Env

Automatic generation of k-mesh.
 Grid dimensions read from file:
 generate k-points for:    2    2    2

 Generating k-lattice:

  Cartesian coordinates                     Fractional coordinates (reciprocal lattice)
     0.046001778  0.000000000 -0.000000000     0.500000000 -0.000000000  0.000000000
     0.000000000  0.046001778 -0.000000000    -0.000000000  0.500000000  0.000000000
     0.000000000 -0.000000000  0.046001778    -0.000000000  0.000000000  0.500000000

  Length of vectors
     0.046001778  0.046001778  0.046001778

  Shift w.r.t. Gamma in fractional coordinates (k-lattice)
     0.000000000  0.000000000  0.000000000

 
 Subroutine IBZKPT returns following result:
 ===========================================
 
 Found      8 irreducible k-points:
 
 Following reciprocal coordinates:
            Coordinates               Weight
  0.000000  0.000000  0.000000      1.000000
  0.500000  0.000000  0.000000      1.000000
 -0.000000  0.500000  0.000000      1.000000
  0.000000 -0.000000  0.500000      1.000000
  0.500000  0.500000  0.000000      1.000000
  0.000000  0.500000  0.500000      1.000000
  0.500000 -0.000000  0.500000      1.000000
  0.500000  0.500000  0.500000      1.000000
 
 Following cartesian coordinates:
            Coordinates               Weight
  0.000000  0.000000  0.000000      1.000000
  0.046002  0.000000  0.000000      1.000000
  0.000000  0.046002  0.000000      1.000000
  0.000000 -0.000000  0.046002      1.000000
  0.046002  0.046002  0.000000      1.000000
  0.000000  0.046002  0.046002      1.000000
  0.046002  0.000000  0.046002      1.000000
  0.046002  0.046002  0.046002      1.000000
 


--------------------------------------------------------------------------------------------------------




 Dimension of arrays:
   k-points           NKPTS =      8   k-points in BZ     NKDIM =      8   number of bands    NBANDS=    168
   number of dos      NEDOS =    301   number of ions     NIONS =     64
   non local maximal  LDIM  =      4   non local SUM 2l+1 LMDIM =      8
   total plane-waves  NPLWV = 262144
   max r-space proj   IRMAX =      1   max aug-charges    IRDMAX=  54800
   dimension x,y,z NGX =    64 NGY =   64 NGZ =   64
   dimension x,y,z NGXF=   128 NGYF=  128 NGZF=  128
   support grid    NGXF=   256 NGYF=  256 NGZF=  256
   ions per type =              64
   NGX,Y,Z   is equivalent  to a cutoff of   9.79,  9.79,  9.79 a.u.
   NGXF,Y,Z  is equivalent  to a cutoff of  19.58, 19.58, 19.58 a.u.

 SYSTEM =  unknown system                          
 POSCAR =  Si                                      

 Startparameter for this run:
   NWRITE =      2    write-flag & timer
   PREC   = accura    normal or accurate (medium, high low for compatibility)
   ISTART =      0    job   : 0-new  1-cont  2-samecut
   ICHARG =      2    charge: 1-file 2-atom 10-const
   ISPIN  =      1    spin polarized calculation?
   LNONCOLLINEAR =      F non collinear calculations
   LSORBIT =      F    spin-orbit coupling
   INIWAV =      1    electr: 0-lowe 1-rand  2-diag
   LASPH  =      F    aspherical Exc in radial PAW
 Electronic Relaxation 1
   ENCUT  =  318.0 eV  23.37 Ry    4.83 a.u.  15.80 15.80 15.80*2*pi/ulx,y,z
   ENINI  =  318.0     initial cutoff
   ENAUG  =  322.1 eV  augmentation charge cutoff
   NELM   =     60;   NELMIN=  5; NELMDL= -5     # of ELM steps 
   EDIFF  = 0.1E-07   stopping-criterion for ELM
   LREAL  =      F    real-space projection
   NLSPLINE    = F    spline interpolate recip. space projectors
   LCOMPAT=      F    compatible to vasp.4.4
   GGA_COMPAT  = T    GGA compatible to vasp.4.4-vasp.4.6
   LMAXPAW     = -100 max onsite density
   LMAXMIX     =    2 max onsite mixed and CHGCAR
   VOSKOWN=      0    Vosko Wilk Nusair interpolation
   ROPT   =    0.00000
 Ionic relaxation
   EDIFFG = 0.1E-06   stopping-criterion for IOM
   NSW    =      0    number of steps for IOM
   NBLOCK =      1;   KBLOCK =      1    inner block; outer block 
   IBRION =     -1    ionic relax: 0-MD 1-quasi-New 2-CG
   NFREE  =      0    steps in history (QN), initial steepest desc. (CG)
   ISIF   =      2    stress and relaxation
   IWAVPR =     10    prediction:  0-non 1-charg 2-wave 3-comb
   ISYM   =      2    0-nonsym 1-usesym 2-fastsym
   LCORR  =      T    Harris-Foulkes like correction to forces

   POTIM  = 0.5000    time-step for ionic-motion
   TEIN   =    0.0    initial temperature
   TEBEG  =    0.0;   TEEND  =   0.0 temperature during run
   SMASS  =  -3.00    Nose mass-parameter (am)
   estimated Nose-frequenzy (Omega)   =  0.10E-29 period in steps = 0.13E+47 mass=  -0.270E-26a.u.
   SCALEE = 1.0000    scale energy and forces
   NPACO  =    256;   APACO  = 10.0  distance and # of slots for P.C.
   PSTRESS=    0.0 pullay stress

  Mass of Ions in am
   POMASS =  28.09
  Ionic Valenz
   ZVAL   =   4.00
  Atomic Wigner-Seitz radii
   RWIGS  =  -1.00
  virtual crystal weights 
   VCA    =   1.00
   NELECT =     256.0000    total number of electrons
   NUPDOWN=      -1.0000    fix difference up-down

 DOS related values:
   EMIN   =  10.00;   EMAX   =-10.00  energy-range for DOS
   EFERMI =   0.00
   ISMEAR =     0;   SIGMA  =   0.02  broadening in eV -4-tet -1-fermi 0-gaus

 Electronic relaxation 2 (details)
   IALGO  =     38    algorithm
   LDIAG  =      T    sub-space diagonalisation (order eigenvalues)
   LSUBROT=      F    optimize rotation matrix (better conditioning)
   TURBO    =      0    0=normal 1=particle mesh
   IRESTART =      0    0=no restart 2=restart with 2 vectors
   NREBOOT  =      0    no. of reboots
   NMIN     =      0    reboot dimension
   EREF     =   0.00    reference energy to select bands
   IMIX   =      4    mixing-type and parameters
     AMIX     =   0.40;   BMIX     =  1.00
     AMIX_MAG =   1.60;   BMIX_MAG =  1.00
     AMIN     =   0.10
     WC   =   100.;   INIMIX=   1;  MIXPRE=   1;  MAXMIX= -45

 Intra band minimization:
   WEIMIN = 0.0000     energy-eigenvalue tresh-hold
   EBREAK =  0.15E-10  absolut break condition
   DEPER  =   0.30     relativ break condition  

   TIME   =   0.40     timestep for ELM

  volume/ion in A,a.u.               =      20.06       135.40
  Fermi-wavevector in a.u.,A,eV,Ry     =   0.956370  1.807278 12.444490  0.914644
  Thomas-Fermi vector in A             =   2.085292
 
 Write flags
   LWAVE        =      F    write WAVECAR
   LDOWNSAMPLE  =      F    k-point downsampling of WAVECAR
   LCHARG       =      F    write CHGCAR
   LVTOT        =      F    write LOCPOT, total local potential
   LVHAR        =      F    write LOCPOT, Hartree potential only
   LELF         =      F    write electronic localiz. function (ELF)
   LORBIT       =      0    0 simple, 1 ext, 2 COOP (PROOUT), +10 PAW based schemes


 Dipole corrections
   LMONO  =      F    monopole corrections only (constant potential shift)
   LDIPOL =      F    correct potential (dipole corrections)
   IDIPOL =      0    1-x, 2-y, 3-z, 4-all directions 
   EPSILON=  1.0000000 bulk dielectric constant

 Exchange correlation treatment:
   GGA     =    PS    GGA type
   LEXCH   =    14    internal setting for exchange type
   LIBXC   =     F    Libxc                    
   VOSKOWN =     0    Vosko Wilk Nusair interpolation
   LHFCALC =     F    Hartree Fock is set to
   LHFONE  =     F    Hartree Fock one center treatment
   AEXX    =    0.0000 exact exchange contribution

 Linear response parameters
   LEPSILON=     F    determine dielectric tensor
   LRPA    =     F    only Hartree local field effects (RPA)
   LNABLA  =     F    use nabla operator in PAW spheres
   LVEL    =     F    velocity operator in full k-point grid
   CSHIFT  =0.1000    complex shift for real part using Kramers Kronig
   OMEGAMAX=  -1.0    maximum frequency
   DEG_THRESHOLD= 0.2000000E-02 threshold for treating states as degnerate
   RTIME   =   -0.100 relaxation time in fs
  (WPLASMAI=    0.000 imaginary part of plasma frequency in eV, 0.658/RTIME)
   DFIELD  = 0.0000000 0.0000000 0.0000000 field for delta impulse in time
 
  Optional k-point grid parameters
   LKPOINTS_OPT  =     F    use optional k-point grid
   KPOINTS_OPT_MODE=     1    mode for optional k-point grid
 
 Orbital magnetization related:
   ORBITALMAG=     F  switch on orbital magnetization
   LCHIMAG   =     F  perturbation theory with respect to B field
   DQ        =  0.001000  dq finite difference perturbation B field
   LLRAUG    =     F  two centre corrections for induced B field



--------------------------------------------------------------------------------------------------------


 Static calculation
 charge density and potential will be updated during run
 non-spin polarized calculation
 Variant of blocked Davidson
 Davidson routine will perform the subspace rotation
 perform sub-space diagonalisation
    after iterative eigenvector-optimisation
 modified Broyden-mixing scheme, WC =      100.0
 initial mixing is a Kerker type mixing with AMIX =  0.4000 and BMIX =      1.0000
 Hartree-type preconditioning will be used
 using additional bands           40
 reciprocal scheme for non local part
 use partial core corrections
 calculate Harris-corrections to forces 
   (improved forces if not selfconsistent)
 use gradient corrections 
 use of overlap-Matrix (Vanderbilt PP)
 Gauss-broadening in eV      SIGMA  =   0.02


--------------------------------------------------------------------------------------------------------


  energy-cutoff  :      318.00
  volume of cell :     1284.06
      direct lattice vectors                 reciprocal lattice vectors
    10.869145120 -0.000000000 -0.000000000     0.092003556  0.000000000 -0.000000000
    -0.000000000 10.869145120  0.000000000     0.000000000  0.092003556 -0.000000000
     0.000000000  0.000000000 10.869145120     0.000000000 -0.000000000  0.092003556

  length of vectors
    10.869145120 10.869145120 10.869145120     0.092003556  0.092003556  0.092003556


 
 k-points in units of 2pi/SCALE and weight: KPOINTS created by Atomic Simulation Env
   0.00000000  0.00000000  0.00000000       0.125
   0.04600178  0.00000000  0.00000000       0.125
   0.00000000  0.04600178  0.00000000       0.125
   0.00000000 -0.00000000  0.04600178       0.125
   0.04600178  0.04600178  0.00000000       0.125
   0.00000000  0.04600178  0.04600178       0.125
   0.04600178  0.00000000  0.04600178       0.125
   0.04600178  0.04600178  0.04600178       0.125
 
 k-points in reciprocal lattice and weights: KPOINTS created by Atomic Simulation Env
   0.00000000  0.00000000  0.00000000       0.125
   0.50000000  0.00000000  0.00000000       0.125
  -0.00000000  0.50000000  0.00000000       0.125
   0.00000000 -0.00000000  0.50000000       0.125
   0.50000000  0.50000000  0.00000000       0.125
   0.00000000  0.50000000  0.50000000       0.125
   0.50000000 -0.00000000  0.50000000       0.125
   0.50000000  0.50000000  0.50000000       0.125
 
 position of ions in fractional coordinates (direct lattice) 
   0.24907996  0.25000000  0.25000000
   0.75000000  0.25000000  0.25000000
   0.25000000  0.75000000  0.25000000
   0.75000000  0.75000000  0.25000000
   0.25000000  0.25000000  0.75000000
   0.75000000  0.25000000  0.75000000
   0.25000000  0.75000000  0.75000000
   0.75000000  0.75000000  0.75000000
   0.25000000  0.99907996  0.00000000
   0.75000000  0.00000000  0.00000000
   0.25000000  0.50000000  0.00000000
   0.75000000  0.50000000  0.00000000
   0.25000000  0.00000000  0.50000000
   0.75000000  0.00000000  0.50000000
   0.25000000  0.50000000  0.50000000
   0.75000000  0.50000000  0.50000000
   0.00000000  0.25000000  0.00000000
   0.50000000  0.25000000  0.00000000
   0.00000000  0.75000000  0.00000000
   0.50000000  0.75000000  0.00000000
   0.00000000  0.25000000  0.50000000
   0.50000000  0.25000000  0.50000000
   0.00000000  0.75000000  0.50000000
   0.50000000  0.75000000  0.50000000
   0.00000000  0.00000000  0.25000000
   0.50000000  0.00000000  0.25000000
   0.00000000  0.50000000  0.25000000
   0.50000000  0.50000000  0.25000000
   0.00000000  0.00000000  0.75000000
   0.50000000  0.00000000  0.75000000
   0.00000000  0.50000000  0.75000000
   0.50000000  0.50000000  0.75000000
   0.37500000  0.37500000  0.37500000
   0.87500000  0.37500000  0.37500000
   0.37500000  0.87500000  0.37500000
   0.87500000  0.87500000  0.37500000
   0.37500000  0.37500000  0.87500000
   0.87500000  0.37500000  0.87500000
   0.37500000  0.87500000  0.87500000
   0.87500000  0.87500000  0.87500000
   0.37500000  0.12500000  0.12500000
   0.87500000  0.12500000  0.12500000
   0.37500000  0.62500000  0.12500000
   0.87500000  0.62500000  0.12500000
   0.37500000  0.12500000  0.62500000
   0.87500000  0.12500000  0.62500000
   0.37500000  0.62500000  0.62500000
   0.87500000  0.62500000  0.62500000
   0.12500000  0.37500000  0.12500000
   0.62500000  0.37500000  0.12500000
   0.12500000  0.87500000  0.12500000
   0.62500000  0.87500000  0.12500000
   0.12500000  0.37500000  0.62500000
   0.62500000  0.37500000  0.62500000
   0.12500000  0.87500000  0.62500000
   0.62500000  0.87500000  0.62500000
   0.12500000  0.12500000  0.37500000
   0.62500000  0.12500000  0.37500000
   0.12500000  0.62500000  0.37500000
   0.62500000  0.62500000  0.37500000
   0.12500000  0.12500000  0.87500000
   0.62500000  0.12500000  0.87500000
   0.12500000  0.62500000  0.87500000
   0.62500000  0.62500000  0.87500000
 
 position of ions in cartesian coordinates  (Angst):
   2.70728628  2.71728628  2.71728628
   8.15185884  2.71728628  2.71728628
   2.71728628  8.15185884  2.71728628
   8.15185884  8.15185884  2.71728628
   2.71728628  2.71728628  8.15185884
   8.15185884  2.71728628  8.15185884
   2.71728628  8.15185884  8.15185884
   8.15185884  8.15185884  8.15185884
   2.71728628 10.85914512  0.00000000
   8.15185884 -0.00000000 -0.00000000
   2.71728628  5.43457256  0.00000000
   8.15185884  5.43457256 -0.00000000
   2.71728628  0.00000000  5.43457256
   8.15185884 -0.00000000  5.43457256
   2.71728628  5.43457256  5.43457256
   8.15185884  5.43457256  5.43457256
  -0.00000000  2.71728628  0.00000000
   5.43457256  2.71728628 -0.00000000
  -0.00000000  8.15185884  0.00000000
   5.43457256  8.15185884  0.00000000
   0.00000000  2.71728628  5.43457256
   5.43457256  2.71728628  5.43457256
  -0.00000000  8.15185884  5.43457256
   5.43457256  8.15185884  5.43457256
   0.00000000  0.00000000  2.71728628
   5.43457256 -0.00000000  2.71728628
  -0.00000000  5.43457256  2.71728628
   5.43457256  5.43457256  2.71728628
   0.00000000  0.00000000  8.15185884
   5.43457256  0.00000000  8.15185884
   0.00000000  5.43457256  8.15185884
   5.43457256  5.43457256  8.15185884
   4.07592942  4.07592942  4.07592942
   9.51050198  4.07592942  4.07592942
   4.07592942  9.51050198  4.07592942
   9.51050198  9.51050198  4.07592942
   4.07592942  4.07592942  9.51050198
   9.51050198  4.07592942  9.51050198
   4.07592942  9.51050198  9.51050198
   9.51050198  9.51050198  9.51050198
   4.07592942  1.35864314  1.35864314
   9.51050198  1.35864314  1.35864314
   4.07592942  6.79321570  1.35864314
   9.51050198  6.79321570  1.35864314
   4.07592942  1.35864314  6.79321570
   9.51050198  1.35864314  6.79321570
   4.07592942  6.79321570  6.79321570
   9.51050198  6.79321570  6.79321570
   1.35864314  4.07592942  1.35864314
   6.79321570  4.07592942  1.35864314
   1.35864314  9.51050198  1.35864314
   6.79321570  9.51050198  1.35864314
   1.35864314  4.07592942  6.79321570
   6.79321570  4.07592942  6.79321570
   1.35864314  9.51050198  6.79321570
   6.79321570  9.51050198  6.79321570
   1.35864314  1.35864314  4.07592942
   6.79321570  1.35864314  4.07592942
   1.35864314  6.79321570  4.07592942
   6.79321570  6.79321570  4.07592942
   1.35864314  1.35864314  9.51050198
   6.79321570  1.35864314  9.51050198
   1.35864314  6.79321570  9.51050198
   6.79321570  6.79321570  9.51050198
 


--------------------------------------------------------------------------------------------------------


 k-point   1 :   0.0000 0.0000 0.0000  plane waves:   16519
 k-point   2 :   0.5000 0.0000 0.0000  plane waves:   16488
 k-point   3 :  -0.0000 0.5000 0.0000  plane waves:   16488
 k-point   4 :   0.0000-0.0000 0.5000  plane waves:   16488
 k-point   5 :   0.5000 0.5000 0.0000  plane waves:   16588
 k-point   6 :   0.0000 0.5000 0.5000  plane waves:   16588
 k-point   7 :   0.5000-0.0000 0.5000  plane waves:   16588
 k-point   8 :   0.5000 0.5000 0.5000  plane waves:   16560

 maximum and minimum number of plane-waves per node :      4165     4106

 maximum number of plane-waves:     16588
 maximum index in each direction: 
   IXMAX=   15   IYMAX=   15   IZMAX=   15
   IXMIN=  -16   IYMIN=  -16   IZMIN=  -16


 parallel 3D FFT for wavefunctions:
    minimum data exchange during FFTs selected (reduces bandwidth)
 parallel 3D FFT for charge:
    minimum data exchange during FFTs selected (reduces bandwidth)


 total amount of memory used by VASP MPI-rank0    65387. kBytes
=======================================================================

   base      :      30000. kBytes
   nonl-proj :       6402. kBytes
   fftplans  :      11573. kBytes
   grid      :       5816. kBytes
   one-center:         49. kBytes
   wavefun   :      11547. kBytes
 
     INWAV:  cpu time      0.0000: real time      0.0000
 Broyden mixing: mesh for mixing (old mesh)
   NGX = 31   NGY = 31   NGZ = 31
  (NGX  =128   NGY  =128   NGZ  =128)
  gives a total of  29791 points

 initial charge density was supplied:
 charge density of overlapping atoms calculated
 number of electron     256.0000000 magnetization 
 keeping initial charge density in first step


--------------------------------------------------------------------------------------------------------


 Maximum index for augmentation-charges         1707 (set IRDMAX)


--------------------------------------------------------------------------------------------------------


 First call to EWALD:  gamma=   0.163
 Maximum number of real-space cells 3x 3x 3
 Maximum number of reciprocal cells 3x 3x 3

    FEWALD:  cpu time      0.0015: real time      0.0015


--------------------------------------- Iteration      1(   1)  ---------------------------------------


    POTLOK:  cpu time      0.0232: real time      0.0233
    SETDIJ:  cpu time      0.0230: real time      0.0231
     EDDAV:  cpu time      2.2922: real time      2.3037
       DOS:  cpu time      0.0006: real time      0.0006
    --------------------------------------------
      LOOP:  cpu time      2.3390: real time      2.3508

 eigenvalue-minimisations  :  2688
 total energy-change (2. order) : 0.4510141E+03  (-0.7260800E+04)
 number of electron     256.0000000 magnetization 
 augmentation part      256.0000000 magnetization 

 Free energy of the ion-electron system (eV)
  ---------------------------------------------------
  alpha Z        PSCENC =       107.38120932
  Ewald energy   TEWEN  =     -7307.87536690
  -Hartree energ DENC   =      -353.25093063
  -exchange      EXHF   =         0.00000000
  -V(xc)+E(xc)   XCENC  =      -558.85370905
  PAW double counting   =      5598.62625415    -4492.17844134
  entropy T*S    EENTRO =        -0.00316975
  eigenvalues    EBANDS =       892.40121176
  atomic energy  EATOM  =      6564.76702419
  Solvation  Ediel_sol  =         0.00000000
  ---------------------------------------------------
  free energy    TOTEN  =       451.01408175 eV

  energy without entropy =      451.01725150  energy(sigma->0) =      451.01566663


--------------------------------------------------------------------------------------------------------




--------------------------------------- Iteration      1(   2)  ---------------------------------------


     EDDAV:  cpu time      2.6293: real time      2.6435
       DOS:  cpu time      0.0003: real time      0.0003
    --------------------------------------------
      LOOP:  cpu time      2.6295: real time      2.6438

 eigenvalue-minimisations  :  3232
 total energy-change (2. order) :-0.7730841E+03  (-0.7307763E+03)
 number of electron     256.0000000 magnetization 
 augmentation part      256.0000000 magnetization 

 Free energy of the ion-electron system (eV)
  ---------------------------------------------------
  alpha Z        PSCENC =       107.38120932
  Ewald energy   TEWEN  =     -7307.87536690
  -Hartree energ DENC   =      -353.25093063
  -exchange      EXHF   =         0.00000000
  -V(xc)+E(xc)   XCENC  =      -558.85370905
  PAW double counting   =      5598.62625415    -4492.17844134
  entropy T*S    EENTRO =        -0.00000000
  eigenvalues    EBANDS =       119.31398796
  atomic energy  EATOM  =      6564.76702419
  Solvation  Ediel_sol  =         0.00000000
  ---------------------------------------------------
  free energy    TOTEN  =      -322.06997230 eV

  energy without entropy =     -322.06997230  energy(sigma->0) =     -322.06997230


--------------------------------------------------------------------------------------------------------




--------------------------------------- Iteration      1(   3)  ---------------------------------------


     EDDAV:  cpu time      2.6782: real time      2.6915
       DOS:  cpu time      0.0002: real time      0.0002
    --------------------------------------------
      LOOP:  cpu time      2.6784: real time      2.6917

 eigenvalue-minimisations  :  3304
 total energy-change (2. order) :-0.5134461E+02  (-0.5048346E+02)
 number of electron     256.0000000 magnetization 
 augmentation part      256.0000000 magnetization 

 Free energy of the ion-electron system (eV)
  ---------------------------------------------------
  alpha Z        PSCENC =       107.38120932
  Ewald energy   TEWEN  =     -7307.87536690
  -Hartree energ DENC   =      -353.25093063
  -exchange      EXHF   =         0.00000000
  -V(xc)+E(xc)   XCENC  =      -558.85370905
  PAW double counting   =      5598.62625415    -4492.17844134
  entropy T*S    EENTRO =        -0.00000000
  eigenvalues    EBANDS =        67.96937325
  atomic energy  EATOM  =      6564.76702419
  Solvation  Ediel_sol  =         0.00000000
  ---------------------------------------------------
  free energy    TOTEN  =      -373.41458702 eV

  energy without entropy =     -373.41458702  energy(sigma->0) =     -373.41458702


--------------------------------------------------------------------------------------------------------




--------------------------------------- Iteration      1(   4)  ---------------------------------------


     EDDAV:  cpu time      2.6293: real time      2.6430
       DOS:  cpu time      0.0002: real time      0.0003
    --------------------------------------------
      LOOP:  cpu time      2.6295: real time      2.6432

 eigenvalue-minimisations  :  3224
 total energy-change (2. order) :-0.1184136E+01  (-0.1175814E+01)
 number of electron     256.0000000 magnetization 
 augmentation part      256.0000000 magnetization 

 Free energy of the ion-electron system (eV)
  ---------------------------------------------------
  alpha Z        PSCENC =       107.38120932
  Ewald energy   TEWEN  =     -7307.87536690
  -Hartree energ DENC   =      -353.25093063
  -exchange      EXHF   =         0.00000000
  -V(xc)+E(xc)   XCENC  =      -558.85370905
  PAW double counting   =      5598.62625415    -4492.17844134
  entropy T*S    EENTRO =        -0.00000000
  eigenvalues    EBANDS =        66.78523716
  atomic energy  EATOM  =      6564.76702419
  Solvation  Ediel_sol  =         0.00000000
  ---------------------------------------------------
  free energy    TOTEN  =      -374.59872310 eV

  energy without entropy =     -374.59872310  energy(sigma->0) =     -374.59872310


--------------------------------------------------------------------------------------------------------




--------------------------------------- Iteration      1(   5)  ---------------------------------------


     EDDAV:  cpu time      2.5994: real time      2.6129
       DOS:  cpu time      0.0003: real time      0.0003
    CHARGE:  cpu time      0.0788: real time      0.0792
    MIXING:  cpu time      0.0021: real time      0.0021
    --------------------------------------------
      LOOP:  cpu time      2.6806: real time      2.6945

 eigenvalue-minimisations  :  3184
 total energy-change (2. order) :-0.4186240E-01  (-0.4181188E-01)
 number of electron     255.9999994 magnetization 
 augmentation part      -14.9589904 magnetization 

 Broyden mixing:
  rms(total) = 0.28465E+01    rms(broyden)= 0.28465E+01
  rms(prec ) = 0.31321E+01
  weight for this iteration     100.00

 Free energy of the ion-electron system (eV)
  ---------------------------------------------------
  alpha Z        PSCENC =       107.38120932
  Ewald energy   TEWEN  =     -7307.87536690
  -Hartree energ DENC   =      -353.25093063
  -exchange      EXHF   =         0.00000000
  -V(xc)+E(xc)   XCENC  =      -558.85370905
  PAW double counting   =      5598.62625415    -4492.17844134
  entropy T*S    EENTRO =        -0.00000000
  eigenvalues    EBANDS =        66.74337477
  atomic energy  EATOM  =      6564.76702419
  Solvation  Ediel_sol  =         0.00000000
  ---------------------------------------------------
  free energy    TOTEN  =      -374.64058550 eV

  energy without entropy =     -374.64058550  energy(sigma->0) =     -374.64058550


--------------------------------------------------------------------------------------------------------




--------------------------------------- Iteration      1(   6)  ---------------------------------------


    POTLOK:  cpu time      0.0221: real time      0.0223
    SETDIJ:  cpu time      0.0220: real time      0.0221
     EDDAV:  cpu time      2.5238: real time      2.5362
       DOS:  cpu time      0.0003: real time      0.0003
    CHARGE:  cpu time      0.0784: real time      0.0788
    MIXING:  cpu time      0.0023: real time      0.0023
    --------------------------------------------
      LOOP:  cpu time      2.6490: real time      2.6620

 eigenvalue-minimisations  :  3056
 total energy-change (2. order) : 0.4919041E+01  (-0.2593273E+00)
 number of electron     255.9999994 magnetization 
 augmentation part      -14.7996821 magnetization 

 Broyden mixing:
  rms(total) = 0.17163E+01    rms(broyden)= 0.17163E+01
  rms(prec ) = 0.18755E+01
  weight for this iteration     100.00

 eigenvalues of (default mixing * dielectric matrix)
  average eigenvalue GAMMA=   2.5112
  2.5112

 Free energy of the ion-electron system (eV)
  ---------------------------------------------------
  alpha Z        PSCENC =       107.38120932
  Ewald energy   TEWEN  =     -7307.87536690
  -Hartree energ DENC   =      -399.23597623
  -exchange      EXHF   =         0.00000000
  -V(xc)+E(xc)   XCENC  =      -551.57554473
  PAW double counting   =     12482.54167112   -11379.33955774
  entropy T*S    EENTRO =        -0.00000000
  eigenvalues    EBANDS =       113.61499645
  atomic energy  EATOM  =      6564.76702419
  Solvation  Ediel_sol  =         0.00000000
  ---------------------------------------------------
  free energy    TOTEN  =      -369.72154453 eV

  energy without entropy =     -369.72154453  energy(sigma->0) =     -369.72154453


--------------------------------------------------------------------------------------------------------




--------------------------------------- Iteration      1(   7)  ---------------------------------------


    POTLOK:  cpu time      0.0214: real time      0.0216
    SETDIJ:  cpu time      0.0221: real time      0.0222
     EDDAV:  cpu time      2.5129: real time      2.5260
       DOS:  cpu time      0.0003: real time      0.0003
    CHARGE:  cpu time      0.0783: real time      0.0787
    MIXING:  cpu time      0.0023: real time      0.0023
    --------------------------------------------
      LOOP:  cpu time      2.6374: real time      2.6512

 eigenvalue-minimisations  :  3040
 total energy-change (2. order) : 0.2231156E+01  (-0.5239449E+00)
 number of electron     255.9999994 magnetization 
 augmentation part      -14.5985231 magnetization 

 Broyden mixing:
  rms(total) = 0.99621E-01    rms(broyden)= 0.99620E-01
  rms(prec ) = 0.12389E+00
  weight for this iteration     100.00

 eigenvalues of (default mixing * dielectric matrix)
  average eigenvalue GAMMA=   2.2503
  2.2503  2.2503

 Free energy of the ion-electron system (eV)
  ---------------------------------------------------
  alpha Z        PSCENC =       107.38120932
  Ewald energy   TEWEN  =     -7307.87536690
  -Hartree energ DENC   =      -473.65595503
  -exchange      EXHF   =         0.00000000
  -V(xc)+E(xc)   XCENC  =      -539.13636149
  PAW double counting   =     29123.52109400   -28024.69088773
  entropy T*S    EENTRO =        -0.00000000
  eigenvalues    EBANDS =       182.19885516
  atomic energy  EATOM  =      6564.76702419
  Solvation  Ediel_sol  =         0.00000000
  ---------------------------------------------------
  free energy    TOTEN  =      -367.49038848 eV

  energy without entropy =     -367.49038848  energy(sigma->0) =     -367.49038848


--------------------------------------------------------------------------------------------------------




--------------------------------------- Iteration      1(   8)  ---------------------------------------


    POTLOK:  cpu time      0.0212: real time      0.0214
    SETDIJ:  cpu time      0.0226: real time      0.0227
     EDDAV:  cpu time      2.5378: real time      2.5508
       DOS:  cpu time      0.0003: real time      0.0003
    CHARGE:  cpu time      0.0794: real time      0.0798
    MIXING:  cpu time      0.0022: real time      0.0022
    --------------------------------------------
      LOOP:  cpu time      2.6635: real time      2.6772

 eigenvalue-minimisations  :  3072
 total energy-change (2. order) :-0.7109402E-02  (-0.2831423E-01)
 number of electron     255.9999994 magnetization 
 augmentation part      -14.6403127 magnetization 

 Broyden mixing:
  rms(total) = 0.35227E-01    rms(broyden)= 0.35226E-01
  rms(prec ) = 0.40578E-01
  weight for this iteration     100.00

 eigenvalues of (default mixing * dielectric matrix)
  average eigenvalue GAMMA=   2.4271
  2.8180  2.2316  2.2316

 Free energy of the ion-electron system (eV)
  ---------------------------------------------------
  alpha Z        PSCENC =       107.38120932
  Ewald energy   TEWEN  =     -7307.87536690
  -Hartree energ DENC   =      -466.68611422
  -exchange      EXHF   =         0.00000000
  -V(xc)+E(xc)   XCENC  =      -539.74367713
  PAW double counting   =     28621.80084777   -27522.17002015
  entropy T*S    EENTRO =        -0.00000000
  eigenvalues    EBANDS =       175.02859924
  atomic energy  EATOM  =      6564.76702419
  Solvation  Ediel_sol  =         0.00000000
  ---------------------------------------------------
  free energy    TOTEN  =      -367.49749788 eV

  energy without entropy =     -367.49749788  energy(sigma->0) =     -367.49749788


--------------------------------------------------------------------------------------------------------




--------------------------------------- Iteration      1(   9)  ---------------------------------------


    POTLOK:  cpu time      0.0212: real time      0.0214
    SETDIJ:  cpu time      0.0222: real time      0.0223
     EDDAV:  cpu time      2.6691: real time      2.6826
       DOS:  cpu time      0.0002: real time      0.0002
    CHARGE:  cpu time      0.0789: real time      0.0794
    MIXING:  cpu time      0.0025: real time      0.0025
    --------------------------------------------
      LOOP:  cpu time      2.7942: real time      2.8085

 eigenvalue-minimisations  :  3288
 total energy-change (2. order) :-0.1485339E-02  (-0.7219966E-03)
 number of electron     255.9999994 magnetization 
 augmentation part      -14.6409900 magnetization 

 Broyden mixing:
  rms(total) = 0.30985E-01    rms(broyden)= 0.30985E-01
  rms(prec ) = 0.32086E-01
  weight for this iteration     100.00

 eigenvalues of (default mixing * dielectric matrix)
  average eigenvalue GAMMA=   2.3753
  3.8760  2.3799  2.3799  0.8655

 Free energy of the ion-electron system (eV)
  ---------------------------------------------------
  alpha Z        PSCENC =       107.38120932
  Ewald energy   TEWEN  =     -7307.87536690
  -Hartree energ DENC   =      -468.63640315
  -exchange      EXHF   =         0.00000000
  -V(xc)+E(xc)   XCENC  =      -539.41487911
  PAW double counting   =     28768.00699495   -27668.47985318
  entropy T*S    EENTRO =        -0.00000000
  eigenvalues    EBANDS =       176.75229065
  atomic energy  EATOM  =      6564.76702419
  Solvation  Ediel_sol  =         0.00000000
  ---------------------------------------------------
  free energy    TOTEN  =      -367.49898322 eV

  energy without entropy =     -367.49898322  energy(sigma->0) =     -367.49898322


--------------------------------------------------------------------------------------------------------




--------------------------------------- Iteration      1(  10)  ---------------------------------------


    POTLOK:  cpu time      0.0212: real time      0.0214
    SETDIJ:  cpu time      0.0219: real time      0.0220
     EDDAV:  cpu time      2.4722: real time      2.4847
       DOS:  cpu time      0.0003: real time      0.0003
    CHARGE:  cpu time      0.0783: real time      0.0787
    MIXING:  cpu time      0.0024: real time      0.0024
    --------------------------------------------
      LOOP:  cpu time      2.5963: real time      2.6094

 eigenvalue-minimisations  :  2976
 total energy-change (2. order) :-0.8559293E-03  (-0.2083711E-03)
 number of electron     255.9999994 magnetization 
 augmentation part      -14.6429545 magnetization 

 Broyden mixing:
  rms(total) = 0.22877E-01    rms(broyden)= 0.22877E-01
  rms(prec ) = 0.22995E-01
  weight for this iteration     100.00

 eigenvalues of (default mixing * dielectric matrix)
  average eigenvalue GAMMA=   1.8667
  2.8609  2.2477  2.2477  0.9885  0.9885

 Free energy of the ion-electron system (eV)
  ---------------------------------------------------
  alpha Z        PSCENC =       107.38120932
  Ewald energy   TEWEN  =     -7307.87536690
  -Hartree energ DENC   =      -468.87605030
  -exchange      EXHF   =         0.00000000
  -V(xc)+E(xc)   XCENC  =      -539.34080198
  PAW double counting   =     28253.53550279   -27153.97734218
  entropy T*S    EENTRO =        -0.00000000
  eigenvalues    EBANDS =       176.88598591
  atomic energy  EATOM  =      6564.76702419
  Solvation  Ediel_sol  =         0.00000000
  ---------------------------------------------------
  free energy    TOTEN  =      -367.49983915 eV

  energy without entropy =     -367.49983915  energy(sigma->0) =     -367.49983915


--------------------------------------------------------------------------------------------------------




--------------------------------------- Iteration      1(  11)  ---------------------------------------


    POTLOK:  cpu time      0.0215: real time      0.0217
    SETDIJ:  cpu time      0.0217: real time      0.0218
     EDDAV:  cpu time      2.5903: real time      2.6036
       DOS:  cpu time      0.0003: real time      0.0003
    CHARGE:  cpu time      0.0786: real time      0.0790
    MIXING:  cpu time      0.0022: real time      0.0022
    --------------------------------------------
      LOOP:  cpu time      2.7145: real time      2.7285

 eigenvalue-minimisations  :  3176
 total energy-change (2. order) :-0.3841403E-04  (-0.8818956E-05)
 number of electron     255.9999994 magnetization 
 augmentation part      -14.6438070 magnetization 

 Broyden mixing:
  rms(total) = 0.88148E-03    rms(broyden)= 0.88146E-03
  rms(prec ) = 0.97746E-03
  weight for this iteration     100.00

 eigenvalues of (default mixing * dielectric matrix)
  average eigenvalue GAMMA=   1.7527
  2.8894  2.2525  2.2525  1.1797  1.1797  0.7626

 Free energy of the ion-electron system (eV)
  ---------------------------------------------------
  alpha Z        PSCENC =       107.38120932
  Ewald energy   TEWEN  =     -7307.87536690
  -Hartree energ DENC   =      -468.75111365
  -exchange      EXHF   =         0.00000000
  -V(xc)+E(xc)   XCENC  =      -539.35266100
  PAW double counting   =     28479.81382976   -27380.24400281
  entropy T*S    EENTRO =        -0.00000000
  eigenvalues    EBANDS =       176.76120353
  atomic energy  EATOM  =      6564.76702419
  Solvation  Ediel_sol  =         0.00000000
  ---------------------------------------------------
  free energy    TOTEN  =      -367.49987757 eV

  energy without entropy =     -367.49987757  energy(sigma->0) =     -367.49987757


--------------------------------------------------------------------------------------------------------




--------------------------------------- Iteration      1(  12)  ---------------------------------------


    POTLOK:  cpu time      0.0214: real time      0.0216
    SETDIJ:  cpu time      0.0219: real time      0.0220
     EDDAV:  cpu time      2.6038: real time      2.6171
       DOS:  cpu time      0.0003: real time      0.0003
    CHARGE:  cpu time      0.0781: real time      0.0784
    MIXING:  cpu time      0.0023: real time      0.0023
    --------------------------------------------
      LOOP:  cpu time      2.7277: real time      2.7417

 eigenvalue-minimisations  :  3192
 total energy-change (2. order) :-0.2296365E-05  (-0.3354999E-06)
 number of electron     255.9999994 magnetization 
 augmentation part      -14.6436958 magnetization 

 Broyden mixing:
  rms(total) = 0.81316E-03    rms(broyden)= 0.81315E-03
  rms(prec ) = 0.84353E-03
  weight for this iteration     100.00

 eigenvalues of (default mixing * dielectric matrix)
  average eigenvalue GAMMA=   1.8531
  3.0043  2.5004  2.5004  2.1866  0.9905  0.8946  0.8946

 Free energy of the ion-electron system (eV)
  ---------------------------------------------------
  alpha Z        PSCENC =       107.38120932
  Ewald energy   TEWEN  =     -7307.87536690
  -Hartree energ DENC   =      -468.78312776
  -exchange      EXHF   =         0.00000000
  -V(xc)+E(xc)   XCENC  =      -539.35103300
  PAW double counting   =     28481.71855449   -27382.14789634
  entropy T*S    EENTRO =        -0.00000000
  eigenvalues    EBANDS =       176.79075613
  atomic energy  EATOM  =      6564.76702419
  Solvation  Ediel_sol  =         0.00000000
  ---------------------------------------------------
  free energy    TOTEN  =      -367.49987986 eV

  energy without entropy =     -367.49987986  energy(sigma->0) =     -367.49987986


--------------------------------------------------------------------------------------------------------




--------------------------------------- Iteration      1(  13)  ---------------------------------------


    POTLOK:  cpu time      0.0215: real time      0.0217
    SETDIJ:  cpu time      0.0222: real time      0.0224
     EDDAV:  cpu time      2.5001: real time      2.5127
       DOS:  cpu time      0.0003: real time      0.0003
    CHARGE:  cpu time      0.0785: real time      0.0788
    MIXING:  cpu time      0.0019: real time      0.0019
    --------------------------------------------
      LOOP:  cpu time      2.6245: real time      2.6378

 eigenvalue-minimisations  :  3032
 total energy-change (2. order) : 0.9817059E-06  (-0.8344699E-07)
 number of electron     255.9999994 magnetization 
 augmentation part      -14.6436561 magnetization 

 Broyden mixing:
  rms(total) = 0.20340E-03    rms(broyden)= 0.20340E-03
  rms(prec ) = 0.20990E-03
  weight for this iteration     100.00

 eigenvalues of (default mixing * dielectric matrix)
  average eigenvalue GAMMA=   1.7764
  3.0631  2.6190  2.3816  2.2058  0.9584  0.9584  1.0124  1.0124

 Free energy of the ion-electron system (eV)
  ---------------------------------------------------
  alpha Z        PSCENC =       107.38120932
  Ewald energy   TEWEN  =     -7307.87536690
  -Hartree energ DENC   =      -468.78680347
  -exchange      EXHF   =         0.00000000
  -V(xc)+E(xc)   XCENC  =      -539.35327449
  PAW double counting   =     28476.62839618   -27377.05532465
  entropy T*S    EENTRO =        -0.00000000
  eigenvalues    EBANDS =       176.79426094
  atomic energy  EATOM  =      6564.76702419
  Solvation  Ediel_sol  =         0.00000000
  ---------------------------------------------------
  free energy    TOTEN  =      -367.49987888 eV

  energy without entropy =     -367.49987888  energy(sigma->0) =     -367.49987888


--------------------------------------------------------------------------------------------------------




--------------------------------------- Iteration      1(  14)  ---------------------------------------


    POTLOK:  cpu time      0.0216: real time      0.0218
    SETDIJ:  cpu time      0.0219: real time      0.0220
     EDDAV:  cpu time      2.2177: real time      2.2292
       DOS:  cpu time      0.0003: real time      0.0003
    CHARGE:  cpu time      0.0787: real time      0.0792
    MIXING:  cpu time      0.0018: real time      0.0018
    --------------------------------------------
      LOOP:  cpu time      2.3420: real time      2.3543

 eigenvalue-minimisations  :  2560
 total energy-change (2. order) : 0.1653289E-06  (-0.2960376E-08)
 number of electron     255.9999994 magnetization 
 augmentation part      -14.6436496 magnetization 

 Broyden mixing:
  rms(total) = 0.51785E-04    rms(broyden)= 0.51785E-04
  rms(prec ) = 0.54408E-04
  weight for this iteration     100.00

 eigenvalues of (default mixing * dielectric matrix)
  average eigenvalue GAMMA=   1.7850
  3.0735  2.5056  2.5056  2.1501  1.8258  1.1873  0.9915  0.9127  0.9127

 Free energy of the ion-electron system (eV)
  ---------------------------------------------------
  alpha Z        PSCENC =       107.38120932
  Ewald energy   TEWEN  =     -7307.87536690
  -Hartree energ DENC   =      -468.78664702
  -exchange      EXHF   =         0.00000000
  -V(xc)+E(xc)   XCENC  =      -539.35373066
  PAW double counting   =     28475.08519506   -27375.51190478
  entropy T*S    EENTRO =        -0.00000000
  eigenvalues    EBANDS =       176.79434207
  atomic energy  EATOM  =      6564.76702419
  Solvation  Ediel_sol  =         0.00000000
  ---------------------------------------------------
  free energy    TOTEN  =      -367.49987872 eV

  energy without entropy =     -367.49987872  energy(sigma->0) =     -367.49987872


--------------------------------------------------------------------------------------------------------




--------------------------------------- Iteration      1(  15)  ---------------------------------------


    POTLOK:  cpu time      0.0219: real time      0.0221
    SETDIJ:  cpu time      0.0220: real time      0.0221
     EDDAV:  cpu time      1.7742: real time      1.7830
       DOS:  cpu time      0.0003: real time      0.0003
    CHARGE:  cpu time      0.0774: real time      0.0780
    MIXING:  cpu time      0.0028: real time      0.0028
    --------------------------------------------
      LOOP:  cpu time      1.8986: real time      1.9083

 eigenvalue-minimisations  :  1840
 total energy-change (2. order) : 0.1261560E-07  (-0.1069005E-08)
 number of electron     255.9999994 magnetization 
 augmentation part      -14.6436493 magnetization 

 Broyden mixing:
  rms(total) = 0.12939E-04    rms(broyden)= 0.12939E-04
  rms(prec ) = 0.14035E-04
  weight for this iteration     100.00

 eigenvalues of (default mixing * dielectric matrix)
  average eigenvalue GAMMA=   1.7735
  3.0891  2.6388  2.3051  2.3051  1.7843  1.7843  0.9811  0.9811  0.9332  0.9332

 Free energy of the ion-electron system (eV)
  ---------------------------------------------------
  alpha Z        PSCENC =       107.38120932
  Ewald energy   TEWEN  =     -7307.87536690
  -Hartree energ DENC   =      -468.78611925
  -exchange      EXHF   =         0.00000000
  -V(xc)+E(xc)   XCENC  =      -539.35379197
  PAW double counting   =     28474.93077204   -27375.35752532
  entropy T*S    EENTRO =        -0.00000000
  eigenvalues    EBANDS =       176.79391920
  atomic energy  EATOM  =      6564.76702419
  Solvation  Ediel_sol  =         0.00000000
  ---------------------------------------------------
  free energy    TOTEN  =      -367.49987870 eV

  energy without entropy =     -367.49987870  energy(sigma->0) =     -367.49987870


--------------------------------------------------------------------------------------------------------




--------------------------------------- Iteration      1(  16)  ---------------------------------------


    POTLOK:  cpu time      0.0213: real time      0.0215
    SETDIJ:  cpu time      0.0213: real time      0.0215
     EDDAV:  cpu time      1.7122: real time      1.7208
       DOS:  cpu time      0.0003: real time      0.0003
    CHARGE:  cpu time      0.0782: real time      0.0786
    MIXING:  cpu time      0.0019: real time      0.0019
    --------------------------------------------
      LOOP:  cpu time      1.8352: real time      1.8445

 eigenvalue-minimisations  :  1736
 total energy-change (2. order) : 0.1013723E-07  (-0.1810097E-09)
 number of electron     255.9999994 magnetization 
 augmentation part      -14.6436487 magnetization 

 Broyden mixing:
  rms(total) = 0.57565E-05    rms(broyden)= 0.57554E-05
  rms(prec ) = 0.61309E-05
  weight for this iteration     100.00

 eigenvalues of (default mixing * dielectric matrix)
  average eigenvalue GAMMA=   1.6957
  3.0812  2.6171  2.2762  2.2762  1.6999  1.6999  1.1049  1.1049  0.9366  0.9366
  0.9190

 Free energy of the ion-electron system (eV)
  ---------------------------------------------------
  alpha Z        PSCENC =       107.38120932
  Ewald energy   TEWEN  =     -7307.87536690
  -Hartree energ DENC   =      -468.78599024
  -exchange      EXHF   =         0.00000000
  -V(xc)+E(xc)   XCENC  =      -539.35382170
  PAW double counting   =     28474.88717662   -27375.31392179
  entropy T*S    EENTRO =        -0.00000000
  eigenvalues    EBANDS =       176.79381181
  atomic energy  EATOM  =      6564.76702419
  Solvation  Ediel_sol  =         0.00000000
  ---------------------------------------------------
  free energy    TOTEN  =      -367.49987869 eV

  energy without entropy =     -367.49987869  energy(sigma->0) =     -367.49987869


--------------------------------------------------------------------------------------------------------




--------------------------------------- Iteration      1(  17)  ---------------------------------------


    POTLOK:  cpu time      0.0334: real time      0.0337
    SETDIJ:  cpu time      0.0208: real time      0.0209
     EDDAV:  cpu time      1.6854: real time      1.6941
       DOS:  cpu time      0.0002: real time      0.0002
    --------------------------------------------
      LOOP:  cpu time      1.7398: real time      1.7489

 eigenvalue-minimisations  :  1696
 total energy-change (2. order) : 0.4325557E-08  (-0.3004700E-10)
 number of electron     255.9999994 magnetization 
 augmentation part      -14.6436487 magnetization 

 Free energy of the ion-electron system (eV)
  ---------------------------------------------------
  alpha Z        PSCENC =       107.38120932
  Ewald energy   TEWEN  =     -7307.87536690
  -Hartree energ DENC   =      -468.78584771
  -exchange      EXHF   =         0.00000000
  -V(xc)+E(xc)   XCENC  =      -539.35383904
  PAW double counting   =     28474.82180039   -27375.24854396
  entropy T*S    EENTRO =        -0.00000000
  eigenvalues    EBANDS =       176.79368501
  atomic energy  EATOM  =      6564.76702419
  Solvation  Ediel_sol  =         0.00000000
  ---------------------------------------------------
  free energy    TOTEN  =      -367.49987869 eV

  energy without entropy =     -367.49987869  energy(sigma->0) =     -367.49987869


--------------------------------------------------------------------------------------------------------




 average (electrostatic) potential at core
  the test charge radii are     0.9892
  (the norm of the test charge is              1.0000)
       1 -83.0574       2 -83.0572       3 -83.0572       4 -83.0574       5 -83.0574
       6 -83.0572       7 -83.0572       8 -83.0574       9 -83.0552      10 -83.0576
      11 -83.0594      12 -83.0570      13 -83.0594      14 -83.0570      15 -83.0552
      16 -83.0576      17 -83.0573      18 -83.0575      19 -83.0573      20 -83.0571
      21 -83.0571      22 -83.0573      23 -83.0575      24 -83.0573      25 -83.0593
      26 -83.0553      27 -83.0569      28 -83.0577      29 -83.0553      30 -83.0593
      31 -83.0577      32 -83.0569      33 -83.0578      34 -83.0575      35 -83.0573
      36 -83.0584      37 -83.0572      38 -83.0573      39 -83.0558      40 -83.0572
      41 -83.0578      42 -83.0578      43 -83.0578      44 -83.0568      45 -83.0578
      46 -83.0558      47 -83.0558      48 -83.0576      49 -83.0568      50 -83.0572
      51 -83.0569      52 -83.0573      53 -83.0573      54 -83.0574      55 -83.0584
      56 -83.0584      57 -83.0573      58 -83.0557      59 -83.0568      60 -83.0577
      61 -83.0573      62 -83.0578      63 -83.0589      64 -83.0569
 
 
 
 E-fermi :   5.8926     XC(G=0):  -9.5445     alpha+bet :-11.9543

 Fermi energy:         5.8925769260

 k-point     1 :       0.0000    0.0000    0.0000
  band No.  band energies     occupation 
      1      -6.2055      2.00000
      2      -5.1233      2.00000
      3      -5.1229      2.00000
      4      -5.1218      2.00000
      5      -5.1211      2.00000
      6      -5.1200      2.00000
      7      -5.1185      2.00000
      8      -4.1597      2.00000
      9      -4.1582      2.00000
     10      -4.1566      2.00000
     11      -4.1561      2.00000
     12      -4.1553      2.00000
     13      -4.1551      2.00000
     14      -4.1550      2.00000
     15      -4.1549      2.00000
     16      -4.1548      2.00000
     17      -4.1535      2.00000
     18      -4.1522      2.00000
     19      -4.1491      2.00000
     20      -3.8624      2.00000
     21      -3.8606      2.00000
     22      -3.8606      2.00000
     23      -3.8588      2.00000
     24      -2.0543      2.00000
     25      -2.0541      2.00000
     26      -2.0520      2.00000
     27      -2.0519      2.00000
     28      -2.0499      2.00000
     29      -2.0497      2.00000
     30      -1.8865      2.00000
     31      -1.8862      2.00000
     32      -1.8846      2.00000
     33      -1.8840      2.00000
     34      -1.8831      2.00000
     35      -1.8830      2.00000
     36      -1.8827      2.00000
     37      -1.8827      2.00000
     38      -1.8824      2.00000
     39      -1.8796      2.00000
     40      -1.8794      2.00000
     41      -1.8782      2.00000
     42      -1.2366      2.00000
     43      -1.2347      2.00000
     44      -1.2347      2.00000
     45      -1.2328      2.00000
     46       0.2776      2.00000
     47       0.2786      2.00000
     48       0.2799      2.00000
     49       0.2816      2.00000
     50       0.2817      2.00000
     51       0.2819      2.00000
     52       0.2819      2.00000
     53       0.2821      2.00000
     54       0.2823      2.00000
     55       0.2842      2.00000
     56       0.2856      2.00000
     57       0.2861      2.00000
     58       1.8685      2.00000
     59       1.8690      2.00000
     60       1.8706      2.00000
     61       1.8707      2.00000
     62       1.8708      2.00000
     63       1.8709      2.00000
     64       1.8710      2.00000
     65       1.8715      2.00000
     66       1.8717      2.00000
     67       1.8720      2.00000
     68       1.8730      2.00000
     69       1.8744      2.00000
     70       1.9706      2.00000
     71       1.9716      2.00000
     72       1.9717      2.00000
     73       1.9721      2.00000
     74       1.9726      2.00000
     75       1.9731      2.00000
     76       1.9733      2.00000
     77       1.9737      2.00000
     78       1.9739      2.00000
     79       1.9753      2.00000
     80       1.9759      2.00000
     81       1.9760      2.00000
     82       2.2494      2.00000
     83       2.2498      2.00000
     84       2.2509      2.00000
     85       2.2519      2.00000
     86       2.2528      2.00000
     87       2.2536      2.00000
     88       2.9008      2.00000
     89       2.9008      2.00000
     90       2.9017      2.00000
     91       2.9017      2.00000
     92       2.9026      2.00000
     93       2.9026      2.00000
     94       3.8627      2.00000
     95       3.8641      2.00000
     96       3.8659      2.00000
     97       3.8661      2.00000
     98       3.8664      2.00000
     99       3.8666      2.00000
    100       3.8667      2.00000
    101       3.8667      2.00000
    102       3.8671      2.00000
    103       3.8677      2.00000
    104       3.8691      2.00000
    105       3.8708      2.00000
    106       4.4329      2.00000
    107       4.4345      2.00000
    108       4.4354      2.00000
    109       4.4362      2.00000
    110       4.4365      2.00000
    111       4.4367      2.00000
    112       4.4370      2.00000
    113       4.4376      2.00000
    114       4.4379      2.00000
    115       4.4384      2.00000
    116       4.4395      2.00000
    117       4.4414      2.00000
    118       4.5667      2.00000
    119       4.5679      2.00000
    120       4.5691      2.00000
    121       4.5697      2.00000
    122       4.5700      2.00000
    123       4.5705      2.00000
    124       4.5718      2.00000
    125       4.5732      2.00000
    126       5.7698      2.00000
    127       5.7720      2.00000
    128       5.7741      2.00000
    129       6.3636      0.00000
    130       6.3648      0.00000
    131       6.3658      0.00000
    132       6.3658      0.00000
    133       6.3667      0.00000
    134       6.3679      0.00000
    135       6.8065      0.00000
    136       6.8067      0.00000
    137       6.8077      0.00000
    138       6.8085      0.00000
    139       6.8089      0.00000
    140       6.8100      0.00000
    141       7.2316      0.00000
    142       7.2320      0.00000
    143       7.2320      0.00000
    144       7.2324      0.00000
    145       8.1345      0.00000
    146       8.1353      0.00000
    147       8.1361      0.00000
    148       8.1372      0.00000
    149       8.1376      0.00000
    150       8.1379      0.00000
    151       8.1380      0.00000
    152       8.1383      0.00000
    153       8.1390      0.00000
    154       8.1400      0.00000
    155       8.1404      0.00000
    156       8.1408      0.00000
    157       8.2877      0.00000
    158       8.2889      0.00000
    159       8.2902      0.00000
    160       8.7967      0.00000
    161       8.7967      0.00000
    162       8.7979      0.00000
    163       8.7979      0.00000
    164       8.7991      0.00000
    165       8.7991      0.00000
    166       9.0488      0.00000
    167       9.0509      0.00000
    168       9.0530      0.00000

 k-point     2 :       0.5000    0.0000    0.0000
  band No.  band energies     occupation 
      1      -5.9327      2.00000
      2      -5.9313      2.00000
      3      -4.8755      2.00000
      4      -4.8743      2.00000
      5      -4.8739      2.00000
      6      -4.8728      2.00000
      7      -4.8727      2.00000
      8      -4.8726      2.00000
      9      -4.8714      2.00000
     10      -4.8688      2.00000
     11      -4.0263      2.00000
     12      -4.0232      2.00000
     13      -4.0229      2.00000
     14      -4.0229      2.00000
     15      -4.0225      2.00000
     16      -4.0225      2.00000
     17      -4.0222      2.00000
     18      -4.0191      2.00000
     19      -3.8068      2.00000
     20      -3.8045      2.00000
     21      -3.0799      2.00000
     22      -3.0780      2.00000
     23      -3.0775      2.00000
     24      -3.0767      2.00000
     25      -3.0765      2.00000
     26      -3.0759      2.00000
     27      -3.0746      2.00000
     28      -3.0721      2.00000
     29      -1.9752      2.00000
     30      -1.9717      2.00000
     31      -1.9716      2.00000
     32      -1.9715      2.00000
     33      -1.9715      2.00000
     34      -1.9713      2.00000
     35      -1.9712      2.00000
     36      -1.9677      2.00000
     37      -0.8065      2.00000
     38      -0.8045      2.00000
     39      -0.8043      2.00000
     40      -0.8034      2.00000
     41      -0.8031      2.00000
     42      -0.8021      2.00000
     43      -0.8004      2.00000
     44      -0.8000      2.00000
     45      -0.6374      2.00000
     46      -0.6350      2.00000
     47      -0.6347      2.00000
     48      -0.6343      2.00000
     49      -0.6336      2.00000
     50      -0.6332      2.00000
     51      -0.6329      2.00000
     52      -0.6304      2.00000
     53       0.0225      2.00000
     54       0.0240      2.00000
     55       1.4713      2.00000
     56       1.4718      2.00000
     57       1.4733      2.00000
     58       1.4742      2.00000
     59       1.4745      2.00000
     60       1.4752      2.00000
     61       1.4755      2.00000
     62       1.4773      2.00000
     63       1.4916      2.00000
     64       1.4923      2.00000
     65       1.4926      2.00000
     66       1.4929      2.00000
     67       1.4933      2.00000
     68       1.4941      2.00000
     69       1.4947      2.00000
     70       1.4961      2.00000
     71       2.3166      2.00000
     72       2.3172      2.00000
     73       2.3176      2.00000
     74       2.3179      2.00000
     75       2.3182      2.00000
     76       2.3185      2.00000
     77       2.3189      2.00000
     78       2.3195      2.00000
     79       3.0224      2.00000
     80       3.0240      2.00000
     81       3.0241      2.00000
     82       3.0245      2.00000
     83       3.0248      2.00000
     84       3.0251      2.00000
     85       3.0260      2.00000
     86       3.0275      2.00000
     87       3.1465      2.00000
     88       3.1477      2.00000
     89       3.1484      2.00000
     90       3.1495      2.00000
     91       3.1569      2.00000
     92       3.1579      2.00000
     93       3.1583      2.00000
     94       3.1591      2.00000
     95       3.1594      2.00000
     96       3.1598      2.00000
     97       3.1607      2.00000
     98       3.1616      2.00000
     99       3.2834      2.00000
    100       3.2845      2.00000
    101       3.2850      2.00000
    102       3.2856      2.00000
    103       3.2859      2.00000
    104       3.2865      2.00000
    105       3.2870      2.00000
    106       3.2882      2.00000
    107       4.3290      2.00000
    108       4.3302      2.00000
    109       4.3315      2.00000
    110       4.3317      2.00000
    111       4.3320      2.00000
    112       4.3326      2.00000
    113       4.3329      2.00000
    114       4.3346      2.00000
    115       4.4329      2.00000
    116       4.4330      2.00000
    117       4.4964      2.00000
    118       4.5003      2.00000
    119       4.5008      2.00000
    120       4.5009      2.00000
    121       4.5009      2.00000
    122       4.5010      2.00000
    123       4.5014      2.00000
    124       4.5056      2.00000
    125       4.9529      2.00000
    126       4.9547      2.00000
    127       4.9557      2.00000
    128       4.9577      2.00000
    129       6.2790      0.00000
    130       6.2804      0.00000
    131       7.1933      0.00000
    132       7.1946      0.00000
    133       7.6431      0.00000
    134       7.6447      0.00000
    135       7.6454      0.00000
    136       7.6458      0.00000
    137       7.6459      0.00000
    138       7.6463      0.00000
    139       7.6471      0.00000
    140       7.6486      0.00000
    141       7.7139      0.00000
    142       7.7144      0.00000
    143       8.0570      0.00000
    144       8.0590      0.00000
    145       8.0594      0.00000
    146       8.0597      0.00000
    147       8.0598      0.00000
    148       8.0600      0.00000
    149       8.0604      0.00000
    150       8.0623      0.00000
    151       8.1436      0.00000
    152       8.1446      0.00000
    153       8.1447      0.00000
    154       8.1453      0.00000
    155       8.1456      0.00000
    156       8.1460      0.00000
    157       8.1473      0.00000
    158       8.1483      0.00000
    159       8.5507      0.00000
    160       8.5511      0.00000
    161       8.5520      0.00000
    162       8.5524      0.00000
    163       8.5534      0.00000
    164       8.5537      0.00000
    165       8.5541      0.00000
    166       8.5549      0.00000
    167       9.3197      0.00000
    168       9.3215      0.00000

 k-point     3 :      -0.0000    0.5000    0.0000
  band No.  band energies     occupation 
      1      -5.9327      2.00000
      2      -5.9313      2.00000
      3      -4.8758      2.00000
[...]
         0         1         2         3         4         5         6         7         8         9
 total charge-density along one line
 
 pseudopotential strength for first ion, spin component:           1
 18.404  25.676   0.000   0.000  -0.000   0.000   0.000  -0.000
 25.676  35.825   0.000   0.000  -0.000   0.000   0.000  -0.000
  0.000   0.000   4.177  -0.000   0.000   7.782  -0.000   0.000
  0.000   0.000  -0.000   4.177  -0.000  -0.000   7.782  -0.000
 -0.000  -0.000   0.000  -0.000   4.177   0.000  -0.000   7.782
  0.000   0.000   7.782  -0.000   0.000  14.509  -0.000   0.000
  0.000   0.000  -0.000   7.782  -0.000  -0.000  14.509  -0.000
 -0.000  -0.000   0.000  -0.000   7.782   0.000  -0.000  14.509
 total augmentation occupancy for first ion, spin component:           1
  5.947  -2.288   0.000   0.000  -0.019  -0.000  -0.000   0.006
 -2.288   0.989   0.000   0.000   0.009   0.000   0.000  -0.003
  0.000   0.000   3.001  -0.022   0.000  -0.681   0.006  -0.000
  0.000   0.000  -0.022   3.001  -0.000   0.006  -0.681   0.000
 -0.019   0.009   0.000  -0.000   3.000   0.000   0.000  -0.681
 -0.000   0.000  -0.681   0.006   0.000   0.164  -0.002   0.000
 -0.000   0.000   0.006  -0.681   0.000  -0.002   0.164  -0.000
  0.006  -0.003  -0.000   0.000  -0.681   0.000  -0.000   0.164


------------------------ aborting loop because EDIFF is reached ----------------------------------------


    CHARGE:  cpu time      0.0775: real time      0.0779
    FORLOC:  cpu time      0.0085: real time      0.0085
    FORNL :  cpu time      1.0550: real time      1.0592
    STRESS:  cpu time      2.1580: real time      2.1678
    FORCOR:  cpu time      0.0281: real time      0.0282
    FORHAR:  cpu time      0.0115: real time      0.0115
    MIXING:  cpu time      0.0009: real time      0.0009
    OFIELD:  cpu time      0.0000: real time      0.0000

  FORCE on cell =-STRESS in cart. coord.  units (eV):
  Direction    XX          YY          ZZ          XY          YZ          ZX
  --------------------------------------------------------------------------------------
  Alpha Z   107.38121   107.38121   107.38121
  Ewald   -2435.97696 -2435.97696 -2435.96733     0.00030    -0.78458    -0.78402
  Hartree   156.26134   156.26134   156.26320     0.00016    -0.08692    -0.08661
  E(xc)    -817.39779  -817.39780  -817.39792    -0.00000     0.01015     0.01015
  Local    -931.45672  -931.45676  -931.46776    -0.00048     0.81820     0.81739
  n-local  2483.02437  2483.02441  2483.02641     0.00000    -0.16274    -0.16277
  augment  -368.16895  -368.16896  -368.16906    -0.00000     0.00718     0.00718
  Kinetic  1806.30876  1806.30877  1806.30836     0.00001     0.09988     0.09990
  Fock        0.00000     0.00000     0.00000     0.00000     0.00000     0.00000
  -------------------------------------------------------------------------------------
  Total      -0.02474    -0.02474    -0.02290    -0.00001    -0.09883    -0.09878
  in kB      -0.03087    -0.03087    -0.02858    -0.00001    -0.12331    -0.12325
  external pressure =       -0.03 kB  Pullay stress =        0.00 kB


 VOLUME and BASIS-vectors are now :
 -----------------------------------------------------------------------------
  energy-cutoff  :      318.00
  volume of cell :     1284.06
      direct lattice vectors                 reciprocal lattice vectors
    10.869145120 -0.000000000 -0.000000000     0.092003556  0.000000000 -0.000000000
    -0.000000000 10.869145120  0.000000000     0.000000000  0.092003556 -0.000000000
     0.000000000  0.000000000 10.869145120     0.000000000 -0.000000000  0.092003556

  length of vectors
    10.869145120 10.869145120 10.869145120     0.092003556  0.092003556  0.092003556


 FORCES acting on ions
    electron-ion (+dipol)            ewald-force                    non-local-force                 convergence-correction
 -----------------------------------------------------------------------------------------------
   -.523E+00 0.301E-01 0.557E-01   0.474E+00 -.297E-01 -.564E-01   0.180E+00 -.222E-02 -.118E-02   -.393E-05 -.908E-06 0.115E-05
   0.603E-01 0.671E-03 0.607E-02   -.615E-01 -.980E-03 -.466E-02   0.910E-03 -.163E-04 -.806E-03   0.228E-05 -.154E-05 -.119E-06
   -.225E-01 0.299E-01 -.560E-01   0.195E-01 -.296E-01 0.567E-01   0.161E-02 -.224E-02 0.118E-02   -.508E-06 0.134E-05 -.141E-05
   0.157E-01 0.592E-03 -.607E-02   -.153E-01 -.911E-03 0.467E-02   -.535E-03 -.984E-05 0.802E-03   0.127E-06 0.139E-05 0.516E-06
   -.192E-01 0.301E-01 -.557E-01   0.195E-01 -.297E-01 0.564E-01   0.140E-03 -.222E-02 0.118E-02   0.765E-07 -.869E-06 -.123E-05
   0.167E-01 0.671E-03 -.607E-02   -.153E-01 -.980E-03 0.466E-02   -.140E-02 -.162E-04 0.805E-03   -.717E-07 -.205E-05 0.144E-06
   0.424E-02 0.299E-01 0.561E-01   0.804E-02 -.296E-01 -.567E-01   -.740E-02 -.224E-02 -.119E-02   -.306E-06 0.124E-05 0.153E-05
   0.751E-02 0.593E-03 0.607E-02   -.752E-02 -.911E-03 -.467E-02   -.140E-03 -.101E-04 -.801E-03   0.543E-06 0.186E-05 -.701E-06
   -.264E-01 -.516E+00 0.469E-02   0.365E-01 0.474E+00 0.105E-03   -.589E-02 0.174E+00 -.574E-02   -.875E-06 -.489E-05 0.293E-05
   0.201E-01 -.209E-01 -.546E-04   -.207E-01 0.194E-01 -.318E-04   0.581E-03 0.856E-03 0.727E-05   0.520E-06 -.121E-05 0.242E-05
   -.265E-01 0.658E-01 -.497E-02   0.367E-01 -.616E-01 0.106E-03   -.594E-02 -.534E-02 0.581E-02   -.138E-05 0.327E-05 0.337E-05
   0.201E-01 0.161E-01 0.110E-03   -.207E-01 -.153E-01 -.318E-04   0.570E-03 -.961E-03 -.328E-05   0.979E-06 0.131E-05 0.302E-05
   -.265E-01 -.258E-01 0.497E-02   0.367E-01 0.196E-01 -.106E-03   -.594E-02 0.666E-02 -.581E-02   -.783E-06 -.101E-05 -.359E-05
   0.201E-01 0.263E-02 -.111E-03   -.207E-01 0.800E-02 0.318E-04   0.572E-03 -.663E-02 0.574E-05   0.351E-06 -.197E-05 -.255E-05
   -.266E-01 0.115E-01 -.470E-02   0.367E-01 -.154E-01 -.106E-03   -.591E-02 0.478E-02 0.575E-02   -.125E-05 0.165E-05 -.292E-05
   0.201E-01 0.705E-02 0.537E-04   -.207E-01 -.748E-02 0.318E-04   0.580E-03 0.281E-03 -.542E-05   0.926E-06 0.195E-05 -.293E-05
   -.258E-01 0.318E-01 0.577E-01   0.268E-01 -.297E-01 -.567E-01   -.106E-02 -.298E-02 -.189E-02   -.282E-05 -.709E-06 0.474E-05
   0.858E-01 0.317E-01 -.574E-01   -.861E-01 -.297E-01 0.564E-01   -.340E-02 -.293E-02 0.188E-02   0.368E-05 -.130E-05 0.108E-05
   0.566E-01 0.304E-01 0.779E-02   -.576E-01 -.296E-01 -.467E-02   -.120E-02 -.267E-02 -.157E-02   -.544E-06 0.148E-05 0.299E-05
   -.554E-01 0.304E-01 -.778E-02   0.558E-01 -.296E-01 0.466E-02   0.116E-02 -.267E-02 0.156E-02   0.467E-06 0.186E-05 0.302E-05
   0.239E-01 -.104E-02 -.555E-01   -.249E-01 -.980E-03 0.567E-01   -.143E-02 0.742E-03 0.751E-03   -.152E-05 -.151E-05 -.423E-05
   0.361E-01 -.980E-03 0.552E-01   -.344E-01 -.980E-03 -.564E-01   -.303E-02 0.694E-03 -.745E-03   0.222E-05 -.183E-05 -.156E-05
   0.666E-02 0.893E-04 -.556E-02   -.558E-02 -.911E-03 0.467E-02   -.809E-03 0.418E-03 0.374E-03   -.242E-05 0.838E-06 -.278E-05
   -.540E-02 0.831E-04 0.557E-02   0.369E-02 -.911E-03 -.466E-02   0.785E-03 0.423E-03 -.378E-03   0.255E-05 0.156E-05 -.317E-05
   0.250E-01 0.295E-01 0.668E-02   -.295E-01 -.200E-01 -.106E-03   0.358E-02 -.712E-02 -.657E-02   -.137E-05 -.796E-06 -.117E-06
   0.254E-01 -.822E-01 -.306E-02   -.298E-01 0.931E-01 -.106E-03   0.353E-02 -.475E-02 0.504E-02   0.240E-05 -.360E-05 0.659E-06
   0.300E-01 -.359E-01 -.182E-02   -.296E-01 0.361E-01 0.318E-04   -.224E-02 0.175E-02 0.760E-03   -.130E-05 0.583E-06 -.226E-06
   0.301E-01 0.758E-01 -.160E-02   -.297E-01 -.770E-01 0.318E-04   -.223E-02 -.600E-03 0.705E-03   0.192E-05 0.352E-05 -.113E-06
   0.529E-02 -.205E-01 0.520E-02   -.805E-03 0.321E-01 0.106E-03   -.575E-02 -.671E-02 -.617E-02   -.297E-05 -.230E-05 -.932E-07
   0.563E-02 -.326E-01 -.445E-02   -.109E-02 0.414E-01 0.106E-03   -.583E-02 -.513E-02 0.538E-02   0.261E-05 -.186E-05 0.266E-06
   0.544E-03 0.140E-01 -.555E-03   -.943E-03 -.160E-01 -.318E-04   -.293E-05 0.138E-02 0.433E-03   -.183E-05 0.233E-05 -.171E-06
   0.558E-03 0.262E-01 -.400E-03   -.948E-03 -.253E-01 -.318E-04   -.147E-04 -.233E-03 0.431E-03   0.189E-05 0.170E-05 -.256E-06
   0.143E-01 0.217E+00 0.210E+00   -.120E-01 -.190E+00 -.183E+00   -.343E-01 -.493E-01 -.495E-01   -.331E-06 0.865E-06 -.140E-05
   0.497E-01 -.983E-02 -.153E-01   -.497E-01 0.931E-02 0.142E-01   0.400E-03 0.361E-03 0.463E-03   0.374E-06 -.176E-06 -.239E-05
   -.182E-01 -.310E-01 -.126E-01   0.215E-01 0.317E-01 0.100E-01   -.233E-02 -.494E-03 0.182E-02   0.142E-05 -.946E-06 -.262E-05
   0.163E-01 -.490E-02 -.463E-02   -.186E-01 -.575E-03 0.724E-02   0.235E-02 0.317E-02 -.312E-02   -.144E-05 0.211E-06 -.204E-05
   0.429E-02 0.569E-01 -.352E-01   -.189E-02 -.589E-01 0.335E-01   -.156E-02 0.164E-02 0.106E-02   0.148E-05 0.110E-05 0.153E-05
   0.668E-02 0.117E-01 0.511E-02   -.696E-02 -.114E-01 -.451E-02   0.267E-03 -.760E-03 -.107E-02   -.141E-05 0.348E-07 0.207E-05
   -.216E+00 0.765E-02 0.202E+00   0.184E+00 -.301E-02 -.173E+00   0.534E-01 -.374E-01 -.523E-01   0.678E-06 -.113E-05 0.246E-05
   0.254E-01 -.110E-01 0.738E-02   -.242E-01 0.123E-01 -.930E-02   -.687E-03 -.109E-02 0.124E-02   -.852E-06 -.535E-07 0.209E-05
   0.212E+00 -.191E+00 0.578E-04   -.184E+00 0.167E+00 0.844E-14   -.830E-01 0.141E-01 -.479E-04   0.574E-06 -.328E-05 0.221E-05
   0.339E-01 0.447E-02 0.227E-01   -.355E-01 -.206E-02 -.235E-01   0.136E-02 -.155E-02 0.772E-03   -.561E-06 -.186E-05 0.249E-05
   -.305E-01 0.697E-01 -.227E-01   0.316E-01 -.691E-01 0.235E-01   -.996E-03 -.193E-03 -.776E-03   0.176E-06 0.356E-05 0.181E-05
   0.243E-01 0.661E-02 -.442E-05   -.231E-01 -.689E-02 0.178E-14   -.160E-02 0.274E-03 0.904E-06   -.483E-07 0.195E-05 0.244E-05
   -.776E-02 -.182E-01 -.266E-06   0.808E-02 0.215E-01 -.133E-14   -.224E-03 -.233E-02 0.150E-05   0.176E-05 -.236E-05 -.180E-05
   0.146E-01 -.990E-02 -.968E-02   -.114E-01 0.385E-02 0.117E-01   -.369E-02 0.423E-02 -.209E-02   -.151E-05 -.197E-05 -.240E-05
   -.175E-01 0.163E-01 0.969E-02   0.111E-01 -.186E-01 -.117E-01   0.401E-02 0.236E-02 0.209E-02   0.103E-05 0.250E-05 -.193E-05
   0.977E-02 0.542E-02 0.125E-05   -.101E-01 -.487E-02 -.178E-14   0.264E-03 -.991E-04 0.476E-06   -.104E-05 0.208E-05 -.203E-05
   -.875E-02 -.151E+00 0.220E+00   0.100E-01 0.124E+00 -.193E+00   -.341E-01 0.499E-01 -.496E-01   -.292E-05 0.860E-06 0.341E-05
   0.605E-01 0.328E-01 -.136E-01   -.603E-01 -.317E-01 0.131E-01   -.339E-03 -.938E-03 0.411E-03   0.295E-05 0.458E-06 0.159E-05
   0.189E+00 0.264E-01 -.197E+00   -.161E+00 -.234E-01 0.170E+00   -.506E-01 -.352E-01 0.504E-01   -.124E-05 -.869E-06 0.161E-05
   -.236E-02 -.219E-01 -.893E-02   0.168E-02 0.230E-01 0.103E-01   0.116E-03 -.345E-03 -.119E-02   0.151E-05 -.559E-06 0.222E-05
   -.169E-01 0.103E-01 -.266E-01   0.185E-01 -.838E-02 0.248E-01   -.141E-02 -.171E-02 0.170E-02   -.215E-05 0.442E-06 -.336E-05
   0.176E-01 0.113E-01 0.661E-02   -.177E-01 -.111E-01 -.544E-02   -.471E-03 0.218E-03 -.111E-02   0.230E-05 -.203E-06 -.129E-05
   -.852E-02 -.123E-01 0.170E-01   0.863E-03 0.113E-01 -.131E-01   0.517E-02 0.174E-02 -.379E-02   -.186E-05 -.628E-06 -.137E-05
   0.678E-02 -.159E-01 0.300E-02   -.392E-02 0.101E-01 -.622E-02   -.294E-02 0.393E-02 0.320E-02   0.182E-05 -.602E-07 -.224E-05
   0.331E-02 0.190E+00 -.185E+00   0.635E-04 -.161E+00 0.159E+00   -.355E-01 -.506E-01 0.486E-01   -.279E-05 -.969E-06 -.241E-05
   0.525E-01 -.310E-01 0.181E-01   -.558E-01 0.242E-01 -.203E-01   0.362E-02 0.440E-02 0.275E-02   0.286E-05 -.317E-05 -.135E-05
   -.936E-02 -.240E-02 -.140E-01   0.113E-01 0.172E-02 0.148E-01   -.117E-02 0.108E-03 -.114E-03   -.169E-05 0.135E-05 -.287E-05
   0.133E-01 0.164E-01 0.155E-02   -.124E-01 -.155E-01 -.979E-03   -.839E-03 -.848E-03 -.470E-04   0.171E-05 0.306E-05 -.190E-05
   -.215E+00 0.158E-01 -.184E+00   0.190E+00 -.151E-01 0.159E+00   0.473E-01 -.334E-01 0.478E-01   -.237E-05 -.297E-05 0.230E-05
   0.334E-01 -.167E-01 -.140E-01   -.318E-01 0.184E-01 0.147E-01   -.144E-02 -.141E-02 -.123E-03   0.243E-05 -.219E-05 0.114E-05
   0.373E-02 0.510E-01 0.183E-01   -.931E-02 -.487E-01 -.205E-01   0.383E-02 -.243E-02 0.274E-02   -.139E-05 0.306E-05 0.266E-05
   -.121E-02 0.176E-01 0.162E-02   0.579E-03 -.176E-01 -.102E-02   0.102E-02 -.475E-03 -.753E-04   0.143E-05 0.253E-05 0.182E-05
 -----------------------------------------------------------------------------------------------
   -.513E-04 0.275E-04 -.430E-05   -.157E-14 0.142E-13 0.367E-13   0.447E-04 -.334E-04 0.421E-05   0.576E-06 0.201E-06 0.961E-07
 
 
 POSITION                                       TOTAL-FORCE (eV/Angst)
 -----------------------------------------------------------------------------------
      2.70729      2.71729      2.71729         0.131206     -0.001852     -0.001860
      8.15186      2.71729      2.71729        -0.000258     -0.000327      0.000603
      2.71729      8.15186      2.71729        -0.001434     -0.001875      0.001866
      8.15186      8.15186      2.71729        -0.000123     -0.000327     -0.000603
      2.71729      2.71729      8.15186         0.000460     -0.001860      0.001853
      8.15186      2.71729      8.15186         0.000030     -0.000327     -0.000604
      2.71729      8.15186      8.15186         0.004880     -0.001877     -0.001868
      8.15186      8.15186      8.15186        -0.000149     -0.000326      0.000602
      2.71729     10.85915      0.00000         0.004267      0.131206     -0.000941
      8.15186     -0.00000     -0.00000         0.000037     -0.000558     -0.000077
      2.71729      5.43457      0.00000         0.004277     -0.001135      0.000954
      8.15186      5.43457     -0.00000         0.000039     -0.000123      0.000077
      2.71729      0.00000      5.43457         0.004277      0.000473     -0.000954
      8.15186     -0.00000      5.43457         0.000039      0.004004     -0.000076
      2.71729      5.43457      5.43457         0.004267      0.000894      0.000942
      8.15186      5.43457      5.43457         0.000037     -0.000149      0.000077
     -0.00000      2.71729      0.00000        -0.000023     -0.000908     -0.000926
      5.43457      2.71729     -0.00000        -0.003708     -0.000918      0.000902
     -0.00000      8.15186      0.00000        -0.002194     -0.001800      0.001557
      5.43457      8.15186      0.00000         0.001539     -0.001799     -0.001555
      0.00000      2.71729      5.43457        -0.002480     -0.001279      0.001944
      5.43457      2.71729      5.43457        -0.001255     -0.001268     -0.001929
     -0.00000      8.15186      5.43457         0.000275     -0.000403     -0.000525
      5.43457      8.15186      5.43457        -0.000929     -0.000403      0.000527
      0.00000      0.00000      2.71729        -0.000922      0.002411     -0.000002
      5.43457     -0.00000      2.71729        -0.000919      0.006118      0.001881
     -0.00000      5.43457      2.71729        -0.001800      0.001905     -0.001029
      5.43457      5.43457      2.71729        -0.001783     -0.001816     -0.000865
      0.00000      0.00000      8.15186        -0.001267      0.004869     -0.000864
      5.43457      0.00000      8.15186        -0.001281      0.003675      0.001031
      0.00000      5.43457      8.15186        -0.000403     -0.000565     -0.000153
      5.43457      5.43457      8.15186        -0.000403      0.000644     -0.000000
      4.07593      4.07593      4.07593        -0.031934     -0.022622     -0.022615
      9.51050      4.07593      4.07593         0.000358     -0.000161     -0.000611
      4.07593      9.51050      4.07593         0.000917      0.000177     -0.000753
      9.51050      9.51050      4.07593         0.000028     -0.002305     -0.000508
      4.07593      4.07593      9.51050         0.000851     -0.000322     -0.000679
      9.51050      4.07593      9.51050        -0.000012     -0.000473     -0.000467
      4.07593      9.51050      9.51050         0.020922     -0.032743     -0.023251
      9.51050      9.51050      9.51050         0.000521      0.000246     -0.000676
      4.07593      1.35864      1.35864        -0.054590     -0.009794      0.000012
      9.51050      1.35864      1.35864        -0.000250      0.000850     -0.000070
      4.07593      6.79322      1.35864         0.000171      0.000426      0.000071
      9.51050      6.79322      1.35864        -0.000440     -0.000008     -0.000001
      4.07593      1.35864      6.79322         0.000101      0.000921     -0.000001
      9.51050      1.35864      6.79322        -0.000475     -0.001824     -0.000036
      4.07593      6.79322      6.79322        -0.002334      0.000028      0.000035
      9.51050      6.79322      6.79322        -0.000091      0.000448     -0.000000
      1.35864      4.07593      1.35864        -0.032831      0.023092     -0.022665
      6.79322      4.07593      1.35864        -0.000125      0.000121     -0.000089
      1.35864      9.51050      1.35864        -0.022489     -0.032148      0.022597
      6.79322      9.51050      1.35864        -0.000561      0.000728      0.000158
      1.35864      4.07593      6.79322         0.000265      0.000188     -0.000130
      6.79322      4.07593      6.79322        -0.000489      0.000427      0.000058
      1.35864      9.51050      6.79322        -0.002496      0.000768      0.000089
      6.79322      9.51050      6.79322        -0.000076     -0.001820     -0.000017
      1.35864      1.35864      4.07593        -0.032080     -0.022497      0.023342
      6.79322      1.35864      4.07593         0.000340     -0.002420      0.000593
      1.35864      6.79322      4.07593         0.000771     -0.000566      0.000622
      6.79322      6.79322      4.07593         0.000051     -0.000034      0.000519
      1.35864      1.35864      9.51050         0.022916     -0.032586      0.022745
      6.79322      1.35864      9.51050         0.000120      0.000262      0.000622
      1.35864      6.79322      9.51050        -0.001750     -0.000165      0.000593
      6.79322      6.79322      9.51050         0.000394     -0.000494      0.000524
 -----------------------------------------------------------------------------------
    total drift:                               -0.000006     -0.000006      0.000000


--------------------------------------------------------------------------------------------------------



  FREE ENERGIE OF THE ION-ELECTRON SYSTEM (eV)
  ---------------------------------------------------
  free  energy   TOTEN  =      -367.49987869 eV

  energy  without entropy=     -367.49987869  energy(sigma->0) =     -367.49987869
 


--------------------------------------------------------------------------------------------------------


    POTLOK:  cpu time      0.0425: real time      0.0430


--------------------------------------------------------------------------------------------------------


     LOOP+:  cpu time     45.5883: real time     45.8282
    4ORBIT:  cpu time      0.0000: real time      0.0000

 total amount of memory used by VASP MPI-rank0    65387. kBytes
=======================================================================

   base      :      30000. kBytes
   nonl-proj :       6402. kBytes
   fftplans  :      11573. kBytes
   grid      :       5816. kBytes
   one-center:         49. kBytes
   wavefun   :      11547. kBytes
 
  
  
 General timing and accounting informations for this job:
 ========================================================
  
                  Total CPU time used (sec):       47.599
                            User time (sec):       46.223
                          System time (sec):        1.376
                         Elapsed time (sec):       48.010
  
                   Maximum memory used (kb):      229404.
                   Average memory used (kb):          N/A
  
                          Minor page faults:        85488
                          Major page faults:            0
                 Voluntary context switches:          744
