<?xml version="1.0" encoding="ISO-8859-1"?>
<modeling>
 <generator>
  <i name="program" type="string">vasp </i>
  <i name="version" type="string">6.3.2  </i>
  <i name="subversion" type="string">27Jun22 (build Oct 14 2022 12:13:54) complex                          parallel </i>
  <i name="platform" type="string">LinuxIFC </i>
  <i name="date" type="string">2023 04 03 </i>
  <i name="time" type="string">14:42:53 </i>
 </generator>
 <incar>
  <i type="string" name="PREC">Accurate</i>
  <i type="int" name="IALGO">    38</i>
  <i type="logical" name="ADDGRID"> T  </i>
  <i type="int" name="NELMIN">     5</i>
  <i type="int" name="IBRION">    -1</i>
  <i name="EDIFF">      0.00000001</i>
  <i name="ENCUT">    318.00000000</i>
  <i type="logical" name="LREAL"> F  </i>
  <i type="int" name="ISMEAR">     0</i>
  <i name="SIGMA">      0.02000000</i>
  <i type="logical" name="LWAVE"> F  </i>
  <i type="logical" name="LCHARG"> F  </i>
  <i type="string" name="GGA">Ps</i>
 </incar>
 <primitive_cell>
  <structure name="primitive_cell" >
   <crystal>
    <varray name="basis" >
     <v>      10.86914512      -0.00000000      -0.00000000 </v>
     <v>      -0.00000000      10.86914512       0.00000000 </v>
     <v>       0.00000000       0.00000000      10.86914512 </v>
    </varray>
    <i name="volume">   1284.06249692 </i>
    <varray name="rec_basis" >
     <v>       0.09200356       0.00000000      -0.00000000 </v>
     <v>       0.00000000       0.09200356      -0.00000000 </v>
     <v>       0.00000000      -0.00000000       0.09200356 </v>
    </varray>
   </crystal>
   <varray name="positions" >
    <v>       0.24907996       0.25000000       0.25000000 </v>
    <v>       0.75000000       0.25000000       0.25000000 </v>
    <v>       0.25000000       0.75000000       0.25000000 </v>
    <v>       0.75000000       0.75000000       0.25000000 </v>
    <v>       0.25000000       0.25000000       0.75000000 </v>
    <v>       0.75000000       0.25000000       0.75000000 </v>
    <v>       0.25000000       0.75000000       0.75000000 </v>
    <v>       0.75000000       0.75000000       0.75000000 </v>
    <v>       0.25000000       0.99907996       0.00000000 </v>
    <v>       0.75000000       1.00000000       1.00000000 </v>
    <v>       0.25000000       0.50000000       0.00000000 </v>
    <v>       0.75000000       0.50000000       1.00000000 </v>
    <v>       0.25000000       0.00000000       0.50000000 </v>
    <v>       0.75000000       1.00000000       0.50000000 </v>
    <v>       0.25000000       0.50000000       0.50000000 </v>
    <v>       0.75000000       0.50000000       0.50000000 </v>
    <v>       1.00000000       0.25000000       0.00000000 </v>
    <v>       0.50000000       0.25000000       1.00000000 </v>
    <v>       1.00000000       0.75000000       0.00000000 </v>
    <v>       0.50000000       0.75000000       0.00000000 </v>
    <v>       0.00000000       0.25000000       0.50000000 </v>
    <v>       0.50000000       0.25000000       0.50000000 </v>
    <v>       1.00000000       0.75000000       0.50000000 </v>
    <v>       0.50000000       0.75000000       0.50000000 </v>
    <v>       0.00000000       0.00000000       0.25000000 </v>
    <v>       0.50000000       1.00000000       0.25000000 </v>
    <v>       1.00000000       0.50000000       0.25000000 </v>
    <v>       0.50000000       0.50000000       0.25000000 </v>
    <v>       0.00000000       0.00000000       0.75000000 </v>
    <v>       0.50000000       0.00000000       0.75000000 </v>
    <v>       0.00000000       0.50000000       0.75000000 </v>
    <v>       0.50000000       0.50000000       0.75000000 </v>
    <v>       0.37500000       0.37500000       0.37500000 </v>
    <v>       0.87500000       0.37500000       0.37500000 </v>
    <v>       0.37500000       0.87500000       0.37500000 </v>
    <v>       0.87500000       0.87500000       0.37500000 </v>
    <v>       0.37500000       0.37500000       0.87500000 </v>
    <v>       0.87500000       0.37500000       0.87500000 </v>
    <v>       0.37500000       0.87500000       0.87500000 </v>
    <v>       0.87500000       0.87500000       0.87500000 </v>
    <v>       0.37500000       0.12500000       0.12500000 </v>
    <v>       0.87500000       0.12500000       0.12500000 </v>
    <v>       0.37500000       0.62500000       0.12500000 </v>
    <v>       0.87500000       0.62500000       0.12500000 </v>
    <v>       0.37500000       0.12500000       0.62500000 </v>
    <v>       0.87500000       0.12500000       0.62500000 </v>
    <v>       0.37500000       0.62500000       0.62500000 </v>
    <v>       0.87500000       0.62500000       0.62500000 </v>
    <v>       0.12500000       0.37500000       0.12500000 </v>
    <v>       0.62500000       0.37500000       0.12500000 </v>
    <v>       0.12500000       0.87500000       0.12500000 </v>
    <v>       0.62500000       0.87500000       0.12500000 </v>
    <v>       0.12500000       0.37500000       0.62500000 </v>
    <v>       0.62500000       0.37500000       0.62500000 </v>
    <v>       0.12500000       0.87500000       0.62500000 </v>
    <v>       0.62500000       0.87500000       0.62500000 </v>
    <v>       0.12500000       0.12500000       0.37500000 </v>
    <v>       0.62500000       0.12500000       0.37500000 </v>
    <v>       0.12500000       0.62500000       0.37500000 </v>
    <v>       0.62500000       0.62500000       0.37500000 </v>
    <v>       0.12500000       0.12500000       0.87500000 </v>
    <v>       0.62500000       0.12500000       0.87500000 </v>
    <v>       0.12500000       0.62500000       0.87500000 </v>
    <v>       0.62500000       0.62500000       0.87500000 </v>
   </varray>
  </structure>
  <varray name="primitive_index" >
   <v type="int" >        1 </v>
   <v type="int" >        2 </v>
   <v type="int" >        3 </v>
   <v type="int" >        4 </v>
   <v type="int" >        5 </v>
   <v type="int" >        6 </v>
   <v type="int" >        7 </v>
   <v type="int" >        8 </v>
   <v type="int" >        9 </v>
   <v type="int" >       10 </v>
   <v type="int" >       11 </v>
   <v type="int" >       12 </v>
   <v type="int" >       13 </v>
   <v type="int" >       14 </v>
   <v type="int" >       15 </v>
   <v type="int" >       16 </v>
   <v type="int" >       17 </v>
   <v type="int" >       18 </v>
   <v type="int" >       19 </v>
   <v type="int" >       20 </v>
   <v type="int" >       21 </v>
   <v type="int" >       22 </v>
   <v type="int" >       23 </v>
   <v type="int" >       24 </v>
   <v type="int" >       25 </v>
   <v type="int" >       26 </v>
   <v type="int" >       27 </v>
   <v type="int" >       28 </v>
   <v type="int" >       29 </v>
   <v type="int" >       30 </v>
   <v type="int" >       31 </v>
   <v type="int" >       32 </v>
   <v type="int" >       33 </v>
   <v type="int" >       34 </v>
   <v type="int" >       35 </v>
   <v type="int" >       36 </v>
   <v type="int" >       37 </v>
   <v type="int" >       38 </v>
   <v type="int" >       39 </v>
   <v type="int" >       40 </v>
   <v type="int" >       41 </v>
   <v type="int" >       42 </v>
   <v type="int" >       43 </v>
   <v type="int" >       44 </v>
   <v type="int" >       45 </v>
   <v type="int" >       46 </v>
   <v type="int" >       47 </v>
   <v type="int" >       48 </v>
   <v type="int" >       49 </v>
   <v type="int" >       50 </v>
   <v type="int" >       51 </v>
   <v type="int" >       52 </v>
   <v type="int" >       53 </v>
   <v type="int" >       54 </v>
   <v type="int" >       55 </v>
   <v type="int" >       56 </v>
   <v type="int" >       57 </v>
   <v type="int" >       58 </v>
   <v type="int" >       59 </v>
   <v type="int" >       60 </v>
   <v type="int" >       61 </v>
   <v type="int" >       62 </v>
   <v type="int" >       63 </v>
   <v type="int" >       64 </v>
  </varray>
 </primitive_cell>
 <kpoints>
  <generation param="Gamma">
   <v type="int" name="divisions">       2        2        2 </v>
   <v name="usershift">      0.00000000       0.00000000       0.00000000 </v>
   <v name="genvec1">      0.50000000      -0.00000000       0.00000000 </v>
   <v name="genvec2">     -0.00000000       0.50000000       0.00000000 </v>
   <v name="genvec3">     -0.00000000       0.00000000       0.50000000 </v>
   <v name="shift">      0.00000000       0.00000000       0.00000000 </v>
  </generation>
  <varray name="kpointlist" >
   <v>       0.00000000       0.00000000       0.00000000 </v>
   <v>       0.50000000       0.00000000       0.00000000 </v>
   <v>      -0.00000000       0.50000000       0.00000000 </v>
   <v>       0.00000000      -0.00000000       0.50000000 </v>
   <v>       0.50000000       0.50000000       0.00000000 </v>
   <v>       0.00000000       0.50000000       0.50000000 </v>
   <v>       0.50000000      -0.00000000       0.50000000 </v>
   <v>       0.50000000       0.50000000       0.50000000 </v>
  </varray>
  <varray name="weights" >
   <v>       0.12500000 </v>
   <v>       0.12500000 </v>
   <v>       0.12500000 </v>
   <v>       0.12500000 </v>
   <v>       0.12500000 </v>
   <v>       0.12500000 </v>
   <v>       0.12500000 </v>
   <v>       0.12500000 </v>
  </varray>
 </kpoints>
 <parameters>
  <separator name="general" >
   <i type="string" name="SYSTEM">unknown system</i>
   <i type="logical" name="LCOMPAT"> F  </i>
  </separator>
  <separator name="electronic" >
   <i type="string" name="PREC">accura</i>
   <i name="ENMAX">    318.00000000</i>
   <i name="ENAUG">    322.06900000</i>
   <i name="EDIFF">      0.00000001</i>
   <i type="int" name="IALGO">    38</i>
   <i type="int" name="IWAVPR">    10</i>
   <i type="int" name="NBANDS">   168</i>
   <i type="int" name="NBANDSLOW">    -1</i>
   <i type="int" name="NBANDSHIGH">    -1</i>
   <i name="NELECT">    256.00000000</i>
   <i type="int" name="TURBO">     0</i>
   <i type="int" name="IRESTART">     0</i>
   <i type="int" name="NREBOOT">     0</i>
   <i type="int" name="NMIN">     0</i>
   <i name="EREF">      0.00000000</i>
   <separator name="electronic smearing" >
    <i type="int" name="ISMEAR">     0</i>
    <i name="SIGMA">      0.02000000</i>
    <i name="KSPACING">      0.50000000</i>
    <i type="logical" name="KGAMMA"> T  </i>
    <i type="logical" name="KBLOWUP"> T  </i>
   </separator>
   <separator name="electronic projectors" >
    <i type="logical" name="LREAL"> F  </i>
    <v name="ROPT">      0.00000000</v>
    <i type="int" name="LMAXPAW">  -100</i>
    <i type="int" name="LMAXMIX">     2</i>
    <i type="logical" name="NLSPLINE"> F  </i>
   </separator>
   <separator name="electronic startup" >
    <i type="int" name="ISTART">     0</i>
    <i type="int" name="ICHARG">     2</i>
    <i type="int" name="INIWAV">     1</i>
   </separator>
   <separator name="electronic spin" >
    <i type="int" name="ISPIN">     1</i>
    <i type="logical" name="LNONCOLLINEAR"> F  </i>
    <v name="MAGMOM">      1.00000000      1.00000000      1.00000000      1.00000000      1.00000000      1.00000000      1.00000000      1.00000000      1.00000000      1.00000000      1.00000000      1.00000000      1.00000000      1.00000000      1.00000000      1.00000000      1.00000000      1.00000000      1.00000000      1.00000000
      1.00000000      1.00000000      1.00000000      1.00000000      1.00000000      1.00000000      1.00000000      1.00000000      1.00000000      1.00000000      1.00000000      1.00000000      1.00000000      1.00000000      1.00000000      1.00000000      1.00000000      1.00000000      1.00000000      1.00000000
      1.00000000      1.00000000      1.00000000      1.00000000      1.00000000      1.00000000      1.00000000      1.00000000      1.00000000      1.00000000      1.00000000      1.00000000      1.00000000      1.00000000      1.00000000      1.00000000      1.00000000      1.00000000      1.00000000      1.00000000
      1.00000000      1.00000000      1.00000000      1.00000000</v>
    <i name="NUPDOWN">     -1.00000000</i>
    <i type="logical" name="LSORBIT"> F  </i>
    <v name="SAXIS">      0.00000000      0.00000000      1.00000000</v>
    <i type="logical" name="LSPIRAL"> F  </i>
    <v name="QSPIRAL">      0.00000000      0.00000000      0.00000000</v>
    <i type="logical" name="LZEROZ"> F  </i>
   </separator>
   <separator name="electronic exchange-correlation" >
    <i type="logical" name="LASPH"> F  </i>
    <i type="logical" name="LMETAGGA"> F  </i>
   </separator>
   <separator name="electronic convergence" >
    <i type="int" name="NELM">    60</i>
    <i type="int" name="NELMDL">    -5</i>
    <i type="int" name="NELMIN">     5</i>
    <i name="ENINI">    318.00000000</i>
    <separator name="electronic convergence detail" >
     <i type="logical" name="LDIAG"> T  </i>
     <i type="logical" name="LSUBROT"> F  </i>
     <i name="WEIMIN">      0.00000000</i>
     <i name="EBREAK">      0.00000000</i>
     <i name="DEPER">      0.30000000</i>
     <i type="int" name="NRMM">     4</i>
     <i name="TIME">      0.40000000</i>
    </separator>
   </separator>
   <separator name="electronic mixer" >
    <i name="AMIX">      0.40000000</i>
    <i name="BMIX">      1.00000000</i>
    <i name="AMIN">      0.10000000</i>
    <i name="AMIX_MAG">      1.60000000</i>
    <i name="BMIX_MAG">      1.00000000</i>
    <separator name="electronic mixer details" >
     <i type="int" name="IMIX">     4</i>
     <i type="logical" name="MIXFIRST"> F  </i>
     <i type="int" name="MAXMIX">   -45</i>
     <i name="WC">    100.00000000</i>
     <i type="int" name="INIMIX">     1</i>
     <i type="int" name="MIXPRE">     1</i>
     <i type="int" name="MREMOVE">     5</i>
    </separator>
   </separator>
   <separator name="electronic dipolcorrection" >
    <i type="logical" name="LDIPOL"> F  </i>
    <i type="logical" name="LMONO"> F  </i>
    <i type="int" name="IDIPOL">     0</i>
    <i name="EPSILON">      1.00000000</i>
    <v name="DIPOL">   -100.00000000   -100.00000000   -100.00000000</v>
    <i name="EFIELD">      0.00000000</i>
   </separator>
  </separator>
  <separator name="grids" >
   <i type="int" name="NGX">    64</i>
   <i type="int" name="NGY">    64</i>
   <i type="int" name="NGZ">    64</i>
   <i type="int" name="NGXF">   128</i>
   <i type="int" name="NGYF">   128</i>
   <i type="int" name="NGZF">   128</i>
   <i type="logical" name="ADDGRID"> T  </i>
  </separator>
  <separator name="ionic" >
   <i type="int" name="NSW">     0</i>
   <i type="int" name="IBRION">    -1</i>
   <i type="int" name="MDALGO">     0</i>
   <i type="int" name="ISIF">     2</i>
   <i name="PSTRESS">      0.00000000</i>
   <i name="EDIFFG">      0.00000010</i>
   <i type="int" name="NFREE">     0</i>
   <i name="POTIM">      0.50000000</i>
   <i name="SMASS">     -3.00000000</i>
   <i name="SCALEE">      1.00000000</i>
  </separator>
  <separator name="ionic md" >
   <i name="TEBEG">      0.00010000</i>
   <i name="TEEND">      0.00010000</i>
   <i type="int" name="NBLOCK">     1</i>
   <i type="int" name="KBLOCK">     1</i>
   <i type="int" name="NPACO">   256</i>
   <i name="APACO">     10.00000000</i>
  </separator>
  <separator name="symmetry" >
   <i type="int" name="ISYM">     2</i>
   <i name="SYMPREC">      0.00001000</i>
  </separator>
  <separator name="dos" >
   <i type="int" name="LORBIT">     0</i>
   <v name="RWIGS">     -1.00000000</v>
   <i type="int" name="NEDOS">   301</i>
   <i name="EMIN">     10.00000000</i>
   <i name="EMAX">    -10.00000000</i>
   <i name="EFERMI">      0.00000000</i>
  </separator>
  <separator name="writing" >
   <i type="int" name="NWRITE">     2</i>
   <i type="logical" name="LWAVE"> F  </i>
   <i type="logical" name="LDOWNSAMPLE"> F  </i>
   <i type="logical" name="LCHARG"> F  </i>
   <i type="logical" name="LPARD"> F  </i>
   <i type="logical" name="LVTOT"> F  </i>
   <i type="logical" name="LVHAR"> F  </i>
   <i type="logical" name="LELF"> F  </i>
   <i type="logical" name="LOPTICS"> F  </i>
   <v name="STM">      0.00000000      0.00000000      0.00000000      0.00000000      0.00000000      0.00000000      0.00000000</v>
  </separator>
  <separator name="performance" >
   <i type="int" name="NPAR">     8</i>
   <i type="int" name="NSIM">     4</i>
   <i type="int" name="NBLK">    -1</i>
   <i type="logical" name="LPLANE"> T  </i>
   <i type="logical" name="LSCALAPACK"> T  </i>
   <i type="logical" name="LSCAAWARE"> F  </i>
   <i type="logical" name="LSCALU"> F  </i>
   <i type="logical" name="LASYNC"> F  </i>
   <i type="logical" name="LORBITALREAL"> F  </i>
  </separator>
  <separator name="miscellaneous" >
   <i type="int" name="IDIOT">     3</i>
   <i type="int" name="PHON_NSTRUCT">    -1</i>
   <i type="logical" name="LMUSIC"> F  </i>
   <v name="POMASS">     28.08500000</v>
   <v name="DARWINR">      0.00000000</v>
   <v name="DARWINV">      1.00000000</v>
   <i type="logical" name="LCORR"> T  </i>
  </separator>
  <i type="logical" name="GGA_COMPAT"> T  </i>
  <i type="logical" name="LBERRY"> F  </i>
  <i type="int" name="ICORELEVEL">     0</i>
  <i type="logical" name="LDAU"> F  </i>
  <i type="int" name="I_CONSTRAINED_M">     0</i>
  <separator name="electronic exchange-correlation" >
   <i type="string" name="GGA">PS</i>
   <i type="int" name="VOSKOWN">     0</i>
   <i type="logical" name="LHFCALC"> F  </i>
   <i type="string" name="PRECFOCK"></i>
   <i type="logical" name="LSYMGRAD"> F  </i>
   <i type="logical" name="LHFONE"> F  </i>
   <i type="logical" name="LRHFCALC"> F  </i>
   <i type="logical" name="LTHOMAS"> F  </i>
   <i type="logical" name="LMODELHF"> F  </i>
   <i type="logical" name="LFOCKACE"> F  </i>
   <i name="ENCUT4O">     -1.00000000</i>
   <i type="int" name="EXXOEP">     0</i>
   <i type="int" name="FOURORBIT">     0</i>
   <i name="AEXX">      0.00000000</i>
   <i name="HFALPHA">      0.00000000</i>
   <i name="MCALPHA">      0.00000000</i>
   <i name="ALDAX">      1.00000000</i>
   <i name="AGGAX">      1.00000000</i>
   <i name="ALDAC">      1.00000000</i>
   <i name="AGGAC">      1.00000000</i>
   <i type="int" name="NKREDX">     1</i>
   <i type="int" name="NKREDY">     1</i>
   <i type="int" name="NKREDZ">     1</i>
   <i type="logical" name="SHIFTRED"> F  </i>
   <i type="logical" name="ODDONLY"> F  </i>
   <i type="logical" name="EVENONLY"> F  </i>
   <i type="int" name="LMAXFOCK">     0</i>
   <i type="int" name="NMAXFOCKAE">     0</i>
   <i type="logical" name="LFOCKAEDFT"> F  </i>
   <i name="HFSCREEN">      0.00000000</i>
   <i name="HFSCREENC">      0.00000000</i>
   <i type="int" name="NBANDSGWLOW">     0</i>
  </separator>
  <separator name="vdW DFT" >
   <i type="logical" name="LUSE_VDW"> F  </i>
   <i name="Zab_VDW">     -0.84910000</i>
   <i name="PARAM1">      0.12340000</i>
   <i name="PARAM2">      1.00000000</i>
   <i name="PARAM3">      0.00000000</i>
  </separator>
  <separator name="model GW" >
   <i type="int" name="MODEL_GW">     0</i>
   <i name="MODEL_EPS0">     12.03808591</i>
   <i name="MODEL_ALPHA">      1.00000000</i>
  </separator>
  <separator name="linear response parameters" >
   <i type="logical" name="LEPSILON"> F  </i>
   <i type="logical" name="LRPA"> F  </i>
   <i type="logical" name="LNABLA"> F  </i>
   <i type="logical" name="LVEL"> F  </i>
   <i name="CSHIFT">      0.10000000</i>
   <i name="OMEGAMAX">     -1.00000000</i>
   <i name="DEG_THRESHOLD">      0.00200000</i>
   <i name="RTIME">     -0.10000000</i>
   <i name="WPLASMAI">      0.00000000</i>
   <v name="DFIELD">      0.00000000      0.00000000      0.00000000</v>
   <v name="WPLASMA">      0.00000000      0.00000000      0.00000000      0.00000000      0.00000000      0.00000000      0.00000000      0.00000000      0.00000000</v>
  </separator>
  <separator name="orbital magnetization" >
   <i type="logical" name="NUCIND"> F  </i>
   <v name="MAGPOS">      0.00000000      0.00000000      0.00000000</v>
   <i type="logical" name="LNICSALL"> T  </i>
   <i type="logical" name="ORBITALMAG"> F  </i>
   <i type="logical" name="LMAGBLOCH"> F  </i>
   <i type="logical" name="LCHIMAG"> F  </i>
   <i type="logical" name="LGAUGE"> T  </i>
   <i type="int" name="MAGATOM">     0</i>
   <v name="MAGDIPOL">      0.00000000      0.00000000      0.00000000</v>
   <v name="AVECCONST">      0.00000000      0.00000000      0.00000000</v>
  </separator>
  <separator name="response functions" >
   <i type="logical" name="LFINITE_TEMPERATURE"> F  </i>
   <i type="logical" name="LADDER"> F  </i>
   <i type="logical" name="LRPAFORCE"> F  </i>
   <i type="logical" name="LFXC"> F  </i>
   <i type="logical" name="LHARTREE"> T  </i>
   <i type="int" name="IBSE">     0</i>
   <v type="int" name="KPOINT">    -1     0     0     0</v>
   <i type="logical" name="LTCTC"> F  </i>
   <i type="logical" name="LTCTE"> F  </i>
   <i type="logical" name="LTETE"> F  </i>
   <i type="logical" name="LTRIPLET"> F  </i>
   <i type="logical" name="LFXCEPS"> F  </i>
   <i type="logical" name="LFXHEG"> F  </i>
   <i type="int" name="NATURALO">     2</i>
   <i type="logical" name="LHOLEGF"> F  </i>
   <i type="logical" name="L2ORDER"> F  </i>
   <i type="logical" name="LDMP1"> F  </i>
   <i type="logical" name="LMP2LT"> F  </i>
   <i type="logical" name="LSMP2LT"> F  </i>
   <i type="logical" name="LGWLF"> F  </i>
   <i name="ENCUTGW">     -2.00000000</i>
   <i name="ENCUTGWSOFT">     -2.00000000</i>
   <i name="ENCUTLF">     -1.00000000</i>
   <i type="logical" name="LESF_SPLINES"> F  </i>
   <i type="int" name="LMAXMP2">    -1</i>
   <i name="SCISSOR">      0.00000000</i>
   <i type="int" name="NOMEGA">     0</i>
   <i type="int" name="NOMEGAR">     0</i>
   <i type="int" name="NBANDSGW">    -1</i>
   <i type="int" name="NBANDSO">    -1</i>
   <i type="int" name="NBANDSV">    -1</i>
   <i type="int" name="NELMGW">     1</i>
   <i type="int" name="NELMHF">     1</i>
   <i type="int" name="DIM">     3</i>
   <i type="int" name="IESPILON">     4</i>
   <i type="int" name="ANTIRES">     0</i>
   <i name="OMEGAMAX">    -30.00000000</i>
   <i name="OMEGAMIN">    -30.00000000</i>
   <i name="OMEGATL">   -200.00000000</i>
   <i type="int" name="OMEGAGRID">     0</i>
   <i name="CSHIFT">     -0.10000000</i>
   <i type="logical" name="LSELFENERGY"> F  </i>
   <i type="logical" name="LSPECTRAL"> F  </i>
   <i type="logical" name="LSPECTRALGW"> F  </i>
   <i type="logical" name="LSINGLES"> F  </i>
   <i type="logical" name="LFERMIGW"> F  </i>
   <i type="logical" name="ODDONLYGW"> F  </i>
   <i type="logical" name="EVENONLYGW"> F  </i>
   <i type="int" name="NKREDLFX">     1</i>
   <i type="int" name="NKREDLFY">     1</i>
   <i type="int" name="NKREDLFZ">     1</i>
   <i type="int" name="MAXMEM">  2800</i>
   <i type="int" name="TELESCOPE">     0</i>
   <i type="int" name="NTAUPAR">    -1</i>
   <i type="int" name="NOMEGAPAR">    -1</i>
   <i name="DAMP_NEWTON">      0.80000001</i>
   <i name="LAMBDA">      1.00000000</i>
  </separator>
  <separator name="External order field" >
   <i name="OFIELD_KAPPA">      0.00000000</i>
   <v name="OFIELD_K">      0.00000000      0.00000000      0.00000000</v>
   <i name="OFIELD_Q6_NEAR">      0.00000000</i>
   <i name="OFIELD_Q6_FAR">      0.00000000</i>
   <i name="OFIELD_A">      0.00000000</i>
  </separator>
  <separator name="optional k-points parameters" >
   <i type="int" name="KPOINTS_OPT_MODE">     1</i>
   <i type="logical" name="LKPOINTS_OPT"> F  </i>
  </separator>
 </parameters>
 <atominfo>
  <atoms>      64 </atoms>
  <types>       1 </types>
  <array name="atoms" >
   <dimension dim="1">ion</dimension>
   <field type="string">element</field>
   <field type="int">atomtype</field>
   <set>
    <rc><c>Si</c><c>   1</c></rc>
    <rc><c>Si</c><c>   1</c></rc>
    <rc><c>Si</c><c>   1</c></rc>
    <rc><c>Si</c><c>   1</c></rc>
    <rc><c>Si</c><c>   1</c></rc>
    <rc><c>Si</c><c>   1</c></rc>
    <rc><c>Si</c><c>   1</c></rc>
    <rc><c>Si</c><c>   1</c></rc>
    <rc><c>Si</c><c>   1</c></rc>
    <rc><c>Si</c><c>   1</c></rc>
    <rc><c>Si</c><c>   1</c></rc>
    <rc><c>Si</c><c>   1</c></rc>
    <rc><c>Si</c><c>   1</c></rc>
    <rc><c>Si</c><c>   1</c></rc>
    <rc><c>Si</c><c>   1</c></rc>
    <rc><c>Si</c><c>   1</c></rc>
    <rc><c>Si</c><c>   1</c></rc>
    <rc><c>Si</c><c>   1</c></rc>
    <rc><c>Si</c><c>   1</c></rc>
    <rc><c>Si</c><c>   1</c></rc>
    <rc><c>Si</c><c>   1</c></rc>
    <rc><c>Si</c><c>   1</c></rc>
    <rc><c>Si</c><c>   1</c></rc>
    <rc><c>Si</c><c>   1</c></rc>
    <rc><c>Si</c><c>   1</c></rc>
    <rc><c>Si</c><c>   1</c></rc>
    <rc><c>Si</c><c>   1</c></rc>
    <rc><c>Si</c><c>   1</c></rc>
    <rc><c>Si</c><c>   1</c></rc>
    <rc><c>Si</c><c>   1</c></rc>
    <rc><c>Si</c><c>   1</c></rc>
    <rc><c>Si</c><c>   1</c></rc>
    <rc><c>Si</c><c>   1</c></rc>
    <rc><c>Si</c><c>   1</c></rc>
    <rc><c>Si</c><c>   1</c></rc>
    <rc><c>Si</c><c>   1</c></rc>
    <rc><c>Si</c><c>   1</c></rc>
    <rc><c>Si</c><c>   1</c></rc>
    <rc><c>Si</c><c>   1</c></rc>
    <rc><c>Si</c><c>   1</c></rc>
    <rc><c>Si</c><c>   1</c></rc>
    <rc><c>Si</c><c>   1</c></rc>
    <rc><c>Si</c><c>   1</c></rc>
    <rc><c>Si</c><c>   1</c></rc>
    <rc><c>Si</c><c>   1</c></rc>
    <rc><c>Si</c><c>   1</c></rc>
    <rc><c>Si</c><c>   1</c></rc>
    <rc><c>Si</c><c>   1</c></rc>
    <rc><c>Si</c><c>   1</c></rc>
    <rc><c>Si</c><c>   1</c></rc>
    <rc><c>Si</c><c>   1</c></rc>
    <rc><c>Si</c><c>   1</c></rc>
    <rc><c>Si</c><c>   1</c></rc>
    <rc><c>Si</c><c>   1</c></rc>
    <rc><c>Si</c><c>   1</c></rc>
    <rc><c>Si</c><c>   1</c></rc>
    <rc><c>Si</c><c>   1</c></rc>
    <rc><c>Si</c><c>   1</c></rc>
    <rc><c>Si</c><c>   1</c></rc>
    <rc><c>Si</c><c>   1</c></rc>
    <rc><c>Si</c><c>   1</c></rc>
    <rc><c>Si</c><c>   1</c></rc>
    <rc><c>Si</c><c>   1</c></rc>
    <rc><c>Si</c><c>   1</c></rc>
   </set>
  </array>
  <array name="atomtypes" >
   <dimension dim="1">type</dimension>
   <field type="int">atomspertype</field>
   <field type="string">element</field>
   <field>mass</field>
   <field>valence</field>
   <field type="string">pseudopotential</field>
   <set>
    <rc><c>  64</c><c>Si</c><c>     28.08500000</c><c>      4.00000000</c><c>  PAW_PBE Si 05Jan2001                  </c></rc>
   </set>
  </array>
 </atominfo>
 <structure name="initialpos" >
  <crystal>
   <varray name="basis" >
    <v>      10.86914512      -0.00000000      -0.00000000 </v>
    <v>      -0.00000000      10.86914512       0.00000000 </v>
    <v>       0.00000000       0.00000000      10.86914512 </v>
   </varray>
   <i name="volume">   1284.06249692 </i>
   <varray name="rec_basis" >
    <v>       0.09200356       0.00000000      -0.00000000 </v>
    <v>       0.00000000       0.09200356      -0.00000000 </v>
    <v>       0.00000000      -0.00000000       0.09200356 </v>
   </varray>
  </crystal>
  <varray name="positions" >
   <v>       0.24907996       0.25000000       0.25000000 </v>
   <v>       0.75000000       0.25000000       0.25000000 </v>
   <v>       0.25000000       0.75000000       0.25000000 </v>
   <v>       0.75000000       0.75000000       0.25000000 </v>
   <v>       0.25000000       0.25000000       0.75000000 </v>
   <v>       0.75000000       0.25000000       0.75000000 </v>
   <v>       0.25000000       0.75000000       0.75000000 </v>
   <v>       0.75000000       0.75000000       0.75000000 </v>
   <v>       0.25000000       0.99907996       0.00000000 </v>
   <v>       0.75000000       0.00000000       0.00000000 </v>
   <v>       0.25000000       0.50000000       0.00000000 </v>
   <v>       0.75000000       0.50000000       0.00000000 </v>
   <v>       0.25000000       0.00000000       0.50000000 </v>
   <v>       0.75000000       0.00000000       0.50000000 </v>
   <v>       0.25000000       0.50000000       0.50000000 </v>
   <v>       0.75000000       0.50000000       0.50000000 </v>
   <v>       0.00000000       0.25000000       0.00000000 </v>
   <v>       0.50000000       0.25000000       0.00000000 </v>
   <v>       0.00000000       0.75000000       0.00000000 </v>
   <v>       0.50000000       0.75000000       0.00000000 </v>
   <v>       0.00000000       0.25000000       0.50000000 </v>
   <v>       0.50000000       0.25000000       0.50000000 </v>
   <v>       0.00000000       0.75000000       0.50000000 </v>
   <v>       0.50000000       0.75000000       0.50000000 </v>
   <v>       0.00000000       0.00000000       0.25000000 </v>
   <v>       0.50000000       0.00000000       0.25000000 </v>
   <v>       0.00000000       0.50000000       0.25000000 </v>
   <v>       0.50000000       0.50000000       0.25000000 </v>
   <v>       0.00000000       0.00000000       0.75000000 </v>
   <v>       0.50000000       0.00000000       0.75000000 </v>
   <v>       0.00000000       0.50000000       0.75000000 </v>
   <v>       0.50000000       0.50000000       0.75000000 </v>
   <v>       0.37500000       0.37500000       0.37500000 </v>
   <v>       0.87500000       0.37500000       0.37500000 </v>
   <v>       0.37500000       0.87500000       0.37500000 </v>
   <v>       0.87500000       0.87500000       0.37500000 </v>
   <v>       0.37500000       0.37500000       0.87500000 </v>
   <v>       0.87500000       0.37500000       0.87500000 </v>
   <v>       0.37500000       0.87500000       0.87500000 </v>
   <v>       0.87500000       0.87500000       0.87500000 </v>
   <v>       0.37500000       0.12500000       0.12500000 </v>
   <v>       0.87500000       0.12500000       0.12500000 </v>
   <v>       0.37500000       0.62500000       0.12500000 </v>
   <v>       0.87500000       0.62500000       0.12500000 </v>
   <v>       0.37500000       0.12500000       0.62500000 </v>
   <v>       0.87500000       0.12500000       0.62500000 </v>
   <v>       0.37500000       0.62500000       0.62500000 </v>
   <v>       0.87500000       0.62500000       0.62500000 </v>
   <v>       0.12500000       0.37500000       0.12500000 </v>
   <v>       0.62500000       0.37500000       0.12500000 </v>
   <v>       0.12500000       0.87500000       0.12500000 </v>
   <v>       0.62500000       0.87500000       0.12500000 </v>
   <v>       0.12500000       0.37500000       0.62500000 </v>
   <v>       0.62500000       0.37500000       0.62500000 </v>
   <v>       0.12500000       0.87500000       0.62500000 </v>
   <v>       0.62500000       0.87500000       0.62500000 </v>
   <v>       0.12500000       0.12500000       0.37500000 </v>
   <v>       0.62500000       0.12500000       0.37500000 </v>
   <v>       0.12500000       0.62500000       0.37500000 </v>
   <v>       0.62500000       0.62500000       0.37500000 </v>
   <v>       0.12500000       0.12500000       0.87500000 </v>
   <v>       0.62500000       0.12500000       0.87500000 </v>
   <v>       0.12500000       0.62500000       0.87500000 </v>
   <v>       0.62500000       0.62500000       0.87500000 </v>
  </varray>
 </structure>
 <calculation>
  <scstep>
   <time name="dav">    2.29    2.30</time>
   <time name="total">    2.34    2.35</time>
   <energy>
    <i name="alphaZ">    107.38120932 </i>
    <i name="ewald">  -7307.87536690 </i>
    <i name="hartreedc">   -353.25093063 </i>
    <i name="XCdc">   -558.85370905 </i>
    <i name="pawpsdc">   5598.62625415 </i>
    <i name="pawaedc">  -4492.17844134 </i>
    <i name="eentropy">     -0.00316975 </i>
    <i name="bandstr">    892.40121176 </i>
    <i name="atom">   6564.76702419 </i>
    <i name="e_fr_energy">    451.01408175 </i>
    <i name="e_wo_entrp">    451.01725150 </i>
    <i name="e_0_energy">    451.01566663 </i>
   </energy>
  </scstep>
  <scstep>
   <time name="dav">    2.63    2.64</time>
   <time name="total">    2.63    2.64</time>
   <energy>
    <i name="e_fr_energy">   -322.06997230 </i>
    <i name="e_wo_entrp">   -322.06997230 </i>
    <i name="e_0_energy">   -322.06997230 </i>
   </energy>
  </scstep>
  <scstep>
   <time name="dav">    2.68    2.69</time>
   <time name="total">    2.68    2.69</time>
   <energy>
    <i name="e_fr_energy">   -373.41458702 </i>
    <i name="e_wo_entrp">   -373.41458702 </i>
    <i name="e_0_energy">   -373.41458702 </i>
   </energy>
  </scstep>
  <scstep>
   <time name="dav">    2.63    2.64</time>
   <time name="total">    2.63    2.64</time>
   <energy>
    <i name="e_fr_energy">   -374.59872310 </i>
    <i name="e_wo_entrp">   -374.59872310 </i>
    <i name="e_0_energy">   -374.59872310 </i>
   </energy>
  </scstep>
  <scstep>
   <time name="dav">    2.60    2.61</time>
   <time name="total">    2.68    2.69</time>
   <energy>
    <i name="e_fr_energy">   -374.64058550 </i>
    <i name="e_wo_entrp">   -374.64058550 </i>
    <i name="e_0_energy">   -374.64058550 </i>
   </energy>
  </scstep>
  <scstep>
   <time name="dav">    2.52    2.54</time>
   <time name="total">    2.65    2.66</time>
   <energy>
    <i name="e_fr_energy">   -369.72154453 </i>
    <i name="e_wo_entrp">   -369.72154453 </i>
    <i name="e_0_energy">   -369.72154453 </i>
   </energy>
  </scstep>
  <scstep>
   <time name="dav">    2.51    2.53</time>
   <time name="total">    2.64    2.65</time>
   <energy>
    <i name="e_fr_energy">   -367.49038848 </i>
    <i name="e_wo_entrp">   -367.49038848 </i>
    <i name="e_0_energy">   -367.49038848 </i>
   </energy>
  </scstep>
  <scstep>
   <time name="dav">    2.54    2.55</time>
   <time name="total">    2.66    2.68</time>
   <energy>
    <i name="e_fr_energy">   -367.49749788 </i>
    <i name="e_wo_entrp">   -367.49749788 </i>
    <i name="e_0_energy">   -367.49749788 </i>
   </energy>
  </scstep>
  <scstep>
   <time name="dav">    2.67    2.68</time>
   <time name="total">    2.79    2.81</time>
   <energy>
    <i name="e_fr_energy">   -367.49898322 </i>
    <i name="e_wo_entrp">   -367.49898322 </i>
    <i name="e_0_energy">   -367.49898322 </i>
   </energy>
  </scstep>
  <scstep>
   <time name="dav">    2.47    2.48</time>
   <time name="total">    2.60    2.61</time>
   <energy>
    <i name="e_fr_energy">   -367.49983915 </i>
    <i name="e_wo_entrp">   -367.49983915 </i>
    <i name="e_0_energy">   -367.49983915 </i>
   </energy>
  </scstep>
  <scstep>
   <time name="dav">    2.59    2.60</time>
   <time name="total">    2.71    2.73</time>
   <energy>
    <i name="e_fr_energy">   -367.49987757 </i>
    <i name="e_wo_entrp">   -367.49987757 </i>
    <i name="e_0_energy">   -367.49987757 </i>
   </energy>
  </scstep>
  <scstep>
   <time name="dav">    2.60    2.62</time>
   <time name="total">    2.73    2.74</time>
   <energy>
    <i name="e_fr_energy">   -367.49987986 </i>
    <i name="e_wo_entrp">   -367.49987986 </i>
    <i name="e_0_energy">   -367.49987986 </i>
   </energy>
  </scstep>
  <scstep>
   <time name="dav">    2.50    2.51</time>
   <time name="total">    2.62    2.64</time>
   <energy>
    <i name="e_fr_energy">   -367.49987888 </i>
    <i name="e_wo_entrp">   -367.49987888 </i>
    <i name="e_0_energy">   -367.49987888 </i>
   </energy>
  </scstep>
  <scstep>
   <time name="dav">    2.22    2.23</time>
   <time name="total">    2.34    2.35</time>
   <energy>
    <i name="e_fr_energy">   -367.49987872 </i>
    <i name="e_wo_entrp">   -367.49987872 </i>
    <i name="e_0_energy">   -367.49987872 </i>
   </energy>
  </scstep>
  <scstep>
   <time name="dav">    1.77    1.78</time>
   <time name="total">    1.90    1.91</time>
   <energy>
    <i name="e_fr_energy">   -367.49987870 </i>
    <i name="e_wo_entrp">   -367.49987870 </i>
    <i name="e_0_energy">   -367.49987870 </i>
   </energy>
  </scstep>
  <scstep>
   <time name="dav">    1.71    1.72</time>
   <time name="total">    1.84    1.84</time>
   <energy>
    <i name="e_fr_energy">   -367.49987869 </i>
    <i name="e_wo_entrp">   -367.49987869 </i>
    <i name="e_0_energy">   -367.49987869 </i>
   </energy>
  </scstep>
  <scstep>
   <time name="dav">    1.69    1.69</time>
   <time name="total">    1.74    1.75</time>
   <energy>
    <i name="alphaZ">    107.38120932 </i>
    <i name="ewald">  -7307.87536690 </i>
    <i name="hartreedc">   -468.78584771 </i>
    <i name="XCdc">   -539.35383904 </i>
    <i name="pawpsdc">  28474.82180039 </i>
    <i name="pawaedc"> -27375.24854396 </i>
    <i name="eentropy">     -0.00000000 </i>
    <i name="bandstr">    176.79368501 </i>
    <i name="atom">   6564.76702419 </i>
    <i name="e_fr_energy">   -367.49987869 </i>
    <i name="e_wo_entrp">   -367.49987869 </i>
    <i name="e_0_energy">   -367.49987869 </i>
   </energy>
  </scstep>
  <structure>
   <crystal>
    <varray name="basis" >
     <v>      10.86914512      -0.00000000      -0.00000000 </v>
     <v>      -0.00000000      10.86914512       0.00000000 </v>
     <v>       0.00000000       0.00000000      10.86914512 </v>
    </varray>
    <i name="volume">   1284.06249692 </i>
    <varray name="rec_basis" >
     <v>       0.09200356       0.00000000      -0.00000000 </v>
     <v>       0.00000000       0.09200356      -0.00000000 </v>
     <v>       0.00000000      -0.00000000       0.09200356 </v>
    </varray>
   </crystal>
   <varray name="positions" >
    <v>       0.24907996       0.25000000       0.25000000 </v>
    <v>       0.75000000       0.25000000       0.25000000 </v>
    <v>       0.25000000       0.75000000       0.25000000 </v>
    <v>       0.75000000       0.75000000       0.25000000 </v>
    <v>       0.25000000       0.25000000       0.75000000 </v>
    <v>       0.75000000       0.25000000       0.75000000 </v>
    <v>       0.25000000       0.75000000       0.75000000 </v>
    <v>       0.75000000       0.75000000       0.75000000 </v>
    <v>       0.25000000       0.99907996       0.00000000 </v>
    <v>       0.75000000       0.00000000       0.00000000 </v>
    <v>       0.25000000       0.50000000       0.00000000 </v>
    <v>       0.75000000       0.50000000       0.00000000 </v>
    <v>       0.25000000       0.00000000       0.50000000 </v>
    <v>       0.75000000       0.00000000       0.50000000 </v>
    <v>       0.25000000       0.50000000       0.50000000 </v>
    <v>       0.75000000       0.50000000       0.50000000 </v>
    <v>       0.00000000       0.25000000       0.00000000 </v>
    <v>       0.50000000       0.25000000       0.00000000 </v>
    <v>       0.00000000       0.75000000       0.00000000 </v>
    <v>       0.50000000       0.75000000       0.00000000 </v>
    <v>       0.00000000       0.25000000       0.50000000 </v>
    <v>       0.50000000       0.25000000       0.50000000 </v>
    <v>       0.00000000       0.75000000       0.50000000 </v>
    <v>       0.50000000       0.75000000       0.50000000 </v>
    <v>       0.00000000       0.00000000       0.25000000 </v>
    <v>       0.50000000       0.00000000       0.25000000 </v>
    <v>       0.00000000       0.50000000       0.25000000 </v>
    <v>       0.50000000       0.50000000       0.25000000 </v>
    <v>       0.00000000       0.00000000       0.75000000 </v>
    <v>       0.50000000       0.00000000       0.75000000 </v>
    <v>       0.00000000       0.50000000       0.75000000 </v>
    <v>       0.50000000       0.50000000       0.75000000 </v>
    <v>       0.37500000       0.37500000       0.37500000 </v>
    <v>       0.87500000       0.37500000       0.37500000 </v>
    <v>       0.37500000       0.87500000       0.37500000 </v>
    <v>       0.87500000       0.87500000       0.37500000 </v>
    <v>       0.37500000       0.37500000       0.87500000 </v>
    <v>       0.87500000       0.37500000       0.87500000 </v>
    <v>       0.37500000       0.87500000       0.87500000 </v>
    <v>       0.87500000       0.87500000       0.87500000 </v>
    <v>       0.37500000       0.12500000       0.12500000 </v>
    <v>       0.87500000       0.12500000       0.12500000 </v>
    <v>       0.37500000       0.62500000       0.12500000 </v>
    <v>       0.87500000       0.62500000       0.12500000 </v>
    <v>       0.37500000       0.12500000       0.62500000 </v>
    <v>       0.87500000       0.12500000       0.62500000 </v>
    <v>       0.37500000       0.62500000       0.62500000 </v>
    <v>       0.87500000       0.62500000       0.62500000 </v>
    <v>       0.12500000       0.37500000       0.12500000 </v>
    <v>       0.62500000       0.37500000       0.12500000 </v>
    <v>       0.12500000       0.87500000       0.12500000 </v>
    <v>       0.62500000       0.87500000       0.12500000 </v>
    <v>       0.12500000       0.37500000       0.62500000 </v>
    <v>       0.62500000       0.37500000       0.62500000 </v>
    <v>       0.12500000       0.87500000       0.62500000 </v>
    <v>       0.62500000       0.87500000       0.62500000 </v>
    <v>       0.12500000       0.12500000       0.37500000 </v>
    <v>       0.62500000       0.12500000       0.37500000 </v>
    <v>       0.12500000       0.62500000       0.37500000 </v>
    <v>       0.62500000       0.62500000       0.37500000 </v>
    <v>       0.12500000       0.12500000       0.87500000 </v>
    <v>       0.62500000       0.12500000       0.87500000 </v>
    <v>       0.12500000       0.62500000       0.87500000 </v>
    <v>       0.62500000       0.62500000       0.87500000 </v>
   </varray>
  </structure>
  <varray name="forces" >
   <v>       0.13120636      -0.00185222      -0.00185988 </v>
   <v>      -0.00025757      -0.00032652       0.00060348 </v>
   <v>      -0.00143420      -0.00187549       0.00186601 </v>
   <v>      -0.00012311      -0.00032749      -0.00060252 </v>
   <v>       0.00046007      -0.00185976       0.00185346 </v>
   <v>       0.00003008      -0.00032737      -0.00060406 </v>
   <v>       0.00488035      -0.00187651      -0.00186844 </v>
   <v>      -0.00014852      -0.00032614       0.00060164 </v>
   <v>       0.00426683       0.13120555      -0.00094143 </v>
   <v>       0.00003673      -0.00055846      -0.00007672 </v>
   <v>       0.00427729      -0.00113506       0.00095408 </v>
   <v>       0.00003945      -0.00012348       0.00007749 </v>
   <v>       0.00427714       0.00047281      -0.00095376 </v>
   <v>       0.00003941       0.00400448      -0.00007571 </v>
   <v>       0.00426713       0.00089371       0.00094184 </v>
   <v>       0.00003670      -0.00014872       0.00007722 </v>
   <v>      -0.00002282      -0.00090771      -0.00092555 </v>
   <v>      -0.00370779      -0.00091839       0.00090202 </v>
   <v>      -0.00219434      -0.00180019       0.00155707 </v>
   <v>       0.00153918      -0.00179903      -0.00155456 </v>
   <v>      -0.00247961      -0.00127896       0.00194374 </v>
   <v>      -0.00125535      -0.00126764      -0.00192929 </v>
   <v>       0.00027468      -0.00040314      -0.00052546 </v>
   <v>      -0.00092898      -0.00040337       0.00052695 </v>
   <v>      -0.00092214       0.00241051      -0.00000154 </v>
   <v>      -0.00091898       0.00611786       0.00188087 </v>
   <v>      -0.00180046       0.00190516      -0.00102875 </v>
   <v>      -0.00178331      -0.00181602      -0.00086506 </v>
   <v>      -0.00126710       0.00486918      -0.00086445 </v>
   <v>      -0.00128106       0.00367503       0.00103144 </v>
   <v>      -0.00040341      -0.00056489      -0.00015329 </v>
   <v>      -0.00040303       0.00064351      -0.00000048 </v>
   <v>      -0.03193441      -0.02262207      -0.02261486 </v>
   <v>       0.00035847      -0.00016108      -0.00061052 </v>
   <v>       0.00091727       0.00017679      -0.00075297 </v>
   <v>       0.00002845      -0.00230507      -0.00050843 </v>
   <v>       0.00085085      -0.00032218      -0.00067858 </v>
   <v>      -0.00001192      -0.00047277      -0.00046691 </v>
   <v>       0.02092169      -0.03274308      -0.02325086 </v>
   <v>       0.00052051       0.00024554      -0.00067565 </v>
   <v>      -0.05458957      -0.00979376       0.00001205 </v>
   <v>      -0.00025032       0.00084985      -0.00007006 </v>
   <v>       0.00017089       0.00042607       0.00007076 </v>
   <v>      -0.00044004      -0.00000773      -0.00000108 </v>
   <v>       0.00010065       0.00092061      -0.00000056 </v>
   <v>      -0.00047521      -0.00182420      -0.00003584 </v>
   <v>      -0.00233449       0.00002811       0.00003490 </v>
   <v>      -0.00009104       0.00044754      -0.00000030 </v>
   <v>      -0.03283080       0.02309152      -0.02266536 </v>
   <v>      -0.00012531       0.00012123      -0.00008936 </v>
   <v>      -0.02248942      -0.03214766       0.02259720 </v>
   <v>      -0.00056072       0.00072809       0.00015811 </v>
   <v>       0.00026523       0.00018816      -0.00012970 </v>
   <v>      -0.00048935       0.00042738       0.00005819 </v>
   <v>      -0.00249589       0.00076799       0.00008935 </v>
   <v>      -0.00007629      -0.00182033      -0.00001675 </v>
   <v>      -0.03208025      -0.02249665       0.02334198 </v>
   <v>       0.00033961      -0.00242026       0.00059305 </v>
   <v>       0.00077078      -0.00056615       0.00062245 </v>
   <v>       0.00005115      -0.00003419       0.00051915 </v>
   <v>       0.02291555      -0.03258553       0.02274477 </v>
   <v>       0.00012035       0.00026188       0.00062229 </v>
   <v>      -0.00174991      -0.00016539       0.00059276 </v>
   <v>       0.00039386      -0.00049386       0.00052439 </v>
  </varray>
  <varray name="stress" >
   <v>      -0.03086537      -0.00000857      -0.12324605 </v>
   <v>      -0.00000858      -0.03087311      -0.12330813 </v>
   <v>      -0.12324604      -0.12330813      -0.02857925 </v>
  </varray>
  <energy>
   <i name="e_fr_energy">   -367.49987869 </i>
   <i name="e_wo_entrp">   -367.49987869 </i>
   <i name="e_0_energy">   -367.49987869 </i>
  </energy>
  <time name="totalsc">   45.59   45.83</time>
  <eigenvalues>
   <array>
    <dimension dim="1">band</dimension>
    <dimension dim="2">kpoint</dimension>
    <dimension dim="3">spin</dimension>
    <field>eigene</field>
    <field>occ</field>
    <set>
     <set comment="spin 1">
      <set comment="kpoint 1">
       <r>   -6.2055    1.0000 </r>
       <r>   -5.1233    1.0000 </r>
       <r>   -5.1229    1.0000 </r>
       <r>   -5.1218    1.0000 </r>
       <r>   -5.1211    1.0000 </r>
       <r>   -5.1200    1.0000 </r>
       <r>   -5.1185    1.0000 </r>
       <r>   -4.1597    1.0000 </r>
       <r>   -4.1582    1.0000 </r>
       <r>   -4.1566    1.0000 </r>
       <r>   -4.1561    1.0000 </r>
       <r>   -4.1553    1.0000 </r>
       <r>   -4.1551    1.0000 </r>
       <r>   -4.1550    1.0000 </r>
       <r>   -4.1549    1.0000 </r>
       <r>   -4.1548    1.0000 </r>
       <r>   -4.1535    1.0000 </r>
       <r>   -4.1522    1.0000 </r>
       <r>   -4.1491    1.0000 </r>
       <r>   -3.8624    1.0000 </r>
       <r>   -3.8606    1.0000 </r>
       <r>   -3.8606    1.0000 </r>
       <r>   -3.8588    1.0000 </r>
       <r>   -2.0543    1.0000 </r>
       <r>   -2.0541    1.0000 </r>
       <r>   -2.0520    1.0000 </r>
       <r>   -2.0519    1.0000 </r>
       <r>   -2.0499    1.0000 </r>
       <r>   -2.0497    1.0000 </r>
       <r>   -1.8865    1.0000 </r>
       <r>   -1.8862    1.0000 </r>
       <r>   -1.8846    1.0000 </r>
       <r>   -1.8840    1.0000 </r>
       <r>   -1.8831    1.0000 </r>
       <r>   -1.8830    1.0000 </r>
       <r>   -1.8827    1.0000 </r>
       <r>   -1.8827    1.0000 </r>
       <r>   -1.8824    1.0000 </r>
       <r>   -1.8796    1.0000 </r>
       <r>   -1.8794    1.0000 </r>
       <r>   -1.8782    1.0000 </r>
       <r>   -1.2366    1.0000 </r>
       <r>   -1.2347    1.0000 </r>
       <r>   -1.2347    1.0000 </r>
       <r>   -1.2328    1.0000 </r>
       <r>    0.2776    1.0000 </r>
       <r>    0.2786    1.0000 </r>
       <r>    0.2799    1.0000 </r>
       <r>    0.2816    1.0000 </r>
       <r>    0.2817    1.0000 </r>
       <r>    0.2819    1.0000 </r>
       <r>    0.2819    1.0000 </r>
       <r>    0.2821    1.0000 </r>
       <r>    0.2823    1.0000 </r>
       <r>    0.2842    1.0000 </r>
       <r>    0.2856    1.0000 </r>
       <r>    0.2861    1.0000 </r>
       <r>    1.8685    1.0000 </r>
       <r>    1.8690    1.0000 </r>
       <r>    1.8706    1.0000 </r>
       <r>    1.8707    1.0000 </r>
       <r>    1.8708    1.0000 </r>
       <r>    1.8709    1.0000 </r>
       <r>    1.8710    1.0000 </r>
       <r>    1.8715    1.0000 </r>
       <r>    1.8717    1.0000 </r>
       <r>    1.8720    1.0000 </r>
       <r>    1.8730    1.0000 </r>
       <r>    1.8744    1.0000 </r>
       <r>    1.9706    1.0000 </r>
       <r>    1.9716    1.0000 </r>
       <r>    1.9717    1.0000 </r>
       <r>    1.9721    1.0000 </r>
       <r>    1.9726    1.0000 </r>
       <r>    1.9731    1.0000 </r>
       <r>    1.9733    1.0000 </r>
       <r>    1.9737    1.0000 </r>
       <r>    1.9739    1.0000 </r>
       <r>    1.9753    1.0000 </r>
       <r>    1.9759    1.0000 </r>
       <r>    1.9760    1.0000 </r>
       <r>    2.2494    1.0000 </r>
       <r>    2.2498    1.0000 </r>
       <r>    2.2509    1.0000 </r>
       <r>    2.2519    1.0000 </r>
       <r>    2.2528    1.0000 </r>
       <r>    2.2536    1.0000 </r>
       <r>    2.9008    1.0000 </r>
       <r>    2.9008    1.0000 </r>
       <r>    2.9017    1.0000 </r>
       <r>    2.9017    1.0000 </r>
       <r>    2.9026    1.0000 </r>
       <r>    2.9026    1.0000 </r>
       <r>    3.8627    1.0000 </r>
       <r>    3.8641    1.0000 </r>
       <r>    3.8659    1.0000 </r>
       <r>    3.8661    1.0000 </r>
       <r>    3.8664    1.0000 </r>
       <r>    3.8666    1.0000 </r>
       <r>    3.8667    1.0000 </r>
       <r>    3.8667    1.0000 </r>
       <r>    3.8671    1.0000 </r>
       <r>    3.8677    1.0000 </r>
       <r>    3.8691    1.0000 </r>
       <r>    3.8708    1.0000 </r>
       <r>    4.4329    1.0000 </r>
       <r>    4.4345    1.0000 </r>
       <r>    4.4354    1.0000 </r>
       <r>    4.4362    1.0000 </r>
       <r>    4.4365    1.0000 </r>
       <r>    4.4367    1.0000 </r>
       <r>    4.4370    1.0000 </r>
       <r>    4.4376    1.0000 </r>
       <r>    4.4379    1.0000 </r>
       <r>    4.4384    1.0000 </r>
       <r>    4.4395    1.0000 </r>
       <r>    4.4414    1.0000 </r>
       <r>    4.5667    1.0000 </r>
       <r>    4.5679    1.0000 </r>
       <r>    4.5691    1.0000 </r>
       <r>    4.5697    1.0000 </r>
       <r>    4.5700    1.0000 </r>
       <r>    4.5705    1.0000 </r>
       <r>    4.5718    1.0000 </r>
       <r>    4.5732    1.0000 </r>
       <r>    5.7698    1.0000 </r>
       <r>    5.7720    1.0000 </r>
       <r>    5.7741    1.0000 </r>
       <r>    6.3636    0.0000 </r>
       <r>    6.3648    0.0000 </r>
       <r>    6.3658    0.0000 </r>
       <r>    6.3658    0.0000 </r>
       <r>    6.3667    0.0000 </r>
       <r>    6.3679    0.0000 </r>
       <r>    6.8065    0.0000 </r>
       <r>    6.8067    0.0000 </r>
       <r>    6.8077    0.0000 </r>
       <r>    6.8085    0.0000 </r>
       <r>    6.8089    0.0000 </r>
       <r>    6.8100    0.0000 </r>
       <r>    7.2316    0.0000 </r>
       <r>    7.2320    0.0000 </r>
       <r>    7.2320    0.0000 </r>
       <r>    7.2324    0.0000 </r>
       <r>    8.1345    0.0000 </r>
       <r>    8.1353    0.0000 </r>
       <r>    8.1361    0.0000 </r>
       <r>    8.1372    0.0000 </r>
       <r>    8.1376    0.0000 </r>
       <r>    8.1379    0.0000 </r>
       <r>    8.1380    0.0000 </r>
       <r>    8.1383    0.0000 </r>
       <r>    8.1390    0.0000 </r>
       <r>    8.1400    0.0000 </r>
       <r>    8.1404    0.0000 </r>
       <r>    8.1408    0.0000 </r>
       <r>    8.2877    0.0000 </r>
       <r>    8.2889    0.0000 </r>
       <r>    8.2902    0.0000 </r>
       <r>    8.7967    0.0000 </r>
       <r>    8.7967    0.0000 </r>
       <r>    8.7979    0.0000 </r>
       <r>    8.7979    0.0000 </r>
       <r>    8.7991    0.0000 </r>
       <r>    8.7991    0.0000 </r>
       <r>    9.0488    0.0000 </r>
       <r>    9.0509    0.0000 </r>
       <r>    9.0530    0.0000 </r>
      </set>
      <set comment="kpoint 2">
       <r>   -5.9327    1.0000 </r>
       <r>   -5.9313    1.0000 </r>
       <r>   -4.8755    1.0000 </r>
       <r>   -4.8743    1.0000 </r>
       <r>   -4.8739    1.0000 </r>
       <r>   -4.8728    1.0000 </r>
       <r>   -4.8727    1.0000 </r>
       <r>   -4.8726    1.0000 </r>
       <r>   -4.8714    1.0000 </r>
       <r>   -4.8688    1.0000 </r>
       <r>   -4.0263    1.0000 </r>
       <r>   -4.0232    1.0000 </r>
       <r>   -4.0229    1.0000 </r>
       <r>   -4.0229    1.0000 </r>
       <r>   -4.0225    1.0000 </r>
       <r>   -4.0225    1.0000 </r>
       <r>   -4.0222    1.0000 </r>
       <r>   -4.0191    1.0000 </r>
       <r>   -3.8068    1.0000 </r>
       <r>   -3.8045    1.0000 </r>
       <r>   -3.0799    1.0000 </r>
       <r>   -3.0780    1.0000 </r>
       <r>   -3.0775    1.0000 </r>
       <r>   -3.0767    1.0000 </r>
       <r>   -3.0765    1.0000 </r>
       <r>   -3.0759    1.0000 </r>
       <r>   -3.0746    1.0000 </r>
       <r>   -3.0721    1.0000 </r>
       <r>   -1.9752    1.0000 </r>
       <r>   -1.9717    1.0000 </r>
       <r>   -1.9716    1.0000 </r>
       <r>   -1.9715    1.0000 </r>
       <r>   -1.9715    1.0000 </r>
       <r>   -1.9713    1.0000 </r>
       <r>   -1.9712    1.0000 </r>
       <r>   -1.9677    1.0000 </r>
       <r>   -0.8065    1.0000 </r>
       <r>   -0.8045    1.0000 </r>
       <r>   -0.8043    1.0000 </r>
       <r>   -0.8034    1.0000 </r>
       <r>   -0.8031    1.0000 </r>
       <r>   -0.8021    1.0000 </r>
       <r>   -0.8004    1.0000 </r>
       <r>   -0.8000    1.0000 </r>
       <r>   -0.6374    1.0000 </r>
       <r>   -0.6350    1.0000 </r>
       <r>   -0.6347    1.0000 </r>
       <r>   -0.6343    1.0000 </r>
       <r>   -0.6336    1.0000 </r>
       <r>   -0.6332    1.0000 </r>
       <r>   -0.6329    1.0000 </r>
       <r>   -0.6304    1.0000 </r>
       <r>    0.0225    1.0000 </r>
       <r>    0.0240    1.0000 </r>
       <r>    1.4713    1.0000 </r>
       <r>    1.4718    1.0000 </r>
       <r>    1.4733    1.0000 </r>
       <r>    1.4742    1.0000 </r>
       <r>    1.4745    1.0000 </r>
       <r>    1.4752    1.0000 </r>
       <r>    1.4755    1.0000 </r>
       <r>    1.4773    1.0000 </r>
       <r>    1.4916    1.0000 </r>
       <r>    1.4923    1.0000 </r>
       <r>    1.4926    1.0000 </r>
       <r>    1.4929    1.0000 </r>
       <r>    1.4933    1.0000 </r>
       <r>    1.4941    1.0000 </r>
       <r>    1.4947    1.0000 </r>
       <r>    1.4961    1.0000 </r>
       <r>    2.3166    1.0000 </r>
       <r>    2.3172    1.0000 </r>
       <r>    2.3176    1.0000 </r>
       <r>    2.3179    1.0000 </r>
       <r>    2.3182    1.0000 </r>
       <r>    2.3185    1.0000 </r>
       <r>    2.3189    1.0000 </r>
       <r>    2.3195    1.0000 </r>
       <r>    3.0224    1.0000 </r>
       <r>    3.0240    1.0000 </r>
       <r>    3.0241    1.0000 </r>
       <r>    3.0245    1.0000 </r>
       <r>    3.0248    1.0000 </r>
       <r>    3.0251    1.0000 </r>
       <r>    3.0260    1.0000 </r>
       <r>    3.0275    1.0000 </r>
       <r>    3.1465    1.0000 </r>
       <r>    3.1477    1.0000 </r>
       <r>    3.1484    1.0000 </r>
       <r>    3.1495    1.0000 </r>
       <r>    3.1569    1.0000 </r>
       <r>    3.1579    1.0000 </r>
       <r>    3.1583    1.0000 </r>
       <r>    3.1591    1.0000 </r>
       <r>    3.1594    1.0000 </r>
       <r>    3.1598    1.0000 </r>
       <r>    3.1607    1.0000 </r>
       <r>    3.1616    1.0000 </r>
       <r>    3.2834    1.0000 </r>
       <r>    3.2845    1.0000 </r>
       <r>    3.2850    1.0000 </r>
       <r>    3.2856    1.0000 </r>
       <r>    3.2859    1.0000 </r>
       <r>    3.2865    1.0000 </r>
       <r>    3.2870    1.0000 </r>
       <r>    3.2882    1.0000 </r>
       <r>    4.3290    1.0000 </r>
       <r>    4.3302    1.0000 </r>
       <r>    4.3315    1.0000 </r>
       <r>    4.3317    1.0000 </r>
       <r>    4.3320    1.0000 </r>
       <r>    4.3326    1.0000 </r>
       <r>    4.3329    1.0000 </r>
       <r>    4.3346    1.0000 </r>
       <r>    4.4329    1.0000 </r>
       <r>    4.4330    1.0000 </r>
       <r>    4.4964    1.0000 </r>
       <r>    4.5003    1.0000 </r>
       <r>    4.5008    1.0000 </r>
       <r>    4.5009    1.0000 </r>
       <r>    4.5009    1.0000 </r>
       <r>    4.5010    1.0000 </r>
       <r>    4.5014    1.0000 </r>
       <r>    4.5056    1.0000 </r>
       <r>    4.9529    1.0000 </r>
       <r>    4.9547    1.0000 </r>
       <r>    4.9557    1.0000 </r>
       <r>    4.9577    1.0000 </r>
       <r>    6.2790    0.0000 </r>
       <r>    6.2804    0.0000 </r>
       <r>    7.1933    0.0000 </r>
       <r>    7.1946    0.0000 </r>
       <r>    7.6431    0.0000 </r>
       <r>    7.6447    0.0000 </r>
       <r>    7.6454    0.0000 </r>
       <r>    7.6458    0.0000 </r>
       <r>    7.6459    0.0000 </r>
       <r>    7.6463    0.0000 </r>
       <r>    7.6471    0.0000 </r>
       <r>    7.6486    0.0000 </r>
       <r>    7.7139    0.0000 </r>
       <r>    7.7144    0.0000 </r>
       <r>    8.0570    0.0000 </r>
       <r>    8.0590    0.0000 </r>
       <r>    8.0594    0.0000 </r>
       <r>    8.0597    0.0000 </r>
       <r>    8.0598    0.0000 </r>
       <r>    8.0600    0.0000 </r>
       <r>    8.0604    0.0000 </r>
       <r>    8.0623    0.0000 </r>
       <r>    8.1436    0.0000 </r>
       <r>    8.1446    0.0000 </r>
       <r>    8.1447    0.0000 </r>
       <r>    8.1453    0.0000 </r>
       <r>    8.1456    0.0000 </r>
       <r>    8.1460    0.0000 </r>
       <r>    8.1473    0.0000 </r>
       <r>    8.1483    0.0000 </r>
       <r>    8.5507    0.0000 </r>
       <r>    8.5511    0.0000 </r>
       <r>    8.5520    0.0000 </r>
       <r>    8.5524    0.0000 </r>
       <r>    8.5534    0.0000 </r>
       <r>    8.5537    0.0000 </r>
       <r>    8.5541    0.0000 </r>
       <r>    8.5549    0.0000 </r>
       <r>    9.3197    0.0000 </r>
       <r>    9.3215    0.0000 </r>
      </set>
      <set comment="kpoint 3">
       <r>   -5.9327    1.0000 </r>
       <r>   -5.9313    1.0000 </r>
       <r>   -4.8758    1.0000 </r>
       <r>   -4.8748    1.0000 </r>
       <r>   -4.8734    1.0000 </r>
       <r>   -4.8731    1.0000 </r>
       <r>   -4.8728    1.0000 </r>
       <r>   -4.8721    1.0000 </r>
       <r>   -4.8710    1.0000 </r>
       <r>   -4.8689    1.0000 </r>
       <r>   -4.0251    1.0000 </r>
       <r>   -4.0247    1.0000 </r>
       <r>   -4.0237    1.0000 </r>
       <r>   -4.0229    1.0000 </r>
       <r>   -4.0226    1.0000 </r>
       <r>   -4.0225    1.0000 </r>
       <r>   -4.0211    1.0000 </r>
       <r>   -4.0190    1.0000 </r>
       <r>   -3.8068    1.0000 </r>
       <r>   -3.8045    1.0000 </r>
       <r>   -3.0802    1.0000 </r>
       <r>   -3.0785    1.0000 </r>
       <r>   -3.0776    1.0000 </r>
       <r>   -3.0766    1.0000 </r>
       <r>   -3.0764    1.0000 </r>
       <r>   -3.0750    1.0000 </r>
       <r>   -3.0744    1.0000 </r>
       <r>   -3.0724    1.0000 </r>
       <r>   -1.9740    1.0000 </r>
       <r>   -1.9736    1.0000 </r>
       <r>   -1.9717    1.0000 </r>
       <r>   -1.9717    1.0000 </r>
       <r>   -1.9715    1.0000 </r>
       <r>   -1.9713    1.0000 </r>
       <r>   -1.9705    1.0000 </r>
       <r>   -1.9675    1.0000 </r>
       <r>   -0.8064    1.0000 </r>
       <r>   -0.8050    1.0000 </r>
       <r>   -0.8039    1.0000 </r>
       <r>   -0.8037    1.0000 </r>
       <r>   -0.8028    1.0000 </r>
       <r>   -0.8020    1.0000 </r>
       <r>   -0.8004    1.0000 </r>
       <r>   -0.7999    1.0000 </r>
       <r>   -0.6371    1.0000 </r>
       <r>   -0.6357    1.0000 </r>
       <r>   -0.6347    1.0000 </r>
       <r>   -0.6343    1.0000 </r>
       <r>   -0.6340    1.0000 </r>
       <r>   -0.6331    1.0000 </r>
       <r>   -0.6319    1.0000 </r>
       <r>   -0.6308    1.0000 </r>
       <r>    0.0225    1.0000 </r>
       <r>    0.0240    1.0000 </r>
       <r>    1.4708    1.0000 </r>
       <r>    1.4725    1.0000 </r>
       <r>    1.4734    1.0000 </r>
       <r>    1.4742    1.0000 </r>
       <r>    1.4743    1.0000 </r>
       <r>    1.4754    1.0000 </r>
       <r>    1.4759    1.0000 </r>
       <r>    1.4767    1.0000 </r>
       <r>    1.4911    1.0000 </r>
       <r>    1.4921    1.0000 </r>
       <r>    1.4928    1.0000 </r>
       <r>    1.4932    1.0000 </r>
       <r>    1.4934    1.0000 </r>
       <r>    1.4937    1.0000 </r>
       <r>    1.4950    1.0000 </r>
       <r>    1.4959    1.0000 </r>
       <r>    2.3169    1.0000 </r>
       <r>    2.3170    1.0000 </r>
       <r>    2.3176    1.0000 </r>
       <r>    2.3177    1.0000 </r>
       <r>    2.3181    1.0000 </r>
       <r>    2.3185    1.0000 </r>
       <r>    2.3191    1.0000 </r>
       <r>    2.3194    1.0000 </r>
       <r>    3.0223    1.0000 </r>
       <r>    3.0236    1.0000 </r>
       <r>    3.0242    1.0000 </r>
       <r>    3.0244    1.0000 </r>
       <r>    3.0251    1.0000 </r>
       <r>    3.0255    1.0000 </r>
       <r>    3.0260    1.0000 </r>
       <r>    3.0272    1.0000 </r>
       <r>    3.1464    1.0000 </r>
       <r>    3.1477    1.0000 </r>
       <r>    3.1484    1.0000 </r>
       <r>    3.1494    1.0000 </r>
       <r>    3.1570    1.0000 </r>
       <r>    3.1573    1.0000 </r>
       <r>    3.1587    1.0000 </r>
       <r>    3.1591    1.0000 </r>
       <r>    3.1593    1.0000 </r>
       <r>    3.1600    1.0000 </r>
       <r>    3.1612    1.0000 </r>
       <r>    3.1615    1.0000 </r>
       <r>    3.2836    1.0000 </r>
       <r>    3.2844    1.0000 </r>
       <r>    3.2850    1.0000 </r>
       <r>    3.2855    1.0000 </r>
       <r>    3.2859    1.0000 </r>
       <r>    3.2863    1.0000 </r>
       <r>    3.2872    1.0000 </r>
       <r>    3.2883    1.0000 </r>
       <r>    4.3289    1.0000 </r>
       <r>    4.3307    1.0000 </r>
       <r>    4.3310    1.0000 </r>
       <r>    4.3317    1.0000 </r>
       <r>    4.3319    1.0000 </r>
       <r>    4.3325    1.0000 </r>
       <r>    4.3330    1.0000 </r>
       <r>    4.3348    1.0000 </r>
       <r>    4.4329    1.0000 </r>
       <r>    4.4330    1.0000 </r>
       <r>    4.4966    1.0000 </r>
       <r>    4.4998    1.0000 </r>
       <r>    4.5002    1.0000 </r>
       <r>    4.5008    1.0000 </r>
       <r>    4.5009    1.0000 </r>
       <r>    4.5016    1.0000 </r>
       <r>    4.5020    1.0000 </r>
       <r>    4.5055    1.0000 </r>
       <r>    4.9528    1.0000 </r>
       <r>    4.9547    1.0000 </r>
       <r>    4.9557    1.0000 </r>
       <r>    4.9577    1.0000 </r>
       <r>    6.2790    0.0000 </r>
       <r>    6.2804    0.0000 </r>
       <r>    7.1933    0.0000 </r>
       <r>    7.1946    0.0000 </r>
       <r>    7.6431    0.0000 </r>
       <r>    7.6444    0.0000 </r>
       <r>    7.6450    0.0000 </r>
       <r>    7.6461    0.0000 </r>
       <r>    7.6463    0.0000 </r>
       <r>    7.6467    0.0000 </r>
       <r>    7.6468    0.0000 </r>
       <r>    7.6483    0.0000 </r>
       <r>    7.7139    0.0000 </r>
       <r>    7.7144    0.0000 </r>
       <r>    8.0572    0.0000 </r>
       <r>    8.0590    0.0000 </r>
       <r>    8.0593    0.0000 </r>
       <r>    8.0596    0.0000 </r>
       <r>    8.0597    0.0000 </r>
       <r>    8.0602    0.0000 </r>
       <r>    8.0603    0.0000 </r>
       <r>    8.0622    0.0000 </r>
       <r>    8.1438    0.0000 </r>
       <r>    8.1443    0.0000 </r>
       <r>    8.1446    0.0000 </r>
       <r>    8.1455    0.0000 </r>
       <r>    8.1458    0.0000 </r>
       <r>    8.1467    0.0000 </r>
       <r>    8.1470    0.0000 </r>
       <r>    8.1475    0.0000 </r>
       <r>    8.5504    0.0000 </r>
       <r>    8.5516    0.0000 </r>
       <r>    8.5520    0.0000 </r>
       <r>    8.5525    0.0000 </r>
       <r>    8.5529    0.0000 </r>
       <r>    8.5539    0.0000 </r>
       <r>    8.5540    0.0000 </r>
       <r>    8.5551    0.0000 </r>
       <r>    9.3203    0.0000 </r>
       <r>    9.3220    0.0000 </r>
      </set>
      <set comment="kpoint 4">
       <r>   -5.9320    1.0000 </r>
       <r>   -5.9320    1.0000 </r>
       <r>   -4.8757    1.0000 </r>
       <r>   -4.8754    1.0000 </r>
       <r>   -4.8734    1.0000 </r>
       <r>   -4.8732    1.0000 </r>
       <r>   -4.8727    1.0000 </r>
       <r>   -4.8720    1.0000 </r>
       <r>   -4.8715    1.0000 </r>
       <r>   -4.8682    1.0000 </r>
       <r>   -4.0269    1.0000 </r>
       <r>   -4.0243    1.0000 </r>
       <r>   -4.0236    1.0000 </r>
       <r>   -4.0230    1.0000 </r>
       <r>   -4.0224    1.0000 </r>
       <r>   -4.0218    1.0000 </r>
       <r>   -4.0211    1.0000 </r>
       <r>   -4.0185    1.0000 </r>
       <r>   -3.8057    1.0000 </r>
       <r>   -3.8057    1.0000 </r>
       <r>   -3.0786    1.0000 </r>
       <r>   -3.0782    1.0000 </r>
       <r>   -3.0773    1.0000 </r>
       <r>   -3.0771    1.0000 </r>
       <r>   -3.0764    1.0000 </r>
       <r>   -3.0757    1.0000 </r>
       <r>   -3.0745    1.0000 </r>
       <r>   -3.0736    1.0000 </r>
       <r>   -1.9751    1.0000 </r>
       <r>   -1.9738    1.0000 </r>
       <r>   -1.9716    1.0000 </r>
       <r>   -1.9715    1.0000 </r>
       <r>   -1.9714    1.0000 </r>
       <r>   -1.9714    1.0000 </r>
       <r>   -1.9692    1.0000 </r>
       <r>   -1.9678    1.0000 </r>
       <r>   -0.8056    1.0000 </r>
       <r>   -0.8049    1.0000 </r>
       <r>   -0.8045    1.0000 </r>
       <r>   -0.8038    1.0000 </r>
       <r>   -0.8030    1.0000 </r>
       <r>   -0.8016    1.0000 </r>
       <r>   -0.8012    1.0000 </r>
       <r>   -0.7996    1.0000 </r>
       <r>   -0.6373    1.0000 </r>
       <r>   -0.6354    1.0000 </r>
       <r>   -0.6347    1.0000 </r>
       <r>   -0.6340    1.0000 </r>
       <r>   -0.6340    1.0000 </r>
       <r>   -0.6332    1.0000 </r>
       <r>   -0.6325    1.0000 </r>
       <r>   -0.6305    1.0000 </r>
       <r>    0.0232    1.0000 </r>
       <r>    0.0232    1.0000 </r>
       <r>    1.4712    1.0000 </r>
       <r>    1.4726    1.0000 </r>
       <r>    1.4731    1.0000 </r>
       <r>    1.4743    1.0000 </r>
       <r>    1.4748    1.0000 </r>
       <r>    1.4755    1.0000 </r>
       <r>    1.4758    1.0000 </r>
       <r>    1.4764    1.0000 </r>
       <r>    1.4918    1.0000 </r>
       <r>    1.4925    1.0000 </r>
       <r>    1.4927    1.0000 </r>
       <r>    1.4931    1.0000 </r>
       <r>    1.4937    1.0000 </r>
       <r>    1.4938    1.0000 </r>
       <r>    1.4944    1.0000 </r>
       <r>    1.4951    1.0000 </r>
       <r>    2.3163    1.0000 </r>
       <r>    2.3172    1.0000 </r>
       <r>    2.3176    1.0000 </r>
       <r>    2.3179    1.0000 </r>
       <r>    2.3182    1.0000 </r>
       <r>    2.3185    1.0000 </r>
       <r>    2.3189    1.0000 </r>
       <r>    2.3198    1.0000 </r>
       <r>    3.0234    1.0000 </r>
       <r>    3.0236    1.0000 </r>
       <r>    3.0246    1.0000 </r>
       <r>    3.0247    1.0000 </r>
       <r>    3.0249    1.0000 </r>
       <r>    3.0254    1.0000 </r>
       <r>    3.0257    1.0000 </r>
       <r>    3.0262    1.0000 </r>
       <r>    3.1479    1.0000 </r>
       <r>    3.1480    1.0000 </r>
       <r>    3.1481    1.0000 </r>
       <r>    3.1481    1.0000 </r>
       <r>    3.1575    1.0000 </r>
       <r>    3.1578    1.0000 </r>
       <r>    3.1583    1.0000 </r>
       <r>    3.1588    1.0000 </r>
       <r>    3.1592    1.0000 </r>
       <r>    3.1595    1.0000 </r>
       <r>    3.1611    1.0000 </r>
       <r>    3.1615    1.0000 </r>
       <r>    3.2830    1.0000 </r>
       <r>    3.2840    1.0000 </r>
       <r>    3.2848    1.0000 </r>
       <r>    3.2857    1.0000 </r>
       <r>    3.2857    1.0000 </r>
       <r>    3.2867    1.0000 </r>
       <r>    3.2876    1.0000 </r>
       <r>    3.2886    1.0000 </r>
       <r>    4.3290    1.0000 </r>
       <r>    4.3296    1.0000 </r>
       <r>    4.3309    1.0000 </r>
       <r>    4.3315    1.0000 </r>
       <r>    4.3317    1.0000 </r>
       <r>    4.3321    1.0000 </r>
       <r>    4.3336    1.0000 </r>
       <r>    4.3358    1.0000 </r>
       <r>    4.4329    1.0000 </r>
       <r>    4.4329    1.0000 </r>
       <r>    4.4994    1.0000 </r>
       <r>    4.4998    1.0000 </r>
       <r>    4.5009    1.0000 </r>
       <r>    4.5009    1.0000 </r>
       <r>    4.5010    1.0000 </r>
       <r>    4.5011    1.0000 </r>
       <r>    4.5021    1.0000 </r>
       <r>    4.5025    1.0000 </r>
       <r>    4.9552    1.0000 </r>
       <r>    4.9552    1.0000 </r>
       <r>    4.9552    1.0000 </r>
       <r>    4.9552    1.0000 </r>
       <r>    6.2797    0.0000 </r>
       <r>    6.2797    0.0000 </r>
       <r>    7.1939    0.0000 </r>
       <r>    7.1939    0.0000 </r>
       <r>    7.6436    0.0000 </r>
       <r>    7.6445    0.0000 </r>
       <r>    7.6452    0.0000 </r>
       <r>    7.6458    0.0000 </r>
       <r>    7.6460    0.0000 </r>
       <r>    7.6466    0.0000 </r>
       <r>    7.6472    0.0000 </r>
       <r>    7.6481    0.0000 </r>
       <r>    7.7141    0.0000 </r>
       <r>    7.7141    0.0000 </r>
       <r>    8.0587    0.0000 </r>
       <r>    8.0590    0.0000 </r>
       <r>    8.0592    0.0000 </r>
       <r>    8.0597    0.0000 </r>
       <r>    8.0598    0.0000 </r>
       <r>    8.0601    0.0000 </r>
       <r>    8.0604    0.0000 </r>
       <r>    8.0606    0.0000 </r>
       <r>    8.1433    0.0000 </r>
       <r>    8.1444    0.0000 </r>
       <r>    8.1448    0.0000 </r>
       <r>    8.1456    0.0000 </r>
       <r>    8.1463    0.0000 </r>
       <r>    8.1466    0.0000 </r>
       <r>    8.1470    0.0000 </r>
       <r>    8.1473    0.0000 </r>
       <r>    8.5510    0.0000 </r>
       <r>    8.5516    0.0000 </r>
       <r>    8.5521    0.0000 </r>
       <r>    8.5526    0.0000 </r>
       <r>    8.5532    0.0000 </r>
       <r>    8.5535    0.0000 </r>
       <r>    8.5541    0.0000 </r>
       <r>    8.5544    0.0000 </r>
       <r>    9.3199    0.0000 </r>
       <r>    9.3223    0.0000 </r>
      </set>
      <set comment="kpoint 5">
       <r>   -5.6651    1.0000 </r>
       <r>   -5.6645    1.0000 </r>
       <r>   -5.6640    1.0000 </r>
       <r>   -5.6620    1.0000 </r>
       <r>   -4.6461    1.0000 </r>
       <r>   -4.6454    1.0000 </r>
       <r>   -4.6448    1.0000 </r>
       <r>   -4.6443    1.0000 </r>
       <r>   -4.6442    1.0000 </r>
       <r>   -4.6441    1.0000 </r>
       <r>   -4.6424    1.0000 </r>
       <r>   -4.6418    1.0000 </r>
       <r>   -3.6094    1.0000 </r>
       <r>   -3.6072    1.0000 </r>
       <r>   -3.6061    1.0000 </r>
       <r>   -3.6055    1.0000 </r>
       <r>   -3.6053    1.0000 </r>
       <r>   -3.6052    1.0000 </r>
       <r>   -3.6031    1.0000 </r>
       <r>   -3.6011    1.0000 </r>
       <r>   -3.3245    1.0000 </r>
       <r>   -3.3237    1.0000 </r>
       <r>   -3.3223    1.0000 </r>
       <r>   -3.3218    1.0000 </r>
       <r>   -3.3216    1.0000 </r>
       <r>   -3.3214    1.0000 </r>
       <r>   -3.3204    1.0000 </r>
       <r>   -3.3172    1.0000 </r>
       <r>   -2.4614    1.0000 </r>
       <r>   -2.4596    1.0000 </r>
       <r>   -2.4596    1.0000 </r>
       <r>   -2.4584    1.0000 </r>
       <r>   -1.4637    1.0000 </r>
       <r>   -1.4637    1.0000 </r>
       <r>   -1.4617    1.0000 </r>
       <r>   -1.4615    1.0000 </r>
       <r>   -1.0420    1.0000 </r>
       <r>   -1.0395    1.0000 </r>
       <r>   -1.0391    1.0000 </r>
       <r>   -1.0387    1.0000 </r>
       <r>   -1.0383    1.0000 </r>
       <r>   -1.0374    1.0000 </r>
       <r>   -1.0366    1.0000 </r>
       <r>   -1.0351    1.0000 </r>
       <r>   -0.1983    1.0000 </r>
       <r>   -0.1969    1.0000 </r>
       <r>   -0.1962    1.0000 </r>
       <r>   -0.1954    1.0000 </r>
       <r>   -0.1952    1.0000 </r>
       <r>   -0.1947    1.0000 </r>
       <r>   -0.1934    1.0000 </r>
       <r>   -0.1919    1.0000 </r>
       <r>    0.4621    1.0000 </r>
       <r>    0.4629    1.0000 </r>
       <r>    0.4642    1.0000 </r>
       <r>    0.4648    1.0000 </r>
       <r>    0.4650    1.0000 </r>
       <r>    0.4659    1.0000 </r>
       <r>    0.4671    1.0000 </r>
       <r>    0.4678    1.0000 </r>
       <r>    1.4165    1.0000 </r>
       <r>    1.4166    1.0000 </r>
       <r>    1.4171    1.0000 </r>
       <r>    1.4178    1.0000 </r>
       <r>    2.2854    1.0000 </r>
       <r>    2.2864    1.0000 </r>
       <r>    2.2870    1.0000 </r>
       <r>    2.2871    1.0000 </r>
       <r>    2.2875    1.0000 </r>
       <r>    2.2879    1.0000 </r>
       <r>    2.2883    1.0000 </r>
       <r>    2.2888    1.0000 </r>
       <r>    2.3708    1.0000 </r>
       <r>    2.3712    1.0000 </r>
       <r>    2.3714    1.0000 </r>
       <r>    2.3719    1.0000 </r>
       <r>    2.3723    1.0000 </r>
       <r>    2.3726    1.0000 </r>
       <r>    2.3734    1.0000 </r>
       <r>    2.3740    1.0000 </r>
       <r>    2.9816    1.0000 </r>
       <r>    2.9822    1.0000 </r>
       <r>    2.9830    1.0000 </r>
       <r>    2.9832    1.0000 </r>
       <r>    2.9833    1.0000 </r>
       <r>    2.9837    1.0000 </r>
       <r>    2.9840    1.0000 </r>
       <r>    2.9846    1.0000 </r>
       <r>    3.0761    1.0000 </r>
       <r>    3.0762    1.0000 </r>
       <r>    3.0773    1.0000 </r>
       <r>    3.0773    1.0000 </r>
       <r>    3.3302    1.0000 </r>
       <r>    3.3314    1.0000 </r>
       <r>    3.3319    1.0000 </r>
       <r>    3.3322    1.0000 </r>
       <r>    3.5886    1.0000 </r>
       <r>    3.5897    1.0000 </r>
       <r>    3.5907    1.0000 </r>
       <r>    3.5910    1.0000 </r>
       <r>    3.5911    1.0000 </r>
       <r>    3.5913    1.0000 </r>
       <r>    3.5928    1.0000 </r>
       <r>    3.5936    1.0000 </r>
       <r>    3.9153    1.0000 </r>
       <r>    3.9167    1.0000 </r>
       <r>    3.9173    1.0000 </r>
       <r>    3.9179    1.0000 </r>
       <r>    3.9183    1.0000 </r>
       <r>    3.9186    1.0000 </r>
       <r>    3.9201    1.0000 </r>
       <r>    3.9216    1.0000 </r>
       <r>    4.1180    1.0000 </r>
       <r>    4.1183    1.0000 </r>
       <r>    4.1184    1.0000 </r>
       <r>    4.1188    1.0000 </r>
       <r>    4.1728    1.0000 </r>
       <r>    4.1733    1.0000 </r>
       <r>    4.1739    1.0000 </r>
       <r>    4.1740    1.0000 </r>
       <r>    4.1744    1.0000 </r>
       <r>    4.1746    1.0000 </r>
       <r>    4.1749    1.0000 </r>
       <r>    4.1754    1.0000 </r>
       <r>    5.4797    1.0000 </r>
       <r>    5.4801    1.0000 </r>
       <r>    5.4801    1.0000 </r>
       <r>    5.4810    1.0000 </r>
       <r>    6.8652    0.0000 </r>
       <r>    6.8654    0.0000 </r>
       <r>    6.8660    0.0000 </r>
       <r>    6.8666    0.0000 </r>
       <r>    7.6295    0.0000 </r>
       <r>    7.6301    0.0000 </r>
       <r>    7.6311    0.0000 </r>
       <r>    7.6314    0.0000 </r>
       <r>    7.6317    0.0000 </r>
       <r>    7.6320    0.0000 </r>
       <r>    7.6331    0.0000 </r>
       <r>    7.6337    0.0000 </r>
       <r>    7.9391    0.0000 </r>
       <r>    7.9392    0.0000 </r>
       <r>    7.9398    0.0000 </r>
       <r>    7.9399    0.0000 </r>
       <r>    7.9401    0.0000 </r>
       <r>    7.9403    0.0000 </r>
       <r>    7.9406    0.0000 </r>
       <r>    7.9409    0.0000 </r>
       <r>    8.3140    0.0000 </r>
       <r>    8.3142    0.0000 </r>
       <r>    8.3146    0.0000 </r>
       <r>    8.3151    0.0000 </r>
       <r>    8.3153    0.0000 </r>
       <r>    8.3155    0.0000 </r>
       <r>    8.3162    0.0000 </r>
       <r>    8.3165    0.0000 </r>
       <r>    8.7645    0.0000 </r>
       <r>    8.7656    0.0000 </r>
       <r>    8.7675    0.0000 </r>
       <r>    8.7687    0.0000 </r>
       <r>    8.7710    0.0000 </r>
       <r>    8.7714    0.0000 </r>
       <r>    8.7724    0.0000 </r>
       <r>    8.7776    0.0000 </r>
       <r>    8.7822    0.0000 </r>
       <r>    8.7875    0.0000 </r>
       <r>    8.7973    0.0000 </r>
       <r>    8.8115    0.0000 </r>
      </set>
      <set comment="kpoint 6">
       <r>   -5.6651    1.0000 </r>
       <r>   -5.6642    1.0000 </r>
       <r>   -5.6636    1.0000 </r>
       <r>   -5.6627    1.0000 </r>
       <r>   -4.6474    1.0000 </r>
       <r>   -4.6460    1.0000 </r>
       <r>   -4.6448    1.0000 </r>
       <r>   -4.6444    1.0000 </r>
       <r>   -4.6442    1.0000 </r>
       <r>   -4.6437    1.0000 </r>
       <r>   -4.6431    1.0000 </r>
       <r>   -4.6396    1.0000 </r>
       <r>   -3.6089    1.0000 </r>
       <r>   -3.6063    1.0000 </r>
       <r>   -3.6062    1.0000 </r>
       <r>   -3.6056    1.0000 </r>
       <r>   -3.6054    1.0000 </r>
       <r>   -3.6045    1.0000 </r>
       <r>   -3.6044    1.0000 </r>
       <r>   -3.6017    1.0000 </r>
       <r>   -3.3249    1.0000 </r>
       <r>   -3.3228    1.0000 </r>
       <r>   -3.3226    1.0000 </r>
       <r>   -3.3219    1.0000 </r>
       <r>   -3.3216    1.0000 </r>
       <r>   -3.3209    1.0000 </r>
       <r>   -3.3202    1.0000 </r>
       <r>   -3.3181    1.0000 </r>
       <r>   -2.4618    1.0000 </r>
       <r>   -2.4606    1.0000 </r>
       <r>   -2.4589    1.0000 </r>
       <r>   -2.4577    1.0000 </r>
       <r>   -1.4646    1.0000 </r>
       <r>   -1.4627    1.0000 </r>
       <r>   -1.4626    1.0000 </r>
       <r>   -1.4607    1.0000 </r>
       <r>   -1.0410    1.0000 </r>
       <r>   -1.0401    1.0000 </r>
       <r>   -1.0395    1.0000 </r>
       <r>   -1.0386    1.0000 </r>
       <r>   -1.0384    1.0000 </r>
       <r>   -1.0380    1.0000 </r>
       <r>   -1.0366    1.0000 </r>
       <r>   -1.0345    1.0000 </r>
       <r>   -0.1976    1.0000 </r>
       <r>   -0.1976    1.0000 </r>
       <r>   -0.1965    1.0000 </r>
       <r>   -0.1954    1.0000 </r>
       <r>   -0.1953    1.0000 </r>
       <r>   -0.1949    1.0000 </r>
       <r>   -0.1928    1.0000 </r>
       <r>   -0.1918    1.0000 </r>
       <r>    0.4618    1.0000 </r>
       <r>    0.4630    1.0000 </r>
       <r>    0.4647    1.0000 </r>
       <r>    0.4650    1.0000 </r>
       <r>    0.4652    1.0000 </r>
       <r>    0.4664    1.0000 </r>
       <r>    0.4666    1.0000 </r>
       <r>    0.4673    1.0000 </r>
       <r>    1.4160    1.0000 </r>
       <r>    1.4168    1.0000 </r>
       <r>    1.4172    1.0000 </r>
       <r>    1.4180    1.0000 </r>
       <r>    2.2851    1.0000 </r>
       <r>    2.2858    1.0000 </r>
       <r>    2.2866    1.0000 </r>
       <r>    2.2871    1.0000 </r>
       <r>    2.2875    1.0000 </r>
       <r>    2.2877    1.0000 </r>
       <r>    2.2888    1.0000 </r>
       <r>    2.2895    1.0000 </r>
       <r>    2.3707    1.0000 </r>
       <r>    2.3712    1.0000 </r>
       <r>    2.3716    1.0000 </r>
       <r>    2.3720    1.0000 </r>
       <r>    2.3722    1.0000 </r>
       <r>    2.3728    1.0000 </r>
       <r>    2.3733    1.0000 </r>
       <r>    2.3738    1.0000 </r>
       <r>    2.9809    1.0000 </r>
       <r>    2.9816    1.0000 </r>
       <r>    2.9827    1.0000 </r>
       <r>    2.9831    1.0000 </r>
       <r>    2.9836    1.0000 </r>
       <r>    2.9837    1.0000 </r>
       <r>    2.9848    1.0000 </r>
       <r>    2.9852    1.0000 </r>
       <r>    3.0750    1.0000 </r>
       <r>    3.0763    1.0000 </r>
       <r>    3.0772    1.0000 </r>
       <r>    3.0785    1.0000 </r>
       <r>    3.3299    1.0000 </r>
       <r>    3.3310    1.0000 </r>
       <r>    3.3318    1.0000 </r>
       <r>    3.3330    1.0000 </r>
       <r>    3.5896    1.0000 </r>
       <r>    3.5897    1.0000 </r>
[...]
      </set>
     </set>
    </set>
   </array>
  </eigenvalues>
  <separator name="orbital magnetization" >
   <v name="MAGDIPOLOUT">      0.00000000      0.00000000      0.00000000</v>
  </separator>
  <dos>
   <i name="efermi">      5.89257693 </i>
   <total>
    <array>
     <dimension dim="1">gridpoints</dimension>
     <dimension dim="2">spin</dimension>
     <field>energy</field>
     <field>total</field>
     <field>integrated</field>
     <set>
      <set comment="spin 1">
       <r>    -6.9819     0.0000     0.0000 </r>
       <r>    -6.9250     0.0000     0.0000 </r>
       <r>    -6.8680     0.0000     0.0000 </r>
       <r>    -6.8111     0.0000     0.0000 </r>
       <r>    -6.7542     0.0000     0.0000 </r>
       <r>    -6.6972     0.0000     0.0000 </r>
       <r>    -6.6403     0.0000     0.0000 </r>
       <r>    -6.5834     0.0000     0.0000 </r>
       <r>    -6.5264     0.0000     0.0000 </r>
       <r>    -6.4695     0.0000     0.0000 </r>
       <r>    -6.4126     0.0000     0.0000 </r>
       <r>    -6.3556     0.0000     0.0000 </r>
       <r>    -6.2987     0.0000     0.0000 </r>
       <r>    -6.2418     0.0229     0.0013 </r>
       <r>    -6.1848     4.0537     0.2321 </r>
       <r>    -6.1279     0.3144     0.2500 </r>
       <r>    -6.0709     0.0000     0.2500 </r>
       <r>    -6.0140     0.0000     0.2500 </r>
       <r>    -5.9571     1.0115     0.3076 </r>
       <r>    -5.9001    25.0148     1.7318 </r>
       <r>    -5.8432     0.3194     1.7500 </r>
       <r>    -5.7863     0.0000     1.7500 </r>
       <r>    -5.7293     0.0001     1.7500 </r>
       <r>    -5.6724    14.4907     2.5750 </r>
       <r>    -5.6155    38.1839     4.7490 </r>
       <r>    -5.5585     0.0167     4.7500 </r>
       <r>    -5.5016     0.0000     4.7500 </r>
       <r>    -5.4447     0.0716     4.7541 </r>
       <r>    -5.3877    30.4725     6.4890 </r>
       <r>    -5.3308     4.5836     6.7500 </r>
       <r>    -5.2739     0.0000     6.7500 </r>
       <r>    -5.2169     0.0000     6.7500 </r>
       <r>    -5.1600     0.0861     6.7549 </r>
       <r>    -5.1030    23.6187     8.0996 </r>
       <r>    -5.0461     2.6409     8.2500 </r>
       <r>    -4.9892     0.0000     8.2500 </r>
       <r>    -4.9322     0.0016     8.2501 </r>
       <r>    -4.8753    45.1967    10.8234 </r>
       <r>    -4.8184    60.1770    14.2496 </r>
       <r>    -4.7614     0.0076    14.2500 </r>
       <r>    -4.7045     0.0012    14.2501 </r>
       <r>    -4.6476    42.7168    16.6822 </r>
       <r>    -4.5906    62.6553    20.2495 </r>
       <r>    -4.5337     0.0095    20.2500 </r>
       <r>    -4.4768     0.0000    20.2500 </r>
       <r>    -4.4198     0.0000    20.2500 </r>
       <r>    -4.3629     0.0000    20.2500 </r>
       <r>    -4.3060     0.0000    20.2500 </r>
       <r>    -4.2490     0.0000    20.2500 </r>
       <r>    -4.1921     0.2621    20.2649 </r>
       <r>    -4.1351    48.0443    23.0003 </r>
       <r>    -4.0782     4.3904    23.2503 </r>
       <r>    -4.0213    56.9069    26.4903 </r>
       <r>    -3.9643    48.4683    29.2499 </r>
       <r>    -3.9074     0.0110    29.2505 </r>
       <r>    -3.8505    13.4118    30.0141 </r>
       <r>    -3.7935    25.3191    31.4556 </r>
       <r>    -3.7366     5.1699    31.7500 </r>
       <r>    -3.6797     0.0000    31.7500 </r>
       <r>    -3.6227    11.8446    32.4244 </r>
       <r>    -3.5658    93.2415    37.7331 </r>
       <r>    -3.5089     2.0466    37.8496 </r>
       <r>    -3.4519    99.5392    43.5169 </r>
       <r>    -3.3950     4.0938    43.7500 </r>
       <r>    -3.3381    13.1652    44.4996 </r>
       <r>    -3.2811    91.9761    49.7363 </r>
       <r>    -3.2242     0.2415    49.7500 </r>
       <r>    -3.1672     0.0000    49.7500 </r>
       <r>    -3.1103     0.9273    49.8028 </r>
       <r>    -3.0534    98.7994    55.4280 </r>
       <r>    -2.9964     5.6561    55.7500 </r>
       <r>    -2.9395     0.0000    55.7500 </r>
       <r>    -2.8826     0.0000    55.7500 </r>
       <r>    -2.8256     0.0000    55.7500 </r>
       <r>    -2.7687     0.0000    55.7500 </r>
       <r>    -2.7118     0.0000    55.7500 </r>
       <r>    -2.6548     0.0000    55.7500 </r>
       <r>    -2.5979     0.0000    55.7500 </r>
       <r>    -2.5410     0.0000    55.7500 </r>
       <r>    -2.4840     2.3117    55.8816 </r>
       <r>    -2.4271    49.8134    58.7178 </r>
       <r>    -2.3702     0.5663    58.7500 </r>
       <r>    -2.3132     0.0000    58.7500 </r>
       <r>    -2.2563     0.0000    58.7500 </r>
       <r>    -2.1993     0.0000    58.7500 </r>
       <r>    -2.1424     0.0000    58.7500 </r>
       <r>    -2.0855     0.2470    58.7641 </r>
       <r>    -2.0285    24.7794    60.1749 </r>
       <r>    -1.9716    53.6122    63.2273 </r>
       <r>    -1.9147    53.7687    66.2886 </r>
       <r>    -1.8577    49.8471    69.1267 </r>
       <r>    -1.8008     2.1656    69.2500 </r>
       <r>    -1.7439     0.0000    69.2500 </r>
       <r>    -1.6869     0.0000    69.2500 </r>
       <r>    -1.6300     0.0000    69.2500 </r>
       <r>    -1.5731     0.0000    69.2500 </r>
       <r>    -1.5161     0.0044    69.2502 </r>
       <r>    -1.4592    31.4569    71.0413 </r>
       <r>    -1.4023    21.2296    72.2500 </r>
       <r>    -1.3453     0.0005    72.2500 </r>
       <r>    -1.2884     0.0014    72.2501 </r>
       <r>    -1.2314    10.3681    72.8404 </r>
       <r>    -1.1745     7.1941    73.2500 </r>
       <r>    -1.1176     0.0002    73.2500 </r>
       <r>    -1.0606     6.2342    73.6049 </r>
       <r>    -1.0037    98.3433    79.2041 </r>
       <r>    -0.9468     0.8054    79.2500 </r>
       <r>    -0.8898     0.0000    79.2500 </r>
       <r>    -0.8329     1.9202    79.3593 </r>
       <r>    -0.7760   100.3948    85.0753 </r>
       <r>    -0.7190     3.0679    85.2500 </r>
       <r>    -0.6621     3.0830    85.4255 </r>
       <r>    -0.6052   195.7698    96.5717 </r>
       <r>    -0.5482    11.9129    97.2500 </r>
       <r>    -0.4913     0.0000    97.2500 </r>
       <r>    -0.4344     0.0000    97.2500 </r>
       <r>    -0.3774     0.0000    97.2500 </r>
       <r>    -0.3205     0.0000    97.2500 </r>
       <r>    -0.2635     0.0001    97.2500 </r>
       <r>    -0.2066    22.4440    98.5279 </r>
       <r>    -0.1497    82.8646   103.2458 </r>
       <r>    -0.0927     0.0741   103.2500 </r>
       <r>    -0.0358     0.0004   103.2500 </r>
       <r>     0.0211    11.6106   103.9111 </r>
       <r>     0.0781    14.7333   104.7499 </r>
       <r>     0.1350     0.0014   104.7500 </r>
       <r>     0.1919     0.0000   104.7500 </r>
       <r>     0.2489     0.5574   104.7817 </r>
       <r>     0.3058    49.5959   107.6055 </r>
       <r>     0.3627     2.5381   107.7500 </r>
       <r>     0.4197     0.0780   107.7544 </r>
       <r>     0.4766    83.4654   112.5066 </r>
       <r>     0.5335    21.8394   113.7500 </r>
       <r>     0.5905     0.0001   113.7500 </r>
       <r>     0.6474     0.0000   113.7500 </r>
       <r>     0.7044     0.0000   113.7500 </r>
       <r>     0.7613     0.0000   113.7500 </r>
       <r>     0.8182     0.0000   113.7500 </r>
       <r>     0.8752     0.0000   113.7500 </r>
       <r>     0.9321     0.0000   113.7500 </r>
       <r>     0.9890     0.0000   113.7500 </r>
       <r>     1.0460     0.0000   113.7500 </r>
       <r>     1.1029     0.0000   113.7500 </r>
       <r>     1.1598     0.0000   113.7500 </r>
       <r>     1.2168     0.0000   113.7500 </r>
       <r>     1.2737     0.0000   113.7500 </r>
       <r>     1.3306     0.0000   113.7500 </r>
       <r>     1.3876     0.9892   113.8063 </r>
       <r>     1.4445    52.3339   116.7860 </r>
       <r>     1.5014   177.0786   126.8680 </r>
       <r>     1.5584    33.0552   128.7500 </r>
       <r>     1.6153     0.0003   128.7500 </r>
       <r>     1.6723     0.0000   128.7500 </r>
       <r>     1.7292     0.0000   128.7500 </r>
       <r>     1.7861     0.1808   128.7603 </r>
       <r>     1.8431    33.5394   130.6699 </r>
       <r>     1.9000    52.9720   133.6858 </r>
       <r>     1.9569     7.7108   134.1249 </r>
       <r>     2.0139    45.9913   136.7434 </r>
       <r>     2.0708     0.1162   136.7500 </r>
       <r>     2.1277     0.0000   136.7500 </r>
       <r>     2.1847    17.8830   137.7682 </r>
       <r>     2.2416    93.8856   143.1136 </r>
       <r>     2.2985   111.6572   149.4708 </r>
       <r>     2.3555   131.1905   156.9402 </r>
       <r>     2.4124    93.0204   162.2363 </r>
       <r>     2.4693     0.2405   162.2500 </r>
       <r>     2.5263     0.0000   162.2500 </r>
       <r>     2.5832     0.0000   162.2500 </r>
       <r>     2.6402     0.0000   162.2500 </r>
       <r>     2.6971     0.0000   162.2500 </r>
       <r>     2.7540     0.0000   162.2500 </r>
       <r>     2.8110     0.0000   162.2500 </r>
       <r>     2.8679     0.2227   162.2627 </r>
       <r>     2.9248    24.7720   163.6731 </r>
       <r>     2.9818    49.9385   166.5163 </r>
       <r>     3.0387   145.1057   174.7780 </r>
       <r>     3.0956    64.9599   178.4765 </r>
       <r>     3.1526    71.4693   182.5456 </r>
       <r>     3.2095    91.3873   187.7488 </r>
       <r>     3.2664     9.1984   188.2725 </r>
       <r>     3.3234   110.8297   194.5826 </r>
       <r>     3.3803    38.0530   196.7492 </r>
       <r>     3.4372     0.0149   196.7500 </r>
       <r>     3.4942     0.0026   196.7501 </r>
       <r>     3.5511    49.0080   199.5404 </r>
       <r>     3.6080   149.4771   208.0509 </r>
       <r>     3.6650    12.2780   208.7500 </r>
       <r>     3.7219     0.0000   208.7500 </r>
       <r>     3.7789     0.0000   208.7500 </r>
       <r>     3.8358     0.8062   208.7959 </r>
       <r>     3.8927    53.9431   211.8672 </r>
       <r>     3.9497   101.8942   217.6685 </r>
       <r>     4.0066     1.4307   217.7500 </r>
       <r>     4.0635     0.0027   217.7502 </r>
       <r>     4.1205    29.3765   219.4227 </r>
       <r>     4.1774    85.4999   224.2907 </r>
       <r>     4.2343    43.1938   226.7499 </r>
       <r>     4.2913     0.2354   226.7633 </r>
       <r>     4.3482    91.9905   232.0008 </r>
       <r>     4.4051    14.4923   232.8259 </r>
       <r>     4.4621    75.4304   237.1206 </r>
       <r>     4.5190    96.8536   242.6350 </r>
       <r>     4.5759    34.1681   244.5804 </r>
       <r>     4.6329    11.7614   245.2500 </r>
       <r>     4.6898     0.0002   245.2500 </r>
       <r>     4.7468     0.0000   245.2500 </r>
       <r>     4.8037     0.0000   245.2500 </r>
       <r>     4.8606     0.0000   245.2500 </r>
       <r>     4.9176     0.2123   245.2621 </r>
       <r>     4.9745    48.6454   248.0317 </r>
       <r>     5.0314    70.5349   252.0476 </r>
       <r>     5.0884     3.5541   252.2500 </r>
       <r>     5.1453     0.0000   252.2500 </r>
       <r>     5.2022     0.0000   252.2500 </r>
       <r>     5.2592     0.0000   252.2500 </r>
       <r>     5.3161     0.0000   252.2500 </r>
       <r>     5.3730     0.0000   252.2500 </r>
       <r>     5.4300     0.0110   252.2506 </r>
       <r>     5.4869    35.8389   254.2911 </r>
       <r>     5.5438    16.8413   255.2500 </r>
       <r>     5.6008     0.0002   255.2500 </r>
       <r>     5.6577     0.0000   255.2500 </r>
       <r>     5.7147     0.0004   255.2500 </r>
       <r>     5.7716     6.4499   255.6172 </r>
       <r>     5.8285     6.7221   256.0000 </r>
       <r>     5.8855     0.0005   256.0000 </r>
       <r>     5.9424     0.0000   256.0000 </r>
       <r>     5.9993     0.0000   256.0000 </r>
       <r>     6.0563     0.0000   256.0000 </r>
       <r>     6.1132     0.0000   256.0000 </r>
       <r>     6.1701     0.0000   256.0000 </r>
       <r>     6.2271     0.0026   256.0001 </r>
       <r>     6.2840    16.3053   256.9285 </r>
       <r>     6.3409    11.0996   257.5605 </r>
       <r>     6.3979    24.9702   258.9821 </r>
       <r>     6.4548     0.3137   259.0000 </r>
       <r>     6.5117     0.0000   259.0000 </r>
       <r>     6.5687     0.0000   259.0000 </r>
       <r>     6.6256     0.0000   259.0000 </r>
       <r>     6.6826     0.0000   259.0000 </r>
       <r>     6.7395     0.0000   259.0000 </r>
       <r>     6.7964     5.4308   259.3092 </r>
       <r>     6.8534    30.9223   261.0698 </r>
       <r>     6.9103    42.6390   263.4974 </r>
       <r>     6.9672     0.0451   263.5000 </r>
       <r>     7.0242     0.0000   263.5000 </r>
       <r>     7.0811     0.0000   263.5000 </r>
       <r>     7.1380     0.0236   263.5013 </r>
       <r>     7.1950    84.3332   268.3029 </r>
       <r>     7.2519    63.5382   271.9204 </r>
       <r>     7.3088     1.3975   272.0000 </r>
       <r>     7.3658     0.0000   272.0000 </r>
       <r>     7.4227     0.0000   272.0000 </r>
       <r>     7.4796     0.0000   272.0000 </r>
       <r>     7.5366     0.0000   272.0000 </r>
       <r>     7.5935     0.4003   272.0228 </r>
       <r>     7.6505   161.3073   281.2069 </r>
       <r>     7.7074    60.6305   284.6589 </r>
       <r>     7.7643    49.7689   287.4925 </r>
       <r>     7.8213     0.1321   287.5000 </r>
       <r>     7.8782     0.0007   287.5000 </r>
       <r>     7.9351    38.5765   289.6964 </r>
       <r>     7.9921    66.7926   293.4993 </r>
       <r>     8.0490    23.7915   294.8538 </r>
       <r>     8.1059    82.4767   299.5497 </r>
       <r>     8.1629   143.1991   307.7027 </r>
       <r>     8.2198    14.0028   308.5000 </r>
       <r>     8.2767     2.9228   308.6664 </r>
       <r>     8.3337   105.4843   314.6722 </r>
       <r>     8.3906    10.1486   315.2500 </r>
       <r>     8.4475     0.0000   315.2500 </r>
       <r>     8.5045     0.0353   315.2520 </r>
       <r>     8.5614    76.6941   319.6186 </r>
       <r>     8.6184    28.6532   321.2500 </r>
       <r>     8.6753     0.0002   321.2500 </r>
       <r>     8.7322     0.5445   321.2810 </r>
       <r>     8.7892   121.9276   328.2230 </r>
       <r>     8.8461    61.7851   331.7407 </r>
       <r>     8.9030     0.1628   331.7500 </r>
       <r>     8.9600     0.0000   331.7500 </r>
       <r>     9.0169     0.1115   331.7563 </r>
       <r>     9.0738    12.3518   332.4596 </r>
       <r>     9.1308     0.7095   332.5000 </r>
       <r>     9.1877     0.0442   332.5025 </r>
       <r>     9.2446    29.2976   334.1706 </r>
       <r>     9.3016     8.0506   334.6289 </r>
       <r>     9.3585    23.9747   335.9940 </r>
       <r>     9.4154     0.1062   336.0000 </r>
       <r>     9.4724     0.0000   336.0000 </r>
       <r>     9.5293     0.0000   336.0000 </r>
       <r>     9.5863     0.0000   336.0000 </r>
       <r>     9.6432     0.0000   336.0000 </r>
       <r>     9.7001     0.0000   336.0000 </r>
       <r>     9.7571     0.0000   336.0000 </r>
       <r>     9.8140     0.0000   336.0000 </r>
       <r>     9.8709     0.0000   336.0000 </r>
       <r>     9.9279     0.0000   336.0000 </r>
       <r>     9.9848     0.0000   336.0000 </r>
       <r>    10.0417     0.0000   336.0000 </r>
       <r>    10.0987     0.0000   336.0000 </r>
      </set>
     </set>
    </array>
   </total>
  </dos>
 </calculation>
 <structure name="finalpos" >
  <crystal>
   <varray name="basis" >
    <v>      10.86914512      -0.00000000      -0.00000000 </v>
    <v>      -0.00000000      10.86914512       0.00000000 </v>
    <v>       0.00000000       0.00000000      10.86914512 </v>
   </varray>
   <i name="volume">   1284.06249692 </i>
   <varray name="rec_basis" >
    <v>       0.09200356       0.00000000      -0.00000000 </v>
    <v>       0.00000000       0.09200356      -0.00000000 </v>
    <v>       0.00000000      -0.00000000       0.09200356 </v>
   </varray>
  </crystal>
  <varray name="positions" >
   <v>       0.24907996       0.25000000       0.25000000 </v>
   <v>       0.75000000       0.25000000       0.25000000 </v>
   <v>       0.25000000       0.75000000       0.25000000 </v>
   <v>       0.75000000       0.75000000       0.25000000 </v>
   <v>       0.25000000       0.25000000       0.75000000 </v>
   <v>       0.75000000       0.25000000       0.75000000 </v>
   <v>       0.25000000       0.75000000       0.75000000 </v>
   <v>       0.75000000       0.75000000       0.75000000 </v>
   <v>       0.25000000       0.99907996       0.00000000 </v>
   <v>       0.75000000       0.00000000       0.00000000 </v>
   <v>       0.25000000       0.50000000       0.00000000 </v>
   <v>       0.75000000       0.50000000       0.00000000 </v>
   <v>       0.25000000       0.00000000       0.50000000 </v>
   <v>       0.75000000       0.00000000       0.50000000 </v>
   <v>       0.25000000       0.50000000       0.50000000 </v>
   <v>       0.75000000       0.50000000       0.50000000 </v>
   <v>       0.00000000       0.25000000       0.00000000 </v>
   <v>       0.50000000       0.25000000       0.00000000 </v>
   <v>       0.00000000       0.75000000       0.00000000 </v>
   <v>       0.50000000       0.75000000       0.00000000 </v>
   <v>       0.00000000       0.25000000       0.50000000 </v>
   <v>       0.50000000       0.25000000       0.50000000 </v>
   <v>       0.00000000       0.75000000       0.50000000 </v>
   <v>       0.50000000       0.75000000       0.50000000 </v>
   <v>       0.00000000       0.00000000       0.25000000 </v>
   <v>       0.50000000       0.00000000       0.25000000 </v>
   <v>       0.00000000       0.50000000       0.25000000 </v>
   <v>       0.50000000       0.50000000       0.25000000 </v>
   <v>       0.00000000       0.00000000       0.75000000 </v>
   <v>       0.50000000       0.00000000       0.75000000 </v>
   <v>       0.00000000       0.50000000       0.75000000 </v>
   <v>       0.50000000       0.50000000       0.75000000 </v>
   <v>       0.37500000       0.37500000       0.37500000 </v>
   <v>       0.87500000       0.37500000       0.37500000 </v>
   <v>       0.37500000       0.87500000       0.37500000 </v>
   <v>       0.87500000       0.87500000       0.37500000 </v>
   <v>       0.37500000       0.37500000       0.87500000 </v>
   <v>       0.87500000       0.37500000       0.87500000 </v>
   <v>       0.37500000       0.87500000       0.87500000 </v>
   <v>       0.87500000       0.87500000       0.87500000 </v>
   <v>       0.37500000       0.12500000       0.12500000 </v>
   <v>       0.87500000       0.12500000       0.12500000 </v>
   <v>       0.37500000       0.62500000       0.12500000 </v>
   <v>       0.87500000       0.62500000       0.12500000 </v>
   <v>       0.37500000       0.12500000       0.62500000 </v>
   <v>       0.87500000       0.12500000       0.62500000 </v>
   <v>       0.37500000       0.62500000       0.62500000 </v>
   <v>       0.87500000       0.62500000       0.62500000 </v>
   <v>       0.12500000       0.37500000       0.12500000 </v>
   <v>       0.62500000       0.37500000       0.12500000 </v>
   <v>       0.12500000       0.87500000       0.12500000 </v>
   <v>       0.62500000       0.87500000       0.12500000 </v>
   <v>       0.12500000       0.37500000       0.62500000 </v>
   <v>       0.62500000       0.37500000       0.62500000 </v>
   <v>       0.12500000       0.87500000       0.62500000 </v>
   <v>       0.62500000       0.87500000       0.62500000 </v>
   <v>       0.12500000       0.12500000       0.37500000 </v>
   <v>       0.62500000       0.12500000       0.37500000 </v>
   <v>       0.12500000       0.62500000       0.37500000 </v>
   <v>       0.62500000       0.62500000       0.37500000 </v>
   <v>       0.12500000       0.12500000       0.87500000 </v>
   <v>       0.62500000       0.12500000       0.87500000 </v>
   <v>       0.12500000       0.62500000       0.87500000 </v>
   <v>       0.62500000       0.62500000       0.87500000 </v>
  </varray>
 </structure>
</modeling>
