 running on   32 total cores
 distrk:  each k-point on   32 cores,    1 groups
 distr:  one band on    4 cores,    8 groups
 vasp.6.3.2 27Jun22 (build Oct 14 2022 12:13:54) complex                        
  
 POSCAR found type information on POSCAR Si
 POSCAR found :  1 types and      64 ions
 scaLAPACK will be used
 -----------------------------------------------------------------------------
|                                                                             |
|               ----> ADVICE to this user running VASP <----                  |
|                                                                             |
|     You have a (more or less) 'large supercell' and for larger cells it     |
|     might be more efficient to use real-space projection operators.         |
|     Therefore, try LREAL= Auto in the INCAR file.                           |
|     Mind: For very accurate calculation, you might also keep the            |
|     reciprocal projection scheme (i.e. LREAL=.FALSE.).                      |
|                                                                             |
 -----------------------------------------------------------------------------

 -----------------------------------------------------------------------------
|                                                                             |
|               ----> ADVICE to this user running VASP <----                  |
|                                                                             |
|     You enforced a specific xc type in the INCAR file but a different       |
|     type was found in the POTCAR file.                                      |
|     I HOPE YOU KNOW WHAT YOU ARE DOING!                                     |
|                                                                             |
 -----------------------------------------------------------------------------

 LDA part: xc-table for Pade appr. of Perdew
 POSCAR, INCAR and KPOINTS ok, starting setup
 FFT: planning ... GRIDC
 FFT: planning ... GRID_SOFT
 FFT: planning ... GRID
 WAVECAR not read
 entering main loop
       N       E                     dE             d eps       ncg     rms          rms(c)
DAV:   1     0.451014081750E+03    0.45101E+03   -0.72608E+04  2688   0.852E+02
DAV:   2    -0.322069972298E+03   -0.77308E+03   -0.73078E+03  3232   0.155E+02
DAV:   3    -0.373414587016E+03   -0.51345E+02   -0.50483E+02  3304   0.365E+01
DAV:   4    -0.374598723101E+03   -0.11841E+01   -0.11758E+01  3224   0.671E+00
DAV:   5    -0.374640585496E+03   -0.41862E-01   -0.41812E-01  3184   0.111E+00    0.285E+01
DAV:   6    -0.369721544526E+03    0.49190E+01   -0.25933E+00  3056   0.242E+00    0.172E+01
DAV:   7    -0.367490388482E+03    0.22312E+01   -0.52394E+00  3040   0.349E+00    0.996E-01
DAV:   8    -0.367497497884E+03   -0.71094E-02   -0.28314E-01  3072   0.970E-01    0.352E-01
DAV:   9    -0.367498983224E+03   -0.14853E-02   -0.72200E-03  3288   0.163E-01    0.310E-01
DAV:  10    -0.367499839153E+03   -0.85593E-03   -0.20837E-03  2976   0.832E-02    0.229E-01
DAV:  11    -0.367499877567E+03   -0.38414E-04   -0.88190E-05  3176   0.189E-02    0.881E-03
DAV:  12    -0.367499879863E+03   -0.22964E-05   -0.33550E-06  3192   0.359E-03    0.813E-03
DAV:  13    -0.367499878882E+03    0.98171E-06   -0.83447E-07  3032   0.192E-03    0.203E-03
DAV:  14    -0.367499878716E+03    0.16533E-06   -0.29604E-08  2560   0.386E-04    0.518E-04
DAV:  15    -0.367499878704E+03    0.12616E-07   -0.10690E-08  1840   0.198E-04    0.129E-04
DAV:  16    -0.367499878694E+03    0.10137E-07   -0.18101E-09  1736   0.980E-05    0.576E-05
DAV:  17    -0.367499878689E+03    0.43256E-08   -0.30047E-10  1696   0.363E-05
   1 F= -.36749988E+03 E0= -.36749988E+03  d E =-.109048E-17
