  64  64   0   0
  0.2197554E+02  0.1120400E-08  0.1120400E-08  0.1120400E-08  0.5000000E-15
  1.000000000000000E-004
  CAR 
 unknown system                          
     11.05474441    -22.85314513  301     -0.55870776      1.00000000
    -22.853  0.0000E+00  0.0000E+00
    -22.740  0.0000E+00  0.0000E+00
    -22.627  0.0000E+00  0.0000E+00
    -22.514  0.0000E+00  0.0000E+00
    -22.401  0.0000E+00  0.0000E+00
    -22.288  0.0000E+00  0.0000E+00
    -22.175  0.0000E+00  0.0000E+00
    -22.062  0.0000E+00  0.0000E+00
    -21.949  0.0000E+00  0.0000E+00
    -21.836  0.0000E+00  0.0000E+00
    -21.723  0.0000E+00  0.0000E+00
    -21.610  0.0000E+00  0.0000E+00
    -21.497  0.0000E+00  0.0000E+00
    -21.384  0.5452E-05  0.6162E-06
    -21.271  0.1207E+04  0.1365E+03
    -21.158  0.4914E+03  0.1920E+03
    -21.045  0.0000E+00  0.1920E+03
    -20.932  0.0000E+00  0.1920E+03
    -20.819  0.0000E+00  0.1920E+03
    -20.706  0.0000E+00  0.1920E+03
    -20.593  0.0000E+00  0.1920E+03
    -20.480  0.0000E+00  0.1920E+03
    -20.367  0.0000E+00  0.1920E+03
    -20.254  0.0000E+00  0.1920E+03
    -20.141  0.0000E+00  0.1920E+03
    -20.027  0.0000E+00  0.1920E+03
    -19.914  0.0000E+00  0.1920E+03
    -19.801  0.0000E+00  0.1920E+03
    -19.688  0.0000E+00  0.1920E+03
    -19.575  0.0000E+00  0.1920E+03
    -19.462  0.0000E+00  0.1920E+03
    -19.349  0.0000E+00  0.1920E+03
    -19.236  0.0000E+00  0.1920E+03
    -19.123  0.0000E+00  0.1920E+03
    -19.010  0.0000E+00  0.1920E+03
    -18.897  0.0000E+00  0.1920E+03
    -18.784  0.0000E+00  0.1920E+03
    -18.671  0.0000E+00  0.1920E+03
    -18.558  0.0000E+00  0.1920E+03
    -18.445  0.0000E+00  0.1920E+03
    -18.332  0.0000E+00  0.1920E+03
    -18.219  0.0000E+00  0.1920E+03
    -18.106  0.0000E+00  0.1920E+03
    -17.993  0.0000E+00  0.1920E+03
    -17.880  0.0000E+00  0.1920E+03
    -17.767  0.0000E+00  0.1920E+03
    -17.654  0.0000E+00  0.1920E+03
    -17.541  0.0000E+00  0.1920E+03
    -17.428  0.0000E+00  0.1920E+03
    -17.315  0.0000E+00  0.1920E+03
    -17.202  0.0000E+00  0.1920E+03
    -17.089  0.0000E+00  0.1920E+03
    -16.976  0.0000E+00  0.1920E+03
    -16.863  0.0000E+00  0.1920E+03
    -16.750  0.0000E+00  0.1920E+03
    -16.637  0.0000E+00  0.1920E+03
    -16.524  0.0000E+00  0.1920E+03
    -16.411  0.0000E+00  0.1920E+03
    -16.298  0.0000E+00  0.1920E+03
    -16.185  0.0000E+00  0.1920E+03
    -16.072  0.0000E+00  0.1920E+03
    -15.959  0.0000E+00  0.1920E+03
    -15.846  0.0000E+00  0.1920E+03
    -15.732  0.0000E+00  0.1920E+03
    -15.619  0.0000E+00  0.1920E+03
    -15.506  0.0000E+00  0.1920E+03
    -15.393  0.0000E+00  0.1920E+03
    -15.280  0.0000E+00  0.1920E+03
    -15.167  0.0000E+00  0.1920E+03
    -15.054  0.0000E+00  0.1920E+03
    -14.941  0.0000E+00  0.1920E+03
    -14.828  0.0000E+00  0.1920E+03
    -14.715  0.0000E+00  0.1920E+03
    -14.602  0.0000E+00  0.1920E+03
    -14.489  0.0000E+00  0.1920E+03
    -14.376  0.0000E+00  0.1920E+03
    -14.263  0.0000E+00  0.1920E+03
    -14.150  0.0000E+00  0.1920E+03
    -14.037  0.0000E+00  0.1920E+03
    -13.924  0.0000E+00  0.1920E+03
    -13.811  0.0000E+00  0.1920E+03
    -13.698  0.0000E+00  0.1920E+03
    -13.585  0.0000E+00  0.1920E+03
    -13.472  0.8595E-15  0.1920E+03
    -13.359  0.1046E+01  0.1921E+03
    -13.246  0.1867E+02  0.1942E+03
    -13.133  0.4861E+02  0.1997E+03
    -13.020  0.1240E+03  0.2137E+03
    -12.907  0.3687E+03  0.2554E+03
    -12.794  0.5206E+01  0.2560E+03
    -12.681  0.0000E+00  0.2560E+03
    -12.568  0.0000E+00  0.2560E+03
    -12.455  0.0000E+00  0.2560E+03
    -12.342  0.0000E+00  0.2560E+03
    -12.229  0.0000E+00  0.2560E+03
    -12.116  0.0000E+00  0.2560E+03
    -12.003  0.0000E+00  0.2560E+03
    -11.890  0.0000E+00  0.2560E+03
    -11.777  0.0000E+00  0.2560E+03
    -11.664  0.0000E+00  0.2560E+03
    -11.551  0.0000E+00  0.2560E+03
    -11.437  0.0000E+00  0.2560E+03
    -11.324  0.0000E+00  0.2560E+03
    -11.211  0.0000E+00  0.2560E+03
    -11.098  0.0000E+00  0.2560E+03
    -10.985  0.0000E+00  0.2560E+03
    -10.872  0.0000E+00  0.2560E+03
    -10.759  0.0000E+00  0.2560E+03
    -10.646  0.0000E+00  0.2560E+03
    -10.533  0.0000E+00  0.2560E+03
    -10.420  0.0000E+00  0.2560E+03
    -10.307  0.0000E+00  0.2560E+03
    -10.194  0.0000E+00  0.2560E+03
    -10.081  0.0000E+00  0.2560E+03
     -9.968  0.0000E+00  0.2560E+03
     -9.855  0.0000E+00  0.2560E+03
     -9.742  0.0000E+00  0.2560E+03
     -9.629  0.0000E+00  0.2560E+03
     -9.516  0.0000E+00  0.2560E+03
     -9.403  0.0000E+00  0.2560E+03
     -9.290  0.0000E+00  0.2560E+03
     -9.177  0.0000E+00  0.2560E+03
     -9.064  0.0000E+00  0.2560E+03
     -8.951  0.0000E+00  0.2560E+03
     -8.838  0.0000E+00  0.2560E+03
     -8.725  0.0000E+00  0.2560E+03
     -8.612  0.0000E+00  0.2560E+03
     -8.499  0.0000E+00  0.2560E+03
     -8.386  0.0000E+00  0.2560E+03
     -8.273  0.0000E+00  0.2560E+03
     -8.160  0.0000E+00  0.2560E+03
     -8.047  0.0000E+00  0.2560E+03
     -7.934  0.0000E+00  0.2560E+03
     -7.821  0.0000E+00  0.2560E+03
     -7.708  0.0000E+00  0.2560E+03
     -7.595  0.0000E+00  0.2560E+03
     -7.482  0.0000E+00  0.2560E+03
     -7.369  0.0000E+00  0.2560E+03
     -7.256  0.0000E+00  0.2560E+03
     -7.142  0.0000E+00  0.2560E+03
     -7.029  0.0000E+00  0.2560E+03
     -6.916  0.0000E+00  0.2560E+03
     -6.803  0.0000E+00  0.2560E+03
     -6.690  0.0000E+00  0.2560E+03
     -6.577  0.0000E+00  0.2560E+03
     -6.464  0.0000E+00  0.2560E+03
     -6.351  0.0000E+00  0.2560E+03
     -6.238  0.0000E+00  0.2560E+03
     -6.125  0.0000E+00  0.2560E+03
     -6.012  0.0000E+00  0.2560E+03
     -5.899  0.0000E+00  0.2560E+03
     -5.786  0.0000E+00  0.2560E+03
     -5.673  0.0000E+00  0.2560E+03
     -5.560  0.0000E+00  0.2560E+03
     -5.447  0.0000E+00  0.2560E+03
     -5.334  0.0000E+00  0.2560E+03
     -5.221  0.0000E+00  0.2560E+03
     -5.108  0.0000E+00  0.2560E+03
     -4.995  0.0000E+00  0.2560E+03
     -4.882  0.0000E+00  0.2560E+03
     -4.769  0.0000E+00  0.2560E+03
     -4.656  0.0000E+00  0.2560E+03
     -4.543  0.0000E+00  0.2560E+03
     -4.430  0.0000E+00  0.2560E+03
     -4.317  0.0000E+00  0.2560E+03
     -4.204  0.0000E+00  0.2560E+03
     -4.091  0.0000E+00  0.2560E+03
     -3.978  0.0000E+00  0.2560E+03
     -3.865  0.0000E+00  0.2560E+03
     -3.752  0.0000E+00  0.2560E+03
     -3.639  0.0000E+00  0.2560E+03
     -3.526  0.0000E+00  0.2560E+03
     -3.413  0.0000E+00  0.2560E+03
     -3.300  0.0000E+00  0.2560E+03
     -3.187  0.0000E+00  0.2560E+03
     -3.074  0.0000E+00  0.2560E+03
     -2.961  0.0000E+00  0.2560E+03
     -2.847  0.0000E+00  0.2560E+03
     -2.734  0.6495E-01  0.2560E+03
     -2.621  0.8783E+01  0.2570E+03
     -2.508  0.2054E+02  0.2593E+03
     -2.395  0.8638E+02  0.2691E+03
     -2.282  0.8060E+02  0.2782E+03
     -2.169  0.1561E+03  0.2958E+03
     -2.056  0.7445E+02  0.3043E+03
     -1.943  0.5553E+02  0.3105E+03
     -1.830  0.5919E+02  0.3172E+03
     -1.717  0.7550E+02  0.3257E+03
     -1.604  0.6610E-10  0.3258E+03
     -1.491  0.6120E+02  0.3327E+03
     -1.378  0.2036E+03  0.3557E+03
     -1.265  0.2709E+02  0.3587E+03
     -1.152  0.2478E+03  0.3868E+03
     -1.039  0.1409E+03  0.4027E+03
     -0.926  0.2545E+03  0.4314E+03
     -0.813  0.6601E+02  0.4389E+03
     -0.700  0.7375E+02  0.4472E+03
     -0.587  0.6673E+01  0.4480E+03
     -0.474  0.0000E+00  0.4480E+03
     -0.361  0.0000E+00  0.4480E+03
     -0.248  0.0000E+00  0.4480E+03
     -0.135  0.0000E+00  0.4480E+03
     -0.022  0.0000E+00  0.4480E+03
      0.091  0.0000E+00  0.4480E+03
      0.204  0.0000E+00  0.4480E+03
      0.317  0.0000E+00  0.4480E+03
      0.430  0.0000E+00  0.4480E+03
      0.543  0.0000E+00  0.4480E+03
      0.656  0.0000E+00  0.4480E+03
      0.769  0.0000E+00  0.4480E+03
      0.882  0.0000E+00  0.4480E+03
      0.995  0.0000E+00  0.4480E+03
      1.108  0.0000E+00  0.4480E+03
      1.221  0.0000E+00  0.4480E+03
      1.334  0.0000E+00  0.4480E+03
      1.448  0.0000E+00  0.4480E+03
      1.561  0.0000E+00  0.4480E+03
      1.674  0.0000E+00  0.4480E+03
      1.787  0.0000E+00  0.4480E+03
      1.900  0.0000E+00  0.4480E+03
      2.013  0.0000E+00  0.4480E+03
      2.126  0.0000E+00  0.4480E+03
      2.239  0.0000E+00  0.4480E+03
      2.352  0.0000E+00  0.4480E+03
      2.465  0.0000E+00  0.4480E+03
      2.578  0.0000E+00  0.4480E+03
      2.691  0.0000E+00  0.4480E+03
      2.804  0.0000E+00  0.4480E+03
      2.917  0.0000E+00  0.4480E+03
      3.030  0.0000E+00  0.4480E+03
      3.143  0.0000E+00  0.4480E+03
      3.256  0.0000E+00  0.4480E+03
      3.369  0.0000E+00  0.4480E+03
      3.482  0.0000E+00  0.4480E+03
      3.595  0.0000E+00  0.4480E+03
      3.708  0.0000E+00  0.4480E+03
      3.821  0.0000E+00  0.4480E+03
      3.934  0.0000E+00  0.4480E+03
      4.047  0.0000E+00  0.4480E+03
      4.160  0.0000E+00  0.4480E+03
      4.273  0.2327E-05  0.4480E+03
      4.386  0.2211E+01  0.4482E+03
      4.499  0.1281E-02  0.4482E+03
      4.612  0.0000E+00  0.4482E+03
      4.725  0.0000E+00  0.4482E+03
      4.838  0.0000E+00  0.4482E+03
      4.951  0.5883E-05  0.4483E+03
      5.064  0.1325E+02  0.4497E+03
      5.177  0.2275E-01  0.4498E+03
      5.290  0.0000E+00  0.4498E+03
      5.403  0.0000E+00  0.4498E+03
      5.516  0.1678E+01  0.4499E+03
      5.629  0.2486E+02  0.4527E+03
      5.743  0.4807E-07  0.4528E+03
      5.856  0.1662E+02  0.4546E+03
      5.969  0.1075E+01  0.4548E+03
      6.082  0.0000E+00  0.4548E+03
      6.195  0.0000E+00  0.4548E+03
      6.308  0.4227E-03  0.4548E+03
      6.421  0.1365E+02  0.4563E+03
      6.534  0.8463E+01  0.4572E+03
      6.647  0.3709E+02  0.4614E+03
      6.760  0.6891E+02  0.4692E+03
      6.873  0.5872E+02  0.4759E+03
      6.986  0.1237E+02  0.4773E+03
      7.099  0.2067E+01  0.4775E+03
      7.212  0.4248E+01  0.4780E+03
      7.325  0.2519E+01  0.4783E+03
      7.438  0.8051E+02  0.4874E+03
      7.551  0.1663E+03  0.5062E+03
      7.664  0.5166E+01  0.5068E+03
      7.777  0.2654E+02  0.5097E+03
      7.890  0.8791E-01  0.5098E+03
      8.003  0.5300E+02  0.5157E+03
      8.116  0.2735E-02  0.5158E+03
      8.229  0.1367E+02  0.5173E+03
      8.342  0.9246E+02  0.5277E+03
      8.455  0.3280E-01  0.5278E+03
      8.568  0.1421E+03  0.5438E+03
      8.681  0.1719E+02  0.5457E+03
      8.794  0.3341E-06  0.5458E+03
      8.907  0.7601E+02  0.5543E+03
      9.020  0.1268E+03  0.5687E+03
      9.133  0.7303E+01  0.5695E+03
      9.246  0.1978E+02  0.5717E+03
      9.359  0.2445E+02  0.5745E+03
      9.472  0.1031E+01  0.5746E+03
      9.585  0.1224E+02  0.5760E+03
      9.698  0.0000E+00  0.5760E+03
      9.811  0.0000E+00  0.5760E+03
      9.924  0.0000E+00  0.5760E+03
     10.038  0.0000E+00  0.5760E+03
     10.151  0.0000E+00  0.5760E+03
     10.264  0.0000E+00  0.5760E+03
     10.377  0.0000E+00  0.5760E+03
     10.490  0.0000E+00  0.5760E+03
     10.603  0.0000E+00  0.5760E+03
     10.716  0.0000E+00  0.5760E+03
     10.829  0.0000E+00  0.5760E+03
     10.942  0.0000E+00  0.5760E+03
     11.055  0.0000E+00  0.5760E+03
