       N       E                     dE             d eps       ncg     rms          rms(c)
DAV:   1     0.439869762570E+04    0.43987E+04   -0.17102E+05  4864   0.125E+03
DAV:   2     0.370462326970E+03   -0.40282E+04   -0.38267E+04  5120   0.367E+02
DAV:   3    -0.205438085652E+03   -0.57590E+03   -0.57152E+03  5600   0.156E+02
DAV:   4    -0.228164424238E+03   -0.22726E+02   -0.22622E+02  5536   0.331E+01
DAV:   5    -0.229003546119E+03   -0.83912E+00   -0.83775E+00  5824   0.624E+00    0.106E+01
DAV:   6    -0.224139738527E+03    0.48638E+01   -0.94485E+00  5696   0.532E+00    0.776E+00
DAV:   7    -0.223777361262E+03    0.36238E+00   -0.20704E+00  6272   0.234E+00    0.533E+00
DAV:   8    -0.223902625863E+03   -0.12526E+00   -0.26690E-01  5408   0.125E+00    0.142E+00
DAV:   9    -0.223897013532E+03    0.56123E-02   -0.11476E-02  5632   0.264E-01    0.604E-01
DAV:  10    -0.223901264654E+03   -0.42511E-02   -0.18056E-02  5440   0.234E-01    0.283E-01
DAV:  11    -0.223900576969E+03    0.68768E-03   -0.15201E-03  5984   0.841E-02    0.894E-02
DAV:  12    -0.223900537437E+03    0.39532E-04   -0.14230E-04  5984   0.236E-02    0.194E-02
DAV:  13    -0.223900534964E+03    0.24731E-05   -0.27824E-05  5632   0.925E-03    0.437E-03
DAV:  14    -0.223900537103E+03   -0.21389E-05   -0.24324E-06  5472   0.393E-03    0.716E-03
DAV:  15    -0.223900538126E+03   -0.10230E-05   -0.34471E-07  5728   0.188E-03    0.328E-03
DAV:  16    -0.223900538593E+03   -0.46701E-06   -0.14667E-07  5696   0.975E-04    0.804E-04
DAV:  17    -0.223900538638E+03   -0.44951E-07   -0.91029E-09  3680   0.757E-04    0.245E-04
DAV:  18    -0.223900538752E+03   -0.11401E-06   -0.12118E-08  3904   0.686E-04    0.528E-04
DAV:  19    -0.223900538739E+03    0.12209E-07   -0.99671E-09  3008   0.345E-04    0.461E-04
DAV:  20    -0.223900538669E+03    0.70911E-07   -0.30095E-09  3168   0.355E-04    0.189E-04
DAV:  21    -0.223900538629E+03    0.39203E-07   -0.30317E-09  2944   0.155E-04    0.940E-05
DAV:  22    -0.223900538637E+03   -0.79453E-08   -0.86277E-10  3072   0.114E-04
   1 F= -.22390054E+03 E0= -.22390054E+03  d E =-.247401E-14
