 vasp.6.3.2 27Jun22 (build Oct 14 2022 12:13:54) complex                        
  
 executed on             LinuxIFC date 2025.08.28  22:09:01
 running on   32 total cores
 distrk:  each k-point on   32 cores,    1 groups
 distr:  one band on NCORE=   1 cores,   32 groups


--------------------------------------------------------------------------------------------------------


 INCAR:
   ENCUT = 341.213600
   SIGMA = 0.020000
   EDIFF = 1.00e-08
   GGA = PS
   PREC = Accurate
   IALGO = 38
   IBRION = -1
   ISMEAR = 0
   NELMIN = 5
   ADDGRID = .TRUE.
   LCHARG = .FALSE.
   LWAVE = .FALSE.
   LREAL = .FALSE.

 POTCAR:    PAW_PBE Na_pv 19Sep2006               
 POTCAR:    PAW_PBE Cl 06Sep2000                  
 -----------------------------------------------------------------------------
|                                                                             |
|           W    W    AA    RRRRR   N    N  II  N    N   GGGG   !!!           |
|           W    W   A  A   R    R  NN   N  II  NN   N  G    G  !!!           |
|           W    W  A    A  R    R  N N  N  II  N N  N  G       !!!           |
|           W WW W  AAAAAA  RRRRR   N  N N  II  N  N N  G  GGG   !            |
|           WW  WW  A    A  R   R   N   NN  II  N   NN  G    G                |
|           W    W  A    A  R    R  N    N  II  N    N   GGGG   !!!           |
|                                                                             |
|     For optimal performance we recommend to set                             |
|       NCORE = 2 up to number-of-cores-per-socket                            |
|     NCORE specifies how many cores store one orbital (NPAR=cpu/NCORE).      |
|     This setting can greatly improve the performance of VASP for DFT.       |
|     The default, NCORE=1 might be grossly inefficient on modern             |
|     multi-core architectures or massively parallel machines. Do your        |
|     own testing! More info at https://www.vasp.at/wiki/index.php/NCORE      |
|     Unfortunately you need to use the default for GW and RPA                |
|     calculations (for HF NCORE is supported but not extensively tested      |
|     yet).                                                                   |
|                                                                             |
 -----------------------------------------------------------------------------

 POTCAR:    PAW_PBE Na_pv 19Sep2006               
   SHA256 =  6a2f546d9e11350984debacf3dc457d8cffc0868e817d445faca461816a32b94 Na_pv/POTCAR          
   COPYR  = (c) Copyright 19Sep2006 Georg Kresse                                                    
   COPYR  = This file is part of the software VASP. Any use, copying, and all other rights are regul
   COPYR  = If you do not have a valid VASP license, you may not use, copy or distribute this file. 
   VRHFIN =Na: p6s1                                                                                 
   LEXCH  = PE                                                                                      
   EATOM  =   766.0439 eV,   56.3026 Ry                                                             
                                                                                                    
   TITEL  = PAW_PBE Na_pv 19Sep2006                                                                 
   LULTRA =        F    use ultrasoft PP ?                                                          
   IUNSCR =        1    unscreen: 0-lin 1-nonlin 2-no                                               
   RPACOR =    1.800    partial core radius                                                         
   POMASS =   22.990; ZVAL   =    7.000    mass and valenz                                          
   RCORE  =    2.200    outmost cutoff radius                                                       
   RWIGS  =    2.200; RWIGS  =    1.164    wigner-seitz radius (au A)                               
   ENMAX  =  259.561; ENMIN  =  194.671 eV                                                          
   ICORE  =        2    local potential                                                             
   LCOR   =        T    correct aug charges                                                         
   LPAW   =        T    paw PP                                                                      
   EAUG   =  368.056                                                                                
   DEXC   =    0.000                                                                                
   RMAX   =    2.245    core radius for proj-oper                                                   
   RAUG   =    1.300    factor for augmentation sphere                                              
   RDEP   =    2.259    radius for radial grids                                                     
   RDEPT  =    1.738    core radius for aug-charge                                                  
                                                                                                    
   Atomic configuration                                                                             
    5 entries                                                                                       
     n  l   j            E        occ.                                                              
     1  0  0.50     -1033.6933   2.0000                                                             
     2  0  0.50       -56.7526   2.0000                                                             
     2  1  1.50       -28.6721   6.0000                                                             
     3  0  0.50        -2.7440   1.0000                                                             
     3  2  1.50        -1.3606   0.0000                                                             
   Description                                                                                      
     l       E           TYP  RCUT    TYP  RCUT                                                     
     1    -28.6720912     23  2.000                                                                 
     1      6.8029130     23  2.000                                                                 
     0     -2.7439560     23  2.200                                                                 
     0     34.0145650     23  2.200                                                                 
     2     -1.3605826     23  2.200                                                                 
  local pseudopotential read in
  partial core-charges read in
  partial kinetic energy density read in
  atomic valenz-charges read in
  non local Contribution for L=           1  read in
    real space projection operators read in
  non local Contribution for L=           1  read in
    real space projection operators read in
  non local Contribution for L=           0  read in
    real space projection operators read in
  non local Contribution for L=           0  read in
    real space projection operators read in
    PAW grid and wavefunctions read in
 
   number of l-projection  operators is LMAX  =           4
   number of lm-projection operators is LMMAX =           8
 
 POTCAR:    PAW_PBE Cl 06Sep2000                  
   SHA256 =  9f1b6e6ed4247ac726a768b330d26d7667cc3c95a39ff49c1d064c2d9dcce931 Cl/POTCAR             
   COPYR  = (c) Copyright 06Sep2000 Georg Kresse                                                    
   COPYR  = This file is part of the software VASP. Any use, copying, and all other rights are regul
   COPYR  = If you do not have a valid VASP license, you may not use, copy or distribute this file. 
   VRHFIN =Cl: s2p5                                                                                 
   LEXCH  = PE                                                                                      
   EATOM  =   409.7259 eV,   30.1140 Ry                                                             
                                                                                                    
   TITEL  = PAW_PBE Cl 06Sep2000                                                                    
   LULTRA =        F    use ultrasoft PP ?                                                          
   IUNSCR =        1    unscreen: 0-lin 1-nonlin 2-no                                               
   RPACOR =    1.500    partial core radius                                                         
   POMASS =   35.453; ZVAL   =    7.000    mass and valenz                                          
   RCORE  =    1.900    outmost cutoff radius                                                       
   RWIGS  =    2.100; RWIGS  =    1.111    wigner-seitz radius (au A)                               
   ENMAX  =  262.472; ENMIN  =  196.854 eV                                                          
   ICORE  =        2    local potential                                                             
   LCOR   =        T    correct aug charges                                                         
   LPAW   =        T    paw PP                                                                      
   EAUG   =  356.192                                                                                
   DEXC   =    0.000                                                                                
   RMAX   =    1.945    core radius for proj-oper                                                   
   RAUG   =    1.300    factor for augmentation sphere                                              
   RDEP   =    2.020    radius for radial grids                                                     
   RDEPT  =    1.678    core radius for aug-charge                                                  
                                                                                                    
   Atomic configuration                                                                             
    6 entries                                                                                       
     n  l   j            E        occ.                                                              
     1  0  0.50     -2751.1850   2.0000                                                             
     2  0  0.50      -252.6861   2.0000                                                             
     2  1  1.50      -191.6157   6.0000                                                             
     3  0  0.50       -20.6916   2.0000                                                             
     3  1  0.50        -8.5949   5.0000                                                             
     3  2  1.50        -8.1635   0.0000                                                             
   Description                                                                                      
     l       E           TYP  RCUT    TYP  RCUT                                                     
     0    -20.6915656     23  1.900                                                                 
     0    -22.0521482     23  1.900                                                                 
     1     -8.5948577     23  1.900                                                                 
     1     -5.3847331     23  1.900                                                                 
     2     -8.1634956     23  1.900                                                                 
  local pseudopotential read in
  partial core-charges read in
  partial kinetic energy density read in
  atomic valenz-charges read in
  non local Contribution for L=           0  read in
    real space projection operators read in
  non local Contribution for L=           0  read in
    real space projection operators read in
  non local Contribution for L=           1  read in
    real space projection operators read in
  non local Contribution for L=           1  read in
    real space projection operators read in
    PAW grid and wavefunctions read in
 
   number of l-projection  operators is LMAX  =           4
   number of lm-projection operators is LMMAX =           8
 
 -----------------------------------------------------------------------------
|                                                                             |
|               ----> ADVICE to this user running VASP <----                  |
|                                                                             |
|     You have a (more or less) 'large supercell' and for larger cells it     |
|     might be more efficient to use real-space projection operators.         |
|     Therefore, try LREAL= Auto in the INCAR file.                           |
|     Mind: For very accurate calculation, you might also keep the            |
|     reciprocal projection scheme (i.e. LREAL=.FALSE.).                      |
|                                                                             |
 -----------------------------------------------------------------------------

 -----------------------------------------------------------------------------
|                                                                             |
|               ----> ADVICE to this user running VASP <----                  |
|                                                                             |
|     You enforced a specific xc type in the INCAR file but a different       |
|     type was found in the POTCAR file.                                      |
|     I HOPE YOU KNOW WHAT YOU ARE DOING!                                     |
|                                                                             |
 -----------------------------------------------------------------------------

  PAW_PBE Na_pv 19Sep2006               :
 energy of atom  1       EATOM= -766.0439
 kinetic energy error for atom=    0.0189 (will be added to EATOM!!)
  PAW_PBE Cl 06Sep2000                  :
 energy of atom  2       EATOM= -409.7259
 kinetic energy error for atom=    0.0106 (will be added to EATOM!!)
 
 
 POSCAR: Na Cl
  positions in cartesian coordinates
  No initial velocities read in
 exchange correlation table for  LEXCH =       14
   RHO(1)=    0.500       N(1)  =     2000
   RHO(2)=  100.500       N(2)  =     4000
 


--------------------------------------------------------------------------------------------------------


 ion  position               nearest neighbor table
   1  0.000  0.000  0.000-
   2  0.250  0.250  0.000-
   3  0.250  0.000  0.250-
   4  0.000  0.250  0.250-
   5  0.000  0.000  0.500-
   6  0.250  0.250  0.500-
   7  0.250  0.000  0.750-
   8  0.000  0.250  0.750-
   9  0.000  0.500  0.000-
  10  0.250  0.750  0.000-
  11  0.250  0.500  0.250-
  12  0.000  0.750  0.250-
  13  0.000  0.500  0.500-
  14  0.250  0.750  0.500-
  15  0.250  0.500  0.750-
  16  0.000  0.750  0.750-
  17  0.500  0.000  0.000-
  18  0.750  0.250  0.000-
  19  0.750  0.000  0.250-
  20  0.500  0.250  0.250-
  21  0.500  0.000  0.500-
  22  0.750  0.250  0.500-
  23  0.750  0.000  0.750-
  24  0.500  0.250  0.750-
  25  0.500  0.500  0.000-
  26  0.750  0.750  0.000-
  27  0.750  0.500  0.250-
  28  0.500  0.750  0.250-
  29  0.500  0.500  0.500-
  30  0.750  0.750  0.500-
  31  0.750  0.500  0.750-
  32  0.500  0.750  0.750-
  33  0.253  0.250  0.250-
  34  0.003  0.000  0.250-
  35  0.000  0.250  0.000-
  36  0.250  0.000  0.000-
  37  0.250  0.250  0.750-
  38  0.000  0.000  0.750-
  39  0.000  0.250  0.500-
  40  0.250  0.000  0.500-
  41  0.250  0.750  0.250-
  42  0.000  0.500  0.250-
  43  0.000  0.750  0.000-
  44  0.250  0.500  0.000-
  45  0.250  0.750  0.750-
  46  0.000  0.500  0.750-
  47  0.000  0.750  0.500-
  48  0.250  0.500  0.500-
  49  0.750  0.250  0.250-
  50  0.500  0.000  0.250-
  51  0.500  0.250  0.000-
  52  0.750  0.000  0.000-
  53  0.750  0.250  0.750-
  54  0.500  0.000  0.750-
  55  0.500  0.250  0.500-
  56  0.750  0.000  0.500-
  57  0.750  0.750  0.250-
  58  0.500  0.500  0.250-
  59  0.500  0.750  0.000-
  60  0.750  0.500  0.000-
  61  0.750  0.750  0.750-
  62  0.500  0.500  0.750-
  63  0.500  0.750  0.500-
  64  0.750  0.500  0.500-
 
  LATTYP: Found a simple cubic cell.
 ALAT       =    11.2040023600
  
  Lattice vectors:
  
 A1 = (  11.2040023600,   0.0000000000,   0.0000000000)
 A2 = (   0.0000000000,  11.2040023600,   0.0000000000)
 A3 = (   0.0000000000,   0.0000000000,  11.2040023600)


Analysis of symmetry for initial positions (statically):
=====================================================================
 Subroutine PRICEL returns:
 Original cell was already a primitive cell.
 

 Routine SETGRP: Setting up the symmetry group for a 
 simple cubic supercell.


 Subroutine GETGRP returns: Found  2 space group operations
 (whereof  1 operations were pure point group operations)
 out of a pool of 48 trial point group operations.


The static configuration has the point symmetry C_1 .
 The point group associated with its full space group is C_1h.


Analysis of symmetry for dynamics (positions and initial velocities):
=====================================================================
 Subroutine PRICEL returns:
 Original cell was already a primitive cell.
 

 Routine SETGRP: Setting up the symmetry group for a 
 simple cubic supercell.


 Subroutine GETGRP returns: Found  2 space group operations
 (whereof  1 operations were pure point group operations)
 out of a pool of 48 trial point group operations.


The dynamic configuration has the point symmetry C_1 .
 The point group associated with its full space group is C_1h.


 Subroutine INISYM returns: Found  2 space group operations
 (whereof  1 operations are pure point group operations),
 and found     1 'primitive' translations


----------------------------------------------------------------------------------------

                                     Primitive cell                                     

  volume of cell :    1406.4347

  direct lattice vectors                    reciprocal lattice vectors
    11.204002360  0.000000000  0.000000000     0.089253819  0.000000000  0.000000000
     0.000000000 11.204002360  0.000000000     0.000000000  0.089253819  0.000000000
     0.000000000  0.000000000 11.204002360     0.000000000  0.000000000  0.089253819

  length of vectors
    11.204002360 11.204002360 11.204002360     0.089253819  0.089253819  0.089253819

  position of ions in fractional coordinates (direct lattice)
     0.000000000  0.000000000  0.000000000
     0.250000000  0.250000000  0.000000000
     0.250000000  0.000000000  0.250000000
     0.000000000  0.250000000  0.250000000
     0.000000000  0.000000000  0.500000000
     0.250000000  0.250000000  0.500000000
     0.250000000  0.000000000  0.750000000
     0.000000000  0.250000000  0.750000000
     0.000000000  0.500000000  0.000000000
     0.250000000  0.750000000  0.000000000
     0.250000000  0.500000000  0.250000000
     0.000000000  0.750000000  0.250000000
     0.000000000  0.500000000  0.500000000
     0.250000000  0.750000000  0.500000000
     0.250000000  0.500000000  0.750000000
     0.000000000  0.750000000  0.750000000
     0.500000000  0.000000000  0.000000000
     0.750000000  0.250000000  0.000000000
     0.750000000  0.000000000  0.250000000
     0.500000000  0.250000000  0.250000000
     0.500000000  0.000000000  0.500000000
     0.750000000  0.250000000  0.500000000
     0.750000000  0.000000000  0.750000000
     0.500000000  0.250000000  0.750000000
     0.500000000  0.500000000  0.000000000
     0.750000000  0.750000000  0.000000000
     0.750000000  0.500000000  0.250000000
     0.500000000  0.750000000  0.250000000
     0.500000000  0.500000000  0.500000000
     0.750000000  0.750000000  0.500000000
     0.750000000  0.500000000  0.750000000
     0.500000000  0.750000000  0.750000000
     0.252677615  0.250000000  0.250000000
     0.002677615  0.000000000  0.250000000
     0.000000000  0.250000000  0.000000000
     0.250000000  0.000000000  0.000000000
     0.250000000  0.250000000  0.750000000
     0.000000000  0.000000000  0.750000000
     0.000000000  0.250000000  0.500000000
     0.250000000  0.000000000  0.500000000
     0.250000000  0.750000000  0.250000000
     0.000000000  0.500000000  0.250000000
     0.000000000  0.750000000  0.000000000
     0.250000000  0.500000000  0.000000000
     0.250000000  0.750000000  0.750000000
     0.000000000  0.500000000  0.750000000
     0.000000000  0.750000000  0.500000000
     0.250000000  0.500000000  0.500000000
     0.750000000  0.250000000  0.250000000
     0.500000000  0.000000000  0.250000000
     0.500000000  0.250000000  0.000000000
     0.750000000  0.000000000  0.000000000
     0.750000000  0.250000000  0.750000000
     0.500000000  0.000000000  0.750000000
     0.500000000  0.250000000  0.500000000
     0.750000000  0.000000000  0.500000000
     0.750000000  0.750000000  0.250000000
     0.500000000  0.500000000  0.250000000
     0.500000000  0.750000000  0.000000000
     0.750000000  0.500000000  0.000000000
     0.750000000  0.750000000  0.750000000
     0.500000000  0.500000000  0.750000000
     0.500000000  0.750000000  0.500000000
     0.750000000  0.500000000  0.500000000

  ion indices of the primitive-cell ions
   primitive index   ion index
                 1           1
                 2           2
                 3           3
                 4           4
                 5           5
                 6           6
                 7           7
                 8           8
                 9           9
                10          10
                11          11
                12          12
                13          13
                14          14
                15          15
                16          16
                17          17
                18          18
                19          19
                20          20
                21          21
                22          22
                23          23
                24          24
                25          25
                26          26
                27          27
                28          28
                29          29
                30          30
                31          31
                32          32
                33          33
                34          34
                35          35
                36          36
                37          37
                38          38
                39          39
                40          40
                41          41
                42          42
                43          43
                44          44
                45          45
                46          46
                47          47
                48          48
                49          49
                50          50
                51          51
                52          52
                53          53
                54          54
                55          55
                56          56
                57          57
                58          58
                59          59
                60          60
                61          61
                62          62
                63          63
                64          64

----------------------------------------------------------------------------------------

 
 
 KPOINTS: KPOINTS created by Atomic Simulation Env

Automatic generation of k-mesh.
 Grid dimensions read from file:
 generate k-points for:    2    2    2

 Generating k-lattice:

  Cartesian coordinates                     Fractional coordinates (reciprocal lattice)
     0.044626910  0.000000000  0.000000000     0.500000000  0.000000000  0.000000000
     0.000000000  0.044626910  0.000000000     0.000000000  0.500000000  0.000000000
     0.000000000  0.000000000  0.044626910     0.000000000  0.000000000  0.500000000

  Length of vectors
     0.044626910  0.044626910  0.044626910

  Shift w.r.t. Gamma in fractional coordinates (k-lattice)
     0.000000000  0.000000000  0.000000000

 
 Subroutine IBZKPT returns following result:
 ===========================================
 
 Found      8 irreducible k-points:
 
 Following reciprocal coordinates:
            Coordinates               Weight
  0.000000  0.000000  0.000000      1.000000
  0.500000  0.000000  0.000000      1.000000
  0.000000  0.500000  0.000000      1.000000
  0.000000  0.000000  0.500000      1.000000
  0.500000  0.500000  0.000000      1.000000
  0.000000  0.500000  0.500000      1.000000
  0.500000  0.000000  0.500000      1.000000
  0.500000  0.500000  0.500000      1.000000
 
 Following cartesian coordinates:
            Coordinates               Weight
  0.000000  0.000000  0.000000      1.000000
  0.044627  0.000000  0.000000      1.000000
  0.000000  0.044627  0.000000      1.000000
  0.000000  0.000000  0.044627      1.000000
  0.044627  0.044627  0.000000      1.000000
  0.000000  0.044627  0.044627      1.000000
  0.044627  0.000000  0.044627      1.000000
  0.044627  0.044627  0.044627      1.000000
 


--------------------------------------------------------------------------------------------------------




 Dimension of arrays:
   k-points           NKPTS =      8   k-points in BZ     NKDIM =      8   number of bands    NBANDS=    288
   number of dos      NEDOS =    301   number of ions     NIONS =     64
   non local maximal  LDIM  =      4   non local SUM 2l+1 LMDIM =      8
   total plane-waves  NPLWV = 343000
   max r-space proj   IRMAX =      1   max aug-charges    IRDMAX=  56280
   dimension x,y,z NGX =    70 NGY =   70 NGZ =   70
   dimension x,y,z NGXF=   140 NGYF=  140 NGZF=  140
   support grid    NGXF=   280 NGYF=  280 NGZF=  280
   ions per type =              32  32
   NGX,Y,Z   is equivalent  to a cutoff of  10.39, 10.39, 10.39 a.u.
   NGXF,Y,Z  is equivalent  to a cutoff of  20.77, 20.77, 20.77 a.u.

 SYSTEM =  unknown system                          
 POSCAR =  Na Cl                                   

 Startparameter for this run:
   NWRITE =      2    write-flag & timer
   PREC   = accura    normal or accurate (medium, high low for compatibility)
   ISTART =      0    job   : 0-new  1-cont  2-samecut
   ICHARG =      2    charge: 1-file 2-atom 10-const
   ISPIN  =      1    spin polarized calculation?
   LNONCOLLINEAR =      F non collinear calculations
   LSORBIT =      F    spin-orbit coupling
   INIWAV =      1    electr: 0-lowe 1-rand  2-diag
   LASPH  =      F    aspherical Exc in radial PAW
 Electronic Relaxation 1
   ENCUT  =  341.2 eV  25.08 Ry    5.01 a.u.  16.87 16.87 16.87*2*pi/ulx,y,z
   ENINI  =  341.2     initial cutoff
   ENAUG  =  368.1 eV  augmentation charge cutoff
   NELM   =     60;   NELMIN=  5; NELMDL= -5     # of ELM steps 
   EDIFF  = 0.1E-07   stopping-criterion for ELM
   LREAL  =      F    real-space projection
   NLSPLINE    = F    spline interpolate recip. space projectors
   LCOMPAT=      F    compatible to vasp.4.4
   GGA_COMPAT  = T    GGA compatible to vasp.4.4-vasp.4.6
   LMAXPAW     = -100 max onsite density
   LMAXMIX     =    2 max onsite mixed and CHGCAR
   VOSKOWN=      0    Vosko Wilk Nusair interpolation
   ROPT   =    0.00000   0.00000
 Ionic relaxation
   EDIFFG = 0.1E-06   stopping-criterion for IOM
   NSW    =      0    number of steps for IOM
   NBLOCK =      1;   KBLOCK =      1    inner block; outer block 
   IBRION =     -1    ionic relax: 0-MD 1-quasi-New 2-CG
   NFREE  =      0    steps in history (QN), initial steepest desc. (CG)
   ISIF   =      2    stress and relaxation
   IWAVPR =     10    prediction:  0-non 1-charg 2-wave 3-comb
   ISYM   =      2    0-nonsym 1-usesym 2-fastsym
   LCORR  =      T    Harris-Foulkes like correction to forces

   POTIM  = 0.5000    time-step for ionic-motion
   TEIN   =    0.0    initial temperature
   TEBEG  =    0.0;   TEEND  =   0.0 temperature during run
   SMASS  =  -3.00    Nose mass-parameter (am)
   estimated Nose-frequenzy (Omega)   =  0.10E-29 period in steps = 0.13E+47 mass=  -0.287E-26a.u.
   SCALEE = 1.0000    scale energy and forces
   NPACO  =    256;   APACO  = 10.0  distance and # of slots for P.C.
   PSTRESS=    0.0 pullay stress

  Mass of Ions in am
   POMASS =  22.99 35.45
  Ionic Valenz
   ZVAL   =   7.00  7.00
  Atomic Wigner-Seitz radii
   RWIGS  =  -1.00 -1.00
  virtual crystal weights 
   VCA    =   1.00  1.00
   NELECT =     448.0000    total number of electrons
   NUPDOWN=      -1.0000    fix difference up-down

 DOS related values:
   EMIN   =  10.00;   EMAX   =-10.00  energy-range for DOS
   EFERMI =   0.00
   ISMEAR =     0;   SIGMA  =   0.02  broadening in eV -4-tet -1-fermi 0-gaus

 Electronic relaxation 2 (details)
   IALGO  =     38    algorithm
   LDIAG  =      T    sub-space diagonalisation (order eigenvalues)
   LSUBROT=      F    optimize rotation matrix (better conditioning)
   TURBO    =      0    0=normal 1=particle mesh
   IRESTART =      0    0=no restart 2=restart with 2 vectors
   NREBOOT  =      0    no. of reboots
   NMIN     =      0    reboot dimension
   EREF     =   0.00    reference energy to select bands
   IMIX   =      4    mixing-type and parameters
     AMIX     =   0.40;   BMIX     =  1.00
     AMIX_MAG =   1.60;   BMIX_MAG =  1.00
     AMIN     =   0.10
     WC   =   100.;   INIMIX=   1;  MIXPRE=   1;  MAXMIX= -45

 Intra band minimization:
   WEIMIN = 0.0000     energy-eigenvalue tresh-hold
   EBREAK =  0.87E-11  absolut break condition
   DEPER  =   0.30     relativ break condition  

   TIME   =   0.40     timestep for ELM

  volume/ion in A,a.u.               =      21.98       148.30
  Fermi-wavevector in a.u.,A,eV,Ry     =   1.118049  2.112807 17.007750  1.250034
  Thomas-Fermi vector in A             =   2.254677
 
 Write flags
   LWAVE        =      F    write WAVECAR
   LDOWNSAMPLE  =      F    k-point downsampling of WAVECAR
   LCHARG       =      F    write CHGCAR
   LVTOT        =      F    write LOCPOT, total local potential
   LVHAR        =      F    write LOCPOT, Hartree potential only
   LELF         =      F    write electronic localiz. function (ELF)
   LORBIT       =      0    0 simple, 1 ext, 2 COOP (PROOUT), +10 PAW based schemes


 Dipole corrections
   LMONO  =      F    monopole corrections only (constant potential shift)
   LDIPOL =      F    correct potential (dipole corrections)
   IDIPOL =      0    1-x, 2-y, 3-z, 4-all directions 
   EPSILON=  1.0000000 bulk dielectric constant

 Exchange correlation treatment:
   GGA     =    PS    GGA type
   LEXCH   =    14    internal setting for exchange type
   LIBXC   =     F    Libxc                    
   VOSKOWN =     0    Vosko Wilk Nusair interpolation
   LHFCALC =     F    Hartree Fock is set to
   LHFONE  =     F    Hartree Fock one center treatment
   AEXX    =    0.0000 exact exchange contribution

 Linear response parameters
   LEPSILON=     F    determine dielectric tensor
   LRPA    =     F    only Hartree local field effects (RPA)
   LNABLA  =     F    use nabla operator in PAW spheres
   LVEL    =     F    velocity operator in full k-point grid
   CSHIFT  =0.1000    complex shift for real part using Kramers Kronig
   OMEGAMAX=  -1.0    maximum frequency
   DEG_THRESHOLD= 0.2000000E-02 threshold for treating states as degnerate
   RTIME   =   -0.100 relaxation time in fs
  (WPLASMAI=    0.000 imaginary part of plasma frequency in eV, 0.658/RTIME)
   DFIELD  = 0.0000000 0.0000000 0.0000000 field for delta impulse in time
 
  Optional k-point grid parameters
   LKPOINTS_OPT  =     F    use optional k-point grid
   KPOINTS_OPT_MODE=     1    mode for optional k-point grid
 
 Orbital magnetization related:
   ORBITALMAG=     F  switch on orbital magnetization
   LCHIMAG   =     F  perturbation theory with respect to B field
   DQ        =  0.001000  dq finite difference perturbation B field
   LLRAUG    =     F  two centre corrections for induced B field



--------------------------------------------------------------------------------------------------------


 Static calculation
 charge density and potential will be updated during run
 non-spin polarized calculation
 Variant of blocked Davidson
 Davidson routine will perform the subspace rotation
 perform sub-space diagonalisation
    after iterative eigenvector-optimisation
 modified Broyden-mixing scheme, WC =      100.0
 initial mixing is a Kerker type mixing with AMIX =  0.4000 and BMIX =      1.0000
 Hartree-type preconditioning will be used
 using additional bands           64
 reciprocal scheme for non local part
 use partial core corrections
 calculate Harris-corrections to forces 
   (improved forces if not selfconsistent)
 use gradient corrections 
 use of overlap-Matrix (Vanderbilt PP)
 Gauss-broadening in eV      SIGMA  =   0.02


--------------------------------------------------------------------------------------------------------


  energy-cutoff  :      341.21
  volume of cell :     1406.43
      direct lattice vectors                 reciprocal lattice vectors
    11.204002360  0.000000000  0.000000000     0.089253819  0.000000000  0.000000000
     0.000000000 11.204002360  0.000000000     0.000000000  0.089253819  0.000000000
     0.000000000  0.000000000 11.204002360     0.000000000  0.000000000  0.089253819

  length of vectors
    11.204002360 11.204002360 11.204002360     0.089253819  0.089253819  0.089253819


 
 k-points in units of 2pi/SCALE and weight: KPOINTS created by Atomic Simulation Env
   0.00000000  0.00000000  0.00000000       0.125
   0.04462691  0.00000000  0.00000000       0.125
   0.00000000  0.04462691  0.00000000       0.125
   0.00000000  0.00000000  0.04462691       0.125
   0.04462691  0.04462691  0.00000000       0.125
   0.00000000  0.04462691  0.04462691       0.125
   0.04462691  0.00000000  0.04462691       0.125
   0.04462691  0.04462691  0.04462691       0.125
 
 k-points in reciprocal lattice and weights: KPOINTS created by Atomic Simulation Env
   0.00000000  0.00000000  0.00000000       0.125
   0.50000000  0.00000000  0.00000000       0.125
   0.00000000  0.50000000  0.00000000       0.125
   0.00000000  0.00000000  0.50000000       0.125
   0.50000000  0.50000000  0.00000000       0.125
   0.00000000  0.50000000  0.50000000       0.125
   0.50000000  0.00000000  0.50000000       0.125
   0.50000000  0.50000000  0.50000000       0.125
 
 position of ions in fractional coordinates (direct lattice) 
   0.00000000  0.00000000  0.00000000
   0.25000000  0.25000000  0.00000000
   0.25000000  0.00000000  0.25000000
   0.00000000  0.25000000  0.25000000
   0.00000000  0.00000000  0.50000000
   0.25000000  0.25000000  0.50000000
   0.25000000  0.00000000  0.75000000
   0.00000000  0.25000000  0.75000000
   0.00000000  0.50000000  0.00000000
   0.25000000  0.75000000  0.00000000
   0.25000000  0.50000000  0.25000000
   0.00000000  0.75000000  0.25000000
   0.00000000  0.50000000  0.50000000
   0.25000000  0.75000000  0.50000000
   0.25000000  0.50000000  0.75000000
   0.00000000  0.75000000  0.75000000
   0.50000000  0.00000000  0.00000000
   0.75000000  0.25000000  0.00000000
   0.75000000  0.00000000  0.25000000
   0.50000000  0.25000000  0.25000000
   0.50000000  0.00000000  0.50000000
   0.75000000  0.25000000  0.50000000
   0.75000000  0.00000000  0.75000000
   0.50000000  0.25000000  0.75000000
   0.50000000  0.50000000  0.00000000
   0.75000000  0.75000000  0.00000000
   0.75000000  0.50000000  0.25000000
   0.50000000  0.75000000  0.25000000
   0.50000000  0.50000000  0.50000000
   0.75000000  0.75000000  0.50000000
   0.75000000  0.50000000  0.75000000
   0.50000000  0.75000000  0.75000000
   0.25267761  0.25000000  0.25000000
   0.00267761  0.00000000  0.25000000
   0.00000000  0.25000000  0.00000000
   0.25000000  0.00000000  0.00000000
   0.25000000  0.25000000  0.75000000
   0.00000000  0.00000000  0.75000000
   0.00000000  0.25000000  0.50000000
   0.25000000  0.00000000  0.50000000
   0.25000000  0.75000000  0.25000000
   0.00000000  0.50000000  0.25000000
   0.00000000  0.75000000  0.00000000
   0.25000000  0.50000000  0.00000000
   0.25000000  0.75000000  0.75000000
   0.00000000  0.50000000  0.75000000
   0.00000000  0.75000000  0.50000000
   0.25000000  0.50000000  0.50000000
   0.75000000  0.25000000  0.25000000
   0.50000000  0.00000000  0.25000000
   0.50000000  0.25000000  0.00000000
   0.75000000  0.00000000  0.00000000
   0.75000000  0.25000000  0.75000000
   0.50000000  0.00000000  0.75000000
   0.50000000  0.25000000  0.50000000
   0.75000000  0.00000000  0.50000000
   0.75000000  0.75000000  0.25000000
   0.50000000  0.50000000  0.25000000
   0.50000000  0.75000000  0.00000000
   0.75000000  0.50000000  0.00000000
   0.75000000  0.75000000  0.75000000
   0.50000000  0.50000000  0.75000000
   0.50000000  0.75000000  0.50000000
   0.75000000  0.50000000  0.50000000
 
 position of ions in cartesian coordinates  (Angst):
   0.00000000  0.00000000  0.00000000
   2.80100059  2.80100059  0.00000000
   2.80100059  0.00000000  2.80100059
   0.00000000  2.80100059  2.80100059
   0.00000000  0.00000000  5.60200118
   2.80100059  2.80100059  5.60200118
   2.80100059  0.00000000  8.40300177
   0.00000000  2.80100059  8.40300177
   0.00000000  5.60200118  0.00000000
   2.80100059  8.40300177  0.00000000
   2.80100059  5.60200118  2.80100059
   0.00000000  8.40300177  2.80100059
   0.00000000  5.60200118  5.60200118
   2.80100059  8.40300177  5.60200118
   2.80100059  5.60200118  8.40300177
   0.00000000  8.40300177  8.40300177
   5.60200118  0.00000000  0.00000000
   8.40300177  2.80100059  0.00000000
   8.40300177  0.00000000  2.80100059
   5.60200118  2.80100059  2.80100059
   5.60200118  0.00000000  5.60200118
   8.40300177  2.80100059  5.60200118
   8.40300177  0.00000000  8.40300177
   5.60200118  2.80100059  8.40300177
   5.60200118  5.60200118  0.00000000
   8.40300177  8.40300177  0.00000000
   8.40300177  5.60200118  2.80100059
   5.60200118  8.40300177  2.80100059
   5.60200118  5.60200118  5.60200118
   8.40300177  8.40300177  5.60200118
   8.40300177  5.60200118  8.40300177
   5.60200118  8.40300177  8.40300177
   2.83100059  2.80100059  2.80100059
   0.03000000  0.00000000  2.80100059
   0.00000000  2.80100059  0.00000000
   2.80100059  0.00000000  0.00000000
   2.80100059  2.80100059  8.40300177
   0.00000000  0.00000000  8.40300177
   0.00000000  2.80100059  5.60200118
   2.80100059  0.00000000  5.60200118
   2.80100059  8.40300177  2.80100059
   0.00000000  5.60200118  2.80100059
   0.00000000  8.40300177  0.00000000
   2.80100059  5.60200118  0.00000000
   2.80100059  8.40300177  8.40300177
   0.00000000  5.60200118  8.40300177
   0.00000000  8.40300177  5.60200118
   2.80100059  5.60200118  5.60200118
   8.40300177  2.80100059  2.80100059
   5.60200118  0.00000000  2.80100059
   5.60200118  2.80100059  0.00000000
   8.40300177  0.00000000  0.00000000
   8.40300177  2.80100059  8.40300177
   5.60200118  0.00000000  8.40300177
   5.60200118  2.80100059  5.60200118
   8.40300177  0.00000000  5.60200118
   8.40300177  8.40300177  2.80100059
   5.60200118  5.60200118  2.80100059
   5.60200118  8.40300177  0.00000000
   8.40300177  5.60200118  0.00000000
   8.40300177  8.40300177  8.40300177
   5.60200118  5.60200118  8.40300177
   5.60200118  8.40300177  5.60200118
   8.40300177  5.60200118  5.60200118
 


--------------------------------------------------------------------------------------------------------


 k-point   1 :   0.0000 0.0000 0.0000  plane waves:   20005
 k-point   2 :   0.5000 0.0000 0.0000  plane waves:   20138
 k-point   3 :   0.0000 0.5000 0.0000  plane waves:   20138
 k-point   4 :   0.0000 0.0000 0.5000  plane waves:   20138
 k-point   5 :   0.5000 0.5000 0.0000  plane waves:   20160
 k-point   6 :   0.0000 0.5000 0.5000  plane waves:   20160
 k-point   7 :   0.5000 0.0000 0.5000  plane waves:   20160
 k-point   8 :   0.5000 0.5000 0.5000  plane waves:   20336

 maximum and minimum number of plane-waves per node :     20336    20005

 maximum number of plane-waves:     20336
 maximum index in each direction: 
   IXMAX=   16   IYMAX=   16   IZMAX=   16
   IXMIN=  -17   IYMIN=  -17   IZMIN=  -17


 serial   3D FFT for wavefunctions
 parallel 3D FFT for charge:
    minimum data exchange during FFTs selected (reduces bandwidth)


 total amount of memory used by VASP MPI-rank0   129658. kBytes
=======================================================================

   base      :      30000. kBytes
   nonl-proj :      41680. kBytes
   fftplans  :      14405. kBytes
   grid      :      19342. kBytes
   one-center:        196. kBytes
   wavefun   :      24035. kBytes
 
     INWAV:  cpu time      0.0000: real time      0.0000
 Broyden mixing: mesh for mixing (old mesh)
   NGX = 33   NGY = 33   NGZ = 33
  (NGX  =140   NGY  =140   NGZ  =140)
  gives a total of  35937 points

 initial charge density was supplied:
 charge density of overlapping atoms calculated
 number of electron     448.0000000 magnetization 
 keeping initial charge density in first step


--------------------------------------------------------------------------------------------------------


 Maximum index for augmentation-charges         1834 (set IRDMAX)


--------------------------------------------------------------------------------------------------------


 First call to EWALD:  gamma=   0.158
 Maximum number of real-space cells 3x 3x 3
 Maximum number of reciprocal cells 3x 3x 3

    FEWALD:  cpu time      0.0014: real time      0.0014


--------------------------------------- Iteration      1(   1)  ---------------------------------------


    POTLOK:  cpu time      0.0415: real time      0.0421
    SETDIJ:  cpu time      0.0317: real time      0.0319
     EDDAV:  cpu time     10.5888: real time     10.6499
       DOS:  cpu time      0.0009: real time      0.0009
    --------------------------------------------
      LOOP:  cpu time     10.6629: real time     10.7248

 eigenvalue-minimisations  :  4864
 total energy-change (2. order) : 0.4398698E+04  (-0.1710219E+05)
 number of electron     448.0000000 magnetization 
 augmentation part      448.0000000 magnetization 

 Free energy of the ion-electron system (eV)
  ---------------------------------------------------
  alpha Z        PSCENC =       751.52672365
  Ewald energy   TEWEN  =    -22871.34769693
  -Hartree energ DENC   =     -8992.24069380
  -exchange      EXHF   =         0.00000000
  -V(xc)+E(xc)   XCENC  =      1456.53427064
  PAW double counting   =     26466.43774078   -29286.08056155
  entropy T*S    EENTRO =        -0.00502075
  eigenvalues    EBANDS =      -658.30660627
  atomic energy  EATOM  =     37532.17946992
  Solvation  Ediel_sol  =         0.00000000
  ---------------------------------------------------
  free energy    TOTEN  =      4398.69762570 eV

  energy without entropy =     4398.70264645  energy(sigma->0) =     4398.70013607


--------------------------------------------------------------------------------------------------------




--------------------------------------- Iteration      1(   2)  ---------------------------------------


     EDDAV:  cpu time     11.0504: real time     11.1266
       DOS:  cpu time      0.0002: real time      0.0002
    --------------------------------------------
      LOOP:  cpu time     11.0506: real time     11.1268

 eigenvalue-minimisations  :  5120
 total energy-change (2. order) :-0.4028235E+04  (-0.3826660E+04)
 number of electron     448.0000000 magnetization 
 augmentation part      448.0000000 magnetization 

 Free energy of the ion-electron system (eV)
  ---------------------------------------------------
  alpha Z        PSCENC =       751.52672365
  Ewald energy   TEWEN  =    -22871.34769693
  -Hartree energ DENC   =     -8992.24069380
  -exchange      EXHF   =         0.00000000
  -V(xc)+E(xc)   XCENC  =      1456.53427064
  PAW double counting   =     26466.43774078   -29286.08056155
  entropy T*S    EENTRO =        -0.00000000
  eigenvalues    EBANDS =     -4686.54692575
  atomic energy  EATOM  =     37532.17946992
  Solvation  Ediel_sol  =         0.00000000
  ---------------------------------------------------
  free energy    TOTEN  =       370.46232697 eV

  energy without entropy =      370.46232697  energy(sigma->0) =      370.46232697


--------------------------------------------------------------------------------------------------------




--------------------------------------- Iteration      1(   3)  ---------------------------------------


     EDDAV:  cpu time     11.9072: real time     11.9836
       DOS:  cpu time      0.0004: real time      0.0004
    --------------------------------------------
      LOOP:  cpu time     11.9075: real time     11.9839

 eigenvalue-minimisations  :  5600
 total energy-change (2. order) :-0.5759004E+03  (-0.5715180E+03)
 number of electron     448.0000000 magnetization 
 augmentation part      448.0000000 magnetization 

 Free energy of the ion-electron system (eV)
  ---------------------------------------------------
  alpha Z        PSCENC =       751.52672365
  Ewald energy   TEWEN  =    -22871.34769693
  -Hartree energ DENC   =     -8992.24069380
  -exchange      EXHF   =         0.00000000
  -V(xc)+E(xc)   XCENC  =      1456.53427064
  PAW double counting   =     26466.43774078   -29286.08056155
  entropy T*S    EENTRO =        -0.00000000
  eigenvalues    EBANDS =     -5262.44733838
  atomic energy  EATOM  =     37532.17946992
  Solvation  Ediel_sol  =         0.00000000
  ---------------------------------------------------
  free energy    TOTEN  =      -205.43808565 eV

  energy without entropy =     -205.43808565  energy(sigma->0) =     -205.43808565


--------------------------------------------------------------------------------------------------------




--------------------------------------- Iteration      1(   4)  ---------------------------------------


     EDDAV:  cpu time     11.8000: real time     11.8758
       DOS:  cpu time      0.0002: real time      0.0002
    --------------------------------------------
      LOOP:  cpu time     11.8002: real time     11.8760

 eigenvalue-minimisations  :  5536
 total energy-change (2. order) :-0.2272634E+02  (-0.2262184E+02)
 number of electron     448.0000000 magnetization 
 augmentation part      448.0000000 magnetization 

 Free energy of the ion-electron system (eV)
  ---------------------------------------------------
  alpha Z        PSCENC =       751.52672365
  Ewald energy   TEWEN  =    -22871.34769693
  -Hartree energ DENC   =     -8992.24069380
  -exchange      EXHF   =         0.00000000
  -V(xc)+E(xc)   XCENC  =      1456.53427064
  PAW double counting   =     26466.43774078   -29286.08056155
  entropy T*S    EENTRO =        -0.00000000
  eigenvalues    EBANDS =     -5285.17367696
  atomic energy  EATOM  =     37532.17946992
  Solvation  Ediel_sol  =         0.00000000
  ---------------------------------------------------
  free energy    TOTEN  =      -228.16442424 eV

  energy without entropy =     -228.16442424  energy(sigma->0) =     -228.16442424


--------------------------------------------------------------------------------------------------------




--------------------------------------- Iteration      1(   5)  ---------------------------------------


     EDDAV:  cpu time     12.2811: real time     12.3528
       DOS:  cpu time      0.0004: real time      0.0004
    CHARGE:  cpu time      0.3509: real time      0.3531
    MIXING:  cpu time      0.0012: real time      0.0013
    --------------------------------------------
      LOOP:  cpu time     12.6337: real time     12.7076

 eigenvalue-minimisations  :  5824
 total energy-change (2. order) :-0.8391219E+00  (-0.8377541E+00)
 number of electron     448.0000022 magnetization 
 augmentation part      111.6430663 magnetization 

 Broyden mixing:
  rms(total) = 0.10606E+01    rms(broyden)= 0.10601E+01
  rms(prec ) = 0.14934E+01
  weight for this iteration     100.00

 Free energy of the ion-electron system (eV)
  ---------------------------------------------------
  alpha Z        PSCENC =       751.52672365
  Ewald energy   TEWEN  =    -22871.34769693
  -Hartree energ DENC   =     -8992.24069380
  -exchange      EXHF   =         0.00000000
  -V(xc)+E(xc)   XCENC  =      1456.53427064
  PAW double counting   =     26466.43774078   -29286.08056155
  entropy T*S    EENTRO =        -0.00000000
  eigenvalues    EBANDS =     -5286.01279884
  atomic energy  EATOM  =     37532.17946992
  Solvation  Ediel_sol  =         0.00000000
  ---------------------------------------------------
  free energy    TOTEN  =      -229.00354612 eV

  energy without entropy =     -229.00354612  energy(sigma->0) =     -229.00354612


--------------------------------------------------------------------------------------------------------




--------------------------------------- Iteration      1(   6)  ---------------------------------------


    POTLOK:  cpu time      0.0372: real time      0.0380
    SETDIJ:  cpu time      0.0301: real time      0.0302
     EDDAV:  cpu time     12.0928: real time     12.1626
       DOS:  cpu time      0.0005: real time      0.0005
    CHARGE:  cpu time      0.3471: real time      0.3488
    MIXING:  cpu time      0.0014: real time      0.0014
    --------------------------------------------
      LOOP:  cpu time     12.5091: real time     12.5816

 eigenvalue-minimisations  :  5696
 total energy-change (2. order) : 0.4863808E+01  (-0.9448503E+00)
 number of electron     448.0000022 magnetization 
 augmentation part      112.4579402 magnetization 

 Broyden mixing:
  rms(total) = 0.77561E+00    rms(broyden)= 0.77556E+00
  rms(prec ) = 0.89176E+00
  weight for this iteration     100.00

 eigenvalues of (default mixing * dielectric matrix)
  average eigenvalue GAMMA=   1.0766
  1.0766

 Free energy of the ion-electron system (eV)
  ---------------------------------------------------
  alpha Z        PSCENC =       751.52672365
  Ewald energy   TEWEN  =    -22871.34769693
  -Hartree energ DENC   =     -9061.68511409
  -exchange      EXHF   =         0.00000000
  -V(xc)+E(xc)   XCENC  =      1465.42429173
  PAW double counting   =     27290.73667796   -30102.68093537
  entropy T*S    EENTRO =        -0.00000000
  eigenvalues    EBANDS =     -5228.29315541
  atomic energy  EATOM  =     37532.17946992
  Solvation  Ediel_sol  =         0.00000000
  ---------------------------------------------------
  free energy    TOTEN  =      -224.13973853 eV

  energy without entropy =     -224.13973853  energy(sigma->0) =     -224.13973853


--------------------------------------------------------------------------------------------------------




--------------------------------------- Iteration      1(   7)  ---------------------------------------


    POTLOK:  cpu time      0.0363: real time      0.0411
    SETDIJ:  cpu time      0.0306: real time      0.0307
     EDDAV:  cpu time     13.0787: real time     13.1544
       DOS:  cpu time      0.0005: real time      0.0005
    CHARGE:  cpu time      0.3471: real time      0.3492
    MIXING:  cpu time      0.0014: real time      0.0014
    --------------------------------------------
      LOOP:  cpu time     13.4945: real time     13.5773

 eigenvalue-minimisations  :  6272
 total energy-change (2. order) : 0.3623773E+00  (-0.2070394E+00)
 number of electron     448.0000022 magnetization 
 augmentation part      112.8277885 magnetization 

 Broyden mixing:
  rms(total) = 0.53294E+00    rms(broyden)= 0.53292E+00
  rms(prec ) = 0.56289E+00
  weight for this iteration     100.00

 eigenvalues of (default mixing * dielectric matrix)
  average eigenvalue GAMMA=   2.1557
  1.4410  2.8705

 Free energy of the ion-electron system (eV)
  ---------------------------------------------------
  alpha Z        PSCENC =       751.52672365
  Ewald energy   TEWEN  =    -22871.34769693
  -Hartree energ DENC   =     -9085.84108662
  -exchange      EXHF   =         0.00000000
  -V(xc)+E(xc)   XCENC  =      1470.12981459
  PAW double counting   =     28330.36947954   -31143.09211601
  entropy T*S    EENTRO =        -0.00000000
  eigenvalues    EBANDS =     -5207.70194941
  atomic energy  EATOM  =     37532.17946992
  Solvation  Ediel_sol  =         0.00000000
  ---------------------------------------------------
  free energy    TOTEN  =      -223.77736126 eV

  energy without entropy =     -223.77736126  energy(sigma->0) =     -223.77736126


--------------------------------------------------------------------------------------------------------




--------------------------------------- Iteration      1(   8)  ---------------------------------------


    POTLOK:  cpu time      0.0355: real time      0.0359
    SETDIJ:  cpu time      0.0303: real time      0.0304
     EDDAV:  cpu time     11.5883: real time     11.6552
       DOS:  cpu time      0.0005: real time      0.0005
    CHARGE:  cpu time      0.3447: real time      0.3465
    MIXING:  cpu time      0.0018: real time      0.0018
    --------------------------------------------
      LOOP:  cpu time     12.0011: real time     12.0704

 eigenvalue-minimisations  :  5408
 total energy-change (2. order) :-0.1252646E+00  (-0.2669033E-01)
 number of electron     448.0000022 magnetization 
 augmentation part      112.8084036 magnetization 

 Broyden mixing:
  rms(total) = 0.14213E+00    rms(broyden)= 0.14213E+00
  rms(prec ) = 0.14506E+00
  weight for this iteration     100.00

 eigenvalues of (default mixing * dielectric matrix)
  average eigenvalue GAMMA=   1.5557
  2.5250  1.3875  0.7545

 Free energy of the ion-electron system (eV)
  ---------------------------------------------------
  alpha Z        PSCENC =       751.52672365
  Ewald energy   TEWEN  =    -22871.34769693
  -Hartree energ DENC   =     -9075.17592840
  -exchange      EXHF   =         0.00000000
  -V(xc)+E(xc)   XCENC  =      1472.33647144
  PAW double counting   =     29809.32449055   -32629.18844112
  entropy T*S    EENTRO =        -0.00000000
  eigenvalues    EBANDS =     -5213.55771498
  atomic energy  EATOM  =     37532.17946992
  Solvation  Ediel_sol  =         0.00000000
  ---------------------------------------------------
  free energy    TOTEN  =      -223.90262586 eV

  energy without entropy =     -223.90262586  energy(sigma->0) =     -223.90262586


--------------------------------------------------------------------------------------------------------




--------------------------------------- Iteration      1(   9)  ---------------------------------------


    POTLOK:  cpu time      0.0357: real time      0.0361
    SETDIJ:  cpu time      0.0304: real time      0.0306
     EDDAV:  cpu time     11.9691: real time     12.0384
       DOS:  cpu time      0.0002: real time      0.0002
    CHARGE:  cpu time      0.3531: real time      0.3549
    MIXING:  cpu time      0.0016: real time      0.0016
    --------------------------------------------
      LOOP:  cpu time     12.3902: real time     12.4617

 eigenvalue-minimisations  :  5632
 total energy-change (2. order) : 0.5612331E-02  (-0.1147575E-02)
 number of electron     448.0000022 magnetization 
 augmentation part      112.8311835 magnetization 

 Broyden mixing:
  rms(total) = 0.60397E-01    rms(broyden)= 0.60396E-01
  rms(prec ) = 0.62458E-01
  weight for this iteration     100.00

 eigenvalues of (default mixing * dielectric matrix)
  average eigenvalue GAMMA=   1.9931
  2.7902  2.7902  0.9977  1.3942

 Free energy of the ion-electron system (eV)
  ---------------------------------------------------
  alpha Z        PSCENC =       751.52672365
  Ewald energy   TEWEN  =    -22871.34769693
  -Hartree energ DENC   =     -9077.92302465
  -exchange      EXHF   =         0.00000000
  -V(xc)+E(xc)   XCENC  =      1472.35625951
  PAW double counting   =     29630.53843769   -32449.55051784
  entropy T*S    EENTRO =        -0.00000000
  eigenvalues    EBANDS =     -5211.67666490
  atomic energy  EATOM  =     37532.17946992
  Solvation  Ediel_sol  =         0.00000000
  ---------------------------------------------------
  free energy    TOTEN  =      -223.89701353 eV

  energy without entropy =     -223.89701353  energy(sigma->0) =     -223.89701353


--------------------------------------------------------------------------------------------------------




--------------------------------------- Iteration      1(  10)  ---------------------------------------


    POTLOK:  cpu time      0.0365: real time      0.0375
    SETDIJ:  cpu time      0.0303: real time      0.0304
     EDDAV:  cpu time     11.6304: real time     11.6973
       DOS:  cpu time      0.0004: real time      0.0004
    CHARGE:  cpu time      0.3614: real time      0.3634
    MIXING:  cpu time      0.0016: real time      0.0016
    --------------------------------------------
      LOOP:  cpu time     12.0607: real time     12.1306

 eigenvalue-minimisations  :  5440
 total energy-change (2. order) :-0.4251122E-02  (-0.1805570E-02)
 number of electron     448.0000022 magnetization 
 augmentation part      112.8605714 magnetization 

 Broyden mixing:
  rms(total) = 0.28279E-01    rms(broyden)= 0.28276E-01
  rms(prec ) = 0.30311E-01
  weight for this iteration     100.00

 eigenvalues of (default mixing * dielectric matrix)
  average eigenvalue GAMMA=   1.7096
  2.9344  2.5140  1.2971  1.0191  0.7833

 Free energy of the ion-electron system (eV)
  ---------------------------------------------------
  alpha Z        PSCENC =       751.52672365
  Ewald energy   TEWEN  =    -22871.34769693
  -Hartree energ DENC   =     -9079.42742778
  -exchange      EXHF   =         0.00000000
  -V(xc)+E(xc)   XCENC  =      1472.60265621
  PAW double counting   =     29456.64303214   -32275.86217010
  entropy T*S    EENTRO =        -0.00000000
  eigenvalues    EBANDS =     -5210.21585179
  atomic energy  EATOM  =     37532.17946992
  Solvation  Ediel_sol  =         0.00000000
  ---------------------------------------------------
  free energy    TOTEN  =      -223.90126465 eV

  energy without entropy =     -223.90126465  energy(sigma->0) =     -223.90126465


--------------------------------------------------------------------------------------------------------




--------------------------------------- Iteration      1(  11)  ---------------------------------------


    POTLOK:  cpu time      0.0365: real time      0.0377
    SETDIJ:  cpu time      0.0293: real time      0.0295
     EDDAV:  cpu time     12.5766: real time     12.6484
       DOS:  cpu time      0.0005: real time      0.0005
    CHARGE:  cpu time      0.3447: real time      0.3469
    MIXING:  cpu time      0.0014: real time      0.0014
    --------------------------------------------
      LOOP:  cpu time     12.9890: real time     13.0643

 eigenvalue-minimisations  :  5984
 total energy-change (2. order) : 0.6876849E-03  (-0.1520056E-03)
 number of electron     448.0000022 magnetization 
 augmentation part      112.8517524 magnetization 

 Broyden mixing:
  rms(total) = 0.89368E-02    rms(broyden)= 0.89367E-02
  rms(prec ) = 0.93845E-02
  weight for this iteration     100.00

 eigenvalues of (default mixing * dielectric matrix)
  average eigenvalue GAMMA=   1.5515
  2.9138  2.4576  1.3160  1.0095  0.8061  0.8061

 Free energy of the ion-electron system (eV)
  ---------------------------------------------------
  alpha Z        PSCENC =       751.52672365
  Ewald energy   TEWEN  =    -22871.34769693
  -Hartree energ DENC   =     -9078.34630839
  -exchange      EXHF   =         0.00000000
  -V(xc)+E(xc)   XCENC  =      1472.53011176
  PAW double counting   =     29486.71843473   -32306.08793705
  entropy T*S    EENTRO =        -0.00000000
  eigenvalues    EBANDS =     -5211.07337468
  atomic energy  EATOM  =     37532.17946992
  Solvation  Ediel_sol  =         0.00000000
  ---------------------------------------------------
  free energy    TOTEN  =      -223.90057697 eV

  energy without entropy =     -223.90057697  energy(sigma->0) =     -223.90057697


--------------------------------------------------------------------------------------------------------




--------------------------------------- Iteration      1(  12)  ---------------------------------------


    POTLOK:  cpu time      0.0365: real time      0.0405
    SETDIJ:  cpu time      0.0303: real time      0.0305
     EDDAV:  cpu time     12.5648: real time     12.6362
       DOS:  cpu time      0.0003: real time      0.0003
    CHARGE:  cpu time      0.3454: real time      0.3476
    MIXING:  cpu time      0.0015: real time      0.0015
    --------------------------------------------
      LOOP:  cpu time     12.9789: real time     13.0565

 eigenvalue-minimisations  :  5984
 total energy-change (2. order) : 0.3953234E-04  (-0.1422961E-04)
 number of electron     448.0000022 magnetization 
 augmentation part      112.8490381 magnetization 

 Broyden mixing:
  rms(total) = 0.19354E-02    rms(broyden)= 0.19348E-02
  rms(prec ) = 0.22042E-02
  weight for this iteration     100.00

 eigenvalues of (default mixing * dielectric matrix)
  average eigenvalue GAMMA=   1.5759
  2.8828  2.3806  1.5316  1.1411  1.1411  1.1477  0.8068

 Free energy of the ion-electron system (eV)
  ---------------------------------------------------
  alpha Z        PSCENC =       751.52672365
  Ewald energy   TEWEN  =    -22871.34769693
  -Hartree energ DENC   =     -9078.19614653
  -exchange      EXHF   =         0.00000000
  -V(xc)+E(xc)   XCENC  =      1472.51946363
  PAW double counting   =     29497.39453788   -32316.76815825
  entropy T*S    EENTRO =        -0.00000000
  eigenvalues    EBANDS =     -5211.20873082
  atomic energy  EATOM  =     37532.17946992
  Solvation  Ediel_sol  =         0.00000000
  ---------------------------------------------------
  free energy    TOTEN  =      -223.90053744 eV

  energy without entropy =     -223.90053744  energy(sigma->0) =     -223.90053744


--------------------------------------------------------------------------------------------------------




--------------------------------------- Iteration      1(  13)  ---------------------------------------


    POTLOK:  cpu time      0.0356: real time      0.0359
    SETDIJ:  cpu time      0.0301: real time      0.0303
     EDDAV:  cpu time     11.9662: real time     12.0350
       DOS:  cpu time      0.0004: real time      0.0004
    CHARGE:  cpu time      0.3456: real time      0.3473
    MIXING:  cpu time      0.0017: real time      0.0017
    --------------------------------------------
      LOOP:  cpu time     12.3796: real time     12.4506

 eigenvalue-minimisations  :  5632
 total energy-change (2. order) : 0.2473091E-05  (-0.2782350E-05)
 number of electron     448.0000022 magnetization 
 augmentation part      112.8477167 magnetization 

 Broyden mixing:
  rms(total) = 0.43665E-03    rms(broyden)= 0.43606E-03
  rms(prec ) = 0.50747E-03
  weight for this iteration     100.00

 eigenvalues of (default mixing * dielectric matrix)
  average eigenvalue GAMMA=   1.6042
  2.9845  2.2661  2.2661  1.1922  1.1033  0.9707  1.0254  1.0254

 Free energy of the ion-electron system (eV)
  ---------------------------------------------------
  alpha Z        PSCENC =       751.52672365
  Ewald energy   TEWEN  =    -22871.34769693
  -Hartree energ DENC   =     -9078.10621786
  -exchange      EXHF   =         0.00000000
  -V(xc)+E(xc)   XCENC  =      1472.51068994
  PAW double counting   =     29498.94935838   -32318.32528937
  entropy T*S    EENTRO =        -0.00000000
  eigenvalues    EBANDS =     -5211.28757271
  atomic energy  EATOM  =     37532.17946992
  Solvation  Ediel_sol  =         0.00000000
  ---------------------------------------------------
  free energy    TOTEN  =      -223.90053496 eV

  energy without entropy =     -223.90053496  energy(sigma->0) =     -223.90053496


--------------------------------------------------------------------------------------------------------




--------------------------------------- Iteration      1(  14)  ---------------------------------------


    POTLOK:  cpu time      0.0359: real time      0.0362
    SETDIJ:  cpu time      0.0300: real time      0.0301
     EDDAV:  cpu time     11.6928: real time     11.7602
       DOS:  cpu time      0.0004: real time      0.0004
    CHARGE:  cpu time      0.3471: real time      0.3487
    MIXING:  cpu time      0.0016: real time      0.0017
    --------------------------------------------
      LOOP:  cpu time     12.1078: real time     12.1772

 eigenvalue-minimisations  :  5472
 total energy-change (2. order) :-0.2138906E-05  (-0.2432407E-06)
 number of electron     448.0000022 magnetization 
 augmentation part      112.8477349 magnetization 

 Broyden mixing:
  rms(total) = 0.71606E-03    rms(broyden)= 0.71604E-03
  rms(prec ) = 0.73720E-03
  weight for this iteration     100.00

 eigenvalues of (default mixing * dielectric matrix)
  average eigenvalue GAMMA=   1.6434
  3.0421  2.6006  2.6006  1.3881  1.2131  1.2131  0.9464  0.9464  0.8398

 Free energy of the ion-electron system (eV)
  ---------------------------------------------------
  alpha Z        PSCENC =       751.52672365
  Ewald energy   TEWEN  =    -22871.34769693
  -Hartree energ DENC   =     -9078.12548513
  -exchange      EXHF   =         0.00000000
  -V(xc)+E(xc)   XCENC  =      1472.51262610
  PAW double counting   =     29499.75396066   -32319.12369307
  entropy T*S    EENTRO =        -0.00000000
  eigenvalues    EBANDS =     -5211.27644231
  atomic energy  EATOM  =     37532.17946992
  Solvation  Ediel_sol  =         0.00000000
  ---------------------------------------------------
  free energy    TOTEN  =      -223.90053710 eV

  energy without entropy =     -223.90053710  energy(sigma->0) =     -223.90053710


--------------------------------------------------------------------------------------------------------




--------------------------------------- Iteration      1(  15)  ---------------------------------------


    POTLOK:  cpu time      0.0357: real time      0.0367
    SETDIJ:  cpu time      0.0301: real time      0.0302
     EDDAV:  cpu time     12.1359: real time     12.2058
       DOS:  cpu time      0.0004: real time      0.0004
    CHARGE:  cpu time      0.3469: real time      0.3488
    MIXING:  cpu time      0.0015: real time      0.0015
    --------------------------------------------
      LOOP:  cpu time     12.5505: real time     12.6233

 eigenvalue-minimisations  :  5728
 total energy-change (2. order) :-0.1022978E-05  (-0.3447067E-07)
 number of electron     448.0000022 magnetization 
 augmentation part      112.8477686 magnetization 

 Broyden mixing:
  rms(total) = 0.32796E-03    rms(broyden)= 0.32795E-03
  rms(prec ) = 0.34003E-03
  weight for this iteration     100.00

 eigenvalues of (default mixing * dielectric matrix)
  average eigenvalue GAMMA=   1.5971
  3.0873  2.6426  2.5389  1.4958  1.2682  1.2682  0.9247  0.9247  0.9370  0.8840

 Free energy of the ion-electron system (eV)
  ---------------------------------------------------
  alpha Z        PSCENC =       751.52672365
  Ewald energy   TEWEN  =    -22871.34769693
  -Hartree energ DENC   =     -9078.14810074
  -exchange      EXHF   =         0.00000000
  -V(xc)+E(xc)   XCENC  =      1472.51296193
  PAW double counting   =     29498.95078743   -32318.31608427
  entropy T*S    EENTRO =        -0.00000000
  eigenvalues    EBANDS =     -5211.25859911
  atomic energy  EATOM  =     37532.17946992
  Solvation  Ediel_sol  =         0.00000000
  ---------------------------------------------------
  free energy    TOTEN  =      -223.90053813 eV

  energy without entropy =     -223.90053813  energy(sigma->0) =     -223.90053813


--------------------------------------------------------------------------------------------------------




--------------------------------------- Iteration      1(  16)  ---------------------------------------


    POTLOK:  cpu time      0.0359: real time      0.0370
    SETDIJ:  cpu time      0.0303: real time      0.0305
     EDDAV:  cpu time     12.0896: real time     12.1582
       DOS:  cpu time      0.0005: real time      0.0005
    CHARGE:  cpu time      0.3438: real time      0.3458
    MIXING:  cpu time      0.0017: real time      0.0017
    --------------------------------------------
      LOOP:  cpu time     12.5018: real time     12.5737

 eigenvalue-minimisations  :  5696
 total energy-change (2. order) :-0.4670073E-06  (-0.1466679E-07)
 number of electron     448.0000022 magnetization 
 augmentation part      112.8478410 magnetization 

 Broyden mixing:
  rms(total) = 0.80388E-04    rms(broyden)= 0.80373E-04
  rms(prec ) = 0.87697E-04
  weight for this iteration     100.00

 eigenvalues of (default mixing * dielectric matrix)
  average eigenvalue GAMMA=   1.5512
  3.0913  2.5681  2.5681  1.4581  1.2399  1.2399  1.1253  1.1253  0.8920  0.8920
  0.8629

 Free energy of the ion-electron system (eV)
  ---------------------------------------------------
  alpha Z        PSCENC =       751.52672365
  Ewald energy   TEWEN  =    -22871.34769693
  -Hartree energ DENC   =     -9078.15796040
  -exchange      EXHF   =         0.00000000
  -V(xc)+E(xc)   XCENC  =      1472.51341018
  PAW double counting   =     29498.45328061   -32317.81802285
  entropy T*S    EENTRO =        -0.00000000
  eigenvalues    EBANDS =     -5211.24974279
  atomic energy  EATOM  =     37532.17946992
  Solvation  Ediel_sol  =         0.00000000
  ---------------------------------------------------
  free energy    TOTEN  =      -223.90053859 eV

  energy without entropy =     -223.90053859  energy(sigma->0) =     -223.90053859


--------------------------------------------------------------------------------------------------------




--------------------------------------- Iteration      1(  17)  ---------------------------------------


    POTLOK:  cpu time      0.0370: real time      0.0416
    SETDIJ:  cpu time      0.0302: real time      0.0306
     EDDAV:  cpu time      8.7178: real time      8.7671
       DOS:  cpu time      0.0004: real time      0.0004
    CHARGE:  cpu time      0.3420: real time      0.3443
    MIXING:  cpu time      0.0017: real time      0.0017
    --------------------------------------------
      LOOP:  cpu time      9.1290: real time      9.1856

 eigenvalue-minimisations  :  3680
 total energy-change (2. order) :-0.4495087E-07  (-0.9102872E-09)
 number of electron     448.0000022 magnetization 
 augmentation part      112.8478502 magnetization 

 Broyden mixing:
  rms(total) = 0.24513E-04    rms(broyden)= 0.24492E-04
  rms(prec ) = 0.32786E-04
  weight for this iteration     100.00

 eigenvalues of (default mixing * dielectric matrix)
  average eigenvalue GAMMA=   1.6173
  3.2136  2.8997  2.2287  2.2287  1.3477  1.3477  1.2294  1.2294  0.9463  0.9463
  0.9393  0.8509

 Free energy of the ion-electron system (eV)
  ---------------------------------------------------
  alpha Z        PSCENC =       751.52672365
  Ewald energy   TEWEN  =    -22871.34769693
  -Hartree energ DENC   =     -9078.15981712
  -exchange      EXHF   =         0.00000000
  -V(xc)+E(xc)   XCENC  =      1472.51349782
  PAW double counting   =     29498.33949050   -32317.70431661
  entropy T*S    EENTRO =        -0.00000000
  eigenvalues    EBANDS =     -5211.24788988
  atomic energy  EATOM  =     37532.17946992
  Solvation  Ediel_sol  =         0.00000000
  ---------------------------------------------------
  free energy    TOTEN  =      -223.90053864 eV

  energy without entropy =     -223.90053864  energy(sigma->0) =     -223.90053864


--------------------------------------------------------------------------------------------------------




--------------------------------------- Iteration      1(  18)  ---------------------------------------


    POTLOK:  cpu time      0.0365: real time      0.0369
    SETDIJ:  cpu time      0.0304: real time      0.0305
     EDDAV:  cpu time      9.0762: real time      9.1288
       DOS:  cpu time      0.0005: real time      0.0005
    CHARGE:  cpu time      0.3423: real time      0.3440
    MIXING:  cpu time      0.0017: real time      0.0017
    --------------------------------------------
      LOOP:  cpu time      9.4875: real time      9.5424

 eigenvalue-minimisations  :  3904
 total energy-change (2. order) :-0.1140143E-06  (-0.1211754E-08)
 number of electron     448.0000022 magnetization 
 augmentation part      112.8478645 magnetization 

 Broyden mixing:
  rms(total) = 0.52792E-04    rms(broyden)= 0.52782E-04
  rms(prec ) = 0.55204E-04
  weight for this iteration     100.00

 eigenvalues of (default mixing * dielectric matrix)
  average eigenvalue GAMMA=   1.5570
  3.2439  2.9233  2.2991  2.2991  1.2201  1.2201  1.0212  1.0212  1.2664  1.1330
  0.9317  0.8307  0.8307

 Free energy of the ion-electron system (eV)
  ---------------------------------------------------
  alpha Z        PSCENC =       751.52672365
  Ewald energy   TEWEN  =    -22871.34769693
  -Hartree energ DENC   =     -9078.16334434
  -exchange      EXHF   =         0.00000000
  -V(xc)+E(xc)   XCENC  =      1472.51361682
  PAW double counting   =     29498.20191575   -32317.56654254
  entropy T*S    EENTRO =        -0.00000000
  eigenvalues    EBANDS =     -5211.24468108
  atomic energy  EATOM  =     37532.17946992
  Solvation  Ediel_sol  =         0.00000000
  ---------------------------------------------------
  free energy    TOTEN  =      -223.90053875 eV

  energy without entropy =     -223.90053875  energy(sigma->0) =     -223.90053875


--------------------------------------------------------------------------------------------------------




--------------------------------------- Iteration      1(  19)  ---------------------------------------


    POTLOK:  cpu time      0.0366: real time      0.0369
    SETDIJ:  cpu time      0.0309: real time      0.0310
     EDDAV:  cpu time      7.5808: real time      7.6243
       DOS:  cpu time      0.0004: real time      0.0004
    CHARGE:  cpu time      0.3453: real time      0.3470
    MIXING:  cpu time      0.0024: real time      0.0024
    --------------------------------------------
      LOOP:  cpu time      7.9964: real time      8.0420

 eigenvalue-minimisations  :  3008
 total energy-change (2. order) : 0.1220906E-07  (-0.9967139E-09)
 number of electron     448.0000022 magnetization 
 augmentation part      112.8478632 magnetization 

 Broyden mixing:
  rms(total) = 0.46135E-04    rms(broyden)= 0.46124E-04
  rms(prec ) = 0.47793E-04
  weight for this iteration     100.00

 eigenvalues of (default mixing * dielectric matrix)
  average eigenvalue GAMMA=   1.5850
  3.3719  2.9544  2.4212  2.4212  1.3242  1.3242  1.2191  1.2191  1.2551  1.0300
  1.0150  0.8469  0.8935  0.8935

 Free energy of the ion-electron system (eV)
  ---------------------------------------------------
  alpha Z        PSCENC =       751.52672365
  Ewald energy   TEWEN  =    -22871.34769693
  -Hartree energ DENC   =     -9078.16306819
  -exchange      EXHF   =         0.00000000
  -V(xc)+E(xc)   XCENC  =      1472.51360187
  PAW double counting   =     29498.21720639   -32317.58175914
  entropy T*S    EENTRO =        -0.00000000
  eigenvalues    EBANDS =     -5211.24501633
  atomic energy  EATOM  =     37532.17946992
  Solvation  Ediel_sol  =         0.00000000
  ---------------------------------------------------
  free energy    TOTEN  =      -223.90053874 eV

  energy without entropy =     -223.90053874  energy(sigma->0) =     -223.90053874


--------------------------------------------------------------------------------------------------------




--------------------------------------- Iteration      1(  20)  ---------------------------------------


    POTLOK:  cpu time      0.0365: real time      0.0368
    SETDIJ:  cpu time      0.0309: real time      0.0310
     EDDAV:  cpu time      7.8424: real time      7.8873
       DOS:  cpu time      0.0009: real time      0.0009
    CHARGE:  cpu time      0.3441: real time      0.3462
    MIXING:  cpu time      0.0018: real time      0.0018
    --------------------------------------------
      LOOP:  cpu time      8.2565: real time      8.3040

 eigenvalue-minimisations  :  3168
 total energy-change (2. order) : 0.7091148E-07  (-0.3009468E-09)
 number of electron     448.0000022 magnetization 
 augmentation part      112.8478596 magnetization 

 Broyden mixing:
  rms(total) = 0.18892E-04    rms(broyden)= 0.18867E-04
  rms(prec ) = 0.19675E-04
  weight for this iteration     100.00

 eigenvalues of (default mixing * dielectric matrix)
  average eigenvalue GAMMA=   1.6334
  3.7328  2.9768  2.7135  2.3565  1.7484  1.2934  1.2934  1.2846  1.2846  1.0688
  1.0688  0.9065  0.9065  0.9106  0.9558

 Free energy of the ion-electron system (eV)
  ---------------------------------------------------
  alpha Z        PSCENC =       751.52672365
  Ewald energy   TEWEN  =    -22871.34769693
  -Hartree energ DENC   =     -9078.16198078
  -exchange      EXHF   =         0.00000000
  -V(xc)+E(xc)   XCENC  =      1472.51355675
  PAW double counting   =     29498.27712786   -32317.64163906
  entropy T*S    EENTRO =        -0.00000000
  eigenvalues    EBANDS =     -5211.24610009
  atomic energy  EATOM  =     37532.17946992
  Solvation  Ediel_sol  =         0.00000000
  ---------------------------------------------------
  free energy    TOTEN  =      -223.90053867 eV

  energy without entropy =     -223.90053867  energy(sigma->0) =     -223.90053867


--------------------------------------------------------------------------------------------------------




--------------------------------------- Iteration      1(  21)  ---------------------------------------


    POTLOK:  cpu time      0.0366: real time      0.0376
    SETDIJ:  cpu time      0.0308: real time      0.0310
     EDDAV:  cpu time      7.4626: real time      7.5053
       DOS:  cpu time      0.0005: real time      0.0005
    CHARGE:  cpu time      0.3426: real time      0.3445
    MIXING:  cpu time      0.0014: real time      0.0014
    --------------------------------------------
      LOOP:  cpu time      7.8746: real time      7.9203

 eigenvalue-minimisations  :  2944
 total energy-change (2. order) : 0.3920286E-07  (-0.3031694E-09)
 number of electron     448.0000022 magnetization 
 augmentation part      112.8478554 magnetization 

 Broyden mixing:
  rms(total) = 0.93955E-05    rms(broyden)= 0.93443E-05
  rms(prec ) = 0.99581E-05
  weight for this iteration     100.00

 eigenvalues of (default mixing * dielectric matrix)
  average eigenvalue GAMMA=   1.6352
  4.1100  2.9750  2.7673  2.4571  1.9402  1.2830  1.2830  1.3525  1.2035  1.0649
  1.0649  1.0308  1.0308  0.9116  0.9116  0.7761

 Free energy of the ion-electron system (eV)
  ---------------------------------------------------
  alpha Z        PSCENC =       751.52672365
  Ewald energy   TEWEN  =    -22871.34769693
  -Hartree energ DENC   =     -9078.16102156
  -exchange      EXHF   =         0.00000000
  -V(xc)+E(xc)   XCENC  =      1472.51351393
  PAW double counting   =     29498.30878737   -32317.67333503
  entropy T*S    EENTRO =        -0.00000000
  eigenvalues    EBANDS =     -5211.24698000
  atomic energy  EATOM  =     37532.17946992
  Solvation  Ediel_sol  =         0.00000000
  ---------------------------------------------------
  free energy    TOTEN  =      -223.90053863 eV

  energy without entropy =     -223.90053863  energy(sigma->0) =     -223.90053863


--------------------------------------------------------------------------------------------------------




--------------------------------------- Iteration      1(  22)  ---------------------------------------


    POTLOK:  cpu time      0.0376: real time      0.0378
    SETDIJ:  cpu time      0.0319: real time      0.0322
[...]
         0         1         2         3         4         5         6         7         8         9
 total charge-density along one line
 
 pseudopotential strength for first ion, spin component:           1
-25.389  -0.000  -0.000   2.511   0.000   0.000   0.000   0.000
 -0.000 -25.389   0.000   0.000   2.511  -0.000   0.000   0.000
 -0.000   0.000 -25.389   0.000  -0.000   2.511  -0.000  -0.001
  2.511   0.000   0.000   6.528  -0.000  -0.000  -0.000   0.000
  0.000   2.511  -0.000  -0.000   6.528   0.000  -0.000   0.000
  0.000  -0.000   2.511  -0.000   0.000   6.528   0.000  -0.000
  0.000   0.000  -0.000  -0.000  -0.000   0.000   1.428   6.993
  0.000   0.000  -0.001   0.000   0.000  -0.000   6.993  33.989
 total augmentation occupancy for first ion, spin component:           1
  2.002   0.000   0.000   0.002   0.000   0.000  -0.000   0.000
  0.000   2.002  -0.000   0.000   0.002  -0.000  -0.000   0.000
  0.000  -0.000   2.002   0.000  -0.000   0.002   0.001  -0.000
  0.002   0.000   0.000   0.017   0.000   0.000  -0.000  -0.000
  0.000   0.002  -0.000   0.000   0.017   0.000  -0.000   0.000
  0.000  -0.000   0.002   0.000   0.000   0.017   0.000  -0.000
 -0.000  -0.000   0.001  -0.000  -0.000   0.000   0.403  -0.001
  0.000   0.000  -0.000  -0.000   0.000  -0.000  -0.001   0.000


------------------------ aborting loop because EDIFF is reached ----------------------------------------


    CHARGE:  cpu time      0.3382: real time      0.3408
    FORLOC:  cpu time      0.0112: real time      0.0112
    FORNL :  cpu time      2.2743: real time      2.2887
    STRESS:  cpu time     12.9509: real time     13.0241
    FORCOR:  cpu time      0.0431: real time      0.0433
    FORHAR:  cpu time      0.0172: real time      0.0172
    MIXING:  cpu time      0.0013: real time      0.0013
    OFIELD:  cpu time      0.0000: real time      0.0000

  FORCE on cell =-STRESS in cart. coord.  units (eV):
  Direction    XX          YY          ZZ          XY          YZ          ZX
  --------------------------------------------------------------------------------------
  Alpha Z   751.52672   751.52672   751.52672
  Ewald   -7623.60707 -7623.95106 -7623.92690     0.00718     0.00000     0.00000
  Hartree  3026.13885  3026.00225  3026.02013     0.00921    -0.00000    -0.00000
  E(xc)   -2014.34807 -2014.34822 -2014.34820    -0.00002     0.00000     0.00000
  Local   -2025.18839 -2024.71646 -2024.75920    -0.01607     0.00000    -0.00000
  n-local  1887.63128  1887.62056  1887.62049    -0.00001     0.00000     0.00000
  augment   687.00927   687.00947   687.00909    -0.00006    -0.00010    -0.00010
  Kinetic  5310.52581  5310.52446  5310.52590    -0.00032     0.00000     0.00000
  Fock        0.00000     0.00000     0.00000     0.00000     0.00000     0.00000
  -------------------------------------------------------------------------------------
  Total      -0.31160    -0.33229    -0.33197    -0.00009     0.00000     0.00000
  in kB      -0.35497    -0.37853    -0.37817    -0.00010     0.00000     0.00000
  external pressure =       -0.37 kB  Pullay stress =        0.00 kB


 VOLUME and BASIS-vectors are now :
 -----------------------------------------------------------------------------
  energy-cutoff  :      341.21
  volume of cell :     1406.43
      direct lattice vectors                 reciprocal lattice vectors
    11.204002360  0.000000000  0.000000000     0.089253819  0.000000000  0.000000000
     0.000000000 11.204002360  0.000000000     0.000000000  0.089253819  0.000000000
     0.000000000  0.000000000 11.204002360     0.000000000  0.000000000  0.089253819

  length of vectors
    11.204002360 11.204002360 11.204002360     0.089253819  0.089253819  0.089253819


 FORCES acting on ions
    electron-ion (+dipol)            ewald-force                    non-local-force                 convergence-correction
 -----------------------------------------------------------------------------------------------
   0.896E+00 -.166E+00 -.182E+00   -.854E+00 0.159E+00 0.174E+00   -.371E-01 0.600E-02 0.685E-02   0.767E-05 -.206E-05 -.199E-05
   0.899E+00 -.168E+00 0.152E+00   -.857E+00 0.161E+00 -.145E+00   -.372E-01 0.611E-02 -.526E-02   0.641E-05 -.183E-05 0.221E-05
   -.122E+01 -.157E-01 0.849E-06   0.114E+01 0.153E-01 0.142E-13   0.106E+00 0.505E-03 0.830E-23   0.628E-05 0.303E-06 0.176E-12
   -.116E+01 0.157E-01 0.846E-06   0.108E+01 -.153E-01 -.711E-14   0.101E+00 -.516E-03 0.123E-22   0.797E-05 -.175E-06 0.174E-12
   0.896E+00 -.166E+00 0.182E+00   -.854E+00 0.159E+00 -.174E+00   -.371E-01 0.600E-02 -.685E-02   0.767E-05 -.206E-05 0.199E-05
   0.899E+00 -.168E+00 -.152E+00   -.857E+00 0.161E+00 0.145E+00   -.372E-01 0.611E-02 0.526E-02   0.641E-05 -.183E-05 -.221E-05
   0.977E-01 -.385E-03 -.529E-08   -.932E-01 0.398E-03 0.888E-15   -.367E-02 -.107E-04 0.483E-25   0.343E-05 -.189E-06 -.183E-13
   0.952E-01 0.385E-03 -.529E-08   -.909E-01 -.398E-03 -.178E-14   -.358E-02 0.107E-04 0.948E-26   0.434E-05 0.147E-06 -.328E-13
   0.474E-01 0.166E+00 -.167E+00   -.448E-01 -.159E+00 0.159E+00   -.221E-02 -.602E-02 0.604E-02   0.336E-05 0.201E-05 -.247E-05
   0.507E-01 0.168E+00 0.168E+00   -.480E-01 -.161E+00 -.160E+00   -.234E-02 -.609E-02 -.607E-02   0.314E-05 0.161E-05 0.189E-05
   0.946E+00 0.161E-01 -.453E-09   -.902E+00 -.153E-01 0.142E-13   -.386E-01 -.916E-03 -.238E-25   0.831E-05 -.347E-06 0.169E-12
   0.943E+00 -.161E-01 -.498E-09   -.900E+00 0.153E-01 0.711E-14   -.384E-01 0.915E-03 0.175E-24   0.836E-05 0.211E-06 0.169E-12
   0.474E-01 0.166E+00 0.167E+00   -.448E-01 -.159E+00 -.159E+00   -.221E-02 -.602E-02 -.604E-02   0.336E-05 0.201E-05 0.247E-05
   0.507E-01 0.168E+00 -.168E+00   -.480E-01 -.161E+00 0.160E+00   -.234E-02 -.609E-02 0.607E-02   0.314E-05 0.161E-05 -.189E-05
   0.111E+00 0.382E-03 -.322E-11   -.108E+00 -.398E-03 0.178E-14   -.275E-02 0.137E-04 -.200E-25   0.281E-05 0.103E-07 -.143E-13
   0.110E+00 -.382E-03 -.936E-12   -.107E+00 0.398E-03 0.178E-14   -.271E-02 -.135E-04 -.926E-27   0.298E-05 0.290E-07 -.309E-13
   -.362E+00 0.168E+00 0.170E+00   0.343E+00 -.161E+00 -.162E+00   0.160E-01 -.608E-02 -.609E-02   -.638E-05 0.157E-05 0.197E-05
   -.365E+00 0.166E+00 -.165E+00   0.346E+00 -.159E+00 0.157E+00   0.161E-01 -.603E-02 0.602E-02   -.735E-05 0.226E-05 -.223E-05
   -.242E+01 0.157E-02 0.846E-06   0.228E+01 -.158E-02 0.142E-13   0.154E+00 0.574E-05 0.872E-23   -.659E-05 0.662E-07 0.191E-12
   -.248E+01 -.157E-02 0.849E-06   0.234E+01 0.158E-02 0.711E-14   0.159E+00 -.684E-05 -.873E-23   -.443E-05 0.124E-06 0.164E-12
   -.362E+00 0.168E+00 -.170E+00   0.343E+00 -.161E+00 0.162E+00   0.160E-01 -.608E-02 0.609E-02   -.638E-05 0.157E-05 -.197E-05
   -.365E+00 0.166E+00 0.165E+00   0.346E+00 -.159E+00 -.157E+00   0.161E-01 -.603E-02 -.602E-02   -.735E-05 0.226E-05 0.223E-05
   -.115E+00 0.295E-03 -.529E-08   0.112E+00 -.274E-03 0.178E-14   0.211E-02 -.174E-04 0.190E-25   -.452E-05 -.246E-06 -.231E-13
   -.112E+00 -.295E-03 -.529E-08   0.110E+00 0.274E-03 -.533E-14   0.202E-02 0.177E-04 0.202E-25   -.379E-05 -.230E-06 -.202E-13
   -.159E+00 -.168E+00 0.168E+00   0.155E+00 0.161E+00 -.161E+00   0.335E-02 0.608E-02 -.609E-02   -.268E-05 -.153E-05 0.197E-05
   -.162E+00 -.166E+00 -.166E+00   0.158E+00 0.159E+00 0.159E+00   0.347E-02 0.603E-02 0.602E-02   -.392E-05 -.232E-05 -.217E-05
   -.317E+00 -.159E-02 -.488E-09   0.300E+00 0.158E-02 0.142E-13   0.147E-01 0.105E-04 0.114E-26   -.855E-05 0.333E-06 0.170E-12
   -.315E+00 0.159E-02 -.487E-09   0.297E+00 -.158E-02 0.711E-14   0.146E-01 -.108E-04 0.768E-25   -.743E-05 -.486E-07 0.162E-12
   -.159E+00 -.168E+00 -.168E+00   0.155E+00 0.161E+00 0.161E+00   0.335E-02 0.608E-02 0.609E-02   -.268E-05 -.153E-05 -.197E-05
   -.162E+00 -.166E+00 0.166E+00   0.158E+00 0.159E+00 -.159E+00   0.347E-02 0.603E-02 -.602E-02   -.392E-05 -.232E-05 0.217E-05
   -.998E-01 -.295E-03 -.590E-11   0.962E-01 0.274E-03 0.000E+00   0.297E-02 0.175E-04 0.203E-24   -.269E-05 0.453E-07 -.235E-13
   -.987E-01 0.295E-03 0.115E-11   0.951E-01 -.274E-03 -.533E-14   0.293E-02 -.173E-04 -.129E-26   -.260E-05 -.338E-06 -.108E-13
   0.376E+01 -.478E+00 -.377E-05   -.372E+01 0.470E+00 0.266E-14   -.112E+00 0.137E-01 0.241E-22   0.756E-05 -.183E-05 0.175E-12
   0.377E+01 -.487E+00 -.377E-05   -.373E+01 0.479E+00 0.000E+00   -.112E+00 0.141E-01 -.172E-22   0.913E-05 -.175E-05 0.181E-12
   0.560E-01 0.262E-02 -.481E+00   -.578E-01 -.259E-02 0.473E+00   0.332E-02 -.512E-04 0.138E-01   0.383E-05 -.760E-07 -.139E-05
   0.593E-01 -.262E-02 0.484E+00   -.612E-01 0.259E-02 -.476E+00   0.342E-02 0.496E-04 -.140E-01   0.367E-05 -.272E-06 0.198E-05
   0.159E+00 -.401E-01 -.788E-09   -.156E+00 0.392E-01 -.169E-13   -.404E-02 0.145E-02 0.195E-24   0.303E-05 -.239E-05 -.540E-15
   0.157E+00 -.399E-01 -.788E-09   -.155E+00 0.391E-01 -.124E-13   -.400E-02 0.142E-02 0.362E-24   0.410E-05 -.206E-05 -.939E-14
   0.560E-01 0.262E-02 0.481E+00   -.578E-01 -.259E-02 -.473E+00   0.332E-02 -.512E-04 -.138E-01   0.383E-05 -.760E-07 0.139E-05
   0.593E-01 -.262E-02 -.484E+00   -.612E-01 0.259E-02 0.476E+00   0.342E-02 0.496E-04 0.140E-01   0.367E-05 -.272E-06 -.198E-05
   -.866E-01 0.487E+00 0.102E-09   0.836E-01 -.479E+00 -.133E-13   0.536E-02 -.140E-01 -.330E-24   0.372E-05 0.165E-05 0.171E-12
   -.900E-01 0.478E+00 0.736E-10   0.870E-01 -.470E+00 -.107E-13   0.532E-02 -.137E-01 0.762E-25   0.392E-05 0.178E-05 0.179E-12
   0.303E+00 -.264E-02 -.426E-01   -.299E+00 0.259E-02 0.416E-01   -.597E-02 0.773E-04 0.152E-02   0.418E-05 0.901E-07 -.187E-05
   0.305E+00 0.264E-02 0.374E-01   -.301E+00 -.259E-02 -.366E-01   -.602E-02 -.778E-04 -.136E-02   0.304E-05 0.327E-06 0.237E-05
   0.612E-01 0.401E-01 0.521E-11   -.603E-01 -.392E-01 -.151E-13   -.145E-02 -.145E-02 0.436E-25   -.934E-06 0.226E-05 0.498E-15
   0.595E-01 0.399E-01 0.536E-11   -.586E-01 -.391E-01 -.107E-13   -.140E-02 -.142E-02 0.563E-24   -.182E-06 0.220E-05 -.124E-13
   0.303E+00 -.264E-02 0.426E-01   -.299E+00 0.259E-02 -.416E-01   -.597E-02 0.773E-04 -.152E-02   0.418E-05 0.901E-07 0.187E-05
   0.305E+00 0.264E-02 -.374E-01   -.301E+00 -.259E-02 0.366E-01   -.602E-02 -.778E-04 0.136E-02   0.304E-05 0.327E-06 -.237E-05
   -.777E+00 0.478E+00 0.852E-06   0.766E+00 -.470E+00 -.107E-13   0.188E-01 -.137E-01 -.813E-25   -.752E-05 0.163E-05 0.183E-12
   -.774E+00 0.487E+00 0.852E-06   0.763E+00 -.479E+00 -.124E-13   0.189E-01 -.140E-01 0.621E-24   -.737E-05 0.229E-05 0.169E-12
   -.428E+00 -.784E-03 0.488E+00   0.420E+00 0.777E-03 -.479E+00   0.132E-01 0.104E-04 -.140E-01   -.327E-05 -.134E-06 0.270E-05
   -.431E+00 0.783E-03 -.477E+00   0.424E+00 -.777E-03 0.469E+00   0.131E-01 -.966E-05 0.137E-01   -.406E-05 0.176E-06 -.159E-05
   -.140E+00 0.399E-01 -.791E-09   0.137E+00 -.391E-01 -.107E-13   0.487E-02 -.143E-02 -.808E-24   -.376E-05 0.189E-05 -.789E-14
   -.138E+00 0.401E-01 -.782E-09   0.135E+00 -.392E-01 -.178E-14   0.483E-02 -.145E-02 0.290E-25   -.330E-05 0.166E-05 0.153E-14
   -.428E+00 -.784E-03 -.488E+00   0.420E+00 0.777E-03 0.479E+00   0.132E-01 0.104E-04 0.140E-01   -.327E-05 -.134E-06 -.270E-05
   -.431E+00 0.783E-03 0.477E+00   0.424E+00 -.777E-03 -.469E+00   0.131E-01 -.966E-05 -.137E-01   -.406E-05 0.176E-06 0.159E-05
   -.387E+00 -.478E+00 0.102E-09   0.379E+00 0.470E+00 -.107E-13   0.142E-01 0.137E-01 0.542E-25   -.421E-05 -.173E-05 0.178E-12
   -.384E+00 -.487E+00 0.102E-09   0.375E+00 0.479E+00 -.107E-13   0.143E-01 0.140E-01 0.704E-24   -.447E-05 -.195E-05 0.164E-12
   -.183E+00 0.783E-03 0.408E-01   0.180E+00 -.777E-03 -.400E-01   0.379E-02 -.108E-04 -.146E-02   -.329E-05 0.310E-06 0.212E-05
   -.184E+00 -.783E-03 -.391E-01   0.182E+00 0.777E-03 0.383E-01   0.384E-02 0.107E-04 0.142E-02   -.364E-05 -.290E-06 -.187E-05
   -.726E-01 -.399E-01 0.133E-11   0.718E-01 0.391E-01 -.355E-14   0.127E-02 0.143E-02 -.238E-24   0.333E-06 -.181E-05 -.161E-14
   -.709E-01 -.401E-01 0.763E-11   0.701E-01 0.392E-01 -.355E-14   0.122E-02 0.145E-02 -.373E-24   0.901E-06 -.163E-05 -.143E-14
   -.183E+00 0.783E-03 -.408E-01   0.180E+00 -.777E-03 0.400E-01   0.379E-02 -.108E-04 0.146E-02   -.329E-05 0.310E-06 -.212E-05
   -.184E+00 -.783E-03 0.391E-01   0.182E+00 0.777E-03 -.383E-01   0.384E-02 0.107E-04 -.142E-02   -.364E-05 -.290E-06 0.187E-05
 -----------------------------------------------------------------------------------------------
   -.300E+00 0.150E-04 -.252E-05   0.666E-13 0.118E-13 -.444E-13   0.300E+00 -.139E-04 -.173E-17   0.627E-05 -.435E-06 -.139E-11
 
 
 POSITION                                       TOTAL-FORCE (eV/Angst)
 -----------------------------------------------------------------------------------
      0.00000      0.00000      0.00000         0.004775     -0.001282     -0.001203
      2.80100      2.80100      0.00000         0.004799     -0.001307      0.001386
      2.80100      0.00000      2.80100         0.025283      0.000115      0.000000
      0.00000      2.80100      2.80100         0.021224     -0.000115      0.000000
      0.00000      0.00000      5.60200         0.004775     -0.001282      0.001203
      2.80100      2.80100      5.60200         0.004799     -0.001307     -0.001386
      2.80100      0.00000      8.40300         0.000775      0.000002      0.000000
      0.00000      2.80100      8.40300         0.000758     -0.000002      0.000000
      0.00000      5.60200      0.00000         0.000369      0.001288     -0.001291
      2.80100      8.40300      0.00000         0.000396      0.001301      0.001297
      2.80100      5.60200      2.80100         0.005187     -0.000077      0.000000
      0.00000      8.40300      2.80100         0.005153      0.000076      0.000000
      0.00000      5.60200      5.60200         0.000369      0.001288      0.001291
      2.80100      8.40300      5.60200         0.000396      0.001301     -0.001297
      2.80100      5.60200      8.40300         0.000613     -0.000003      0.000000
      0.00000      8.40300      8.40300         0.000603      0.000003      0.000000
      5.60200      0.00000      0.00000        -0.003048      0.001300      0.001302
      8.40300      2.80100      0.00000        -0.003069      0.001289     -0.001287
      8.40300      0.00000      2.80100         0.013370      0.000002      0.000000
      5.60200      2.80100      2.80100         0.017443     -0.000002      0.000000
      5.60200      0.00000      5.60200        -0.003048      0.001300     -0.001302
      8.40300      2.80100      5.60200        -0.003069      0.001289      0.001287
      8.40300      0.00000      8.40300        -0.000518      0.000004      0.000000
      5.60200      2.80100      8.40300        -0.000501     -0.000004      0.000000
      5.60200      5.60200      0.00000        -0.000881     -0.001300      0.001302
      8.40300      8.40300      0.00000        -0.000907     -0.001289     -0.001286
      8.40300      5.60200      2.80100        -0.002686     -0.000003      0.000000
      5.60200      8.40300      2.80100        -0.002663      0.000004      0.000000
      5.60200      5.60200      5.60200        -0.000881     -0.001300     -0.001302
      8.40300      8.40300      5.60200        -0.000907     -0.001289      0.001286
      8.40300      5.60200      8.40300        -0.000673     -0.000004      0.000000
      5.60200      8.40300      8.40300        -0.000664      0.000004      0.000000
      2.83100      2.80100      2.80100        -0.072187      0.005703      0.000000
      0.03000      0.00000      2.80100        -0.072131      0.005915      0.000000
      0.00000      2.80100      0.00000         0.001520     -0.000021      0.005754
      2.80100      0.00000      0.00000         0.001584      0.000022     -0.005864
      2.80100      2.80100      8.40300        -0.001601      0.000578      0.000000
      0.00000      0.00000      8.40300        -0.001586      0.000566      0.000000
      0.00000      2.80100      5.60200         0.001520     -0.000021     -0.005754
      2.80100      0.00000      5.60200         0.001584      0.000022      0.005864
      2.80100      8.40300      2.80100         0.002359     -0.005882      0.000000
      0.00000      5.60200      2.80100         0.002320     -0.005736      0.000000
      0.00000      8.40300      0.00000        -0.002373      0.000033      0.000605
      2.80100      5.60200      0.00000        -0.002392     -0.000032     -0.000539
      2.80100      8.40300      8.40300        -0.000573     -0.000578      0.000000
      0.00000      5.60200      8.40300        -0.000556     -0.000565      0.000000
      0.00000      8.40300      5.60200        -0.002373      0.000033     -0.000605
      2.80100      5.60200      5.60200        -0.002392     -0.000032      0.000539
      8.40300      2.80100      2.80100         0.007704     -0.005736      0.000000
      5.60200      0.00000      2.80100         0.007761     -0.005883      0.000000
      5.60200      2.80100      0.00000         0.005464      0.000004     -0.005888
      8.40300      0.00000      0.00000         0.005408     -0.000004      0.005730
      8.40300      2.80100      8.40300         0.001922     -0.000568      0.000000
      5.60200      0.00000      8.40300         0.001906     -0.000576      0.000000
      5.60200      2.80100      5.60200         0.005464      0.000004      0.005888
      8.40300      0.00000      5.60200         0.005408     -0.000004     -0.005730
      8.40300      8.40300      2.80100         0.005821      0.005729      0.000000
      5.60200      5.60200      2.80100         0.005877      0.005888      0.000000
      5.60200      8.40300      0.00000         0.001492     -0.000005     -0.000579
      8.40300      5.60200      0.00000         0.001510      0.000005      0.000565
      8.40300      8.40300      8.40300         0.000491      0.000567      0.000000
      5.60200      5.60200      8.40300         0.000473      0.000577      0.000000
      5.60200      8.40300      5.60200         0.001492     -0.000005      0.000579
      8.40300      5.60200      5.60200         0.001510      0.000005     -0.000565
 -----------------------------------------------------------------------------------
    total drift:                                0.000398      0.000001     -0.000003


--------------------------------------------------------------------------------------------------------



  FREE ENERGIE OF THE ION-ELECTRON SYSTEM (eV)
  ---------------------------------------------------
  free  energy   TOTEN  =      -223.90053864 eV

  energy  without entropy=     -223.90053864  energy(sigma->0) =     -223.90053864
 


--------------------------------------------------------------------------------------------------------


    POTLOK:  cpu time      0.0685: real time      0.0689


--------------------------------------------------------------------------------------------------------


     LOOP+:  cpu time    262.2611: real time    263.8267
    4ORBIT:  cpu time      0.0000: real time      0.0000

 total amount of memory used by VASP MPI-rank0   129658. kBytes
=======================================================================

   base      :      30000. kBytes
   nonl-proj :      41680. kBytes
   fftplans  :      14405. kBytes
   grid      :      19342. kBytes
   one-center:        196. kBytes
   wavefun   :      24035. kBytes
 
  
  
 General timing and accounting informations for this job:
 ========================================================
  
                  Total CPU time used (sec):      266.648
                            User time (sec):      266.002
                          System time (sec):        0.645
                         Elapsed time (sec):      268.649
  
                   Maximum memory used (kb):      322240.
                   Average memory used (kb):          N/A
  
                          Minor page faults:       126043
                          Major page faults:            0
                 Voluntary context switches:          895
