<?xml version="1.0" encoding="ISO-8859-1"?>
<modeling>
 <generator>
  <i name="program" type="string">vasp </i>
  <i name="version" type="string">6.3.2  </i>
  <i name="subversion" type="string">27Jun22 (build Oct 14 2022 12:13:54) complex                          parallel </i>
  <i name="platform" type="string">LinuxIFC </i>
  <i name="date" type="string">2025 08 28 </i>
  <i name="time" type="string">22:09:01 </i>
 </generator>
 <incar>
  <i type="string" name="PREC">Accurate</i>
  <i type="int" name="IALGO">    38</i>
  <i type="logical" name="ADDGRID"> T  </i>
  <i type="int" name="NELMIN">     5</i>
  <i type="int" name="IBRION">    -1</i>
  <i name="EDIFF">      0.00000001</i>
  <i name="ENCUT">    341.21360000</i>
  <i type="logical" name="LREAL"> F  </i>
  <i type="int" name="ISMEAR">     0</i>
  <i name="SIGMA">      0.02000000</i>
  <i type="logical" name="LWAVE"> F  </i>
  <i type="logical" name="LCHARG"> F  </i>
  <i type="string" name="GGA">PS</i>
 </incar>
 <primitive_cell>
  <structure name="primitive_cell" >
   <crystal>
    <varray name="basis" >
     <v>      11.20400236       0.00000000       0.00000000 </v>
     <v>       0.00000000      11.20400236       0.00000000 </v>
     <v>       0.00000000       0.00000000      11.20400236 </v>
    </varray>
    <i name="volume">   1406.43470641 </i>
    <varray name="rec_basis" >
     <v>       0.08925382       0.00000000       0.00000000 </v>
     <v>       0.00000000       0.08925382       0.00000000 </v>
     <v>       0.00000000       0.00000000       0.08925382 </v>
    </varray>
   </crystal>
   <varray name="positions" >
    <v>       0.00000000       0.00000000       0.00000000 </v>
    <v>       0.25000000       0.25000000       0.00000000 </v>
    <v>       0.25000000       0.00000000       0.25000000 </v>
    <v>       0.00000000       0.25000000       0.25000000 </v>
    <v>       0.00000000       0.00000000       0.50000000 </v>
    <v>       0.25000000       0.25000000       0.50000000 </v>
    <v>       0.25000000       0.00000000       0.75000000 </v>
    <v>       0.00000000       0.25000000       0.75000000 </v>
    <v>       0.00000000       0.50000000       0.00000000 </v>
    <v>       0.25000000       0.75000000       0.00000000 </v>
    <v>       0.25000000       0.50000000       0.25000000 </v>
    <v>       0.00000000       0.75000000       0.25000000 </v>
    <v>       0.00000000       0.50000000       0.50000000 </v>
    <v>       0.25000000       0.75000000       0.50000000 </v>
    <v>       0.25000000       0.50000000       0.75000000 </v>
    <v>       0.00000000       0.75000000       0.75000000 </v>
    <v>       0.50000000       0.00000000       0.00000000 </v>
    <v>       0.75000000       0.25000000       0.00000000 </v>
    <v>       0.75000000       0.00000000       0.25000000 </v>
    <v>       0.50000000       0.25000000       0.25000000 </v>
    <v>       0.50000000       0.00000000       0.50000000 </v>
    <v>       0.75000000       0.25000000       0.50000000 </v>
    <v>       0.75000000       0.00000000       0.75000000 </v>
    <v>       0.50000000       0.25000000       0.75000000 </v>
    <v>       0.50000000       0.50000000       0.00000000 </v>
    <v>       0.75000000       0.75000000       0.00000000 </v>
    <v>       0.75000000       0.50000000       0.25000000 </v>
    <v>       0.50000000       0.75000000       0.25000000 </v>
    <v>       0.50000000       0.50000000       0.50000000 </v>
    <v>       0.75000000       0.75000000       0.50000000 </v>
    <v>       0.75000000       0.50000000       0.75000000 </v>
    <v>       0.50000000       0.75000000       0.75000000 </v>
    <v>       0.25267761       0.25000000       0.25000000 </v>
    <v>       0.00267761       0.00000000       0.25000000 </v>
    <v>       0.00000000       0.25000000       0.00000000 </v>
    <v>       0.25000000       0.00000000       0.00000000 </v>
    <v>       0.25000000       0.25000000       0.75000000 </v>
    <v>       0.00000000       0.00000000       0.75000000 </v>
    <v>       0.00000000       0.25000000       0.50000000 </v>
    <v>       0.25000000       0.00000000       0.50000000 </v>
    <v>       0.25000000       0.75000000       0.25000000 </v>
    <v>       0.00000000       0.50000000       0.25000000 </v>
    <v>       0.00000000       0.75000000       0.00000000 </v>
    <v>       0.25000000       0.50000000       0.00000000 </v>
    <v>       0.25000000       0.75000000       0.75000000 </v>
    <v>       0.00000000       0.50000000       0.75000000 </v>
    <v>       0.00000000       0.75000000       0.50000000 </v>
    <v>       0.25000000       0.50000000       0.50000000 </v>
    <v>       0.75000000       0.25000000       0.25000000 </v>
    <v>       0.50000000       0.00000000       0.25000000 </v>
    <v>       0.50000000       0.25000000       0.00000000 </v>
    <v>       0.75000000       0.00000000       0.00000000 </v>
    <v>       0.75000000       0.25000000       0.75000000 </v>
    <v>       0.50000000       0.00000000       0.75000000 </v>
    <v>       0.50000000       0.25000000       0.50000000 </v>
    <v>       0.75000000       0.00000000       0.50000000 </v>
    <v>       0.75000000       0.75000000       0.25000000 </v>
    <v>       0.50000000       0.50000000       0.25000000 </v>
    <v>       0.50000000       0.75000000       0.00000000 </v>
    <v>       0.75000000       0.50000000       0.00000000 </v>
    <v>       0.75000000       0.75000000       0.75000000 </v>
    <v>       0.50000000       0.50000000       0.75000000 </v>
    <v>       0.50000000       0.75000000       0.50000000 </v>
    <v>       0.75000000       0.50000000       0.50000000 </v>
   </varray>
  </structure>
  <varray name="primitive_index" >
   <v type="int" >        1 </v>
   <v type="int" >        2 </v>
   <v type="int" >        3 </v>
   <v type="int" >        4 </v>
   <v type="int" >        5 </v>
   <v type="int" >        6 </v>
   <v type="int" >        7 </v>
   <v type="int" >        8 </v>
   <v type="int" >        9 </v>
   <v type="int" >       10 </v>
   <v type="int" >       11 </v>
   <v type="int" >       12 </v>
   <v type="int" >       13 </v>
   <v type="int" >       14 </v>
   <v type="int" >       15 </v>
   <v type="int" >       16 </v>
   <v type="int" >       17 </v>
   <v type="int" >       18 </v>
   <v type="int" >       19 </v>
   <v type="int" >       20 </v>
   <v type="int" >       21 </v>
   <v type="int" >       22 </v>
   <v type="int" >       23 </v>
   <v type="int" >       24 </v>
   <v type="int" >       25 </v>
   <v type="int" >       26 </v>
   <v type="int" >       27 </v>
   <v type="int" >       28 </v>
   <v type="int" >       29 </v>
   <v type="int" >       30 </v>
   <v type="int" >       31 </v>
   <v type="int" >       32 </v>
   <v type="int" >       33 </v>
   <v type="int" >       34 </v>
   <v type="int" >       35 </v>
   <v type="int" >       36 </v>
   <v type="int" >       37 </v>
   <v type="int" >       38 </v>
   <v type="int" >       39 </v>
   <v type="int" >       40 </v>
   <v type="int" >       41 </v>
   <v type="int" >       42 </v>
   <v type="int" >       43 </v>
   <v type="int" >       44 </v>
   <v type="int" >       45 </v>
   <v type="int" >       46 </v>
   <v type="int" >       47 </v>
   <v type="int" >       48 </v>
   <v type="int" >       49 </v>
   <v type="int" >       50 </v>
   <v type="int" >       51 </v>
   <v type="int" >       52 </v>
   <v type="int" >       53 </v>
   <v type="int" >       54 </v>
   <v type="int" >       55 </v>
   <v type="int" >       56 </v>
   <v type="int" >       57 </v>
   <v type="int" >       58 </v>
   <v type="int" >       59 </v>
   <v type="int" >       60 </v>
   <v type="int" >       61 </v>
   <v type="int" >       62 </v>
   <v type="int" >       63 </v>
   <v type="int" >       64 </v>
  </varray>
 </primitive_cell>
 <kpoints>
  <generation param="Gamma">
   <v type="int" name="divisions">       2        2        2 </v>
   <v name="usershift">      0.00000000       0.00000000       0.00000000 </v>
   <v name="genvec1">      0.50000000       0.00000000       0.00000000 </v>
   <v name="genvec2">      0.00000000       0.50000000       0.00000000 </v>
   <v name="genvec3">      0.00000000       0.00000000       0.50000000 </v>
   <v name="shift">      0.00000000       0.00000000       0.00000000 </v>
  </generation>
  <varray name="kpointlist" >
   <v>       0.00000000       0.00000000       0.00000000 </v>
   <v>       0.50000000       0.00000000       0.00000000 </v>
   <v>       0.00000000       0.50000000       0.00000000 </v>
   <v>       0.00000000       0.00000000       0.50000000 </v>
   <v>       0.50000000       0.50000000       0.00000000 </v>
   <v>       0.00000000       0.50000000       0.50000000 </v>
   <v>       0.50000000       0.00000000       0.50000000 </v>
   <v>       0.50000000       0.50000000       0.50000000 </v>
  </varray>
  <varray name="weights" >
   <v>       0.12500000 </v>
   <v>       0.12500000 </v>
   <v>       0.12500000 </v>
   <v>       0.12500000 </v>
   <v>       0.12500000 </v>
   <v>       0.12500000 </v>
   <v>       0.12500000 </v>
   <v>       0.12500000 </v>
  </varray>
 </kpoints>
 <parameters>
  <separator name="general" >
   <i type="string" name="SYSTEM">unknown system</i>
   <i type="logical" name="LCOMPAT"> F  </i>
  </separator>
  <separator name="electronic" >
   <i type="string" name="PREC">accura</i>
   <i name="ENMAX">    341.21360000</i>
   <i name="ENAUG">    368.05600000</i>
   <i name="EDIFF">      0.00000001</i>
   <i type="int" name="IALGO">    38</i>
   <i type="int" name="IWAVPR">    10</i>
   <i type="int" name="NBANDS">   288</i>
   <i type="int" name="NBANDSLOW">    -1</i>
   <i type="int" name="NBANDSHIGH">    -1</i>
   <i name="NELECT">    448.00000000</i>
   <i type="int" name="TURBO">     0</i>
   <i type="int" name="IRESTART">     0</i>
   <i type="int" name="NREBOOT">     0</i>
   <i type="int" name="NMIN">     0</i>
   <i name="EREF">      0.00000000</i>
   <separator name="electronic smearing" >
    <i type="int" name="ISMEAR">     0</i>
    <i name="SIGMA">      0.02000000</i>
    <i name="KSPACING">      0.50000000</i>
    <i type="logical" name="KGAMMA"> T  </i>
    <i type="logical" name="KBLOWUP"> T  </i>
   </separator>
   <separator name="electronic projectors" >
    <i type="logical" name="LREAL"> F  </i>
    <v name="ROPT">      0.00000000      0.00000000</v>
    <i type="int" name="LMAXPAW">  -100</i>
    <i type="int" name="LMAXMIX">     2</i>
    <i type="logical" name="NLSPLINE"> F  </i>
   </separator>
   <separator name="electronic startup" >
    <i type="int" name="ISTART">     0</i>
    <i type="int" name="ICHARG">     2</i>
    <i type="int" name="INIWAV">     1</i>
   </separator>
   <separator name="electronic spin" >
    <i type="int" name="ISPIN">     1</i>
    <i type="logical" name="LNONCOLLINEAR"> F  </i>
    <v name="MAGMOM">      1.00000000      1.00000000      1.00000000      1.00000000      1.00000000      1.00000000      1.00000000      1.00000000      1.00000000      1.00000000      1.00000000      1.00000000      1.00000000      1.00000000      1.00000000      1.00000000      1.00000000      1.00000000      1.00000000      1.00000000
      1.00000000      1.00000000      1.00000000      1.00000000      1.00000000      1.00000000      1.00000000      1.00000000      1.00000000      1.00000000      1.00000000      1.00000000      1.00000000      1.00000000      1.00000000      1.00000000      1.00000000      1.00000000      1.00000000      1.00000000
      1.00000000      1.00000000      1.00000000      1.00000000      1.00000000      1.00000000      1.00000000      1.00000000      1.00000000      1.00000000      1.00000000      1.00000000      1.00000000      1.00000000      1.00000000      1.00000000      1.00000000      1.00000000      1.00000000      1.00000000
      1.00000000      1.00000000      1.00000000      1.00000000</v>
    <i name="NUPDOWN">     -1.00000000</i>
    <i type="logical" name="LSORBIT"> F  </i>
    <v name="SAXIS">      0.00000000      0.00000000      1.00000000</v>
    <i type="logical" name="LSPIRAL"> F  </i>
    <v name="QSPIRAL">      0.00000000      0.00000000      0.00000000</v>
    <i type="logical" name="LZEROZ"> F  </i>
   </separator>
   <separator name="electronic exchange-correlation" >
    <i type="logical" name="LASPH"> F  </i>
    <i type="logical" name="LMETAGGA"> F  </i>
   </separator>
   <separator name="electronic convergence" >
    <i type="int" name="NELM">    60</i>
    <i type="int" name="NELMDL">    -5</i>
    <i type="int" name="NELMIN">     5</i>
    <i name="ENINI">    341.21360000</i>
    <separator name="electronic convergence detail" >
     <i type="logical" name="LDIAG"> T  </i>
     <i type="logical" name="LSUBROT"> F  </i>
     <i name="WEIMIN">      0.00000000</i>
     <i name="EBREAK">      0.00000000</i>
     <i name="DEPER">      0.30000000</i>
     <i type="int" name="NRMM">     4</i>
     <i name="TIME">      0.40000000</i>
    </separator>
   </separator>
   <separator name="electronic mixer" >
    <i name="AMIX">      0.40000000</i>
    <i name="BMIX">      1.00000000</i>
    <i name="AMIN">      0.10000000</i>
    <i name="AMIX_MAG">      1.60000000</i>
    <i name="BMIX_MAG">      1.00000000</i>
    <separator name="electronic mixer details" >
     <i type="int" name="IMIX">     4</i>
     <i type="logical" name="MIXFIRST"> F  </i>
     <i type="int" name="MAXMIX">   -45</i>
     <i name="WC">    100.00000000</i>
     <i type="int" name="INIMIX">     1</i>
     <i type="int" name="MIXPRE">     1</i>
     <i type="int" name="MREMOVE">     5</i>
    </separator>
   </separator>
   <separator name="electronic dipolcorrection" >
    <i type="logical" name="LDIPOL"> F  </i>
    <i type="logical" name="LMONO"> F  </i>
    <i type="int" name="IDIPOL">     0</i>
    <i name="EPSILON">      1.00000000</i>
    <v name="DIPOL">   -100.00000000   -100.00000000   -100.00000000</v>
    <i name="EFIELD">      0.00000000</i>
   </separator>
  </separator>
  <separator name="grids" >
   <i type="int" name="NGX">    70</i>
   <i type="int" name="NGY">    70</i>
   <i type="int" name="NGZ">    70</i>
   <i type="int" name="NGXF">   140</i>
   <i type="int" name="NGYF">   140</i>
   <i type="int" name="NGZF">   140</i>
   <i type="logical" name="ADDGRID"> T  </i>
  </separator>
  <separator name="ionic" >
   <i type="int" name="NSW">     0</i>
   <i type="int" name="IBRION">    -1</i>
   <i type="int" name="MDALGO">     0</i>
   <i type="int" name="ISIF">     2</i>
   <i name="PSTRESS">      0.00000000</i>
   <i name="EDIFFG">      0.00000010</i>
   <i type="int" name="NFREE">     0</i>
   <i name="POTIM">      0.50000000</i>
   <i name="SMASS">     -3.00000000</i>
   <i name="SCALEE">      1.00000000</i>
  </separator>
  <separator name="ionic md" >
   <i name="TEBEG">      0.00010000</i>
   <i name="TEEND">      0.00010000</i>
   <i type="int" name="NBLOCK">     1</i>
   <i type="int" name="KBLOCK">     1</i>
   <i type="int" name="NPACO">   256</i>
   <i name="APACO">     10.00000000</i>
  </separator>
  <separator name="symmetry" >
   <i type="int" name="ISYM">     2</i>
   <i name="SYMPREC">      0.00001000</i>
  </separator>
  <separator name="dos" >
   <i type="int" name="LORBIT">     0</i>
   <v name="RWIGS">     -1.00000000     -1.00000000</v>
   <i type="int" name="NEDOS">   301</i>
   <i name="EMIN">     10.00000000</i>
   <i name="EMAX">    -10.00000000</i>
   <i name="EFERMI">      0.00000000</i>
  </separator>
  <separator name="writing" >
   <i type="int" name="NWRITE">     2</i>
   <i type="logical" name="LWAVE"> F  </i>
   <i type="logical" name="LDOWNSAMPLE"> F  </i>
   <i type="logical" name="LCHARG"> F  </i>
   <i type="logical" name="LPARD"> F  </i>
   <i type="logical" name="LVTOT"> F  </i>
   <i type="logical" name="LVHAR"> F  </i>
   <i type="logical" name="LELF"> F  </i>
   <i type="logical" name="LOPTICS"> F  </i>
   <v name="STM">      0.00000000      0.00000000      0.00000000      0.00000000      0.00000000      0.00000000      0.00000000</v>
  </separator>
  <separator name="performance" >
   <i type="int" name="NPAR">    32</i>
   <i type="int" name="NSIM">     4</i>
   <i type="int" name="NBLK">    -1</i>
   <i type="logical" name="LPLANE"> T  </i>
   <i type="logical" name="LSCALAPACK"> T  </i>
   <i type="logical" name="LSCAAWARE"> F  </i>
   <i type="logical" name="LSCALU"> F  </i>
   <i type="logical" name="LASYNC"> F  </i>
   <i type="logical" name="LORBITALREAL"> F  </i>
  </separator>
  <separator name="miscellaneous" >
   <i type="int" name="IDIOT">     3</i>
   <i type="int" name="PHON_NSTRUCT">    -1</i>
   <i type="logical" name="LMUSIC"> F  </i>
   <v name="POMASS">     22.99000000     35.45300000</v>
   <v name="DARWINR">      0.00000000      0.00000000</v>
   <v name="DARWINV">      1.00000000      1.00000000</v>
   <i type="logical" name="LCORR"> T  </i>
  </separator>
  <i type="logical" name="GGA_COMPAT"> T  </i>
  <i type="logical" name="LBERRY"> F  </i>
  <i type="int" name="ICORELEVEL">     0</i>
  <i type="logical" name="LDAU"> F  </i>
  <i type="int" name="I_CONSTRAINED_M">     0</i>
  <separator name="electronic exchange-correlation" >
   <i type="string" name="GGA">PS</i>
   <i type="int" name="VOSKOWN">     0</i>
   <i type="logical" name="LHFCALC"> F  </i>
   <i type="string" name="PRECFOCK"></i>
   <i type="logical" name="LSYMGRAD"> F  </i>
   <i type="logical" name="LHFONE"> F  </i>
   <i type="logical" name="LRHFCALC"> F  </i>
   <i type="logical" name="LTHOMAS"> F  </i>
   <i type="logical" name="LMODELHF"> F  </i>
   <i type="logical" name="LFOCKACE"> F  </i>
   <i name="ENCUT4O">     -1.00000000</i>
   <i type="int" name="EXXOEP">     0</i>
   <i type="int" name="FOURORBIT">     0</i>
   <i name="AEXX">      0.00000000</i>
   <i name="HFALPHA">      0.00000000</i>
   <i name="MCALPHA">      0.00000000</i>
   <i name="ALDAX">      1.00000000</i>
   <i name="AGGAX">      1.00000000</i>
   <i name="ALDAC">      1.00000000</i>
   <i name="AGGAC">      1.00000000</i>
   <i type="int" name="NKREDX">     1</i>
   <i type="int" name="NKREDY">     1</i>
   <i type="int" name="NKREDZ">     1</i>
   <i type="logical" name="SHIFTRED"> F  </i>
   <i type="logical" name="ODDONLY"> F  </i>
   <i type="logical" name="EVENONLY"> F  </i>
   <i type="int" name="LMAXFOCK">     0</i>
   <i type="int" name="NMAXFOCKAE">     0</i>
   <i type="logical" name="LFOCKAEDFT"> F  </i>
   <i name="HFSCREEN">      0.00000000</i>
   <i name="HFSCREENC">      0.00000000</i>
   <i type="int" name="NBANDSGWLOW">     0</i>
  </separator>
  <separator name="vdW DFT" >
   <i type="logical" name="LUSE_VDW"> F  </i>
   <i name="Zab_VDW">     -0.84910000</i>
   <i name="PARAM1">      0.12340000</i>
   <i name="PARAM2">      1.00000000</i>
   <i name="PARAM3">      0.00000000</i>
  </separator>
  <separator name="model GW" >
   <i type="int" name="MODEL_GW">     0</i>
   <i name="MODEL_EPS0">     13.18532537</i>
   <i name="MODEL_ALPHA">      1.00000000</i>
  </separator>
  <separator name="linear response parameters" >
   <i type="logical" name="LEPSILON"> F  </i>
   <i type="logical" name="LRPA"> F  </i>
   <i type="logical" name="LNABLA"> F  </i>
   <i type="logical" name="LVEL"> F  </i>
   <i name="CSHIFT">      0.10000000</i>
   <i name="OMEGAMAX">     -1.00000000</i>
   <i name="DEG_THRESHOLD">      0.00200000</i>
   <i name="RTIME">     -0.10000000</i>
   <i name="WPLASMAI">      0.00000000</i>
   <v name="DFIELD">      0.00000000      0.00000000      0.00000000</v>
   <v name="WPLASMA">      0.00000000      0.00000000      0.00000000      0.00000000      0.00000000      0.00000000      0.00000000      0.00000000      0.00000000</v>
  </separator>
  <separator name="orbital magnetization" >
   <i type="logical" name="NUCIND"> F  </i>
   <v name="MAGPOS">      0.00000000      0.00000000      0.00000000</v>
   <i type="logical" name="LNICSALL"> T  </i>
   <i type="logical" name="ORBITALMAG"> F  </i>
   <i type="logical" name="LMAGBLOCH"> F  </i>
   <i type="logical" name="LCHIMAG"> F  </i>
   <i type="logical" name="LGAUGE"> T  </i>
   <i type="int" name="MAGATOM">     0</i>
   <v name="MAGDIPOL">      0.00000000      0.00000000      0.00000000</v>
   <v name="AVECCONST">      0.00000000      0.00000000      0.00000000</v>
  </separator>
  <separator name="response functions" >
   <i type="logical" name="LFINITE_TEMPERATURE"> F  </i>
   <i type="logical" name="LADDER"> F  </i>
   <i type="logical" name="LRPAFORCE"> F  </i>
   <i type="logical" name="LFXC"> F  </i>
   <i type="logical" name="LHARTREE"> T  </i>
   <i type="int" name="IBSE">     0</i>
   <v type="int" name="KPOINT">    -1     0     0     0</v>
   <i type="logical" name="LTCTC"> F  </i>
   <i type="logical" name="LTCTE"> F  </i>
   <i type="logical" name="LTETE"> F  </i>
   <i type="logical" name="LTRIPLET"> F  </i>
   <i type="logical" name="LFXCEPS"> F  </i>
   <i type="logical" name="LFXHEG"> F  </i>
   <i type="int" name="NATURALO">     2</i>
   <i type="logical" name="LHOLEGF"> F  </i>
   <i type="logical" name="L2ORDER"> F  </i>
   <i type="logical" name="LDMP1"> F  </i>
   <i type="logical" name="LMP2LT"> F  </i>
   <i type="logical" name="LSMP2LT"> F  </i>
   <i type="logical" name="LGWLF"> F  </i>
   <i name="ENCUTGW">     -2.00000000</i>
   <i name="ENCUTGWSOFT">     -2.00000000</i>
   <i name="ENCUTLF">     -1.00000000</i>
   <i type="logical" name="LESF_SPLINES"> F  </i>
   <i type="int" name="LMAXMP2">    -1</i>
   <i name="SCISSOR">      0.00000000</i>
   <i type="int" name="NOMEGA">     0</i>
   <i type="int" name="NOMEGAR">     0</i>
   <i type="int" name="NBANDSGW">    -1</i>
   <i type="int" name="NBANDSO">    -1</i>
   <i type="int" name="NBANDSV">    -1</i>
   <i type="int" name="NELMGW">     1</i>
   <i type="int" name="NELMHF">     1</i>
   <i type="int" name="DIM">     3</i>
   <i type="int" name="IESPILON">     4</i>
   <i type="int" name="ANTIRES">     0</i>
   <i name="OMEGAMAX">    -30.00000000</i>
   <i name="OMEGAMIN">    -30.00000000</i>
   <i name="OMEGATL">   -200.00000000</i>
   <i type="int" name="OMEGAGRID">     0</i>
   <i name="CSHIFT">     -0.10000000</i>
   <i type="logical" name="LSELFENERGY"> F  </i>
   <i type="logical" name="LSPECTRAL"> F  </i>
   <i type="logical" name="LSPECTRALGW"> F  </i>
   <i type="logical" name="LSINGLES"> F  </i>
   <i type="logical" name="LFERMIGW"> F  </i>
   <i type="logical" name="ODDONLYGW"> F  </i>
   <i type="logical" name="EVENONLYGW"> F  </i>
   <i type="int" name="NKREDLFX">     1</i>
   <i type="int" name="NKREDLFY">     1</i>
   <i type="int" name="NKREDLFZ">     1</i>
   <i type="int" name="MAXMEM">  2800</i>
   <i type="int" name="TELESCOPE">     0</i>
   <i type="int" name="NTAUPAR">    -1</i>
   <i type="int" name="NOMEGAPAR">    -1</i>
   <i name="DAMP_NEWTON">      0.80000001</i>
   <i name="LAMBDA">      1.00000000</i>
  </separator>
  <separator name="External order field" >
   <i name="OFIELD_KAPPA">      0.00000000</i>
   <v name="OFIELD_K">      0.00000000      0.00000000      0.00000000</v>
   <i name="OFIELD_Q6_NEAR">      0.00000000</i>
   <i name="OFIELD_Q6_FAR">      0.00000000</i>
   <i name="OFIELD_A">      0.00000000</i>
  </separator>
  <separator name="optional k-points parameters" >
   <i type="int" name="KPOINTS_OPT_MODE">     1</i>
   <i type="logical" name="LKPOINTS_OPT"> F  </i>
  </separator>
 </parameters>
 <atominfo>
  <atoms>      64 </atoms>
  <types>       2 </types>
  <array name="atoms" >
   <dimension dim="1">ion</dimension>
   <field type="string">element</field>
   <field type="int">atomtype</field>
   <set>
    <rc><c>Na</c><c>   1</c></rc>
    <rc><c>Na</c><c>   1</c></rc>
    <rc><c>Na</c><c>   1</c></rc>
    <rc><c>Na</c><c>   1</c></rc>
    <rc><c>Na</c><c>   1</c></rc>
    <rc><c>Na</c><c>   1</c></rc>
    <rc><c>Na</c><c>   1</c></rc>
    <rc><c>Na</c><c>   1</c></rc>
    <rc><c>Na</c><c>   1</c></rc>
    <rc><c>Na</c><c>   1</c></rc>
    <rc><c>Na</c><c>   1</c></rc>
    <rc><c>Na</c><c>   1</c></rc>
    <rc><c>Na</c><c>   1</c></rc>
    <rc><c>Na</c><c>   1</c></rc>
    <rc><c>Na</c><c>   1</c></rc>
    <rc><c>Na</c><c>   1</c></rc>
    <rc><c>Na</c><c>   1</c></rc>
    <rc><c>Na</c><c>   1</c></rc>
    <rc><c>Na</c><c>   1</c></rc>
    <rc><c>Na</c><c>   1</c></rc>
    <rc><c>Na</c><c>   1</c></rc>
    <rc><c>Na</c><c>   1</c></rc>
    <rc><c>Na</c><c>   1</c></rc>
    <rc><c>Na</c><c>   1</c></rc>
    <rc><c>Na</c><c>   1</c></rc>
    <rc><c>Na</c><c>   1</c></rc>
    <rc><c>Na</c><c>   1</c></rc>
    <rc><c>Na</c><c>   1</c></rc>
    <rc><c>Na</c><c>   1</c></rc>
    <rc><c>Na</c><c>   1</c></rc>
    <rc><c>Na</c><c>   1</c></rc>
    <rc><c>Na</c><c>   1</c></rc>
    <rc><c>Cl</c><c>   2</c></rc>
    <rc><c>Cl</c><c>   2</c></rc>
    <rc><c>Cl</c><c>   2</c></rc>
    <rc><c>Cl</c><c>   2</c></rc>
    <rc><c>Cl</c><c>   2</c></rc>
    <rc><c>Cl</c><c>   2</c></rc>
    <rc><c>Cl</c><c>   2</c></rc>
    <rc><c>Cl</c><c>   2</c></rc>
    <rc><c>Cl</c><c>   2</c></rc>
    <rc><c>Cl</c><c>   2</c></rc>
    <rc><c>Cl</c><c>   2</c></rc>
    <rc><c>Cl</c><c>   2</c></rc>
    <rc><c>Cl</c><c>   2</c></rc>
    <rc><c>Cl</c><c>   2</c></rc>
    <rc><c>Cl</c><c>   2</c></rc>
    <rc><c>Cl</c><c>   2</c></rc>
    <rc><c>Cl</c><c>   2</c></rc>
    <rc><c>Cl</c><c>   2</c></rc>
    <rc><c>Cl</c><c>   2</c></rc>
    <rc><c>Cl</c><c>   2</c></rc>
    <rc><c>Cl</c><c>   2</c></rc>
    <rc><c>Cl</c><c>   2</c></rc>
    <rc><c>Cl</c><c>   2</c></rc>
    <rc><c>Cl</c><c>   2</c></rc>
    <rc><c>Cl</c><c>   2</c></rc>
    <rc><c>Cl</c><c>   2</c></rc>
    <rc><c>Cl</c><c>   2</c></rc>
    <rc><c>Cl</c><c>   2</c></rc>
    <rc><c>Cl</c><c>   2</c></rc>
    <rc><c>Cl</c><c>   2</c></rc>
    <rc><c>Cl</c><c>   2</c></rc>
    <rc><c>Cl</c><c>   2</c></rc>
   </set>
  </array>
  <array name="atomtypes" >
   <dimension dim="1">type</dimension>
   <field type="int">atomspertype</field>
   <field type="string">element</field>
   <field>mass</field>
   <field>valence</field>
   <field type="string">pseudopotential</field>
   <set>
    <rc><c>  32</c><c>Na</c><c>     22.99000000</c><c>      7.00000000</c><c>  PAW_PBE Na_pv 19Sep2006               </c></rc>
    <rc><c>  32</c><c>Cl</c><c>     35.45300000</c><c>      7.00000000</c><c>  PAW_PBE Cl 06Sep2000                  </c></rc>
   </set>
  </array>
 </atominfo>
 <structure name="initialpos" >
  <crystal>
   <varray name="basis" >
    <v>      11.20400236       0.00000000       0.00000000 </v>
    <v>       0.00000000      11.20400236       0.00000000 </v>
    <v>       0.00000000       0.00000000      11.20400236 </v>
   </varray>
   <i name="volume">   1406.43470641 </i>
   <varray name="rec_basis" >
    <v>       0.08925382       0.00000000       0.00000000 </v>
    <v>       0.00000000       0.08925382       0.00000000 </v>
    <v>       0.00000000       0.00000000       0.08925382 </v>
   </varray>
  </crystal>
  <varray name="positions" >
   <v>       0.00000000       0.00000000       0.00000000 </v>
   <v>       0.25000000       0.25000000       0.00000000 </v>
   <v>       0.25000000       0.00000000       0.25000000 </v>
   <v>       0.00000000       0.25000000       0.25000000 </v>
   <v>       0.00000000       0.00000000       0.50000000 </v>
   <v>       0.25000000       0.25000000       0.50000000 </v>
   <v>       0.25000000       0.00000000       0.75000000 </v>
   <v>       0.00000000       0.25000000       0.75000000 </v>
   <v>       0.00000000       0.50000000       0.00000000 </v>
   <v>       0.25000000       0.75000000       0.00000000 </v>
   <v>       0.25000000       0.50000000       0.25000000 </v>
   <v>       0.00000000       0.75000000       0.25000000 </v>
   <v>       0.00000000       0.50000000       0.50000000 </v>
   <v>       0.25000000       0.75000000       0.50000000 </v>
   <v>       0.25000000       0.50000000       0.75000000 </v>
   <v>       0.00000000       0.75000000       0.75000000 </v>
   <v>       0.50000000       0.00000000       0.00000000 </v>
   <v>       0.75000000       0.25000000       0.00000000 </v>
   <v>       0.75000000       0.00000000       0.25000000 </v>
   <v>       0.50000000       0.25000000       0.25000000 </v>
   <v>       0.50000000       0.00000000       0.50000000 </v>
   <v>       0.75000000       0.25000000       0.50000000 </v>
   <v>       0.75000000       0.00000000       0.75000000 </v>
   <v>       0.50000000       0.25000000       0.75000000 </v>
   <v>       0.50000000       0.50000000       0.00000000 </v>
   <v>       0.75000000       0.75000000       0.00000000 </v>
   <v>       0.75000000       0.50000000       0.25000000 </v>
   <v>       0.50000000       0.75000000       0.25000000 </v>
   <v>       0.50000000       0.50000000       0.50000000 </v>
   <v>       0.75000000       0.75000000       0.50000000 </v>
   <v>       0.75000000       0.50000000       0.75000000 </v>
   <v>       0.50000000       0.75000000       0.75000000 </v>
   <v>       0.25267761       0.25000000       0.25000000 </v>
   <v>       0.00267761       0.00000000       0.25000000 </v>
   <v>       0.00000000       0.25000000       0.00000000 </v>
   <v>       0.25000000       0.00000000       0.00000000 </v>
   <v>       0.25000000       0.25000000       0.75000000 </v>
   <v>       0.00000000       0.00000000       0.75000000 </v>
   <v>       0.00000000       0.25000000       0.50000000 </v>
   <v>       0.25000000       0.00000000       0.50000000 </v>
   <v>       0.25000000       0.75000000       0.25000000 </v>
   <v>       0.00000000       0.50000000       0.25000000 </v>
   <v>       0.00000000       0.75000000       0.00000000 </v>
   <v>       0.25000000       0.50000000       0.00000000 </v>
   <v>       0.25000000       0.75000000       0.75000000 </v>
   <v>       0.00000000       0.50000000       0.75000000 </v>
   <v>       0.00000000       0.75000000       0.50000000 </v>
   <v>       0.25000000       0.50000000       0.50000000 </v>
   <v>       0.75000000       0.25000000       0.25000000 </v>
   <v>       0.50000000       0.00000000       0.25000000 </v>
   <v>       0.50000000       0.25000000       0.00000000 </v>
   <v>       0.75000000       0.00000000       0.00000000 </v>
   <v>       0.75000000       0.25000000       0.75000000 </v>
   <v>       0.50000000       0.00000000       0.75000000 </v>
   <v>       0.50000000       0.25000000       0.50000000 </v>
   <v>       0.75000000       0.00000000       0.50000000 </v>
   <v>       0.75000000       0.75000000       0.25000000 </v>
   <v>       0.50000000       0.50000000       0.25000000 </v>
   <v>       0.50000000       0.75000000       0.00000000 </v>
   <v>       0.75000000       0.50000000       0.00000000 </v>
   <v>       0.75000000       0.75000000       0.75000000 </v>
   <v>       0.50000000       0.50000000       0.75000000 </v>
   <v>       0.50000000       0.75000000       0.50000000 </v>
   <v>       0.75000000       0.50000000       0.50000000 </v>
  </varray>
 </structure>
 <calculation>
  <scstep>
   <time name="dav">   10.59   10.65</time>
   <time name="total">   10.66   10.72</time>
   <energy>
    <i name="alphaZ">    751.52672365 </i>
    <i name="ewald"> -22871.34769693 </i>
    <i name="hartreedc">  -8992.24069380 </i>
    <i name="XCdc">   1456.53427064 </i>
    <i name="pawpsdc">  26466.43774078 </i>
    <i name="pawaedc"> -29286.08056155 </i>
    <i name="eentropy">     -0.00502075 </i>
    <i name="bandstr">   -658.30660627 </i>
    <i name="atom">  37532.17946992 </i>
    <i name="e_fr_energy">   4398.69762570 </i>
    <i name="e_wo_entrp">   4398.70264645 </i>
    <i name="e_0_energy">   4398.70013607 </i>
   </energy>
  </scstep>
  <scstep>
   <time name="dav">   11.05   11.13</time>
   <time name="total">   11.05   11.13</time>
   <energy>
    <i name="e_fr_energy">    370.46232697 </i>
    <i name="e_wo_entrp">    370.46232697 </i>
    <i name="e_0_energy">    370.46232697 </i>
   </energy>
  </scstep>
  <scstep>
   <time name="dav">   11.91   11.98</time>
   <time name="total">   11.91   11.98</time>
   <energy>
    <i name="e_fr_energy">   -205.43808565 </i>
    <i name="e_wo_entrp">   -205.43808565 </i>
    <i name="e_0_energy">   -205.43808565 </i>
   </energy>
  </scstep>
  <scstep>
   <time name="dav">   11.80   11.88</time>
   <time name="total">   11.80   11.88</time>
   <energy>
    <i name="e_fr_energy">   -228.16442424 </i>
    <i name="e_wo_entrp">   -228.16442424 </i>
    <i name="e_0_energy">   -228.16442424 </i>
   </energy>
  </scstep>
  <scstep>
   <time name="dav">   12.28   12.35</time>
   <time name="total">   12.63   12.71</time>
   <energy>
    <i name="e_fr_energy">   -229.00354612 </i>
    <i name="e_wo_entrp">   -229.00354612 </i>
    <i name="e_0_energy">   -229.00354612 </i>
   </energy>
  </scstep>
  <scstep>
   <time name="dav">   12.09   12.16</time>
   <time name="total">   12.51   12.58</time>
   <energy>
    <i name="e_fr_energy">   -224.13973853 </i>
    <i name="e_wo_entrp">   -224.13973853 </i>
    <i name="e_0_energy">   -224.13973853 </i>
   </energy>
  </scstep>
  <scstep>
   <time name="dav">   13.08   13.15</time>
   <time name="total">   13.49   13.58</time>
   <energy>
    <i name="e_fr_energy">   -223.77736126 </i>
    <i name="e_wo_entrp">   -223.77736126 </i>
    <i name="e_0_energy">   -223.77736126 </i>
   </energy>
  </scstep>
  <scstep>
   <time name="dav">   11.59   11.66</time>
   <time name="total">   12.00   12.07</time>
   <energy>
    <i name="e_fr_energy">   -223.90262586 </i>
    <i name="e_wo_entrp">   -223.90262586 </i>
    <i name="e_0_energy">   -223.90262586 </i>
   </energy>
  </scstep>
  <scstep>
   <time name="dav">   11.97   12.04</time>
   <time name="total">   12.39   12.46</time>
   <energy>
    <i name="e_fr_energy">   -223.89701353 </i>
    <i name="e_wo_entrp">   -223.89701353 </i>
    <i name="e_0_energy">   -223.89701353 </i>
   </energy>
  </scstep>
  <scstep>
   <time name="dav">   11.63   11.70</time>
   <time name="total">   12.06   12.13</time>
   <energy>
    <i name="e_fr_energy">   -223.90126465 </i>
    <i name="e_wo_entrp">   -223.90126465 </i>
    <i name="e_0_energy">   -223.90126465 </i>
   </energy>
  </scstep>
  <scstep>
   <time name="dav">   12.58   12.65</time>
   <time name="total">   12.99   13.06</time>
   <energy>
    <i name="e_fr_energy">   -223.90057697 </i>
    <i name="e_wo_entrp">   -223.90057697 </i>
    <i name="e_0_energy">   -223.90057697 </i>
   </energy>
  </scstep>
  <scstep>
   <time name="dav">   12.56   12.64</time>
   <time name="total">   12.98   13.06</time>
   <energy>
    <i name="e_fr_energy">   -223.90053744 </i>
    <i name="e_wo_entrp">   -223.90053744 </i>
    <i name="e_0_energy">   -223.90053744 </i>
   </energy>
  </scstep>
  <scstep>
   <time name="dav">   11.97   12.04</time>
   <time name="total">   12.38   12.45</time>
   <energy>
    <i name="e_fr_energy">   -223.90053496 </i>
    <i name="e_wo_entrp">   -223.90053496 </i>
    <i name="e_0_energy">   -223.90053496 </i>
   </energy>
  </scstep>
  <scstep>
   <time name="dav">   11.69   11.76</time>
   <time name="total">   12.11   12.18</time>
   <energy>
    <i name="e_fr_energy">   -223.90053710 </i>
    <i name="e_wo_entrp">   -223.90053710 </i>
    <i name="e_0_energy">   -223.90053710 </i>
   </energy>
  </scstep>
  <scstep>
   <time name="dav">   12.14   12.21</time>
   <time name="total">   12.55   12.62</time>
   <energy>
    <i name="e_fr_energy">   -223.90053813 </i>
    <i name="e_wo_entrp">   -223.90053813 </i>
    <i name="e_0_energy">   -223.90053813 </i>
   </energy>
  </scstep>
  <scstep>
   <time name="dav">   12.09   12.16</time>
   <time name="total">   12.50   12.57</time>
   <energy>
    <i name="e_fr_energy">   -223.90053859 </i>
    <i name="e_wo_entrp">   -223.90053859 </i>
    <i name="e_0_energy">   -223.90053859 </i>
   </energy>
  </scstep>
  <scstep>
   <time name="dav">    8.72    8.77</time>
   <time name="total">    9.13    9.19</time>
   <energy>
    <i name="e_fr_energy">   -223.90053864 </i>
    <i name="e_wo_entrp">   -223.90053864 </i>
    <i name="e_0_energy">   -223.90053864 </i>
   </energy>
  </scstep>
  <scstep>
   <time name="dav">    9.08    9.13</time>
   <time name="total">    9.49    9.54</time>
   <energy>
    <i name="e_fr_energy">   -223.90053875 </i>
    <i name="e_wo_entrp">   -223.90053875 </i>
    <i name="e_0_energy">   -223.90053875 </i>
   </energy>
  </scstep>
  <scstep>
   <time name="dav">    7.58    7.62</time>
   <time name="total">    8.00    8.04</time>
   <energy>
    <i name="e_fr_energy">   -223.90053874 </i>
    <i name="e_wo_entrp">   -223.90053874 </i>
    <i name="e_0_energy">   -223.90053874 </i>
   </energy>
  </scstep>
  <scstep>
   <time name="dav">    7.84    7.89</time>
   <time name="total">    8.26    8.30</time>
   <energy>
    <i name="e_fr_energy">   -223.90053867 </i>
    <i name="e_wo_entrp">   -223.90053867 </i>
    <i name="e_0_energy">   -223.90053867 </i>
   </energy>
  </scstep>
  <scstep>
   <time name="dav">    7.46    7.51</time>
   <time name="total">    7.87    7.92</time>
   <energy>
    <i name="e_fr_energy">   -223.90053863 </i>
    <i name="e_wo_entrp">   -223.90053863 </i>
    <i name="e_0_energy">   -223.90053863 </i>
   </energy>
  </scstep>
  <scstep>
   <time name="dav">    7.68    7.73</time>
   <time name="total">    7.75    7.80</time>
   <energy>
    <i name="alphaZ">    751.52672365 </i>
    <i name="ewald"> -22871.34769693 </i>
    <i name="hartreedc">  -9078.16108882 </i>
    <i name="XCdc">   1472.51352062 </i>
    <i name="pawpsdc">  29498.30163451 </i>
    <i name="pawaedc"> -32317.66625545 </i>
    <i name="eentropy">     -0.00000000 </i>
    <i name="bandstr">  -5211.24684614 </i>
    <i name="atom">  37532.17946992 </i>
    <i name="e_fr_energy">   -223.90053864 </i>
    <i name="e_wo_entrp">   -223.90053864 </i>
    <i name="e_0_energy">   -223.90053864 </i>
   </energy>
  </scstep>
  <structure>
   <crystal>
    <varray name="basis" >
     <v>      11.20400236       0.00000000       0.00000000 </v>
     <v>       0.00000000      11.20400236       0.00000000 </v>
     <v>       0.00000000       0.00000000      11.20400236 </v>
    </varray>
    <i name="volume">   1406.43470641 </i>
    <varray name="rec_basis" >
     <v>       0.08925382       0.00000000       0.00000000 </v>
     <v>       0.00000000       0.08925382       0.00000000 </v>
     <v>       0.00000000       0.00000000       0.08925382 </v>
    </varray>
   </crystal>
   <varray name="positions" >
    <v>       0.00000000       0.00000000       0.00000000 </v>
    <v>       0.25000000       0.25000000       0.00000000 </v>
    <v>       0.25000000       0.00000000       0.25000000 </v>
    <v>       0.00000000       0.25000000       0.25000000 </v>
    <v>       0.00000000       0.00000000       0.50000000 </v>
    <v>       0.25000000       0.25000000       0.50000000 </v>
    <v>       0.25000000       0.00000000       0.75000000 </v>
    <v>       0.00000000       0.25000000       0.75000000 </v>
    <v>       0.00000000       0.50000000       0.00000000 </v>
    <v>       0.25000000       0.75000000       0.00000000 </v>
    <v>       0.25000000       0.50000000       0.25000000 </v>
    <v>       0.00000000       0.75000000       0.25000000 </v>
    <v>       0.00000000       0.50000000       0.50000000 </v>
    <v>       0.25000000       0.75000000       0.50000000 </v>
    <v>       0.25000000       0.50000000       0.75000000 </v>
    <v>       0.00000000       0.75000000       0.75000000 </v>
    <v>       0.50000000       0.00000000       0.00000000 </v>
    <v>       0.75000000       0.25000000       0.00000000 </v>
    <v>       0.75000000       0.00000000       0.25000000 </v>
    <v>       0.50000000       0.25000000       0.25000000 </v>
    <v>       0.50000000       0.00000000       0.50000000 </v>
    <v>       0.75000000       0.25000000       0.50000000 </v>
    <v>       0.75000000       0.00000000       0.75000000 </v>
    <v>       0.50000000       0.25000000       0.75000000 </v>
    <v>       0.50000000       0.50000000       0.00000000 </v>
    <v>       0.75000000       0.75000000       0.00000000 </v>
    <v>       0.75000000       0.50000000       0.25000000 </v>
    <v>       0.50000000       0.75000000       0.25000000 </v>
    <v>       0.50000000       0.50000000       0.50000000 </v>
    <v>       0.75000000       0.75000000       0.50000000 </v>
    <v>       0.75000000       0.50000000       0.75000000 </v>
    <v>       0.50000000       0.75000000       0.75000000 </v>
    <v>       0.25267761       0.25000000       0.25000000 </v>
    <v>       0.00267761       0.00000000       0.25000000 </v>
    <v>       0.00000000       0.25000000       0.00000000 </v>
    <v>       0.25000000       0.00000000       0.00000000 </v>
    <v>       0.25000000       0.25000000       0.75000000 </v>
    <v>       0.00000000       0.00000000       0.75000000 </v>
    <v>       0.00000000       0.25000000       0.50000000 </v>
    <v>       0.25000000       0.00000000       0.50000000 </v>
    <v>       0.25000000       0.75000000       0.25000000 </v>
    <v>       0.00000000       0.50000000       0.25000000 </v>
    <v>       0.00000000       0.75000000       0.00000000 </v>
    <v>       0.25000000       0.50000000       0.00000000 </v>
    <v>       0.25000000       0.75000000       0.75000000 </v>
    <v>       0.00000000       0.50000000       0.75000000 </v>
    <v>       0.00000000       0.75000000       0.50000000 </v>
    <v>       0.25000000       0.50000000       0.50000000 </v>
    <v>       0.75000000       0.25000000       0.25000000 </v>
    <v>       0.50000000       0.00000000       0.25000000 </v>
    <v>       0.50000000       0.25000000       0.00000000 </v>
    <v>       0.75000000       0.00000000       0.00000000 </v>
    <v>       0.75000000       0.25000000       0.75000000 </v>
    <v>       0.50000000       0.00000000       0.75000000 </v>
    <v>       0.50000000       0.25000000       0.50000000 </v>
    <v>       0.75000000       0.00000000       0.50000000 </v>
    <v>       0.75000000       0.75000000       0.25000000 </v>
    <v>       0.50000000       0.50000000       0.25000000 </v>
    <v>       0.50000000       0.75000000       0.00000000 </v>
    <v>       0.75000000       0.50000000       0.00000000 </v>
    <v>       0.75000000       0.75000000       0.75000000 </v>
    <v>       0.50000000       0.50000000       0.75000000 </v>
    <v>       0.50000000       0.75000000       0.50000000 </v>
    <v>       0.75000000       0.50000000       0.50000000 </v>
   </varray>
  </structure>
  <varray name="forces" >
   <v>       0.00477542      -0.00128163      -0.00120264 </v>
   <v>       0.00479873      -0.00130709       0.00138600 </v>
   <v>       0.02528306       0.00011516       0.00000000 </v>
   <v>       0.02122424      -0.00011532       0.00000000 </v>
   <v>       0.00477542      -0.00128163       0.00120264 </v>
   <v>       0.00479873      -0.00130709      -0.00138600 </v>
   <v>       0.00077480       0.00000215       0.00000000 </v>
   <v>       0.00075755      -0.00000214       0.00000000 </v>
   <v>       0.00036934       0.00128756      -0.00129124 </v>
   <v>       0.00039630       0.00130098       0.00129727 </v>
   <v>       0.00518749      -0.00007654       0.00000000 </v>
   <v>       0.00515251       0.00007645       0.00000000 </v>
   <v>       0.00036934       0.00128756       0.00129124 </v>
   <v>       0.00039630       0.00130098      -0.00129727 </v>
   <v>       0.00061280      -0.00000268       0.00000000 </v>
   <v>       0.00060309       0.00000269       0.00000000 </v>
   <v>      -0.00304825       0.00129965       0.00130178 </v>
   <v>      -0.00306914       0.00128903      -0.00128689 </v>
   <v>       0.01337047       0.00000161       0.00000000 </v>
   <v>       0.01744283      -0.00000182       0.00000000 </v>
   <v>      -0.00304825       0.00129965      -0.00130178 </v>
   <v>      -0.00306914       0.00128903       0.00128689 </v>
   <v>      -0.00051817       0.00000377       0.00000000 </v>
   <v>      -0.00050108      -0.00000379       0.00000000 </v>
   <v>      -0.00088093      -0.00129979       0.00130221 </v>
   <v>      -0.00090693      -0.00128896      -0.00128641 </v>
   <v>      -0.00268624      -0.00000332       0.00000000 </v>
   <v>      -0.00266336       0.00000354       0.00000000 </v>
   <v>      -0.00088093      -0.00129979      -0.00130221 </v>
   <v>      -0.00090693      -0.00128896       0.00128641 </v>
   <v>      -0.00067310      -0.00000382       0.00000000 </v>
   <v>      -0.00066373       0.00000379       0.00000000 </v>
   <v>      -0.07218676       0.00570273       0.00000000 </v>
   <v>      -0.07213094       0.00591510       0.00000000 </v>
   <v>       0.00151986      -0.00002145       0.00575403 </v>
   <v>       0.00158400       0.00002172      -0.00586408 </v>
   <v>      -0.00160132       0.00057769       0.00000000 </v>
   <v>      -0.00158635       0.00056567       0.00000000 </v>
   <v>       0.00151986      -0.00002145      -0.00575403 </v>
   <v>       0.00158400       0.00002172       0.00586408 </v>
   <v>       0.00235906      -0.00588158       0.00000000 </v>
   <v>       0.00232032      -0.00573555       0.00000000 </v>
   <v>      -0.00237294       0.00003280       0.00060452 </v>
   <v>      -0.00239170      -0.00003246      -0.00053881 </v>
   <v>      -0.00057311      -0.00057790       0.00000000 </v>
   <v>      -0.00055614      -0.00056527       0.00000000 </v>
   <v>      -0.00237294       0.00003280      -0.00060452 </v>
   <v>      -0.00239170      -0.00003246       0.00053881 </v>
   <v>       0.00770415      -0.00573589       0.00000000 </v>
   <v>       0.00776091      -0.00588263       0.00000000 </v>
   <v>       0.00546406       0.00000371      -0.00588831 </v>
   <v>       0.00540818      -0.00000405       0.00572971 </v>
   <v>       0.00192154      -0.00056755       0.00000000 </v>
   <v>       0.00190626      -0.00057614       0.00000000 </v>
   <v>       0.00546406       0.00000371       0.00588831 </v>
   <v>       0.00540818      -0.00000405      -0.00572971 </v>
   <v>       0.00582101       0.00572931       0.00000000 </v>
   <v>       0.00587734       0.00588823       0.00000000 </v>
   <v>       0.00149217      -0.00000468      -0.00057859 </v>
   <v>       0.00151002       0.00000477       0.00056512 </v>
   <v>       0.00049143       0.00056709       0.00000000 </v>
   <v>       0.00047304       0.00057672       0.00000000 </v>
   <v>       0.00149217      -0.00000468       0.00057859 </v>
   <v>       0.00151002       0.00000477      -0.00056512 </v>
  </varray>
  <varray name="stress" >
   <v>      -0.35496873      -0.00009914       0.00000000 </v>
   <v>      -0.00009922      -0.37853313       0.00000000 </v>
   <v>       0.00000000       0.00000000      -0.37816797 </v>
  </varray>
  <energy>
   <i name="e_fr_energy">   -223.90053864 </i>
   <i name="e_wo_entrp">   -223.90053864 </i>
   <i name="e_0_energy">   -223.90053864 </i>
  </energy>
  <time name="totalsc">  262.26  263.83</time>
  <eigenvalues>
   <array>
    <dimension dim="1">band</dimension>
    <dimension dim="2">kpoint</dimension>
    <dimension dim="3">spin</dimension>
    <field>eigene</field>
    <field>occ</field>
    <set>
     <set comment="spin 1">
      <set comment="kpoint 1">
       <r>  -21.3119    1.0000 </r>
       <r>  -21.3102    1.0000 </r>
       <r>  -21.3093    1.0000 </r>
       <r>  -21.3087    1.0000 </r>
       <r>  -21.3048    1.0000 </r>
       <r>  -21.3021    1.0000 </r>
       <r>  -21.3004    1.0000 </r>
       <r>  -21.3001    1.0000 </r>
       <r>  -21.2995    1.0000 </r>
       <r>  -21.2990    1.0000 </r>
       <r>  -21.2937    1.0000 </r>
       <r>  -21.2937    1.0000 </r>
       <r>  -21.2935    1.0000 </r>
       <r>  -21.2934    1.0000 </r>
       <r>  -21.2929    1.0000 </r>
       <r>  -21.2927    1.0000 </r>
       <r>  -21.2922    1.0000 </r>
       <r>  -21.2918    1.0000 </r>
       <r>  -21.2916    1.0000 </r>
       <r>  -21.2908    1.0000 </r>
       <r>  -21.2906    1.0000 </r>
       <r>  -21.2901    1.0000 </r>
       <r>  -21.2892    1.0000 </r>
       <r>  -21.2878    1.0000 </r>
       <r>  -21.2878    1.0000 </r>
       <r>  -21.2869    1.0000 </r>
       <r>  -21.2862    1.0000 </r>
       <r>  -21.2861    1.0000 </r>
       <r>  -21.2858    1.0000 </r>
       <r>  -21.2848    1.0000 </r>
       <r>  -21.2847    1.0000 </r>
       <r>  -21.2845    1.0000 </r>
       <r>  -21.2842    1.0000 </r>
       <r>  -21.2838    1.0000 </r>
       <r>  -21.2835    1.0000 </r>
       <r>  -21.2835    1.0000 </r>
       <r>  -21.2834    1.0000 </r>
       <r>  -21.2832    1.0000 </r>
       <r>  -21.2830    1.0000 </r>
       <r>  -21.2827    1.0000 </r>
       <r>  -21.2823    1.0000 </r>
       <r>  -21.2818    1.0000 </r>
       <r>  -21.2817    1.0000 </r>
       <r>  -21.2812    1.0000 </r>
       <r>  -21.2811    1.0000 </r>
       <r>  -21.2810    1.0000 </r>
       <r>  -21.2810    1.0000 </r>
       <r>  -21.2805    1.0000 </r>
       <r>  -21.2804    1.0000 </r>
       <r>  -21.2803    1.0000 </r>
       <r>  -21.2800    1.0000 </r>
       <r>  -21.2797    1.0000 </r>
       <r>  -21.2796    1.0000 </r>
       <r>  -21.2787    1.0000 </r>
       <r>  -21.2786    1.0000 </r>
       <r>  -21.2774    1.0000 </r>
       <r>  -21.2771    1.0000 </r>
       <r>  -21.2766    1.0000 </r>
       <r>  -21.2765    1.0000 </r>
       <r>  -21.2765    1.0000 </r>
       <r>  -21.2764    1.0000 </r>
       <r>  -21.2763    1.0000 </r>
       <r>  -21.2758    1.0000 </r>
       <r>  -21.2755    1.0000 </r>
       <r>  -21.2754    1.0000 </r>
       <r>  -21.2754    1.0000 </r>
       <r>  -21.2752    1.0000 </r>
       <r>  -21.2751    1.0000 </r>
       <r>  -21.2748    1.0000 </r>
       <r>  -21.2747    1.0000 </r>
       <r>  -21.2746    1.0000 </r>
       <r>  -21.2734    1.0000 </r>
       <r>  -21.2729    1.0000 </r>
       <r>  -21.2724    1.0000 </r>
       <r>  -21.2717    1.0000 </r>
       <r>  -21.2715    1.0000 </r>
       <r>  -21.2714    1.0000 </r>
       <r>  -21.2714    1.0000 </r>
       <r>  -21.2713    1.0000 </r>
       <r>  -21.2713    1.0000 </r>
       <r>  -21.2709    1.0000 </r>
       <r>  -21.2708    1.0000 </r>
       <r>  -21.2707    1.0000 </r>
       <r>  -21.2707    1.0000 </r>
       <r>  -21.2703    1.0000 </r>
       <r>  -21.2702    1.0000 </r>
       <r>  -21.2698    1.0000 </r>
       <r>  -21.2695    1.0000 </r>
       <r>  -21.2683    1.0000 </r>
       <r>  -21.2682    1.0000 </r>
       <r>  -21.2590    1.0000 </r>
       <r>  -21.2564    1.0000 </r>
       <r>  -21.2557    1.0000 </r>
       <r>  -21.2554    1.0000 </r>
       <r>  -21.2553    1.0000 </r>
       <r>  -21.2526    1.0000 </r>
       <r>  -13.3580    1.0000 </r>
       <r>  -13.1389    1.0000 </r>
       <r>  -13.1384    1.0000 </r>
       <r>  -13.1375    1.0000 </r>
       <r>  -13.1375    1.0000 </r>
       <r>  -13.1366    1.0000 </r>
       <r>  -13.1357    1.0000 </r>
       <r>  -13.0150    1.0000 </r>
       <r>  -13.0147    1.0000 </r>
       <r>  -13.0145    1.0000 </r>
       <r>  -13.0145    1.0000 </r>
       <r>  -13.0120    1.0000 </r>
       <r>  -13.0118    1.0000 </r>
       <r>  -13.0110    1.0000 </r>
       <r>  -13.0104    1.0000 </r>
       <r>  -13.0088    1.0000 </r>
       <r>  -13.0087    1.0000 </r>
       <r>  -13.0086    1.0000 </r>
       <r>  -13.0084    1.0000 </r>
       <r>  -12.9892    1.0000 </r>
       <r>  -12.9891    1.0000 </r>
       <r>  -12.9891    1.0000 </r>
       <r>  -12.9890    1.0000 </r>
       <r>  -12.9417    1.0000 </r>
       <r>  -12.9416    1.0000 </r>
       <r>  -12.9404    1.0000 </r>
       <r>  -12.9234    1.0000 </r>
       <r>  -12.9223    1.0000 </r>
       <r>  -12.9211    1.0000 </r>
       <r>  -12.9210    1.0000 </r>
       <r>  -12.9193    1.0000 </r>
       <r>  -12.9183    1.0000 </r>
       <r>   -2.7000    1.0000 </r>
       <r>   -2.7000    1.0000 </r>
       <r>   -2.7000    1.0000 </r>
       <r>   -2.6999    1.0000 </r>
       <r>   -2.4240    1.0000 </r>
       <r>   -2.4240    1.0000 </r>
       <r>   -2.4239    1.0000 </r>
       <r>   -2.2057    1.0000 </r>
       <r>   -2.2055    1.0000 </r>
       <r>   -2.2046    1.0000 </r>
       <r>   -2.2046    1.0000 </r>
       <r>   -2.2046    1.0000 </r>
       <r>   -2.2043    1.0000 </r>
       <r>   -2.2042    1.0000 </r>
       <r>   -2.2039    1.0000 </r>
       <r>   -2.2038    1.0000 </r>
       <r>   -2.2038    1.0000 </r>
       <r>   -2.2030    1.0000 </r>
       <r>   -2.2028    1.0000 </r>
       <r>   -1.9271    1.0000 </r>
       <r>   -1.9268    1.0000 </r>
       <r>   -1.9258    1.0000 </r>
       <r>   -1.9249    1.0000 </r>
       <r>   -1.9247    1.0000 </r>
       <r>   -1.9247    1.0000 </r>
       <r>   -1.9247    1.0000 </r>
       <r>   -1.9246    1.0000 </r>
       <r>   -1.9245    1.0000 </r>
       <r>   -1.9235    1.0000 </r>
       <r>   -1.9225    1.0000 </r>
       <r>   -1.9223    1.0000 </r>
       <r>   -1.7967    1.0000 </r>
       <r>   -1.7967    1.0000 </r>
       <r>   -1.7966    1.0000 </r>
       <r>   -1.7966    1.0000 </r>
       <r>   -1.7966    1.0000 </r>
       <r>   -1.7965    1.0000 </r>
       <r>   -1.5088    1.0000 </r>
       <r>   -1.5084    1.0000 </r>
       <r>   -1.5077    1.0000 </r>
       <r>   -1.5076    1.0000 </r>
       <r>   -1.5056    1.0000 </r>
       <r>   -1.5053    1.0000 </r>
       <r>   -1.5052    1.0000 </r>
       <r>   -1.5050    1.0000 </r>
       <r>   -1.5032    1.0000 </r>
       <r>   -1.5031    1.0000 </r>
       <r>   -1.5023    1.0000 </r>
       <r>   -1.5020    1.0000 </r>
       <r>   -1.4653    1.0000 </r>
       <r>   -1.4643    1.0000 </r>
       <r>   -1.4628    1.0000 </r>
       <r>   -1.4625    1.0000 </r>
       <r>   -1.4615    1.0000 </r>
       <r>   -1.4606    1.0000 </r>
       <r>   -1.2948    1.0000 </r>
       <r>   -1.2948    1.0000 </r>
       <r>   -1.2946    1.0000 </r>
       <r>   -1.2946    1.0000 </r>
       <r>   -1.2945    1.0000 </r>
       <r>   -1.2945    1.0000 </r>
       <r>   -1.0045    1.0000 </r>
       <r>   -1.0038    1.0000 </r>
       <r>   -1.0031    1.0000 </r>
       <r>   -1.0017    1.0000 </r>
       <r>   -1.0011    1.0000 </r>
       <r>   -1.0010    1.0000 </r>
       <r>   -1.0009    1.0000 </r>
       <r>   -1.0007    1.0000 </r>
       <r>   -1.0001    1.0000 </r>
       <r>   -0.9983    1.0000 </r>
       <r>   -0.9978    1.0000 </r>
       <r>   -0.9969    1.0000 </r>
       <r>   -0.9524    1.0000 </r>
       <r>   -0.9522    1.0000 </r>
       <r>   -0.9512    1.0000 </r>
       <r>   -0.9511    1.0000 </r>
       <r>   -0.9496    1.0000 </r>
       <r>   -0.9492    1.0000 </r>
       <r>   -0.9477    1.0000 </r>
       <r>   -0.9476    1.0000 </r>
       <r>   -0.9475    1.0000 </r>
       <r>   -0.9475    1.0000 </r>
       <r>   -0.9469    1.0000 </r>
       <r>   -0.9468    1.0000 </r>
       <r>   -0.9457    1.0000 </r>
       <r>   -0.9455    1.0000 </r>
       <r>   -0.9446    1.0000 </r>
       <r>   -0.9442    1.0000 </r>
       <r>   -0.9424    1.0000 </r>
       <r>   -0.9424    1.0000 </r>
       <r>   -0.9416    1.0000 </r>
       <r>   -0.9415    1.0000 </r>
       <r>   -0.6649    1.0000 </r>
       <r>   -0.6648    1.0000 </r>
       <r>   -0.6648    1.0000 </r>
       <r>    4.3402    0.0000 </r>
       <r>    6.3595    0.0000 </r>
       <r>    6.3630    0.0000 </r>
       <r>    6.3677    0.0000 </r>
       <r>    6.3681    0.0000 </r>
       <r>    6.3727    0.0000 </r>
       <r>    6.3763    0.0000 </r>
       <r>    6.4446    0.0000 </r>
       <r>    6.4448    0.0000 </r>
       <r>    6.4449    0.0000 </r>
       <r>    6.4450    0.0000 </r>
       <r>    6.8279    0.0000 </r>
       <r>    6.8279    0.0000 </r>
       <r>    6.8281    0.0000 </r>
       <r>    7.2067    0.0000 </r>
       <r>    7.2067    0.0000 </r>
       <r>    7.2069    0.0000 </r>
       <r>    7.4542    0.0000 </r>
       <r>    7.4568    0.0000 </r>
       <r>    7.4598    0.0000 </r>
       <r>    7.4603    0.0000 </r>
       <r>    7.4604    0.0000 </r>
       <r>    7.4641    0.0000 </r>
       <r>    7.4642    0.0000 </r>
       <r>    7.4681    0.0000 </r>
       <r>    7.4682    0.0000 </r>
       <r>    7.4685    0.0000 </r>
       <r>    7.4714    0.0000 </r>
       <r>    7.4736    0.0000 </r>
       <r>    8.1615    0.0000 </r>
       <r>    8.1646    0.0000 </r>
       <r>    8.1679    0.0000 </r>
       <r>    8.1681    0.0000 </r>
       <r>    8.1725    0.0000 </r>
       <r>    8.1752    0.0000 </r>
       <r>    8.2778    0.0000 </r>
       <r>    8.2785    0.0000 </r>
       <r>    8.2797    0.0000 </r>
       <r>    8.2798    0.0000 </r>
       <r>    8.2805    0.0000 </r>
       <r>    8.2814    0.0000 </r>
       <r>    8.8890    0.0000 </r>
       <r>    8.8908    0.0000 </r>
       <r>    8.8912    0.0000 </r>
       <r>    8.8953    0.0000 </r>
       <r>    8.8999    0.0000 </r>
       <r>    8.9009    0.0000 </r>
       <r>    8.9020    0.0000 </r>
       <r>    8.9025    0.0000 </r>
       <r>    8.9040    0.0000 </r>
       <r>    8.9051    0.0000 </r>
       <r>    8.9055    0.0000 </r>
       <r>    8.9061    0.0000 </r>
       <r>    8.9118    0.0000 </r>
       <r>    8.9128    0.0000 </r>
       <r>    8.9140    0.0000 </r>
       <r>    8.9146    0.0000 </r>
       <r>    8.9164    0.0000 </r>
       <r>    8.9170    0.0000 </r>
       <r>    8.9172    0.0000 </r>
       <r>    8.9207    0.0000 </r>
       <r>    8.9234    0.0000 </r>
       <r>    8.9272    0.0000 </r>
       <r>    8.9296    0.0000 </r>
      </set>
      <set comment="kpoint 2">
       <r>  -21.3113    1.0000 </r>
       <r>  -21.3095    1.0000 </r>
       <r>  -21.3087    1.0000 </r>
       <r>  -21.3081    1.0000 </r>
       <r>  -21.3051    1.0000 </r>
       <r>  -21.3028    1.0000 </r>
       <r>  -21.2982    1.0000 </r>
       <r>  -21.2980    1.0000 </r>
       <r>  -21.2974    1.0000 </r>
       <r>  -21.2967    1.0000 </r>
       <r>  -21.2963    1.0000 </r>
       <r>  -21.2960    1.0000 </r>
       <r>  -21.2959    1.0000 </r>
       <r>  -21.2951    1.0000 </r>
       <r>  -21.2926    1.0000 </r>
       <r>  -21.2924    1.0000 </r>
       <r>  -21.2922    1.0000 </r>
       <r>  -21.2921    1.0000 </r>
       <r>  -21.2918    1.0000 </r>
       <r>  -21.2914    1.0000 </r>
       <r>  -21.2902    1.0000 </r>
       <r>  -21.2902    1.0000 </r>
       <r>  -21.2898    1.0000 </r>
       <r>  -21.2896    1.0000 </r>
       <r>  -21.2883    1.0000 </r>
       <r>  -21.2881    1.0000 </r>
       <r>  -21.2879    1.0000 </r>
       <r>  -21.2877    1.0000 </r>
       <r>  -21.2873    1.0000 </r>
       <r>  -21.2870    1.0000 </r>
       <r>  -21.2868    1.0000 </r>
       <r>  -21.2865    1.0000 </r>
       <r>  -21.2863    1.0000 </r>
       <r>  -21.2852    1.0000 </r>
       <r>  -21.2849    1.0000 </r>
       <r>  -21.2845    1.0000 </r>
       <r>  -21.2839    1.0000 </r>
       <r>  -21.2836    1.0000 </r>
       <r>  -21.2829    1.0000 </r>
       <r>  -21.2828    1.0000 </r>
       <r>  -21.2811    1.0000 </r>
       <r>  -21.2810    1.0000 </r>
       <r>  -21.2808    1.0000 </r>
       <r>  -21.2805    1.0000 </r>
       <r>  -21.2805    1.0000 </r>
       <r>  -21.2793    1.0000 </r>
       <r>  -21.2792    1.0000 </r>
       <r>  -21.2784    1.0000 </r>
       <r>  -21.2784    1.0000 </r>
       <r>  -21.2780    1.0000 </r>
       <r>  -21.2779    1.0000 </r>
       <r>  -21.2772    1.0000 </r>
       <r>  -21.2771    1.0000 </r>
       <r>  -21.2770    1.0000 </r>
       <r>  -21.2770    1.0000 </r>
       <r>  -21.2769    1.0000 </r>
       <r>  -21.2769    1.0000 </r>
       <r>  -21.2766    1.0000 </r>
       <r>  -21.2763    1.0000 </r>
       <r>  -21.2763    1.0000 </r>
       <r>  -21.2762    1.0000 </r>
       <r>  -21.2759    1.0000 </r>
       <r>  -21.2756    1.0000 </r>
       <r>  -21.2754    1.0000 </r>
       <r>  -21.2752    1.0000 </r>
       <r>  -21.2751    1.0000 </r>
       <r>  -21.2750    1.0000 </r>
       <r>  -21.2749    1.0000 </r>
       <r>  -21.2746    1.0000 </r>
       <r>  -21.2746    1.0000 </r>
       <r>  -21.2738    1.0000 </r>
       <r>  -21.2734    1.0000 </r>
       <r>  -21.2733    1.0000 </r>
       <r>  -21.2731    1.0000 </r>
       <r>  -21.2728    1.0000 </r>
       <r>  -21.2726    1.0000 </r>
       <r>  -21.2724    1.0000 </r>
       <r>  -21.2723    1.0000 </r>
       <r>  -21.2723    1.0000 </r>
       <r>  -21.2717    1.0000 </r>
       <r>  -21.2716    1.0000 </r>
       <r>  -21.2713    1.0000 </r>
       <r>  -21.2711    1.0000 </r>
       <r>  -21.2709    1.0000 </r>
       <r>  -21.2707    1.0000 </r>
       <r>  -21.2704    1.0000 </r>
       <r>  -21.2701    1.0000 </r>
       <r>  -21.2698    1.0000 </r>
       <r>  -21.2684    1.0000 </r>
       <r>  -21.2684    1.0000 </r>
       <r>  -21.2589    1.0000 </r>
       <r>  -21.2565    1.0000 </r>
       <r>  -21.2558    1.0000 </r>
       <r>  -21.2555    1.0000 </r>
       <r>  -21.2554    1.0000 </r>
       <r>  -21.2528    1.0000 </r>
       <r>  -13.2937    1.0000 </r>
       <r>  -13.2886    1.0000 </r>
       <r>  -13.1001    1.0000 </r>
       <r>  -13.1001    1.0000 </r>
       <r>  -13.0998    1.0000 </r>
       <r>  -13.0991    1.0000 </r>
       <r>  -13.0948    1.0000 </r>
       <r>  -13.0941    1.0000 </r>
       <r>  -13.0938    1.0000 </r>
       <r>  -13.0938    1.0000 </r>
       <r>  -13.0052    1.0000 </r>
       <r>  -13.0051    1.0000 </r>
       <r>  -13.0051    1.0000 </r>
       <r>  -13.0050    1.0000 </r>
       <r>  -12.9993    1.0000 </r>
       <r>  -12.9963    1.0000 </r>
       <r>  -12.9961    1.0000 </r>
       <r>  -12.9961    1.0000 </r>
       <r>  -12.9960    1.0000 </r>
       <r>  -12.9918    1.0000 </r>
       <r>  -12.9475    1.0000 </r>
       <r>  -12.9472    1.0000 </r>
       <r>  -12.9471    1.0000 </r>
       <r>  -12.9467    1.0000 </r>
       <r>  -12.9410    1.0000 </r>
       <r>  -12.9404    1.0000 </r>
       <r>  -12.9403    1.0000 </r>
       <r>  -12.9396    1.0000 </r>
       <r>  -12.9353    1.0000 </r>
       <r>  -12.9351    1.0000 </r>
       <r>  -12.9264    1.0000 </r>
       <r>  -12.9262    1.0000 </r>
       <r>   -2.5074    1.0000 </r>
       <r>   -2.5074    1.0000 </r>
       <r>   -2.5067    1.0000 </r>
       <r>   -2.5067    1.0000 </r>
       <r>   -2.5019    1.0000 </r>
       <r>   -2.5019    1.0000 </r>
       <r>   -2.5012    1.0000 </r>
       <r>   -2.5012    1.0000 </r>
       <r>   -2.2896    1.0000 </r>
       <r>   -2.2896    1.0000 </r>
       <r>   -2.2857    1.0000 </r>
       <r>   -2.2857    1.0000 </r>
       <r>   -2.2770    1.0000 </r>
       <r>   -2.2712    1.0000 </r>
       <r>   -2.1398    1.0000 </r>
       <r>   -2.1382    1.0000 </r>
       <r>   -2.1371    1.0000 </r>
       <r>   -2.1369    1.0000 </r>
       <r>   -2.1360    1.0000 </r>
       <r>   -2.1357    1.0000 </r>
       <r>   -2.1346    1.0000 </r>
       <r>   -2.1328    1.0000 </r>
       <r>   -1.9871    1.0000 </r>
       <r>   -1.9871    1.0000 </r>
       <r>   -1.9870    1.0000 </r>
       <r>   -1.9870    1.0000 </r>
       <r>   -1.9838    1.0000 </r>
       <r>   -1.9838    1.0000 </r>
       <r>   -1.9838    1.0000 </r>
       <r>   -1.9837    1.0000 </r>
       <r>   -1.8118    1.0000 </r>
       <r>   -1.8111    1.0000 </r>
       <r>   -1.8111    1.0000 </r>
       <r>   -1.8100    1.0000 </r>
       <r>   -1.8075    1.0000 </r>
       <r>   -1.8065    1.0000 </r>
       <r>   -1.8065    1.0000 </r>
       <r>   -1.8058    1.0000 </r>
       <r>   -1.5023    1.0000 </r>
       <r>   -1.5023    1.0000 </r>
       <r>   -1.4931    1.0000 </r>
       <r>   -1.4931    1.0000 </r>
       <r>   -1.3845    1.0000 </r>
       <r>   -1.3844    1.0000 </r>
       <r>   -1.3764    1.0000 </r>
       <r>   -1.3763    1.0000 </r>
       <r>   -1.2147    1.0000 </r>
       <r>   -1.2147    1.0000 </r>
       <r>   -1.2101    1.0000 </r>
       <r>   -1.2100    1.0000 </r>
       <r>   -1.1966    1.0000 </r>
       <r>   -1.1938    1.0000 </r>
       <r>   -1.1920    1.0000 </r>
       <r>   -1.1917    1.0000 </r>
       <r>   -1.1913    1.0000 </r>
       <r>   -1.1901    1.0000 </r>
       <r>   -1.1891    1.0000 </r>
       <r>   -1.1877    1.0000 </r>
       <r>   -1.1787    1.0000 </r>
       <r>   -1.1785    1.0000 </r>
       <r>   -1.1779    1.0000 </r>
       <r>   -1.1777    1.0000 </r>
       <r>   -1.1704    1.0000 </r>
       <r>   -1.1699    1.0000 </r>
       <r>   -1.1693    1.0000 </r>
       <r>   -1.1690    1.0000 </r>
       <r>   -1.1642    1.0000 </r>
       <r>   -1.1642    1.0000 </r>
       <r>   -1.1636    1.0000 </r>
       <r>   -1.1626    1.0000 </r>
       <r>   -1.1567    1.0000 </r>
       <r>   -1.1550    1.0000 </r>
       <r>   -1.1544    1.0000 </r>
       <r>   -1.1533    1.0000 </r>
       <r>   -1.0868    1.0000 </r>
       <r>   -1.0797    1.0000 </r>
       <r>   -0.9516    1.0000 </r>
       <r>   -0.9516    1.0000 </r>
       <r>   -0.9511    1.0000 </r>
       <r>   -0.9510    1.0000 </r>
       <r>   -0.9426    1.0000 </r>
       <r>   -0.9425    1.0000 </r>
       <r>   -0.9424    1.0000 </r>
       <r>   -0.9422    1.0000 </r>
       <r>   -0.9348    1.0000 </r>
       <r>   -0.9346    1.0000 </r>
       <r>   -0.9345    1.0000 </r>
       <r>   -0.9339    1.0000 </r>
       <r>   -0.9306    1.0000 </r>
       <r>   -0.9300    1.0000 </r>
       <r>   -0.9300    1.0000 </r>
       <r>   -0.9297    1.0000 </r>
       <r>   -0.7724    1.0000 </r>
       <r>   -0.7724    1.0000 </r>
       <r>   -0.7642    1.0000 </r>
       <r>   -0.7642    1.0000 </r>
       <r>    5.0172    0.0000 </r>
       <r>    5.0273    0.0000 </r>
       <r>    6.7076    0.0000 </r>
       <r>    6.7112    0.0000 </r>
       <r>    6.7128    0.0000 </r>
       <r>    6.7151    0.0000 </r>
       <r>    6.7214    0.0000 </r>
       <r>    6.7232    0.0000 </r>
       <r>    6.7248    0.0000 </r>
       <r>    6.7282    0.0000 </r>
       <r>    6.8375    0.0000 </r>
       <r>    6.8377    0.0000 </r>
       <r>    6.8384    0.0000 </r>
       <r>    6.8387    0.0000 </r>
       <r>    6.8481    0.0000 </r>
       <r>    6.8483    0.0000 </r>
       <r>    6.8487    0.0000 </r>
       <r>    6.8489    0.0000 </r>
       <r>    6.9673    0.0000 </r>
       <r>    6.9754    0.0000 </r>
       <r>    7.3562    0.0000 </r>
       <r>    7.3562    0.0000 </r>
       <r>    7.3689    0.0000 </r>
       <r>    7.3690    0.0000 </r>
       <r>    7.4783    0.0000 </r>
       <r>    7.4822    0.0000 </r>
       <r>    7.7094    0.0000 </r>
       <r>    7.7095    0.0000 </r>
       <r>    7.7197    0.0000 </r>
       <r>    7.7198    0.0000 </r>
       <r>    8.2529    0.0000 </r>
       <r>    8.2591    0.0000 </r>
       <r>    8.2626    0.0000 </r>
       <r>    8.2640    0.0000 </r>
       <r>    8.2678    0.0000 </r>
       <r>    8.2687    0.0000 </r>
       <r>    8.2724    0.0000 </r>
       <r>    8.2772    0.0000 </r>
       <r>    8.5236    0.0000 </r>
       <r>    8.5263    0.0000 </r>
       <r>    8.5307    0.0000 </r>
       <r>    8.5314    0.0000 </r>
       <r>    8.5339    0.0000 </r>
       <r>    8.5376    0.0000 </r>
       <r>    8.5379    0.0000 </r>
       <r>    8.5381    0.0000 </r>
       <r>    8.5388    0.0000 </r>
       <r>    8.5392    0.0000 </r>
       <r>    8.5398    0.0000 </r>
       <r>    8.5429    0.0000 </r>
       <r>    8.5456    0.0000 </r>
       <r>    8.5472    0.0000 </r>
       <r>    8.5510    0.0000 </r>
       <r>    8.5536    0.0000 </r>
       <r>    8.9450    0.0000 </r>
       <r>    8.9465    0.0000 </r>
       <r>    8.9466    0.0000 </r>
       <r>    8.9494    0.0000 </r>
       <r>    8.9524    0.0000 </r>
       <r>    8.9555    0.0000 </r>
       <r>    8.9557    0.0000 </r>
       <r>    8.9571    0.0000 </r>
       <r>    9.4924    0.0000 </r>
       <r>    9.5135    0.0000 </r>
      </set>
      <set comment="kpoint 3">
       <r>  -21.3110    1.0000 </r>
       <r>  -21.3088    1.0000 </r>
       <r>  -21.3084    1.0000 </r>
       <r>  -21.3078    1.0000 </r>
       <r>  -21.3058    1.0000 </r>
       <r>  -21.3034    1.0000 </r>
       <r>  -21.2997    1.0000 </r>
       <r>  -21.2997    1.0000 </r>
       <r>  -21.2978    1.0000 </r>
       <r>  -21.2974    1.0000 </r>
       <r>  -21.2963    1.0000 </r>
       <r>  -21.2957    1.0000 </r>
       <r>  -21.2951    1.0000 </r>
       <r>  -21.2940    1.0000 </r>
       <r>  -21.2925    1.0000 </r>
       <r>  -21.2918    1.0000 </r>
       <r>  -21.2916    1.0000 </r>
       <r>  -21.2912    1.0000 </r>
       <r>  -21.2910    1.0000 </r>
       <r>  -21.2909    1.0000 </r>
       <r>  -21.2907    1.0000 </r>
       <r>  -21.2894    1.0000 </r>
       <r>  -21.2892    1.0000 </r>
       <r>  -21.2892    1.0000 </r>
       <r>  -21.2891    1.0000 </r>
       <r>  -21.2890    1.0000 </r>
       <r>  -21.2888    1.0000 </r>
       <r>  -21.2878    1.0000 </r>
       <r>  -21.2873    1.0000 </r>
       <r>  -21.2872    1.0000 </r>
       <r>  -21.2870    1.0000 </r>
       <r>  -21.2854    1.0000 </r>
       <r>  -21.2850    1.0000 </r>
       <r>  -21.2844    1.0000 </r>
       <r>  -21.2842    1.0000 </r>
       <r>  -21.2842    1.0000 </r>
       <r>  -21.2836    1.0000 </r>
       <r>  -21.2834    1.0000 </r>
       <r>  -21.2827    1.0000 </r>
       <r>  -21.2823    1.0000 </r>
       <r>  -21.2820    1.0000 </r>
       <r>  -21.2810    1.0000 </r>
       <r>  -21.2808    1.0000 </r>
       <r>  -21.2807    1.0000 </r>
       <r>  -21.2804    1.0000 </r>
       <r>  -21.2802    1.0000 </r>
       <r>  -21.2796    1.0000 </r>
       <r>  -21.2796    1.0000 </r>
       <r>  -21.2793    1.0000 </r>
       <r>  -21.2791    1.0000 </r>
       <r>  -21.2786    1.0000 </r>
       <r>  -21.2779    1.0000 </r>
       <r>  -21.2778    1.0000 </r>
       <r>  -21.2775    1.0000 </r>
       <r>  -21.2773    1.0000 </r>
       <r>  -21.2771    1.0000 </r>
       <r>  -21.2768    1.0000 </r>
       <r>  -21.2768    1.0000 </r>
       <r>  -21.2767    1.0000 </r>
       <r>  -21.2766    1.0000 </r>
       <r>  -21.2763    1.0000 </r>
       <r>  -21.2761    1.0000 </r>
       <r>  -21.2759    1.0000 </r>
       <r>  -21.2757    1.0000 </r>
       <r>  -21.2755    1.0000 </r>
       <r>  -21.2751    1.0000 </r>
       <r>  -21.2748    1.0000 </r>
       <r>  -21.2745    1.0000 </r>
       <r>  -21.2744    1.0000 </r>
       <r>  -21.2736    1.0000 </r>
       <r>  -21.2733    1.0000 </r>
       <r>  -21.2732    1.0000 </r>
       <r>  -21.2729    1.0000 </r>
       <r>  -21.2727    1.0000 </r>
       <r>  -21.2725    1.0000 </r>
       <r>  -21.2723    1.0000 </r>
       <r>  -21.2721    1.0000 </r>
       <r>  -21.2720    1.0000 </r>
       <r>  -21.2716    1.0000 </r>
       <r>  -21.2715    1.0000 </r>
       <r>  -21.2712    1.0000 </r>
       <r>  -21.2709    1.0000 </r>
       <r>  -21.2706    1.0000 </r>
       <r>  -21.2703    1.0000 </r>
       <r>  -21.2702    1.0000 </r>
       <r>  -21.2701    1.0000 </r>
       <r>  -21.2700    1.0000 </r>
       <r>  -21.2699    1.0000 </r>
       <r>  -21.2697    1.0000 </r>
       <r>  -21.2696    1.0000 </r>
       <r>  -21.2590    1.0000 </r>
       <r>  -21.2565    1.0000 </r>
       <r>  -21.2558    1.0000 </r>
       <r>  -21.2555    1.0000 </r>
       <r>  -21.2554    1.0000 </r>
       <r>  -21.2528    1.0000 </r>
       <r>  -13.2913    1.0000 </r>
       <r>  -13.2912    1.0000 </r>
       <r>  -13.0990    1.0000 </r>
       <r>  -13.0981    1.0000 </r>
       <r>  -13.0974    1.0000 </r>
       <r>  -13.0973    1.0000 </r>
       <r>  -13.0969    1.0000 </r>
       <r>  -13.0966    1.0000 </r>
       <r>  -13.0958    1.0000 </r>
       <r>  -13.0948    1.0000 </r>
       <r>  -13.0025    1.0000 </r>
       <r>  -13.0015    1.0000 </r>
       <r>  -13.0013    1.0000 </r>
       <r>  -13.0010    1.0000 </r>
       <r>  -13.0007    1.0000 </r>
       <r>  -13.0006    1.0000 </r>
       <r>  -13.0002    1.0000 </r>
       <r>  -12.9998    1.0000 </r>
       <r>  -12.9950    1.0000 </r>
       <r>  -12.9949    1.0000 </r>
       <r>  -12.9460    1.0000 </r>
       <r>  -12.9456    1.0000 </r>
       <r>  -12.9452    1.0000 </r>
       <r>  -12.9446    1.0000 </r>
       <r>  -12.9436    1.0000 </r>
       <r>  -12.9429    1.0000 </r>
       <r>  -12.9415    1.0000 </r>
       <r>  -12.9413    1.0000 </r>
       <r>  -12.9309    1.0000 </r>
       <r>  -12.9308    1.0000 </r>
       <r>  -12.9299    1.0000 </r>
       <r>  -12.9287    1.0000 </r>
       <r>   -2.5047    1.0000 </r>
       <r>   -2.5047    1.0000 </r>
       <r>   -2.5044    1.0000 </r>
       <r>   -2.5044    1.0000 </r>
       <r>   -2.5043    1.0000 </r>
       <r>   -2.5043    1.0000 </r>
       <r>   -2.5040    1.0000 </r>
       <r>   -2.5040    1.0000 </r>
       <r>   -2.2878    1.0000 </r>
       <r>   -2.2877    1.0000 </r>
       <r>   -2.2876    1.0000 </r>
       <r>   -2.2876    1.0000 </r>
       <r>   -2.2742    1.0000 </r>
       <r>   -2.2740    1.0000 </r>
       <r>   -2.1376    1.0000 </r>
       <r>   -2.1376    1.0000 </r>
       <r>   -2.1364    1.0000 </r>
       <r>   -2.1364    1.0000 </r>
       <r>   -2.1364    1.0000 </r>
       <r>   -2.1363    1.0000 </r>
       <r>   -2.1352    1.0000 </r>
       <r>   -2.1350    1.0000 </r>
       <r>   -1.9861    1.0000 </r>
       <r>   -1.9859    1.0000 </r>
       <r>   -1.9855    1.0000 </r>
       <r>   -1.9854    1.0000 </r>
       <r>   -1.9854    1.0000 </r>
       <r>   -1.9853    1.0000 </r>
       <r>   -1.9849    1.0000 </r>
       <r>   -1.9847    1.0000 </r>
       <r>   -1.8125    1.0000 </r>
       <r>   -1.8110    1.0000 </r>
       <r>   -1.8089    1.0000 </r>
       <r>   -1.8088    1.0000 </r>
       <r>   -1.8086    1.0000 </r>
       <r>   -1.8086    1.0000 </r>
       <r>   -1.8066    1.0000 </r>
       <r>   -1.8052    1.0000 </r>
       <r>   -1.4978    1.0000 </r>
       <r>   -1.4978    1.0000 </r>
       <r>   -1.4978    1.0000 </r>
       <r>   -1.4977    1.0000 </r>
       <r>   -1.3805    1.0000 </r>
       <r>   -1.3805    1.0000 </r>
       <r>   -1.3804    1.0000 </r>
       <r>   -1.3804    1.0000 </r>
       <r>   -1.2135    1.0000 </r>
       <r>   -1.2129    1.0000 </r>
       <r>   -1.2123    1.0000 </r>
       <r>   -1.2123    1.0000 </r>
       <r>   -1.1922    1.0000 </r>
       <r>   -1.1920    1.0000 </r>
       <r>   -1.1914    1.0000 </r>
       <r>   -1.1914    1.0000 </r>
       <r>   -1.1911    1.0000 </r>
       <r>   -1.1904    1.0000 </r>
       <r>   -1.1902    1.0000 </r>
       <r>   -1.1897    1.0000 </r>
       <r>   -1.1766    1.0000 </r>
       <r>   -1.1762    1.0000 </r>
       <r>   -1.1746    1.0000 </r>
       <r>   -1.1741    1.0000 </r>
       <r>   -1.1739    1.0000 </r>
       <r>   -1.1731    1.0000 </r>
       <r>   -1.1725    1.0000 </r>
       <r>   -1.1722    1.0000 </r>
       <r>   -1.1625    1.0000 </r>
       <r>   -1.1612    1.0000 </r>
       <r>   -1.1598    1.0000 </r>
       <r>   -1.1595    1.0000 </r>
       <r>   -1.1593    1.0000 </r>
       <r>   -1.1584    1.0000 </r>
       <r>   -1.1579    1.0000 </r>
       <r>   -1.1570    1.0000 </r>
       <r>   -1.0833    1.0000 </r>
       <r>   -1.0832    1.0000 </r>
       <r>   -0.9479    1.0000 </r>
       <r>   -0.9477    1.0000 </r>
       <r>   -0.9470    1.0000 </r>
       <r>   -0.9469    1.0000 </r>
       <r>   -0.9467    1.0000 </r>
       <r>   -0.9464    1.0000 </r>
       <r>   -0.9461    1.0000 </r>
       <r>   -0.9458    1.0000 </r>
       <r>   -0.9357    1.0000 </r>
       <r>   -0.9341    1.0000 </r>
       <r>   -0.9337    1.0000 </r>
       <r>   -0.9323    1.0000 </r>
       <r>   -0.9322    1.0000 </r>
       <r>   -0.9312    1.0000 </r>
       <r>   -0.9301    1.0000 </r>
       <r>   -0.9287    1.0000 </r>
       <r>   -0.7683    1.0000 </r>
       <r>   -0.7683    1.0000 </r>
       <r>   -0.7682    1.0000 </r>
       <r>   -0.7681    1.0000 </r>
       <r>    5.0222    0.0000 </r>
       <r>    5.0223    0.0000 </r>
       <r>    6.7071    0.0000 </r>
       <r>    6.7129    0.0000 </r>
       <r>    6.7174    0.0000 </r>
       <r>    6.7176    0.0000 </r>
       <r>    6.7182    0.0000 </r>
       <r>    6.7189    0.0000 </r>
       <r>    6.7229    0.0000 </r>
       <r>    6.7284    0.0000 </r>
       <r>    6.8394    0.0000 </r>
       <r>    6.8399    0.0000 </r>
       <r>    6.8410    0.0000 </r>
       <r>    6.8414    0.0000 </r>
       <r>    6.8455    0.0000 </r>
       <r>    6.8460    0.0000 </r>
       <r>    6.8467    0.0000 </r>
       <r>    6.8471    0.0000 </r>
       <r>    6.9712    0.0000 </r>
       <r>    6.9713    0.0000 </r>
       <r>    7.3625    0.0000 </r>
       <r>    7.3625    0.0000 </r>
       <r>    7.3626    0.0000 </r>
       <r>    7.3628    0.0000 </r>
       <r>    7.4802    0.0000 </r>
       <r>    7.4803    0.0000 </r>
       <r>    7.7146    0.0000 </r>
       <r>    7.7146    0.0000 </r>
       <r>    7.7146    0.0000 </r>
       <r>    7.7147    0.0000 </r>
       <r>    8.2587    0.0000 </r>
       <r>    8.2623    0.0000 </r>
       <r>    8.2656    0.0000 </r>
       <r>    8.2660    0.0000 </r>
       <r>    8.2660    0.0000 </r>
       <r>    8.2661    0.0000 </r>
       <r>    8.2694    0.0000 </r>
       <r>    8.2729    0.0000 </r>
       <r>    8.5272    0.0000 </r>
       <r>    8.5315    0.0000 </r>
       <r>    8.5336    0.0000 </r>
       <r>    8.5339    0.0000 </r>
       <r>    8.5359    0.0000 </r>
       <r>    8.5367    0.0000 </r>
       <r>    8.5375    0.0000 </r>
       <r>    8.5381    0.0000 </r>
       <r>    8.5389    0.0000 </r>
       <r>    8.5394    0.0000 </r>
       <r>    8.5407    0.0000 </r>
       <r>    8.5411    0.0000 </r>
       <r>    8.5427    0.0000 </r>
       <r>    8.5434    0.0000 </r>
       <r>    8.5458    0.0000 </r>
       <r>    8.5487    0.0000 </r>
       <r>    8.9410    0.0000 </r>
       <r>    8.9450    0.0000 </r>
       <r>    8.9504    0.0000 </r>
       <r>    8.9508    0.0000 </r>
       <r>    8.9512    0.0000 </r>
       <r>    8.9514    0.0000 </r>
       <r>    8.9568    0.0000 </r>
       <r>    8.9612    0.0000 </r>
       <r>    9.4854    0.0000 </r>
       <r>    9.4953    0.0000 </r>
      </set>
      <set comment="kpoint 4">
       <r>  -21.3113    1.0000 </r>
       <r>  -21.3094    1.0000 </r>
       <r>  -21.3082    1.0000 </r>
       <r>  -21.3074    1.0000 </r>
       <r>  -21.3046    1.0000 </r>
       <r>  -21.3019    1.0000 </r>
       <r>  -21.2998    1.0000 </r>
       <r>  -21.2997    1.0000 </r>
       <r>  -21.2997    1.0000 </r>
       <r>  -21.2996    1.0000 </r>
       <r>  -21.2972    1.0000 </r>
       <r>  -21.2963    1.0000 </r>
       <r>  -21.2944    1.0000 </r>
       <r>  -21.2927    1.0000 </r>
       <r>  -21.2925    1.0000 </r>
       <r>  -21.2919    1.0000 </r>
       <r>  -21.2915    1.0000 </r>
       <r>  -21.2908    1.0000 </r>
       <r>  -21.2906    1.0000 </r>
       <r>  -21.2905    1.0000 </r>
       <r>  -21.2902    1.0000 </r>
       <r>  -21.2900    1.0000 </r>
       <r>  -21.2898    1.0000 </r>
       <r>  -21.2896    1.0000 </r>
       <r>  -21.2889    1.0000 </r>
       <r>  -21.2888    1.0000 </r>
       <r>  -21.2884    1.0000 </r>
       <r>  -21.2875    1.0000 </r>
       <r>  -21.2867    1.0000 </r>
       <r>  -21.2863    1.0000 </r>
       <r>  -21.2858    1.0000 </r>
       <r>  -21.2849    1.0000 </r>
[...]
      </set>
     </set>
    </set>
   </array>
  </eigenvalues>
  <separator name="orbital magnetization" >
   <v name="MAGDIPOLOUT">      0.00000000      0.00000000      0.00000000</v>
  </separator>
  <dos>
   <i name="efermi">     -0.55870776 </i>
   <total>
    <array>
     <dimension dim="1">gridpoints</dimension>
     <dimension dim="2">spin</dimension>
     <field>energy</field>
     <field>total</field>
     <field>integrated</field>
     <set>
      <set comment="spin 1">
       <r>   -22.8531     0.0000     0.0000 </r>
       <r>   -22.7401     0.0000     0.0000 </r>
       <r>   -22.6271     0.0000     0.0000 </r>
       <r>   -22.5141     0.0000     0.0000 </r>
       <r>   -22.4010     0.0000     0.0000 </r>
       <r>   -22.2880     0.0000     0.0000 </r>
       <r>   -22.1750     0.0000     0.0000 </r>
       <r>   -22.0620     0.0000     0.0000 </r>
       <r>   -21.9489     0.0000     0.0000 </r>
       <r>   -21.8359     0.0000     0.0000 </r>
       <r>   -21.7229     0.0000     0.0000 </r>
       <r>   -21.6099     0.0000     0.0000 </r>
       <r>   -21.4968     0.0000     0.0000 </r>
       <r>   -21.3838     0.0000     0.0000 </r>
       <r>   -21.2708  1207.3096   136.4577 </r>
       <r>   -21.1578   491.4101   192.0000 </r>
       <r>   -21.0447     0.0000   192.0000 </r>
       <r>   -20.9317     0.0000   192.0000 </r>
       <r>   -20.8187     0.0000   192.0000 </r>
       <r>   -20.7056     0.0000   192.0000 </r>
       <r>   -20.5926     0.0000   192.0000 </r>
       <r>   -20.4796     0.0000   192.0000 </r>
       <r>   -20.3666     0.0000   192.0000 </r>
       <r>   -20.2535     0.0000   192.0000 </r>
       <r>   -20.1405     0.0000   192.0000 </r>
       <r>   -20.0275     0.0000   192.0000 </r>
       <r>   -19.9145     0.0000   192.0000 </r>
       <r>   -19.8014     0.0000   192.0000 </r>
       <r>   -19.6884     0.0000   192.0000 </r>
       <r>   -19.5754     0.0000   192.0000 </r>
       <r>   -19.4624     0.0000   192.0000 </r>
       <r>   -19.3493     0.0000   192.0000 </r>
       <r>   -19.2363     0.0000   192.0000 </r>
       <r>   -19.1233     0.0000   192.0000 </r>
       <r>   -19.0103     0.0000   192.0000 </r>
       <r>   -18.8972     0.0000   192.0000 </r>
       <r>   -18.7842     0.0000   192.0000 </r>
       <r>   -18.6712     0.0000   192.0000 </r>
       <r>   -18.5581     0.0000   192.0000 </r>
       <r>   -18.4451     0.0000   192.0000 </r>
       <r>   -18.3321     0.0000   192.0000 </r>
       <r>   -18.2191     0.0000   192.0000 </r>
       <r>   -18.1060     0.0000   192.0000 </r>
       <r>   -17.9930     0.0000   192.0000 </r>
       <r>   -17.8800     0.0000   192.0000 </r>
       <r>   -17.7670     0.0000   192.0000 </r>
       <r>   -17.6539     0.0000   192.0000 </r>
       <r>   -17.5409     0.0000   192.0000 </r>
       <r>   -17.4279     0.0000   192.0000 </r>
       <r>   -17.3149     0.0000   192.0000 </r>
       <r>   -17.2018     0.0000   192.0000 </r>
       <r>   -17.0888     0.0000   192.0000 </r>
       <r>   -16.9758     0.0000   192.0000 </r>
       <r>   -16.8628     0.0000   192.0000 </r>
       <r>   -16.7497     0.0000   192.0000 </r>
       <r>   -16.6367     0.0000   192.0000 </r>
       <r>   -16.5237     0.0000   192.0000 </r>
       <r>   -16.4106     0.0000   192.0000 </r>
       <r>   -16.2976     0.0000   192.0000 </r>
       <r>   -16.1846     0.0000   192.0000 </r>
       <r>   -16.0716     0.0000   192.0000 </r>
       <r>   -15.9585     0.0000   192.0000 </r>
       <r>   -15.8455     0.0000   192.0000 </r>
       <r>   -15.7325     0.0000   192.0000 </r>
       <r>   -15.6195     0.0000   192.0000 </r>
       <r>   -15.5064     0.0000   192.0000 </r>
       <r>   -15.3934     0.0000   192.0000 </r>
       <r>   -15.2804     0.0000   192.0000 </r>
       <r>   -15.1674     0.0000   192.0000 </r>
       <r>   -15.0543     0.0000   192.0000 </r>
       <r>   -14.9413     0.0000   192.0000 </r>
       <r>   -14.8283     0.0000   192.0000 </r>
       <r>   -14.7153     0.0000   192.0000 </r>
       <r>   -14.6022     0.0000   192.0000 </r>
       <r>   -14.4892     0.0000   192.0000 </r>
       <r>   -14.3762     0.0000   192.0000 </r>
       <r>   -14.2631     0.0000   192.0000 </r>
       <r>   -14.1501     0.0000   192.0000 </r>
       <r>   -14.0371     0.0000   192.0000 </r>
       <r>   -13.9241     0.0000   192.0000 </r>
       <r>   -13.8110     0.0000   192.0000 </r>
       <r>   -13.6980     0.0000   192.0000 </r>
       <r>   -13.5850     0.0000   192.0000 </r>
       <r>   -13.4720     0.0000   192.0000 </r>
       <r>   -13.3589     1.0460   192.1182 </r>
       <r>   -13.2459    18.6711   194.2286 </r>
       <r>   -13.1329    48.6120   199.7231 </r>
       <r>   -13.0199   123.9581   213.7338 </r>
       <r>   -12.9068   368.7296   255.4107 </r>
       <r>   -12.7938     5.2058   256.0000 </r>
       <r>   -12.6808     0.0000   256.0000 </r>
       <r>   -12.5678     0.0000   256.0000 </r>
       <r>   -12.4547     0.0000   256.0000 </r>
       <r>   -12.3417     0.0000   256.0000 </r>
       <r>   -12.2287     0.0000   256.0000 </r>
       <r>   -12.1156     0.0000   256.0000 </r>
       <r>   -12.0026     0.0000   256.0000 </r>
       <r>   -11.8896     0.0000   256.0000 </r>
       <r>   -11.7766     0.0000   256.0000 </r>
       <r>   -11.6635     0.0000   256.0000 </r>
       <r>   -11.5505     0.0000   256.0000 </r>
       <r>   -11.4375     0.0000   256.0000 </r>
       <r>   -11.3245     0.0000   256.0000 </r>
       <r>   -11.2114     0.0000   256.0000 </r>
       <r>   -11.0984     0.0000   256.0000 </r>
       <r>   -10.9854     0.0000   256.0000 </r>
       <r>   -10.8724     0.0000   256.0000 </r>
       <r>   -10.7593     0.0000   256.0000 </r>
       <r>   -10.6463     0.0000   256.0000 </r>
       <r>   -10.5333     0.0000   256.0000 </r>
       <r>   -10.4203     0.0000   256.0000 </r>
       <r>   -10.3072     0.0000   256.0000 </r>
       <r>   -10.1942     0.0000   256.0000 </r>
       <r>   -10.0812     0.0000   256.0000 </r>
       <r>    -9.9681     0.0000   256.0000 </r>
       <r>    -9.8551     0.0000   256.0000 </r>
       <r>    -9.7421     0.0000   256.0000 </r>
       <r>    -9.6291     0.0000   256.0000 </r>
       <r>    -9.5160     0.0000   256.0000 </r>
       <r>    -9.4030     0.0000   256.0000 </r>
       <r>    -9.2900     0.0000   256.0000 </r>
       <r>    -9.1770     0.0000   256.0000 </r>
       <r>    -9.0639     0.0000   256.0000 </r>
       <r>    -8.9509     0.0000   256.0000 </r>
       <r>    -8.8379     0.0000   256.0000 </r>
       <r>    -8.7249     0.0000   256.0000 </r>
       <r>    -8.6118     0.0000   256.0000 </r>
       <r>    -8.4988     0.0000   256.0000 </r>
       <r>    -8.3858     0.0000   256.0000 </r>
       <r>    -8.2728     0.0000   256.0000 </r>
       <r>    -8.1597     0.0000   256.0000 </r>
       <r>    -8.0467     0.0000   256.0000 </r>
       <r>    -7.9337     0.0000   256.0000 </r>
       <r>    -7.8206     0.0000   256.0000 </r>
       <r>    -7.7076     0.0000   256.0000 </r>
       <r>    -7.5946     0.0000   256.0000 </r>
       <r>    -7.4816     0.0000   256.0000 </r>
       <r>    -7.3685     0.0000   256.0000 </r>
       <r>    -7.2555     0.0000   256.0000 </r>
       <r>    -7.1425     0.0000   256.0000 </r>
       <r>    -7.0295     0.0000   256.0000 </r>
       <r>    -6.9164     0.0000   256.0000 </r>
       <r>    -6.8034     0.0000   256.0000 </r>
       <r>    -6.6904     0.0000   256.0000 </r>
       <r>    -6.5774     0.0000   256.0000 </r>
       <r>    -6.4643     0.0000   256.0000 </r>
       <r>    -6.3513     0.0000   256.0000 </r>
       <r>    -6.2383     0.0000   256.0000 </r>
       <r>    -6.1253     0.0000   256.0000 </r>
       <r>    -6.0122     0.0000   256.0000 </r>
       <r>    -5.8992     0.0000   256.0000 </r>
       <r>    -5.7862     0.0000   256.0000 </r>
       <r>    -5.6731     0.0000   256.0000 </r>
       <r>    -5.5601     0.0000   256.0000 </r>
       <r>    -5.4471     0.0000   256.0000 </r>
       <r>    -5.3341     0.0000   256.0000 </r>
       <r>    -5.2210     0.0000   256.0000 </r>
       <r>    -5.1080     0.0000   256.0000 </r>
       <r>    -4.9950     0.0000   256.0000 </r>
       <r>    -4.8820     0.0000   256.0000 </r>
       <r>    -4.7689     0.0000   256.0000 </r>
       <r>    -4.6559     0.0000   256.0000 </r>
       <r>    -4.5429     0.0000   256.0000 </r>
       <r>    -4.4299     0.0000   256.0000 </r>
       <r>    -4.3168     0.0000   256.0000 </r>
       <r>    -4.2038     0.0000   256.0000 </r>
       <r>    -4.0908     0.0000   256.0000 </r>
       <r>    -3.9778     0.0000   256.0000 </r>
       <r>    -3.8647     0.0000   256.0000 </r>
       <r>    -3.7517     0.0000   256.0000 </r>
       <r>    -3.6387     0.0000   256.0000 </r>
       <r>    -3.5256     0.0000   256.0000 </r>
       <r>    -3.4126     0.0000   256.0000 </r>
       <r>    -3.2996     0.0000   256.0000 </r>
       <r>    -3.1866     0.0000   256.0000 </r>
       <r>    -3.0735     0.0000   256.0000 </r>
       <r>    -2.9605     0.0000   256.0000 </r>
       <r>    -2.8475     0.0000   256.0000 </r>
       <r>    -2.7345     0.0649   256.0073 </r>
       <r>    -2.6214     8.7825   257.0000 </r>
       <r>    -2.5084    20.5394   259.3215 </r>
       <r>    -2.3954    86.3804   269.0847 </r>
       <r>    -2.2824    80.5996   278.1946 </r>
       <r>    -2.1693   156.0670   295.8350 </r>
       <r>    -2.0563    74.4515   304.2500 </r>
       <r>    -1.9433    55.5322   310.5266 </r>
       <r>    -1.8303    59.1875   317.2163 </r>
       <r>    -1.7172    75.5015   325.7500 </r>
       <r>    -1.6042     0.0000   325.7500 </r>
       <r>    -1.4912    61.2001   332.6672 </r>
       <r>    -1.3781   203.6377   355.6836 </r>
       <r>    -1.2651    27.0888   358.7454 </r>
       <r>    -1.1521   247.8131   386.7548 </r>
       <r>    -1.0391   140.9325   402.6839 </r>
       <r>    -0.9260   254.4916   431.4483 </r>
       <r>    -0.8130    66.0054   438.9097 </r>
       <r>    -0.7000    73.7538   447.2458 </r>
       <r>    -0.5870     6.6730   448.0000 </r>
       <r>    -0.4739     0.0000   448.0000 </r>
       <r>    -0.3609     0.0000   448.0000 </r>
       <r>    -0.2479     0.0000   448.0000 </r>
       <r>    -0.1349     0.0000   448.0000 </r>
       <r>    -0.0218     0.0000   448.0000 </r>
       <r>     0.0912     0.0000   448.0000 </r>
       <r>     0.2042     0.0000   448.0000 </r>
       <r>     0.3172     0.0000   448.0000 </r>
       <r>     0.4303     0.0000   448.0000 </r>
       <r>     0.5433     0.0000   448.0000 </r>
       <r>     0.6563     0.0000   448.0000 </r>
       <r>     0.7694     0.0000   448.0000 </r>
       <r>     0.8824     0.0000   448.0000 </r>
       <r>     0.9954     0.0000   448.0000 </r>
       <r>     1.1084     0.0000   448.0000 </r>
       <r>     1.2215     0.0000   448.0000 </r>
       <r>     1.3345     0.0000   448.0000 </r>
       <r>     1.4475     0.0000   448.0000 </r>
       <r>     1.5605     0.0000   448.0000 </r>
       <r>     1.6736     0.0000   448.0000 </r>
       <r>     1.7866     0.0000   448.0000 </r>
       <r>     1.8996     0.0000   448.0000 </r>
       <r>     2.0126     0.0000   448.0000 </r>
       <r>     2.1257     0.0000   448.0000 </r>
       <r>     2.2387     0.0000   448.0000 </r>
       <r>     2.3517     0.0000   448.0000 </r>
       <r>     2.4647     0.0000   448.0000 </r>
       <r>     2.5778     0.0000   448.0000 </r>
       <r>     2.6908     0.0000   448.0000 </r>
       <r>     2.8038     0.0000   448.0000 </r>
       <r>     2.9169     0.0000   448.0000 </r>
       <r>     3.0299     0.0000   448.0000 </r>
       <r>     3.1429     0.0000   448.0000 </r>
       <r>     3.2559     0.0000   448.0000 </r>
       <r>     3.3690     0.0000   448.0000 </r>
       <r>     3.4820     0.0000   448.0000 </r>
       <r>     3.5950     0.0000   448.0000 </r>
       <r>     3.7080     0.0000   448.0000 </r>
       <r>     3.8211     0.0000   448.0000 </r>
       <r>     3.9341     0.0000   448.0000 </r>
       <r>     4.0471     0.0000   448.0000 </r>
       <r>     4.1601     0.0000   448.0000 </r>
       <r>     4.2732     0.0000   448.0000 </r>
       <r>     4.3862     2.2106   448.2499 </r>
       <r>     4.4992     0.0013   448.2500 </r>
       <r>     4.6122     0.0000   448.2500 </r>
       <r>     4.7253     0.0000   448.2500 </r>
       <r>     4.8383     0.0000   448.2500 </r>
       <r>     4.9513     0.0000   448.2500 </r>
       <r>     5.0644    13.2475   449.7473 </r>
       <r>     5.1774     0.0228   449.7500 </r>
       <r>     5.2904     0.0000   449.7500 </r>
       <r>     5.4034     0.0000   449.7500 </r>
       <r>     5.5165     1.6779   449.9397 </r>
       <r>     5.6295    24.8646   452.7500 </r>
       <r>     5.7425     0.0000   452.7500 </r>
       <r>     5.8555    16.6199   454.6285 </r>
       <r>     5.9686     1.0751   454.7500 </r>
       <r>     6.0816     0.0000   454.7500 </r>
       <r>     6.1946     0.0000   454.7500 </r>
       <r>     6.3076     0.0004   454.7500 </r>
       <r>     6.4207    13.6543   456.2933 </r>
       <r>     6.5337     8.4628   457.2500 </r>
       <r>     6.6467    37.0851   461.4416 </r>
       <r>     6.7597    68.9140   469.2307 </r>
       <r>     6.8728    58.7247   475.8684 </r>
       <r>     6.9858    12.3685   477.2664 </r>
       <r>     7.0988     2.0666   477.5000 </r>
       <r>     7.2119     4.2477   477.9801 </r>
       <r>     7.3249     2.5192   478.2648 </r>
       <r>     7.4379    80.5138   487.3650 </r>
       <r>     7.5509   166.3467   506.1668 </r>
       <r>     7.6640     5.1660   506.7507 </r>
       <r>     7.7770    26.5362   509.7500 </r>
       <r>     7.8900     0.0879   509.7599 </r>
       <r>     8.0030    52.9969   515.7500 </r>
       <r>     8.1161     0.0027   515.7503 </r>
       <r>     8.2291    13.6737   517.2958 </r>
       <r>     8.3421    92.4588   527.7461 </r>
       <r>     8.4551     0.0328   527.7500 </r>
       <r>     8.5682   142.0607   543.8066 </r>
       <r>     8.6812    17.1942   545.7500 </r>
       <r>     8.7942     0.0000   545.7500 </r>
       <r>     8.9072    76.0059   554.3407 </r>
       <r>     9.0203   126.8190   568.6746 </r>
       <r>     9.1333     7.3030   569.5000 </r>
       <r>     9.2463    19.7847   571.7362 </r>
       <r>     9.3593    24.4527   574.5000 </r>
       <r>     9.4724     1.0314   574.6166 </r>
       <r>     9.5854    12.2398   576.0000 </r>
       <r>     9.6984     0.0000   576.0000 </r>
       <r>     9.8115     0.0000   576.0000 </r>
       <r>     9.9245     0.0000   576.0000 </r>
       <r>    10.0375     0.0000   576.0000 </r>
       <r>    10.1505     0.0000   576.0000 </r>
       <r>    10.2636     0.0000   576.0000 </r>
       <r>    10.3766     0.0000   576.0000 </r>
       <r>    10.4896     0.0000   576.0000 </r>
       <r>    10.6026     0.0000   576.0000 </r>
       <r>    10.7157     0.0000   576.0000 </r>
       <r>    10.8287     0.0000   576.0000 </r>
       <r>    10.9417     0.0000   576.0000 </r>
       <r>    11.0547     0.0000   576.0000 </r>
      </set>
     </set>
    </array>
   </total>
  </dos>
 </calculation>
 <structure name="finalpos" >
  <crystal>
   <varray name="basis" >
    <v>      11.20400236       0.00000000       0.00000000 </v>
    <v>       0.00000000      11.20400236       0.00000000 </v>
    <v>       0.00000000       0.00000000      11.20400236 </v>
   </varray>
   <i name="volume">   1406.43470641 </i>
   <varray name="rec_basis" >
    <v>       0.08925382       0.00000000       0.00000000 </v>
    <v>       0.00000000       0.08925382       0.00000000 </v>
    <v>       0.00000000       0.00000000       0.08925382 </v>
   </varray>
  </crystal>
  <varray name="positions" >
   <v>       0.00000000       0.00000000       0.00000000 </v>
   <v>       0.25000000       0.25000000       0.00000000 </v>
   <v>       0.25000000       0.00000000       0.25000000 </v>
   <v>       0.00000000       0.25000000       0.25000000 </v>
   <v>       0.00000000       0.00000000       0.50000000 </v>
   <v>       0.25000000       0.25000000       0.50000000 </v>
   <v>       0.25000000       0.00000000       0.75000000 </v>
   <v>       0.00000000       0.25000000       0.75000000 </v>
   <v>       0.00000000       0.50000000       0.00000000 </v>
   <v>       0.25000000       0.75000000       0.00000000 </v>
   <v>       0.25000000       0.50000000       0.25000000 </v>
   <v>       0.00000000       0.75000000       0.25000000 </v>
   <v>       0.00000000       0.50000000       0.50000000 </v>
   <v>       0.25000000       0.75000000       0.50000000 </v>
   <v>       0.25000000       0.50000000       0.75000000 </v>
   <v>       0.00000000       0.75000000       0.75000000 </v>
   <v>       0.50000000       0.00000000       0.00000000 </v>
   <v>       0.75000000       0.25000000       0.00000000 </v>
   <v>       0.75000000       0.00000000       0.25000000 </v>
   <v>       0.50000000       0.25000000       0.25000000 </v>
   <v>       0.50000000       0.00000000       0.50000000 </v>
   <v>       0.75000000       0.25000000       0.50000000 </v>
   <v>       0.75000000       0.00000000       0.75000000 </v>
   <v>       0.50000000       0.25000000       0.75000000 </v>
   <v>       0.50000000       0.50000000       0.00000000 </v>
   <v>       0.75000000       0.75000000       0.00000000 </v>
   <v>       0.75000000       0.50000000       0.25000000 </v>
   <v>       0.50000000       0.75000000       0.25000000 </v>
   <v>       0.50000000       0.50000000       0.50000000 </v>
   <v>       0.75000000       0.75000000       0.50000000 </v>
   <v>       0.75000000       0.50000000       0.75000000 </v>
   <v>       0.50000000       0.75000000       0.75000000 </v>
   <v>       0.25267761       0.25000000       0.25000000 </v>
   <v>       0.00267761       0.00000000       0.25000000 </v>
   <v>       0.00000000       0.25000000       0.00000000 </v>
   <v>       0.25000000       0.00000000       0.00000000 </v>
   <v>       0.25000000       0.25000000       0.75000000 </v>
   <v>       0.00000000       0.00000000       0.75000000 </v>
   <v>       0.00000000       0.25000000       0.50000000 </v>
   <v>       0.25000000       0.00000000       0.50000000 </v>
   <v>       0.25000000       0.75000000       0.25000000 </v>
   <v>       0.00000000       0.50000000       0.25000000 </v>
   <v>       0.00000000       0.75000000       0.00000000 </v>
   <v>       0.25000000       0.50000000       0.00000000 </v>
   <v>       0.25000000       0.75000000       0.75000000 </v>
   <v>       0.00000000       0.50000000       0.75000000 </v>
   <v>       0.00000000       0.75000000       0.50000000 </v>
   <v>       0.25000000       0.50000000       0.50000000 </v>
   <v>       0.75000000       0.25000000       0.25000000 </v>
   <v>       0.50000000       0.00000000       0.25000000 </v>
   <v>       0.50000000       0.25000000       0.00000000 </v>
   <v>       0.75000000       0.00000000       0.00000000 </v>
   <v>       0.75000000       0.25000000       0.75000000 </v>
   <v>       0.50000000       0.00000000       0.75000000 </v>
   <v>       0.50000000       0.25000000       0.50000000 </v>
   <v>       0.75000000       0.00000000       0.50000000 </v>
   <v>       0.75000000       0.75000000       0.25000000 </v>
   <v>       0.50000000       0.50000000       0.25000000 </v>
   <v>       0.50000000       0.75000000       0.00000000 </v>
   <v>       0.75000000       0.50000000       0.00000000 </v>
   <v>       0.75000000       0.75000000       0.75000000 </v>
   <v>       0.50000000       0.50000000       0.75000000 </v>
   <v>       0.50000000       0.75000000       0.50000000 </v>
   <v>       0.75000000       0.50000000       0.50000000 </v>
  </varray>
 </structure>
</modeling>
