  64  64   0   0
  0.2197554E+02  0.1120400E-08  0.1120400E-08  0.1120400E-08  0.5000000E-15
  1.000000000000000E-004
  CAR 
 unknown system                          
     11.05848987    -22.85531939  301     -0.55698980      1.00000000
    -22.855  0.0000E+00  0.0000E+00
    -22.742  0.0000E+00  0.0000E+00
    -22.629  0.0000E+00  0.0000E+00
    -22.516  0.0000E+00  0.0000E+00
    -22.403  0.0000E+00  0.0000E+00
    -22.290  0.0000E+00  0.0000E+00
    -22.177  0.0000E+00  0.0000E+00
    -22.064  0.0000E+00  0.0000E+00
    -21.951  0.0000E+00  0.0000E+00
    -21.838  0.0000E+00  0.0000E+00
    -21.725  0.0000E+00  0.0000E+00
    -21.612  0.0000E+00  0.0000E+00
    -21.499  0.0000E+00  0.0000E+00
    -21.386  0.6744E-05  0.7624E-06
    -21.273  0.1148E+04  0.1298E+03
    -21.160  0.5502E+03  0.1920E+03
    -21.047  0.0000E+00  0.1920E+03
    -20.934  0.0000E+00  0.1920E+03
    -20.820  0.0000E+00  0.1920E+03
    -20.707  0.0000E+00  0.1920E+03
    -20.594  0.0000E+00  0.1920E+03
    -20.481  0.0000E+00  0.1920E+03
    -20.368  0.0000E+00  0.1920E+03
    -20.255  0.0000E+00  0.1920E+03
    -20.142  0.0000E+00  0.1920E+03
    -20.029  0.0000E+00  0.1920E+03
    -19.916  0.0000E+00  0.1920E+03
    -19.803  0.0000E+00  0.1920E+03
    -19.690  0.0000E+00  0.1920E+03
    -19.577  0.0000E+00  0.1920E+03
    -19.464  0.0000E+00  0.1920E+03
    -19.351  0.0000E+00  0.1920E+03
    -19.238  0.0000E+00  0.1920E+03
    -19.125  0.0000E+00  0.1920E+03
    -19.012  0.0000E+00  0.1920E+03
    -18.899  0.0000E+00  0.1920E+03
    -18.786  0.0000E+00  0.1920E+03
    -18.673  0.0000E+00  0.1920E+03
    -18.560  0.0000E+00  0.1920E+03
    -18.447  0.0000E+00  0.1920E+03
    -18.333  0.0000E+00  0.1920E+03
    -18.220  0.0000E+00  0.1920E+03
    -18.107  0.0000E+00  0.1920E+03
    -17.994  0.0000E+00  0.1920E+03
    -17.881  0.0000E+00  0.1920E+03
    -17.768  0.0000E+00  0.1920E+03
    -17.655  0.0000E+00  0.1920E+03
    -17.542  0.0000E+00  0.1920E+03
    -17.429  0.0000E+00  0.1920E+03
    -17.316  0.0000E+00  0.1920E+03
    -17.203  0.0000E+00  0.1920E+03
    -17.090  0.0000E+00  0.1920E+03
    -16.977  0.0000E+00  0.1920E+03
    -16.864  0.0000E+00  0.1920E+03
    -16.751  0.0000E+00  0.1920E+03
    -16.638  0.0000E+00  0.1920E+03
    -16.525  0.0000E+00  0.1920E+03
    -16.412  0.0000E+00  0.1920E+03
    -16.299  0.0000E+00  0.1920E+03
    -16.186  0.0000E+00  0.1920E+03
    -16.073  0.0000E+00  0.1920E+03
    -15.960  0.0000E+00  0.1920E+03
    -15.846  0.0000E+00  0.1920E+03
    -15.733  0.0000E+00  0.1920E+03
    -15.620  0.0000E+00  0.1920E+03
    -15.507  0.0000E+00  0.1920E+03
    -15.394  0.0000E+00  0.1920E+03
    -15.281  0.0000E+00  0.1920E+03
    -15.168  0.0000E+00  0.1920E+03
    -15.055  0.0000E+00  0.1920E+03
    -14.942  0.0000E+00  0.1920E+03
    -14.829  0.0000E+00  0.1920E+03
    -14.716  0.0000E+00  0.1920E+03
    -14.603  0.0000E+00  0.1920E+03
    -14.490  0.0000E+00  0.1920E+03
    -14.377  0.0000E+00  0.1920E+03
    -14.264  0.0000E+00  0.1920E+03
    -14.151  0.0000E+00  0.1920E+03
    -14.038  0.0000E+00  0.1920E+03
    -13.925  0.0000E+00  0.1920E+03
    -13.812  0.0000E+00  0.1920E+03
    -13.699  0.0000E+00  0.1920E+03
    -13.586  0.0000E+00  0.1920E+03
    -13.472  0.6138E-15  0.1920E+03
    -13.359  0.1022E+01  0.1921E+03
    -13.246  0.1863E+02  0.1942E+03
    -13.133  0.4861E+02  0.1997E+03
    -13.020  0.1241E+03  0.2138E+03
    -12.907  0.3677E+03  0.2553E+03
    -12.794  0.6014E+01  0.2560E+03
    -12.681  0.0000E+00  0.2560E+03
    -12.568  0.0000E+00  0.2560E+03
    -12.455  0.0000E+00  0.2560E+03
    -12.342  0.0000E+00  0.2560E+03
    -12.229  0.0000E+00  0.2560E+03
    -12.116  0.0000E+00  0.2560E+03
    -12.003  0.0000E+00  0.2560E+03
    -11.890  0.0000E+00  0.2560E+03
    -11.777  0.0000E+00  0.2560E+03
    -11.664  0.0000E+00  0.2560E+03
    -11.551  0.0000E+00  0.2560E+03
    -11.438  0.0000E+00  0.2560E+03
    -11.325  0.0000E+00  0.2560E+03
    -11.212  0.0000E+00  0.2560E+03
    -11.099  0.0000E+00  0.2560E+03
    -10.985  0.0000E+00  0.2560E+03
    -10.872  0.0000E+00  0.2560E+03
    -10.759  0.0000E+00  0.2560E+03
    -10.646  0.0000E+00  0.2560E+03
    -10.533  0.0000E+00  0.2560E+03
    -10.420  0.0000E+00  0.2560E+03
    -10.307  0.0000E+00  0.2560E+03
    -10.194  0.0000E+00  0.2560E+03
    -10.081  0.0000E+00  0.2560E+03
     -9.968  0.0000E+00  0.2560E+03
     -9.855  0.0000E+00  0.2560E+03
     -9.742  0.0000E+00  0.2560E+03
     -9.629  0.0000E+00  0.2560E+03
     -9.516  0.0000E+00  0.2560E+03
     -9.403  0.0000E+00  0.2560E+03
     -9.290  0.0000E+00  0.2560E+03
     -9.177  0.0000E+00  0.2560E+03
     -9.064  0.0000E+00  0.2560E+03
     -8.951  0.0000E+00  0.2560E+03
     -8.838  0.0000E+00  0.2560E+03
     -8.725  0.0000E+00  0.2560E+03
     -8.612  0.0000E+00  0.2560E+03
     -8.498  0.0000E+00  0.2560E+03
     -8.385  0.0000E+00  0.2560E+03
     -8.272  0.0000E+00  0.2560E+03
     -8.159  0.0000E+00  0.2560E+03
     -8.046  0.0000E+00  0.2560E+03
     -7.933  0.0000E+00  0.2560E+03
     -7.820  0.0000E+00  0.2560E+03
     -7.707  0.0000E+00  0.2560E+03
     -7.594  0.0000E+00  0.2560E+03
     -7.481  0.0000E+00  0.2560E+03
     -7.368  0.0000E+00  0.2560E+03
     -7.255  0.0000E+00  0.2560E+03
     -7.142  0.0000E+00  0.2560E+03
     -7.029  0.0000E+00  0.2560E+03
     -6.916  0.0000E+00  0.2560E+03
     -6.803  0.0000E+00  0.2560E+03
     -6.690  0.0000E+00  0.2560E+03
     -6.577  0.0000E+00  0.2560E+03
     -6.464  0.0000E+00  0.2560E+03
     -6.351  0.0000E+00  0.2560E+03
     -6.238  0.0000E+00  0.2560E+03
     -6.125  0.0000E+00  0.2560E+03
     -6.011  0.0000E+00  0.2560E+03
     -5.898  0.0000E+00  0.2560E+03
     -5.785  0.0000E+00  0.2560E+03
     -5.672  0.0000E+00  0.2560E+03
     -5.559  0.0000E+00  0.2560E+03
     -5.446  0.0000E+00  0.2560E+03
     -5.333  0.0000E+00  0.2560E+03
     -5.220  0.0000E+00  0.2560E+03
     -5.107  0.0000E+00  0.2560E+03
     -4.994  0.0000E+00  0.2560E+03
     -4.881  0.0000E+00  0.2560E+03
     -4.768  0.0000E+00  0.2560E+03
     -4.655  0.0000E+00  0.2560E+03
     -4.542  0.0000E+00  0.2560E+03
     -4.429  0.0000E+00  0.2560E+03
     -4.316  0.0000E+00  0.2560E+03
     -4.203  0.0000E+00  0.2560E+03
     -4.090  0.0000E+00  0.2560E+03
     -3.977  0.0000E+00  0.2560E+03
     -3.864  0.0000E+00  0.2560E+03
     -3.751  0.0000E+00  0.2560E+03
     -3.637  0.0000E+00  0.2560E+03
     -3.524  0.0000E+00  0.2560E+03
     -3.411  0.0000E+00  0.2560E+03
     -3.298  0.0000E+00  0.2560E+03
     -3.185  0.0000E+00  0.2560E+03
     -3.072  0.0000E+00  0.2560E+03
     -2.959  0.0000E+00  0.2560E+03
     -2.846  0.0000E+00  0.2560E+03
     -2.733  0.8501E-01  0.2560E+03
     -2.620  0.8761E+01  0.2570E+03
     -2.507  0.2265E+02  0.2596E+03
     -2.394  0.8518E+02  0.2692E+03
     -2.281  0.8151E+02  0.2784E+03
     -2.168  0.1552E+03  0.2959E+03
     -2.055  0.7345E+02  0.3043E+03
     -1.942  0.5609E+02  0.3106E+03
     -1.829  0.6071E+02  0.3175E+03
     -1.716  0.7338E+02  0.3257E+03
     -1.603  0.1311E-09  0.3258E+03
     -1.490  0.6700E+02  0.3333E+03
     -1.377  0.1994E+03  0.3559E+03
     -1.264  0.2560E+02  0.3588E+03
     -1.150  0.2510E+03  0.3871E+03
     -1.037  0.1385E+03  0.4028E+03
     -0.924  0.2569E+03  0.4318E+03
     -0.811  0.6417E+02  0.4391E+03
     -0.698  0.7221E+02  0.4472E+03
     -0.585  0.6635E+01  0.4480E+03
     -0.472  0.0000E+00  0.4480E+03
     -0.359  0.0000E+00  0.4480E+03
     -0.246  0.0000E+00  0.4480E+03
     -0.133  0.0000E+00  0.4480E+03
     -0.020  0.0000E+00  0.4480E+03
      0.093  0.0000E+00  0.4480E+03
      0.206  0.0000E+00  0.4480E+03
      0.319  0.0000E+00  0.4480E+03
      0.432  0.0000E+00  0.4480E+03
      0.545  0.0000E+00  0.4480E+03
      0.658  0.0000E+00  0.4480E+03
      0.771  0.0000E+00  0.4480E+03
      0.884  0.0000E+00  0.4480E+03
      0.997  0.0000E+00  0.4480E+03
      1.110  0.0000E+00  0.4480E+03
      1.223  0.0000E+00  0.4480E+03
      1.337  0.0000E+00  0.4480E+03
      1.450  0.0000E+00  0.4480E+03
      1.563  0.0000E+00  0.4480E+03
      1.676  0.0000E+00  0.4480E+03
      1.789  0.0000E+00  0.4480E+03
      1.902  0.0000E+00  0.4480E+03
      2.015  0.0000E+00  0.4480E+03
      2.128  0.0000E+00  0.4480E+03
      2.241  0.0000E+00  0.4480E+03
      2.354  0.0000E+00  0.4480E+03
      2.467  0.0000E+00  0.4480E+03
      2.580  0.0000E+00  0.4480E+03
      2.693  0.0000E+00  0.4480E+03
      2.806  0.0000E+00  0.4480E+03
      2.919  0.0000E+00  0.4480E+03
      3.032  0.0000E+00  0.4480E+03
      3.145  0.0000E+00  0.4480E+03
      3.258  0.0000E+00  0.4480E+03
      3.371  0.0000E+00  0.4480E+03
      3.484  0.0000E+00  0.4480E+03
      3.597  0.0000E+00  0.4480E+03
      3.710  0.0000E+00  0.4480E+03
      3.824  0.0000E+00  0.4480E+03
      3.937  0.0000E+00  0.4480E+03
      4.050  0.0000E+00  0.4480E+03
      4.163  0.0000E+00  0.4480E+03
      4.276  0.5557E-05  0.4480E+03
      4.389  0.2211E+01  0.4482E+03
      4.502  0.0000E+00  0.4482E+03
      4.615  0.0000E+00  0.4482E+03
      4.728  0.0000E+00  0.4482E+03
      4.841  0.0000E+00  0.4482E+03
      4.954  0.1236E-04  0.4483E+03
      5.067  0.1326E+02  0.4497E+03
      5.180  0.1123E-01  0.4498E+03
      5.293  0.0000E+00  0.4498E+03
      5.406  0.0000E+00  0.4498E+03
      5.519  0.2270E+01  0.4500E+03
      5.632  0.2427E+02  0.4527E+03
      5.745  0.1609E-06  0.4528E+03
      5.858  0.1705E+02  0.4547E+03
      5.971  0.6469E+00  0.4548E+03
      6.084  0.0000E+00  0.4548E+03
      6.198  0.0000E+00  0.4548E+03
      6.311  0.8295E-03  0.4548E+03
      6.424  0.1386E+02  0.4563E+03
      6.537  0.8250E+01  0.4572E+03
      6.650  0.4064E+02  0.4618E+03
      6.763  0.6543E+02  0.4692E+03
      6.876  0.5911E+02  0.4759E+03
      6.989  0.1250E+02  0.4773E+03
      7.102  0.1434E+01  0.4775E+03
      7.215  0.4762E+01  0.4780E+03
      7.328  0.2093E+01  0.4783E+03
      7.441  0.8131E+02  0.4875E+03
      7.554  0.1672E+03  0.5064E+03
      7.667  0.3356E+01  0.5068E+03
      7.780  0.2652E+02  0.5097E+03
      7.893  0.1667E+00  0.5098E+03
      8.006  0.5291E+02  0.5157E+03
      8.119  0.5345E-02  0.5158E+03
      8.232  0.1393E+02  0.5173E+03
      8.345  0.9220E+02  0.5277E+03
      8.458  0.1030E-01  0.5278E+03
      8.571  0.1474E+03  0.5444E+03
      8.685  0.1182E+02  0.5458E+03
      8.798  0.8674E-06  0.5458E+03
      8.911  0.8041E+02  0.5548E+03
      9.024  0.1250E+03  0.5690E+03
      9.137  0.4698E+01  0.5695E+03
      9.250  0.2321E+02  0.5721E+03
      9.363  0.2102E+02  0.5745E+03
      9.476  0.1666E+01  0.5747E+03
      9.589  0.1160E+02  0.5760E+03
      9.702  0.0000E+00  0.5760E+03
      9.815  0.0000E+00  0.5760E+03
      9.928  0.0000E+00  0.5760E+03
     10.041  0.0000E+00  0.5760E+03
     10.154  0.0000E+00  0.5760E+03
     10.267  0.0000E+00  0.5760E+03
     10.380  0.0000E+00  0.5760E+03
     10.493  0.0000E+00  0.5760E+03
     10.606  0.0000E+00  0.5760E+03
     10.719  0.0000E+00  0.5760E+03
     10.832  0.0000E+00  0.5760E+03
     10.945  0.0000E+00  0.5760E+03
     11.058  0.0000E+00  0.5760E+03
