       N       E                     dE             d eps       ncg     rms          rms(c)
DAV:   1     0.432189666418E+04    0.43219E+04   -0.17164E+05  4608   0.125E+03
DAV:   2     0.363878167008E+03   -0.39580E+04   -0.37658E+04  5120   0.368E+02
DAV:   3    -0.206175979292E+03   -0.57005E+03   -0.56580E+03  5600   0.156E+02
DAV:   4    -0.228191866480E+03   -0.22016E+02   -0.21915E+02  5536   0.331E+01
DAV:   5    -0.229003420831E+03   -0.81155E+00   -0.81010E+00  5696   0.616E+00    0.106E+01
DAV:   6    -0.224139400078E+03    0.48640E+01   -0.94637E+00  5728   0.530E+00    0.775E+00
DAV:   7    -0.223777413128E+03    0.36199E+00   -0.20742E+00  6304   0.235E+00    0.533E+00
DAV:   8    -0.223902720340E+03   -0.12531E+00   -0.26698E-01  5312   0.124E+00    0.143E+00
DAV:   9    -0.223897074519E+03    0.56458E-02   -0.11401E-02  5760   0.261E-01    0.605E-01
DAV:  10    -0.223901348629E+03   -0.42741E-02   -0.18400E-02  5344   0.226E-01    0.287E-01
DAV:  11    -0.223900620547E+03    0.72808E-03   -0.16139E-03  5952   0.803E-02    0.873E-02
DAV:  12    -0.223900584498E+03    0.36049E-04   -0.13380E-04  5952   0.221E-02    0.194E-02
DAV:  13    -0.223900581759E+03    0.27392E-05   -0.26466E-05  5696   0.835E-03    0.352E-03
DAV:  14    -0.223900583074E+03   -0.13154E-05   -0.24351E-06  5472   0.358E-03    0.883E-03
DAV:  15    -0.223900584282E+03   -0.12077E-05   -0.35470E-07  5824   0.166E-03    0.385E-03
DAV:  16    -0.223900584795E+03   -0.51304E-06   -0.14616E-07  5504   0.866E-04    0.983E-04
DAV:  17    -0.223900584860E+03   -0.64436E-07   -0.94849E-09  3744   0.636E-04    0.322E-04
DAV:  18    -0.223900584999E+03   -0.13971E-06   -0.15532E-08  3872   0.446E-04    0.471E-04
DAV:  19    -0.223900584984E+03    0.15803E-07   -0.66893E-09  3072   0.290E-04    0.405E-04
DAV:  20    -0.223900584946E+03    0.37522E-07   -0.17476E-09  3136   0.326E-04    0.290E-04
DAV:  21    -0.223900584886E+03    0.60223E-07   -0.22581E-09  3296   0.195E-04    0.108E-04
DAV:  22    -0.223900584890E+03   -0.40891E-08   -0.11268E-09  3040   0.144E-04
   1 F= -.22390058E+03 E0= -.22390058E+03  d E =-.101503E-14
