 vasp.6.3.2 27Jun22 (build Oct 14 2022 12:13:54) complex                        
  
 executed on             LinuxIFC date 2025.08.28  22:01:09
 running on   32 total cores
 distrk:  each k-point on   32 cores,    1 groups
 distr:  one band on NCORE=   1 cores,   32 groups


--------------------------------------------------------------------------------------------------------


 INCAR:
   ENCUT = 341.213600
   SIGMA = 0.020000
   EDIFF = 1.00e-08
   GGA = PS
   PREC = Accurate
   IALGO = 38
   IBRION = -1
   ISMEAR = 0
   NELMIN = 5
   ADDGRID = .TRUE.
   LCHARG = .FALSE.
   LWAVE = .FALSE.
   LREAL = .FALSE.

 POTCAR:    PAW_PBE Na_pv 19Sep2006               
 POTCAR:    PAW_PBE Cl 06Sep2000                  
 -----------------------------------------------------------------------------
|                                                                             |
|           W    W    AA    RRRRR   N    N  II  N    N   GGGG   !!!           |
|           W    W   A  A   R    R  NN   N  II  NN   N  G    G  !!!           |
|           W    W  A    A  R    R  N N  N  II  N N  N  G       !!!           |
|           W WW W  AAAAAA  RRRRR   N  N N  II  N  N N  G  GGG   !            |
|           WW  WW  A    A  R   R   N   NN  II  N   NN  G    G                |
|           W    W  A    A  R    R  N    N  II  N    N   GGGG   !!!           |
|                                                                             |
|     For optimal performance we recommend to set                             |
|       NCORE = 2 up to number-of-cores-per-socket                            |
|     NCORE specifies how many cores store one orbital (NPAR=cpu/NCORE).      |
|     This setting can greatly improve the performance of VASP for DFT.       |
|     The default, NCORE=1 might be grossly inefficient on modern             |
|     multi-core architectures or massively parallel machines. Do your        |
|     own testing! More info at https://www.vasp.at/wiki/index.php/NCORE      |
|     Unfortunately you need to use the default for GW and RPA                |
|     calculations (for HF NCORE is supported but not extensively tested      |
|     yet).                                                                   |
|                                                                             |
 -----------------------------------------------------------------------------

 POTCAR:    PAW_PBE Na_pv 19Sep2006               
   SHA256 =  6a2f546d9e11350984debacf3dc457d8cffc0868e817d445faca461816a32b94 Na_pv/POTCAR          
   COPYR  = (c) Copyright 19Sep2006 Georg Kresse                                                    
   COPYR  = This file is part of the software VASP. Any use, copying, and all other rights are regul
   COPYR  = If you do not have a valid VASP license, you may not use, copy or distribute this file. 
   VRHFIN =Na: p6s1                                                                                 
   LEXCH  = PE                                                                                      
   EATOM  =   766.0439 eV,   56.3026 Ry                                                             
                                                                                                    
   TITEL  = PAW_PBE Na_pv 19Sep2006                                                                 
   LULTRA =        F    use ultrasoft PP ?                                                          
   IUNSCR =        1    unscreen: 0-lin 1-nonlin 2-no                                               
   RPACOR =    1.800    partial core radius                                                         
   POMASS =   22.990; ZVAL   =    7.000    mass and valenz                                          
   RCORE  =    2.200    outmost cutoff radius                                                       
   RWIGS  =    2.200; RWIGS  =    1.164    wigner-seitz radius (au A)                               
   ENMAX  =  259.561; ENMIN  =  194.671 eV                                                          
   ICORE  =        2    local potential                                                             
   LCOR   =        T    correct aug charges                                                         
   LPAW   =        T    paw PP                                                                      
   EAUG   =  368.056                                                                                
   DEXC   =    0.000                                                                                
   RMAX   =    2.245    core radius for proj-oper                                                   
   RAUG   =    1.300    factor for augmentation sphere                                              
   RDEP   =    2.259    radius for radial grids                                                     
   RDEPT  =    1.738    core radius for aug-charge                                                  
                                                                                                    
   Atomic configuration                                                                             
    5 entries                                                                                       
     n  l   j            E        occ.                                                              
     1  0  0.50     -1033.6933   2.0000                                                             
     2  0  0.50       -56.7526   2.0000                                                             
     2  1  1.50       -28.6721   6.0000                                                             
     3  0  0.50        -2.7440   1.0000                                                             
     3  2  1.50        -1.3606   0.0000                                                             
   Description                                                                                      
     l       E           TYP  RCUT    TYP  RCUT                                                     
     1    -28.6720912     23  2.000                                                                 
     1      6.8029130     23  2.000                                                                 
     0     -2.7439560     23  2.200                                                                 
     0     34.0145650     23  2.200                                                                 
     2     -1.3605826     23  2.200                                                                 
  local pseudopotential read in
  partial core-charges read in
  partial kinetic energy density read in
  atomic valenz-charges read in
  non local Contribution for L=           1  read in
    real space projection operators read in
  non local Contribution for L=           1  read in
    real space projection operators read in
  non local Contribution for L=           0  read in
    real space projection operators read in
  non local Contribution for L=           0  read in
    real space projection operators read in
    PAW grid and wavefunctions read in
 
   number of l-projection  operators is LMAX  =           4
   number of lm-projection operators is LMMAX =           8
 
 POTCAR:    PAW_PBE Cl 06Sep2000                  
   SHA256 =  9f1b6e6ed4247ac726a768b330d26d7667cc3c95a39ff49c1d064c2d9dcce931 Cl/POTCAR             
   COPYR  = (c) Copyright 06Sep2000 Georg Kresse                                                    
   COPYR  = This file is part of the software VASP. Any use, copying, and all other rights are regul
   COPYR  = If you do not have a valid VASP license, you may not use, copy or distribute this file. 
   VRHFIN =Cl: s2p5                                                                                 
   LEXCH  = PE                                                                                      
   EATOM  =   409.7259 eV,   30.1140 Ry                                                             
                                                                                                    
   TITEL  = PAW_PBE Cl 06Sep2000                                                                    
   LULTRA =        F    use ultrasoft PP ?                                                          
   IUNSCR =        1    unscreen: 0-lin 1-nonlin 2-no                                               
   RPACOR =    1.500    partial core radius                                                         
   POMASS =   35.453; ZVAL   =    7.000    mass and valenz                                          
   RCORE  =    1.900    outmost cutoff radius                                                       
   RWIGS  =    2.100; RWIGS  =    1.111    wigner-seitz radius (au A)                               
   ENMAX  =  262.472; ENMIN  =  196.854 eV                                                          
   ICORE  =        2    local potential                                                             
   LCOR   =        T    correct aug charges                                                         
   LPAW   =        T    paw PP                                                                      
   EAUG   =  356.192                                                                                
   DEXC   =    0.000                                                                                
   RMAX   =    1.945    core radius for proj-oper                                                   
   RAUG   =    1.300    factor for augmentation sphere                                              
   RDEP   =    2.020    radius for radial grids                                                     
   RDEPT  =    1.678    core radius for aug-charge                                                  
                                                                                                    
   Atomic configuration                                                                             
    6 entries                                                                                       
     n  l   j            E        occ.                                                              
     1  0  0.50     -2751.1850   2.0000                                                             
     2  0  0.50      -252.6861   2.0000                                                             
     2  1  1.50      -191.6157   6.0000                                                             
     3  0  0.50       -20.6916   2.0000                                                             
     3  1  0.50        -8.5949   5.0000                                                             
     3  2  1.50        -8.1635   0.0000                                                             
   Description                                                                                      
     l       E           TYP  RCUT    TYP  RCUT                                                     
     0    -20.6915656     23  1.900                                                                 
     0    -22.0521482     23  1.900                                                                 
     1     -8.5948577     23  1.900                                                                 
     1     -5.3847331     23  1.900                                                                 
     2     -8.1634956     23  1.900                                                                 
  local pseudopotential read in
  partial core-charges read in
  partial kinetic energy density read in
  atomic valenz-charges read in
  non local Contribution for L=           0  read in
    real space projection operators read in
  non local Contribution for L=           0  read in
    real space projection operators read in
  non local Contribution for L=           1  read in
    real space projection operators read in
  non local Contribution for L=           1  read in
    real space projection operators read in
    PAW grid and wavefunctions read in
 
   number of l-projection  operators is LMAX  =           4
   number of lm-projection operators is LMMAX =           8
 
 -----------------------------------------------------------------------------
|                                                                             |
|               ----> ADVICE to this user running VASP <----                  |
|                                                                             |
|     You have a (more or less) 'large supercell' and for larger cells it     |
|     might be more efficient to use real-space projection operators.         |
|     Therefore, try LREAL= Auto in the INCAR file.                           |
|     Mind: For very accurate calculation, you might also keep the            |
|     reciprocal projection scheme (i.e. LREAL=.FALSE.).                      |
|                                                                             |
 -----------------------------------------------------------------------------

 -----------------------------------------------------------------------------
|                                                                             |
|               ----> ADVICE to this user running VASP <----                  |
|                                                                             |
|     You enforced a specific xc type in the INCAR file but a different       |
|     type was found in the POTCAR file.                                      |
|     I HOPE YOU KNOW WHAT YOU ARE DOING!                                     |
|                                                                             |
 -----------------------------------------------------------------------------

  PAW_PBE Na_pv 19Sep2006               :
 energy of atom  1       EATOM= -766.0439
 kinetic energy error for atom=    0.0189 (will be added to EATOM!!)
  PAW_PBE Cl 06Sep2000                  :
 energy of atom  2       EATOM= -409.7259
 kinetic energy error for atom=    0.0106 (will be added to EATOM!!)
 
 
 POSCAR: Na Cl
  positions in cartesian coordinates
  No initial velocities read in
 exchange correlation table for  LEXCH =       14
   RHO(1)=    0.500       N(1)  =     2000
   RHO(2)=  100.500       N(2)  =     4000
 


--------------------------------------------------------------------------------------------------------


 ion  position               nearest neighbor table
   1  0.003  0.000  0.000-
   2  0.250  0.250  0.000-
   3  0.250  0.000  0.250-
   4  0.000  0.250  0.250-
   5  0.000  0.000  0.500-
   6  0.250  0.250  0.500-
   7  0.250  0.000  0.750-
   8  0.000  0.250  0.750-
   9  0.000  0.500  0.000-
  10  0.250  0.750  0.000-
  11  0.250  0.500  0.250-
  12  0.000  0.750  0.250-
  13  0.000  0.500  0.500-
  14  0.250  0.750  0.500-
  15  0.250  0.500  0.750-
  16  0.000  0.750  0.750-
  17  0.500  0.000  0.000-
  18  0.750  0.250  0.000-
  19  0.750  0.000  0.250-
  20  0.500  0.250  0.250-
  21  0.500  0.000  0.500-
  22  0.750  0.250  0.500-
  23  0.750  0.000  0.750-
  24  0.500  0.250  0.750-
  25  0.500  0.500  0.000-
  26  0.750  0.750  0.000-
  27  0.750  0.500  0.250-
  28  0.500  0.750  0.250-
  29  0.500  0.500  0.500-
  30  0.750  0.750  0.500-
  31  0.750  0.500  0.750-
  32  0.500  0.750  0.750-
  33  0.250  0.253  0.250-
  34  0.000  0.000  0.250-
  35  0.000  0.250  0.000-
  36  0.250  0.000  0.000-
  37  0.250  0.250  0.750-
  38  0.000  0.000  0.750-
  39  0.000  0.250  0.500-
  40  0.250  0.000  0.500-
  41  0.250  0.750  0.250-
  42  0.000  0.500  0.250-
  43  0.000  0.750  0.000-
  44  0.250  0.500  0.000-
  45  0.250  0.750  0.750-
  46  0.000  0.500  0.750-
  47  0.000  0.750  0.500-
  48  0.250  0.500  0.500-
  49  0.750  0.250  0.250-
  50  0.500  0.000  0.250-
  51  0.500  0.250  0.000-
  52  0.750  0.000  0.000-
  53  0.750  0.250  0.750-
  54  0.500  0.000  0.750-
  55  0.500  0.250  0.500-
  56  0.750  0.000  0.500-
  57  0.750  0.750  0.250-
  58  0.500  0.500  0.250-
  59  0.500  0.750  0.000-
  60  0.750  0.500  0.000-
  61  0.750  0.750  0.750-
  62  0.500  0.500  0.750-
  63  0.500  0.750  0.500-
  64  0.750  0.500  0.500-
 
  LATTYP: Found a simple cubic cell.
 ALAT       =    11.2040023600
  
  Lattice vectors:
  
 A1 = (  11.2040023600,   0.0000000000,   0.0000000000)
 A2 = (   0.0000000000,  11.2040023600,   0.0000000000)
 A3 = (   0.0000000000,   0.0000000000,  11.2040023600)


Analysis of symmetry for initial positions (statically):
=====================================================================
 Subroutine PRICEL returns:
 Original cell was already a primitive cell.
 

 Routine SETGRP: Setting up the symmetry group for a 
 simple cubic supercell.


 Subroutine GETGRP returns: Found  1 space group operations
 (whereof  1 operations were pure point group operations)
 out of a pool of 48 trial point group operations.


The static configuration has the point symmetry C_1 .


Analysis of symmetry for dynamics (positions and initial velocities):
=====================================================================
 Subroutine PRICEL returns:
 Original cell was already a primitive cell.
 

 Routine SETGRP: Setting up the symmetry group for a 
 simple cubic supercell.


 Subroutine GETGRP returns: Found  1 space group operations
 (whereof  1 operations were pure point group operations)
 out of a pool of 48 trial point group operations.


The dynamic configuration has the point symmetry C_1 .


 Subroutine INISYM returns: Found  1 space group operations
 (whereof  1 operations are pure point group operations),
 and found     1 'primitive' translations


----------------------------------------------------------------------------------------

                                     Primitive cell                                     

  volume of cell :    1406.4347

  direct lattice vectors                    reciprocal lattice vectors
    11.204002360  0.000000000  0.000000000     0.089253819  0.000000000  0.000000000
     0.000000000 11.204002360  0.000000000     0.000000000  0.089253819  0.000000000
     0.000000000  0.000000000 11.204002360     0.000000000  0.000000000  0.089253819

  length of vectors
    11.204002360 11.204002360 11.204002360     0.089253819  0.089253819  0.089253819

  position of ions in fractional coordinates (direct lattice)
     0.002677615  0.000000000  0.000000000
     0.250000000  0.250000000  0.000000000
     0.250000000  0.000000000  0.250000000
     0.000000000  0.250000000  0.250000000
     0.000000000  0.000000000  0.500000000
     0.250000000  0.250000000  0.500000000
     0.250000000  0.000000000  0.750000000
     0.000000000  0.250000000  0.750000000
     0.000000000  0.500000000  0.000000000
     0.250000000  0.750000000  0.000000000
     0.250000000  0.500000000  0.250000000
     0.000000000  0.750000000  0.250000000
     0.000000000  0.500000000  0.500000000
     0.250000000  0.750000000  0.500000000
     0.250000000  0.500000000  0.750000000
     0.000000000  0.750000000  0.750000000
     0.500000000  0.000000000  0.000000000
     0.750000000  0.250000000  0.000000000
     0.750000000  0.000000000  0.250000000
     0.500000000  0.250000000  0.250000000
     0.500000000  0.000000000  0.500000000
     0.750000000  0.250000000  0.500000000
     0.750000000  0.000000000  0.750000000
     0.500000000  0.250000000  0.750000000
     0.500000000  0.500000000  0.000000000
     0.750000000  0.750000000  0.000000000
     0.750000000  0.500000000  0.250000000
     0.500000000  0.750000000  0.250000000
     0.500000000  0.500000000  0.500000000
     0.750000000  0.750000000  0.500000000
     0.750000000  0.500000000  0.750000000
     0.500000000  0.750000000  0.750000000
     0.250000000  0.252677615  0.250000000
     0.000000000  0.000000000  0.250000000
     0.000000000  0.250000000  0.000000000
     0.250000000  0.000000000  0.000000000
     0.250000000  0.250000000  0.750000000
     0.000000000  0.000000000  0.750000000
     0.000000000  0.250000000  0.500000000
     0.250000000  0.000000000  0.500000000
     0.250000000  0.750000000  0.250000000
     0.000000000  0.500000000  0.250000000
     0.000000000  0.750000000  0.000000000
     0.250000000  0.500000000  0.000000000
     0.250000000  0.750000000  0.750000000
     0.000000000  0.500000000  0.750000000
     0.000000000  0.750000000  0.500000000
     0.250000000  0.500000000  0.500000000
     0.750000000  0.250000000  0.250000000
     0.500000000  0.000000000  0.250000000
     0.500000000  0.250000000  0.000000000
     0.750000000  0.000000000  0.000000000
     0.750000000  0.250000000  0.750000000
     0.500000000  0.000000000  0.750000000
     0.500000000  0.250000000  0.500000000
     0.750000000  0.000000000  0.500000000
     0.750000000  0.750000000  0.250000000
     0.500000000  0.500000000  0.250000000
     0.500000000  0.750000000  0.000000000
     0.750000000  0.500000000  0.000000000
     0.750000000  0.750000000  0.750000000
     0.500000000  0.500000000  0.750000000
     0.500000000  0.750000000  0.500000000
     0.750000000  0.500000000  0.500000000

  ion indices of the primitive-cell ions
   primitive index   ion index
                 1           1
                 2           2
                 3           3
                 4           4
                 5           5
                 6           6
                 7           7
                 8           8
                 9           9
                10          10
                11          11
                12          12
                13          13
                14          14
                15          15
                16          16
                17          17
                18          18
                19          19
                20          20
                21          21
                22          22
                23          23
                24          24
                25          25
                26          26
                27          27
                28          28
                29          29
                30          30
                31          31
                32          32
                33          33
                34          34
                35          35
                36          36
                37          37
                38          38
                39          39
                40          40
                41          41
                42          42
                43          43
                44          44
                45          45
                46          46
                47          47
                48          48
                49          49
                50          50
                51          51
                52          52
                53          53
                54          54
                55          55
                56          56
                57          57
                58          58
                59          59
                60          60
                61          61
                62          62
                63          63
                64          64

----------------------------------------------------------------------------------------

 
 
 KPOINTS: KPOINTS created by Atomic Simulation Env

Automatic generation of k-mesh.
 Grid dimensions read from file:
 generate k-points for:    2    2    2

 Generating k-lattice:

  Cartesian coordinates                     Fractional coordinates (reciprocal lattice)
     0.044626910  0.000000000  0.000000000     0.500000000  0.000000000  0.000000000
     0.000000000  0.044626910  0.000000000     0.000000000  0.500000000  0.000000000
     0.000000000  0.000000000  0.044626910     0.000000000  0.000000000  0.500000000

  Length of vectors
     0.044626910  0.044626910  0.044626910

  Shift w.r.t. Gamma in fractional coordinates (k-lattice)
     0.000000000  0.000000000  0.000000000

 
 Subroutine IBZKPT returns following result:
 ===========================================
 
 Found      8 irreducible k-points:
 
 Following reciprocal coordinates:
            Coordinates               Weight
  0.000000  0.000000  0.000000      1.000000
  0.500000  0.000000  0.000000      1.000000
  0.000000  0.500000  0.000000      1.000000
  0.000000  0.000000  0.500000      1.000000
  0.500000  0.500000  0.000000      1.000000
  0.000000  0.500000  0.500000      1.000000
  0.500000  0.000000  0.500000      1.000000
  0.500000  0.500000  0.500000      1.000000
 
 Following cartesian coordinates:
            Coordinates               Weight
  0.000000  0.000000  0.000000      1.000000
  0.044627  0.000000  0.000000      1.000000
  0.000000  0.044627  0.000000      1.000000
  0.000000  0.000000  0.044627      1.000000
  0.044627  0.044627  0.000000      1.000000
  0.000000  0.044627  0.044627      1.000000
  0.044627  0.000000  0.044627      1.000000
  0.044627  0.044627  0.044627      1.000000
 


--------------------------------------------------------------------------------------------------------




 Dimension of arrays:
   k-points           NKPTS =      8   k-points in BZ     NKDIM =      8   number of bands    NBANDS=    288
   number of dos      NEDOS =    301   number of ions     NIONS =     64
   non local maximal  LDIM  =      4   non local SUM 2l+1 LMDIM =      8
   total plane-waves  NPLWV = 343000
   max r-space proj   IRMAX =      1   max aug-charges    IRDMAX=  56280
   dimension x,y,z NGX =    70 NGY =   70 NGZ =   70
   dimension x,y,z NGXF=   140 NGYF=  140 NGZF=  140
   support grid    NGXF=   280 NGYF=  280 NGZF=  280
   ions per type =              32  32
   NGX,Y,Z   is equivalent  to a cutoff of  10.39, 10.39, 10.39 a.u.
   NGXF,Y,Z  is equivalent  to a cutoff of  20.77, 20.77, 20.77 a.u.

 SYSTEM =  unknown system                          
 POSCAR =  Na Cl                                   

 Startparameter for this run:
   NWRITE =      2    write-flag & timer
   PREC   = accura    normal or accurate (medium, high low for compatibility)
   ISTART =      0    job   : 0-new  1-cont  2-samecut
   ICHARG =      2    charge: 1-file 2-atom 10-const
   ISPIN  =      1    spin polarized calculation?
   LNONCOLLINEAR =      F non collinear calculations
   LSORBIT =      F    spin-orbit coupling
   INIWAV =      1    electr: 0-lowe 1-rand  2-diag
   LASPH  =      F    aspherical Exc in radial PAW
 Electronic Relaxation 1
   ENCUT  =  341.2 eV  25.08 Ry    5.01 a.u.  16.87 16.87 16.87*2*pi/ulx,y,z
   ENINI  =  341.2     initial cutoff
   ENAUG  =  368.1 eV  augmentation charge cutoff
   NELM   =     60;   NELMIN=  5; NELMDL= -5     # of ELM steps 
   EDIFF  = 0.1E-07   stopping-criterion for ELM
   LREAL  =      F    real-space projection
   NLSPLINE    = F    spline interpolate recip. space projectors
   LCOMPAT=      F    compatible to vasp.4.4
   GGA_COMPAT  = T    GGA compatible to vasp.4.4-vasp.4.6
   LMAXPAW     = -100 max onsite density
   LMAXMIX     =    2 max onsite mixed and CHGCAR
   VOSKOWN=      0    Vosko Wilk Nusair interpolation
   ROPT   =    0.00000   0.00000
 Ionic relaxation
   EDIFFG = 0.1E-06   stopping-criterion for IOM
   NSW    =      0    number of steps for IOM
   NBLOCK =      1;   KBLOCK =      1    inner block; outer block 
   IBRION =     -1    ionic relax: 0-MD 1-quasi-New 2-CG
   NFREE  =      0    steps in history (QN), initial steepest desc. (CG)
   ISIF   =      2    stress and relaxation
   IWAVPR =     10    prediction:  0-non 1-charg 2-wave 3-comb
   ISYM   =      2    0-nonsym 1-usesym 2-fastsym
   LCORR  =      T    Harris-Foulkes like correction to forces

   POTIM  = 0.5000    time-step for ionic-motion
   TEIN   =    0.0    initial temperature
   TEBEG  =    0.0;   TEEND  =   0.0 temperature during run
   SMASS  =  -3.00    Nose mass-parameter (am)
   estimated Nose-frequenzy (Omega)   =  0.10E-29 period in steps = 0.13E+47 mass=  -0.287E-26a.u.
   SCALEE = 1.0000    scale energy and forces
   NPACO  =    256;   APACO  = 10.0  distance and # of slots for P.C.
   PSTRESS=    0.0 pullay stress

  Mass of Ions in am
   POMASS =  22.99 35.45
  Ionic Valenz
   ZVAL   =   7.00  7.00
  Atomic Wigner-Seitz radii
   RWIGS  =  -1.00 -1.00
  virtual crystal weights 
   VCA    =   1.00  1.00
   NELECT =     448.0000    total number of electrons
   NUPDOWN=      -1.0000    fix difference up-down

 DOS related values:
   EMIN   =  10.00;   EMAX   =-10.00  energy-range for DOS
   EFERMI =   0.00
   ISMEAR =     0;   SIGMA  =   0.02  broadening in eV -4-tet -1-fermi 0-gaus

 Electronic relaxation 2 (details)
   IALGO  =     38    algorithm
   LDIAG  =      T    sub-space diagonalisation (order eigenvalues)
   LSUBROT=      F    optimize rotation matrix (better conditioning)
   TURBO    =      0    0=normal 1=particle mesh
   IRESTART =      0    0=no restart 2=restart with 2 vectors
   NREBOOT  =      0    no. of reboots
   NMIN     =      0    reboot dimension
   EREF     =   0.00    reference energy to select bands
   IMIX   =      4    mixing-type and parameters
     AMIX     =   0.40;   BMIX     =  1.00
     AMIX_MAG =   1.60;   BMIX_MAG =  1.00
     AMIN     =   0.10
     WC   =   100.;   INIMIX=   1;  MIXPRE=   1;  MAXMIX= -45

 Intra band minimization:
   WEIMIN = 0.0000     energy-eigenvalue tresh-hold
   EBREAK =  0.87E-11  absolut break condition
   DEPER  =   0.30     relativ break condition  

   TIME   =   0.40     timestep for ELM

  volume/ion in A,a.u.               =      21.98       148.30
  Fermi-wavevector in a.u.,A,eV,Ry     =   1.118049  2.112807 17.007750  1.250034
  Thomas-Fermi vector in A             =   2.254677
 
 Write flags
   LWAVE        =      F    write WAVECAR
   LDOWNSAMPLE  =      F    k-point downsampling of WAVECAR
   LCHARG       =      F    write CHGCAR
   LVTOT        =      F    write LOCPOT, total local potential
   LVHAR        =      F    write LOCPOT, Hartree potential only
   LELF         =      F    write electronic localiz. function (ELF)
   LORBIT       =      0    0 simple, 1 ext, 2 COOP (PROOUT), +10 PAW based schemes


 Dipole corrections
   LMONO  =      F    monopole corrections only (constant potential shift)
   LDIPOL =      F    correct potential (dipole corrections)
   IDIPOL =      0    1-x, 2-y, 3-z, 4-all directions 
   EPSILON=  1.0000000 bulk dielectric constant

 Exchange correlation treatment:
   GGA     =    PS    GGA type
   LEXCH   =    14    internal setting for exchange type
   LIBXC   =     F    Libxc                    
   VOSKOWN =     0    Vosko Wilk Nusair interpolation
   LHFCALC =     F    Hartree Fock is set to
   LHFONE  =     F    Hartree Fock one center treatment
   AEXX    =    0.0000 exact exchange contribution

 Linear response parameters
   LEPSILON=     F    determine dielectric tensor
   LRPA    =     F    only Hartree local field effects (RPA)
   LNABLA  =     F    use nabla operator in PAW spheres
   LVEL    =     F    velocity operator in full k-point grid
   CSHIFT  =0.1000    complex shift for real part using Kramers Kronig
   OMEGAMAX=  -1.0    maximum frequency
   DEG_THRESHOLD= 0.2000000E-02 threshold for treating states as degnerate
   RTIME   =   -0.100 relaxation time in fs
  (WPLASMAI=    0.000 imaginary part of plasma frequency in eV, 0.658/RTIME)
   DFIELD  = 0.0000000 0.0000000 0.0000000 field for delta impulse in time
 
  Optional k-point grid parameters
   LKPOINTS_OPT  =     F    use optional k-point grid
   KPOINTS_OPT_MODE=     1    mode for optional k-point grid
 
 Orbital magnetization related:
   ORBITALMAG=     F  switch on orbital magnetization
   LCHIMAG   =     F  perturbation theory with respect to B field
   DQ        =  0.001000  dq finite difference perturbation B field
   LLRAUG    =     F  two centre corrections for induced B field



--------------------------------------------------------------------------------------------------------


 Static calculation
 charge density and potential will be updated during run
 non-spin polarized calculation
 Variant of blocked Davidson
 Davidson routine will perform the subspace rotation
 perform sub-space diagonalisation
    after iterative eigenvector-optimisation
 modified Broyden-mixing scheme, WC =      100.0
 initial mixing is a Kerker type mixing with AMIX =  0.4000 and BMIX =      1.0000
 Hartree-type preconditioning will be used
 using additional bands           64
 reciprocal scheme for non local part
 use partial core corrections
 calculate Harris-corrections to forces 
   (improved forces if not selfconsistent)
 use gradient corrections 
 use of overlap-Matrix (Vanderbilt PP)
 Gauss-broadening in eV      SIGMA  =   0.02


--------------------------------------------------------------------------------------------------------


  energy-cutoff  :      341.21
  volume of cell :     1406.43
      direct lattice vectors                 reciprocal lattice vectors
    11.204002360  0.000000000  0.000000000     0.089253819  0.000000000  0.000000000
     0.000000000 11.204002360  0.000000000     0.000000000  0.089253819  0.000000000
     0.000000000  0.000000000 11.204002360     0.000000000  0.000000000  0.089253819

  length of vectors
    11.204002360 11.204002360 11.204002360     0.089253819  0.089253819  0.089253819


 
 k-points in units of 2pi/SCALE and weight: KPOINTS created by Atomic Simulation Env
   0.00000000  0.00000000  0.00000000       0.125
   0.04462691  0.00000000  0.00000000       0.125
   0.00000000  0.04462691  0.00000000       0.125
   0.00000000  0.00000000  0.04462691       0.125
   0.04462691  0.04462691  0.00000000       0.125
   0.00000000  0.04462691  0.04462691       0.125
   0.04462691  0.00000000  0.04462691       0.125
   0.04462691  0.04462691  0.04462691       0.125
 
 k-points in reciprocal lattice and weights: KPOINTS created by Atomic Simulation Env
   0.00000000  0.00000000  0.00000000       0.125
   0.50000000  0.00000000  0.00000000       0.125
   0.00000000  0.50000000  0.00000000       0.125
   0.00000000  0.00000000  0.50000000       0.125
   0.50000000  0.50000000  0.00000000       0.125
   0.00000000  0.50000000  0.50000000       0.125
   0.50000000  0.00000000  0.50000000       0.125
   0.50000000  0.50000000  0.50000000       0.125
 
 position of ions in fractional coordinates (direct lattice) 
   0.00267761  0.00000000  0.00000000
   0.25000000  0.25000000  0.00000000
   0.25000000  0.00000000  0.25000000
   0.00000000  0.25000000  0.25000000
   0.00000000  0.00000000  0.50000000
   0.25000000  0.25000000  0.50000000
   0.25000000  0.00000000  0.75000000
   0.00000000  0.25000000  0.75000000
   0.00000000  0.50000000  0.00000000
   0.25000000  0.75000000  0.00000000
   0.25000000  0.50000000  0.25000000
   0.00000000  0.75000000  0.25000000
   0.00000000  0.50000000  0.50000000
   0.25000000  0.75000000  0.50000000
   0.25000000  0.50000000  0.75000000
   0.00000000  0.75000000  0.75000000
   0.50000000  0.00000000  0.00000000
   0.75000000  0.25000000  0.00000000
   0.75000000  0.00000000  0.25000000
   0.50000000  0.25000000  0.25000000
   0.50000000  0.00000000  0.50000000
   0.75000000  0.25000000  0.50000000
   0.75000000  0.00000000  0.75000000
   0.50000000  0.25000000  0.75000000
   0.50000000  0.50000000  0.00000000
   0.75000000  0.75000000  0.00000000
   0.75000000  0.50000000  0.25000000
   0.50000000  0.75000000  0.25000000
   0.50000000  0.50000000  0.50000000
   0.75000000  0.75000000  0.50000000
   0.75000000  0.50000000  0.75000000
   0.50000000  0.75000000  0.75000000
   0.25000000  0.25267761  0.25000000
   0.00000000  0.00000000  0.25000000
   0.00000000  0.25000000  0.00000000
   0.25000000  0.00000000  0.00000000
   0.25000000  0.25000000  0.75000000
   0.00000000  0.00000000  0.75000000
   0.00000000  0.25000000  0.50000000
   0.25000000  0.00000000  0.50000000
   0.25000000  0.75000000  0.25000000
   0.00000000  0.50000000  0.25000000
   0.00000000  0.75000000  0.00000000
   0.25000000  0.50000000  0.00000000
   0.25000000  0.75000000  0.75000000
   0.00000000  0.50000000  0.75000000
   0.00000000  0.75000000  0.50000000
   0.25000000  0.50000000  0.50000000
   0.75000000  0.25000000  0.25000000
   0.50000000  0.00000000  0.25000000
   0.50000000  0.25000000  0.00000000
   0.75000000  0.00000000  0.00000000
   0.75000000  0.25000000  0.75000000
   0.50000000  0.00000000  0.75000000
   0.50000000  0.25000000  0.50000000
   0.75000000  0.00000000  0.50000000
   0.75000000  0.75000000  0.25000000
   0.50000000  0.50000000  0.25000000
   0.50000000  0.75000000  0.00000000
   0.75000000  0.50000000  0.00000000
   0.75000000  0.75000000  0.75000000
   0.50000000  0.50000000  0.75000000
   0.50000000  0.75000000  0.50000000
   0.75000000  0.50000000  0.50000000
 
 position of ions in cartesian coordinates  (Angst):
   0.03000000  0.00000000  0.00000000
   2.80100059  2.80100059  0.00000000
   2.80100059  0.00000000  2.80100059
   0.00000000  2.80100059  2.80100059
   0.00000000  0.00000000  5.60200118
   2.80100059  2.80100059  5.60200118
   2.80100059  0.00000000  8.40300177
   0.00000000  2.80100059  8.40300177
   0.00000000  5.60200118  0.00000000
   2.80100059  8.40300177  0.00000000
   2.80100059  5.60200118  2.80100059
   0.00000000  8.40300177  2.80100059
   0.00000000  5.60200118  5.60200118
   2.80100059  8.40300177  5.60200118
   2.80100059  5.60200118  8.40300177
   0.00000000  8.40300177  8.40300177
   5.60200118  0.00000000  0.00000000
   8.40300177  2.80100059  0.00000000
   8.40300177  0.00000000  2.80100059
   5.60200118  2.80100059  2.80100059
   5.60200118  0.00000000  5.60200118
   8.40300177  2.80100059  5.60200118
   8.40300177  0.00000000  8.40300177
   5.60200118  2.80100059  8.40300177
   5.60200118  5.60200118  0.00000000
   8.40300177  8.40300177  0.00000000
   8.40300177  5.60200118  2.80100059
   5.60200118  8.40300177  2.80100059
   5.60200118  5.60200118  5.60200118
   8.40300177  8.40300177  5.60200118
   8.40300177  5.60200118  8.40300177
   5.60200118  8.40300177  8.40300177
   2.80100059  2.83100059  2.80100059
   0.00000000  0.00000000  2.80100059
   0.00000000  2.80100059  0.00000000
   2.80100059  0.00000000  0.00000000
   2.80100059  2.80100059  8.40300177
   0.00000000  0.00000000  8.40300177
   0.00000000  2.80100059  5.60200118
   2.80100059  0.00000000  5.60200118
   2.80100059  8.40300177  2.80100059
   0.00000000  5.60200118  2.80100059
   0.00000000  8.40300177  0.00000000
   2.80100059  5.60200118  0.00000000
   2.80100059  8.40300177  8.40300177
   0.00000000  5.60200118  8.40300177
   0.00000000  8.40300177  5.60200118
   2.80100059  5.60200118  5.60200118
   8.40300177  2.80100059  2.80100059
   5.60200118  0.00000000  2.80100059
   5.60200118  2.80100059  0.00000000
   8.40300177  0.00000000  0.00000000
   8.40300177  2.80100059  8.40300177
   5.60200118  0.00000000  8.40300177
   5.60200118  2.80100059  5.60200118
   8.40300177  0.00000000  5.60200118
   8.40300177  8.40300177  2.80100059
   5.60200118  5.60200118  2.80100059
   5.60200118  8.40300177  0.00000000
   8.40300177  5.60200118  0.00000000
   8.40300177  8.40300177  8.40300177
   5.60200118  5.60200118  8.40300177
   5.60200118  8.40300177  5.60200118
   8.40300177  5.60200118  5.60200118
 


--------------------------------------------------------------------------------------------------------


 k-point   1 :   0.0000 0.0000 0.0000  plane waves:   20005
 k-point   2 :   0.5000 0.0000 0.0000  plane waves:   20138
 k-point   3 :   0.0000 0.5000 0.0000  plane waves:   20138
 k-point   4 :   0.0000 0.0000 0.5000  plane waves:   20138
 k-point   5 :   0.5000 0.5000 0.0000  plane waves:   20160
 k-point   6 :   0.0000 0.5000 0.5000  plane waves:   20160
 k-point   7 :   0.5000 0.0000 0.5000  plane waves:   20160
 k-point   8 :   0.5000 0.5000 0.5000  plane waves:   20336

 maximum and minimum number of plane-waves per node :     20336    20005

 maximum number of plane-waves:     20336
 maximum index in each direction: 
   IXMAX=   16   IYMAX=   16   IZMAX=   16
   IXMIN=  -17   IYMIN=  -17   IZMIN=  -17


 serial   3D FFT for wavefunctions
 parallel 3D FFT for charge:
    minimum data exchange during FFTs selected (reduces bandwidth)


 total amount of memory used by VASP MPI-rank0   129658. kBytes
=======================================================================

   base      :      30000. kBytes
   nonl-proj :      41680. kBytes
   fftplans  :      14405. kBytes
   grid      :      19342. kBytes
   one-center:        196. kBytes
   wavefun   :      24035. kBytes
 
     INWAV:  cpu time      0.0000: real time      0.0000
 Broyden mixing: mesh for mixing (old mesh)
   NGX = 33   NGY = 33   NGZ = 33
  (NGX  =140   NGY  =140   NGZ  =140)
  gives a total of  35937 points

 initial charge density was supplied:
 charge density of overlapping atoms calculated
 number of electron     448.0000000 magnetization 
 keeping initial charge density in first step


--------------------------------------------------------------------------------------------------------


 Maximum index for augmentation-charges         1834 (set IRDMAX)


--------------------------------------------------------------------------------------------------------


 First call to EWALD:  gamma=   0.158
 Maximum number of real-space cells 3x 3x 3
 Maximum number of reciprocal cells 3x 3x 3

    FEWALD:  cpu time      0.0016: real time      0.0016


--------------------------------------- Iteration      1(   1)  ---------------------------------------


    POTLOK:  cpu time      0.0421: real time      0.0427
    SETDIJ:  cpu time      0.0324: real time      0.0326
     EDDAV:  cpu time     10.0621: real time     10.1161
       DOS:  cpu time      0.0008: real time      0.0008
    --------------------------------------------
      LOOP:  cpu time     10.1375: real time     10.1922

 eigenvalue-minimisations  :  4608
 total energy-change (2. order) : 0.4321897E+04  (-0.1716435E+05)
 number of electron     448.0000000 magnetization 
 augmentation part      448.0000000 magnetization 

 Free energy of the ion-electron system (eV)
  ---------------------------------------------------
  alpha Z        PSCENC =       751.52672365
  Ewald energy   TEWEN  =    -22871.34503388
  -Hartree energ DENC   =     -8992.24163265
  -exchange      EXHF   =         0.00000000
  -V(xc)+E(xc)   XCENC  =      1456.53425896
  PAW double counting   =     26466.43774078   -29286.08056155
  entropy T*S    EENTRO =        -0.00225243
  eigenvalues    EBANDS =      -735.11204862
  atomic energy  EATOM  =     37532.17946992
  Solvation  Ediel_sol  =         0.00000000
  ---------------------------------------------------
  free energy    TOTEN  =      4321.89666418 eV

  energy without entropy =     4321.89891662  energy(sigma->0) =     4321.89779040


--------------------------------------------------------------------------------------------------------




--------------------------------------- Iteration      1(   2)  ---------------------------------------


     EDDAV:  cpu time     10.9395: real time     10.9983
       DOS:  cpu time      0.0006: real time      0.0006
    --------------------------------------------
      LOOP:  cpu time     10.9401: real time     10.9988

 eigenvalue-minimisations  :  5120
 total energy-change (2. order) :-0.3958018E+04  (-0.3765826E+04)
 number of electron     448.0000000 magnetization 
 augmentation part      448.0000000 magnetization 

 Free energy of the ion-electron system (eV)
  ---------------------------------------------------
  alpha Z        PSCENC =       751.52672365
  Ewald energy   TEWEN  =    -22871.34503388
  -Hartree energ DENC   =     -8992.24163265
  -exchange      EXHF   =         0.00000000
  -V(xc)+E(xc)   XCENC  =      1456.53425896
  PAW double counting   =     26466.43774078   -29286.08056155
  entropy T*S    EENTRO =        -0.00000000
  eigenvalues    EBANDS =     -4693.13279823
  atomic energy  EATOM  =     37532.17946992
  Solvation  Ediel_sol  =         0.00000000
  ---------------------------------------------------
  free energy    TOTEN  =       363.87816701 eV

  energy without entropy =      363.87816701  energy(sigma->0) =      363.87816701


--------------------------------------------------------------------------------------------------------




--------------------------------------- Iteration      1(   3)  ---------------------------------------


     EDDAV:  cpu time     11.7881: real time     11.8510
       DOS:  cpu time      0.0006: real time      0.0006
    --------------------------------------------
      LOOP:  cpu time     11.7887: real time     11.8516

 eigenvalue-minimisations  :  5600
 total energy-change (2. order) :-0.5700541E+03  (-0.5657962E+03)
 number of electron     448.0000000 magnetization 
 augmentation part      448.0000000 magnetization 

 Free energy of the ion-electron system (eV)
  ---------------------------------------------------
  alpha Z        PSCENC =       751.52672365
  Ewald energy   TEWEN  =    -22871.34503388
  -Hartree energ DENC   =     -8992.24163265
  -exchange      EXHF   =         0.00000000
  -V(xc)+E(xc)   XCENC  =      1456.53425896
  PAW double counting   =     26466.43774078   -29286.08056155
  entropy T*S    EENTRO =        -0.00000000
  eigenvalues    EBANDS =     -5263.18694453
  atomic energy  EATOM  =     37532.17946992
  Solvation  Ediel_sol  =         0.00000000
  ---------------------------------------------------
  free energy    TOTEN  =      -206.17597929 eV

  energy without entropy =     -206.17597929  energy(sigma->0) =     -206.17597929


--------------------------------------------------------------------------------------------------------




--------------------------------------- Iteration      1(   4)  ---------------------------------------


     EDDAV:  cpu time     11.7065: real time     11.7699
       DOS:  cpu time      0.0006: real time      0.0006
    --------------------------------------------
      LOOP:  cpu time     11.7071: real time     11.7705

 eigenvalue-minimisations  :  5536
 total energy-change (2. order) :-0.2201589E+02  (-0.2191463E+02)
 number of electron     448.0000000 magnetization 
 augmentation part      448.0000000 magnetization 

 Free energy of the ion-electron system (eV)
  ---------------------------------------------------
  alpha Z        PSCENC =       751.52672365
  Ewald energy   TEWEN  =    -22871.34503388
  -Hartree energ DENC   =     -8992.24163265
  -exchange      EXHF   =         0.00000000
  -V(xc)+E(xc)   XCENC  =      1456.53425896
  PAW double counting   =     26466.43774078   -29286.08056155
  entropy T*S    EENTRO =        -0.00000000
  eigenvalues    EBANDS =     -5285.20283172
  atomic energy  EATOM  =     37532.17946992
  Solvation  Ediel_sol  =         0.00000000
  ---------------------------------------------------
  free energy    TOTEN  =      -228.19186648 eV

  energy without entropy =     -228.19186648  energy(sigma->0) =     -228.19186648


--------------------------------------------------------------------------------------------------------




--------------------------------------- Iteration      1(   5)  ---------------------------------------


     EDDAV:  cpu time     11.9837: real time     12.0517
       DOS:  cpu time      0.0005: real time      0.0005
    CHARGE:  cpu time      0.3264: real time      0.3280
    MIXING:  cpu time      0.0012: real time      0.0012
    --------------------------------------------
      LOOP:  cpu time     12.3117: real time     12.3814

 eigenvalue-minimisations  :  5696
 total energy-change (2. order) :-0.8115544E+00  (-0.8101015E+00)
 number of electron     448.0000022 magnetization 
 augmentation part      111.6450610 magnetization 

 Broyden mixing:
  rms(total) = 0.10609E+01    rms(broyden)= 0.10604E+01
  rms(prec ) = 0.14936E+01
  weight for this iteration     100.00

 Free energy of the ion-electron system (eV)
  ---------------------------------------------------
  alpha Z        PSCENC =       751.52672365
  Ewald energy   TEWEN  =    -22871.34503388
  -Hartree energ DENC   =     -8992.24163265
  -exchange      EXHF   =         0.00000000
  -V(xc)+E(xc)   XCENC  =      1456.53425896
  PAW double counting   =     26466.43774078   -29286.08056155
  entropy T*S    EENTRO =        -0.00000000
  eigenvalues    EBANDS =     -5286.01438607
  atomic energy  EATOM  =     37532.17946992
  Solvation  Ediel_sol  =         0.00000000
  ---------------------------------------------------
  free energy    TOTEN  =      -229.00342083 eV

  energy without entropy =     -229.00342083  energy(sigma->0) =     -229.00342083


--------------------------------------------------------------------------------------------------------




--------------------------------------- Iteration      1(   6)  ---------------------------------------


    POTLOK:  cpu time      0.0366: real time      0.0376
    SETDIJ:  cpu time      0.0297: real time      0.0298
     EDDAV:  cpu time     12.0664: real time     12.1317
       DOS:  cpu time      0.0006: real time      0.0006
    CHARGE:  cpu time      0.3299: real time      0.3317
    MIXING:  cpu time      0.0014: real time      0.0014
    --------------------------------------------
      LOOP:  cpu time     12.4646: real time     12.5329

 eigenvalue-minimisations  :  5728
 total energy-change (2. order) : 0.4864021E+01  (-0.9463708E+00)
 number of electron     448.0000022 magnetization 
 augmentation part      112.4570930 magnetization 

 Broyden mixing:
  rms(total) = 0.77550E+00    rms(broyden)= 0.77544E+00
  rms(prec ) = 0.89165E+00
  weight for this iteration     100.00

 eigenvalues of (default mixing * dielectric matrix)
  average eigenvalue GAMMA=   1.0776
  1.0776

 Free energy of the ion-electron system (eV)
  ---------------------------------------------------
  alpha Z        PSCENC =       751.52672365
  Ewald energy   TEWEN  =    -22871.34503388
  -Hartree energ DENC   =     -9061.77080640
  -exchange      EXHF   =         0.00000000
  -V(xc)+E(xc)   XCENC  =      1465.43015925
  PAW double counting   =     27291.61312320   -30103.61743310
  entropy T*S    EENTRO =        -0.00000000
  eigenvalues    EBANDS =     -5228.15560273
  atomic energy  EATOM  =     37532.17946992
  Solvation  Ediel_sol  =         0.00000000
  ---------------------------------------------------
  free energy    TOTEN  =      -224.13940008 eV

  energy without entropy =     -224.13940008  energy(sigma->0) =     -224.13940008


--------------------------------------------------------------------------------------------------------




--------------------------------------- Iteration      1(   7)  ---------------------------------------


    POTLOK:  cpu time      0.0365: real time      0.0368
    SETDIJ:  cpu time      0.0300: real time      0.0302
     EDDAV:  cpu time     13.0480: real time     13.1164
       DOS:  cpu time      0.0005: real time      0.0005
    CHARGE:  cpu time      0.3279: real time      0.3296
    MIXING:  cpu time      0.0015: real time      0.0015
    --------------------------------------------
      LOOP:  cpu time     13.4444: real time     13.5150

 eigenvalue-minimisations  :  6304
 total energy-change (2. order) : 0.3619869E+00  (-0.2074196E+00)
 number of electron     448.0000022 magnetization 
 augmentation part      112.8277248 magnetization 

 Broyden mixing:
  rms(total) = 0.53290E+00    rms(broyden)= 0.53287E+00
  rms(prec ) = 0.56283E+00
  weight for this iteration     100.00

 eigenvalues of (default mixing * dielectric matrix)
  average eigenvalue GAMMA=   2.1570
  1.4406  2.8734

 Free energy of the ion-electron system (eV)
  ---------------------------------------------------
  alpha Z        PSCENC =       751.52672365
  Ewald energy   TEWEN  =    -22871.34503388
  -Hartree energ DENC   =     -9085.86427373
  -exchange      EXHF   =         0.00000000
  -V(xc)+E(xc)   XCENC  =      1470.13185520
  PAW double counting   =     28331.03935814   -31143.76537956
  entropy T*S    EENTRO =        -0.00000000
  eigenvalues    EBANDS =     -5207.68013287
  atomic energy  EATOM  =     37532.17946992
  Solvation  Ediel_sol  =         0.00000000
  ---------------------------------------------------
  free energy    TOTEN  =      -223.77741313 eV

  energy without entropy =     -223.77741313  energy(sigma->0) =     -223.77741313


--------------------------------------------------------------------------------------------------------




--------------------------------------- Iteration      1(   8)  ---------------------------------------


    POTLOK:  cpu time      0.0360: real time      0.0363
    SETDIJ:  cpu time      0.0298: real time      0.0299
     EDDAV:  cpu time     11.3562: real time     11.4165
       DOS:  cpu time      0.0005: real time      0.0005
    CHARGE:  cpu time      0.3280: real time      0.3296
    MIXING:  cpu time      0.0020: real time      0.0020
    --------------------------------------------
      LOOP:  cpu time     11.7525: real time     11.8149

 eigenvalue-minimisations  :  5312
 total energy-change (2. order) :-0.1253072E+00  (-0.2669776E-01)
 number of electron     448.0000022 magnetization 
 augmentation part      112.8090006 magnetization 

 Broyden mixing:
  rms(total) = 0.14256E+00    rms(broyden)= 0.14256E+00
  rms(prec ) = 0.14549E+00
  weight for this iteration     100.00

 eigenvalues of (default mixing * dielectric matrix)
  average eigenvalue GAMMA=   1.5560
  2.5245  1.3871  0.7565

 Free energy of the ion-electron system (eV)
  ---------------------------------------------------
  alpha Z        PSCENC =       751.52672365
  Ewald energy   TEWEN  =    -22871.34503388
  -Hartree energ DENC   =     -9075.15772316
  -exchange      EXHF   =         0.00000000
  -V(xc)+E(xc)   XCENC  =      1472.33720579
  PAW double counting   =     29810.62142806   -32630.47942337
  entropy T*S    EENTRO =        -0.00000000
  eigenvalues    EBANDS =     -5213.58536736
  atomic energy  EATOM  =     37532.17946992
  Solvation  Ediel_sol  =         0.00000000
  ---------------------------------------------------
  free energy    TOTEN  =      -223.90272034 eV

  energy without entropy =     -223.90272034  energy(sigma->0) =     -223.90272034


--------------------------------------------------------------------------------------------------------




--------------------------------------- Iteration      1(   9)  ---------------------------------------


    POTLOK:  cpu time      0.0364: real time      0.0372
    SETDIJ:  cpu time      0.0300: real time      0.0301
     EDDAV:  cpu time     12.1355: real time     12.2015
       DOS:  cpu time      0.0006: real time      0.0006
    CHARGE:  cpu time      0.3286: real time      0.3305
    MIXING:  cpu time      0.0018: real time      0.0018
    --------------------------------------------
      LOOP:  cpu time     12.5328: real time     12.6018

 eigenvalue-minimisations  :  5760
 total energy-change (2. order) : 0.5645821E-02  (-0.1140131E-02)
 number of electron     448.0000022 magnetization 
 augmentation part      112.8313609 magnetization 

 Broyden mixing:
  rms(total) = 0.60495E-01    rms(broyden)= 0.60494E-01
  rms(prec ) = 0.62556E-01
  weight for this iteration     100.00

 eigenvalues of (default mixing * dielectric matrix)
  average eigenvalue GAMMA=   2.0012
  2.8058  2.8058  0.9992  1.3942

 Free energy of the ion-electron system (eV)
  ---------------------------------------------------
  alpha Z        PSCENC =       751.52672365
  Ewald energy   TEWEN  =    -22871.34503388
  -Hartree energ DENC   =     -9077.91627832
  -exchange      EXHF   =         0.00000000
  -V(xc)+E(xc)   XCENC  =      1472.35623407
  PAW double counting   =     29630.70502763   -32449.71107344
  entropy T*S    EENTRO =        -0.00000000
  eigenvalues    EBANDS =     -5211.69214416
  atomic energy  EATOM  =     37532.17946992
  Solvation  Ediel_sol  =         0.00000000
  ---------------------------------------------------
  free energy    TOTEN  =      -223.89707452 eV

  energy without entropy =     -223.89707452  energy(sigma->0) =     -223.89707452


--------------------------------------------------------------------------------------------------------




--------------------------------------- Iteration      1(  10)  ---------------------------------------


    POTLOK:  cpu time      0.0371: real time      0.0410
    SETDIJ:  cpu time      0.0302: real time      0.0304
     EDDAV:  cpu time     12.1397: real time     12.2016
       DOS:  cpu time      0.0004: real time      0.0004
    CHARGE:  cpu time      0.3260: real time      0.3277
    MIXING:  cpu time      0.0026: real time      0.0026
    --------------------------------------------
      LOOP:  cpu time     12.5361: real time     12.6037

 eigenvalue-minimisations  :  5344
 total energy-change (2. order) :-0.4274110E-02  (-0.1840010E-02)
 number of electron     448.0000022 magnetization 
 augmentation part      112.8608016 magnetization 

 Broyden mixing:
  rms(total) = 0.28666E-01    rms(broyden)= 0.28663E-01
  rms(prec ) = 0.30751E-01
  weight for this iteration     100.00

 eigenvalues of (default mixing * dielectric matrix)
  average eigenvalue GAMMA=   1.7103
  2.9382  2.5091  1.2941  1.0226  0.7877

 Free energy of the ion-electron system (eV)
  ---------------------------------------------------
  alpha Z        PSCENC =       751.52672365
  Ewald energy   TEWEN  =    -22871.34503388
  -Hartree energ DENC   =     -9079.46642963
  -exchange      EXHF   =         0.00000000
  -V(xc)+E(xc)   XCENC  =      1472.60793122
  PAW double counting   =     29456.50380433   -32275.74479927
  entropy T*S    EENTRO =        -0.00000000
  eigenvalues    EBANDS =     -5210.16301498
  atomic energy  EATOM  =     37532.17946992
  Solvation  Ediel_sol  =         0.00000000
  ---------------------------------------------------
  free energy    TOTEN  =      -223.90134863 eV

  energy without entropy =     -223.90134863  energy(sigma->0) =     -223.90134863


--------------------------------------------------------------------------------------------------------




--------------------------------------- Iteration      1(  11)  ---------------------------------------


    POTLOK:  cpu time      0.0365: real time      0.0374
    SETDIJ:  cpu time      0.0306: real time      0.0308
     EDDAV:  cpu time     12.4483: real time     12.5144
       DOS:  cpu time      0.0006: real time      0.0006
    CHARGE:  cpu time      0.3280: real time      0.3296
    MIXING:  cpu time      0.0013: real time      0.0013
    --------------------------------------------
      LOOP:  cpu time     12.8453: real time     12.9141

 eigenvalue-minimisations  :  5952
 total energy-change (2. order) : 0.7280819E-03  (-0.1613885E-03)
 number of electron     448.0000022 magnetization 
 augmentation part      112.8515212 magnetization 

 Broyden mixing:
  rms(total) = 0.87268E-02    rms(broyden)= 0.87266E-02
  rms(prec ) = 0.91649E-02
  weight for this iteration     100.00

 eigenvalues of (default mixing * dielectric matrix)
  average eigenvalue GAMMA=   1.5639
  2.9172  2.4502  1.3213  1.0096  0.8426  0.8426

 Free energy of the ion-electron system (eV)
  ---------------------------------------------------
  alpha Z        PSCENC =       751.52672365
  Ewald energy   TEWEN  =    -22871.34503388
  -Hartree energ DENC   =     -9078.35046751
  -exchange      EXHF   =         0.00000000
  -V(xc)+E(xc)   XCENC  =      1472.53055113
  PAW double counting   =     29487.35231962   -32306.73377947
  entropy T*S    EENTRO =        -0.00000000
  eigenvalues    EBANDS =     -5211.06040403
  atomic energy  EATOM  =     37532.17946992
  Solvation  Ediel_sol  =         0.00000000
  ---------------------------------------------------
  free energy    TOTEN  =      -223.90062055 eV

  energy without entropy =     -223.90062055  energy(sigma->0) =     -223.90062055


--------------------------------------------------------------------------------------------------------




--------------------------------------- Iteration      1(  12)  ---------------------------------------


    POTLOK:  cpu time      0.0358: real time      0.0363
    SETDIJ:  cpu time      0.0305: real time      0.0306
     EDDAV:  cpu time     12.4203: real time     12.4878
       DOS:  cpu time      0.0004: real time      0.0004
    CHARGE:  cpu time      0.3278: real time      0.3294
    MIXING:  cpu time      0.0018: real time      0.0018
    --------------------------------------------
      LOOP:  cpu time     12.8166: real time     12.8862

 eigenvalue-minimisations  :  5952
 total energy-change (2. order) : 0.3604857E-04  (-0.1338042E-04)
 number of electron     448.0000022 magnetization 
 augmentation part      112.8490509 magnetization 

 Broyden mixing:
  rms(total) = 0.19353E-02    rms(broyden)= 0.19348E-02
  rms(prec ) = 0.22202E-02
  weight for this iteration     100.00

 eigenvalues of (default mixing * dielectric matrix)
  average eigenvalue GAMMA=   1.5733
  2.8911  2.4187  1.4146  1.2201  1.2201  1.0585  0.7897

 Free energy of the ion-electron system (eV)
  ---------------------------------------------------
  alpha Z        PSCENC =       751.52672365
  Ewald energy   TEWEN  =    -22871.34503388
  -Hartree energ DENC   =     -9078.20366123
  -exchange      EXHF   =         0.00000000
  -V(xc)+E(xc)   XCENC  =      1472.52026541
  PAW double counting   =     29497.64932342   -32317.02464351
  entropy T*S    EENTRO =        -0.00000000
  eigenvalues    EBANDS =     -5211.20302828
  atomic energy  EATOM  =     37532.17946992
  Solvation  Ediel_sol  =         0.00000000
  ---------------------------------------------------
  free energy    TOTEN  =      -223.90058450 eV

  energy without entropy =     -223.90058450  energy(sigma->0) =     -223.90058450


--------------------------------------------------------------------------------------------------------




--------------------------------------- Iteration      1(  13)  ---------------------------------------


    POTLOK:  cpu time      0.0361: real time      0.0363
    SETDIJ:  cpu time      0.0309: real time      0.0310
     EDDAV:  cpu time     11.9690: real time     12.0329
       DOS:  cpu time      0.0004: real time      0.0004
    CHARGE:  cpu time      0.3300: real time      0.3317
    MIXING:  cpu time      0.0020: real time      0.0021
    --------------------------------------------
      LOOP:  cpu time     12.3683: real time     12.4343

 eigenvalue-minimisations  :  5696
 total energy-change (2. order) : 0.2739223E-05  (-0.2646551E-05)
 number of electron     448.0000022 magnetization 
 augmentation part      112.8478248 magnetization 

 Broyden mixing:
  rms(total) = 0.35194E-03    rms(broyden)= 0.35123E-03
  rms(prec ) = 0.42094E-03
  weight for this iteration     100.00

 eigenvalues of (default mixing * dielectric matrix)
  average eigenvalue GAMMA=   1.6192
  2.9786  2.3402  2.3402  1.2230  1.0741  0.9667  1.0152  1.0152

 Free energy of the ion-electron system (eV)
  ---------------------------------------------------
  alpha Z        PSCENC =       751.52672365
  Ewald energy   TEWEN  =    -22871.34503388
  -Hartree energ DENC   =     -9078.10991557
  -exchange      EXHF   =         0.00000000
  -V(xc)+E(xc)   XCENC  =      1472.51113897
  PAW double counting   =     29498.71373848   -32318.08769772
  entropy T*S    EENTRO =        -0.00000000
  eigenvalues    EBANDS =     -5211.28900563
  atomic energy  EATOM  =     37532.17946992
  Solvation  Ediel_sol  =         0.00000000
  ---------------------------------------------------
  free energy    TOTEN  =      -223.90058176 eV

  energy without entropy =     -223.90058176  energy(sigma->0) =     -223.90058176


--------------------------------------------------------------------------------------------------------




--------------------------------------- Iteration      1(  14)  ---------------------------------------


    POTLOK:  cpu time      0.0358: real time      0.0368
    SETDIJ:  cpu time      0.0310: real time      0.0311
     EDDAV:  cpu time     11.5848: real time     11.6462
       DOS:  cpu time      0.0004: real time      0.0004
    CHARGE:  cpu time      0.3287: real time      0.3306
    MIXING:  cpu time      0.0020: real time      0.0020
    --------------------------------------------
      LOOP:  cpu time     11.9827: real time     12.0471

 eigenvalue-minimisations  :  5472
 total energy-change (2. order) :-0.1315435E-05  (-0.2435091E-06)
 number of electron     448.0000022 magnetization 
 augmentation part      112.8477112 magnetization 

 Broyden mixing:
  rms(total) = 0.88322E-03    rms(broyden)= 0.88318E-03
  rms(prec ) = 0.90417E-03
  weight for this iteration     100.00

 eigenvalues of (default mixing * dielectric matrix)
  average eigenvalue GAMMA=   1.6486
  3.0274  2.6252  2.6252  1.3592  1.2195  1.2195  0.9678  0.9678  0.8257

 Free energy of the ion-electron system (eV)
  ---------------------------------------------------
  alpha Z        PSCENC =       751.52672365
  Ewald energy   TEWEN  =    -22871.34503388
  -Hartree energ DENC   =     -9078.11804815
  -exchange      EXHF   =         0.00000000
  -V(xc)+E(xc)   XCENC  =      1472.51230755
  PAW double counting   =     29500.11423840   -32319.48313813
  entropy T*S    EENTRO =        -0.00000000
  eigenvalues    EBANDS =     -5211.28710245
  atomic energy  EATOM  =     37532.17946992
  Solvation  Ediel_sol  =         0.00000000
  ---------------------------------------------------
  free energy    TOTEN  =      -223.90058307 eV

  energy without entropy =     -223.90058307  energy(sigma->0) =     -223.90058307


--------------------------------------------------------------------------------------------------------




--------------------------------------- Iteration      1(  15)  ---------------------------------------


    POTLOK:  cpu time      0.0369: real time      0.0410
    SETDIJ:  cpu time      0.0305: real time      0.0306
     EDDAV:  cpu time     12.1892: real time     12.2542
       DOS:  cpu time      0.0004: real time      0.0004
    CHARGE:  cpu time      0.3256: real time      0.3274
    MIXING:  cpu time      0.0023: real time      0.0024
    --------------------------------------------
      LOOP:  cpu time     12.5848: real time     12.6560

 eigenvalue-minimisations  :  5824
 total energy-change (2. order) :-0.1207729E-05  (-0.3546997E-07)
 number of electron     448.0000022 magnetization 
 augmentation part      112.8477555 magnetization 

 Broyden mixing:
  rms(total) = 0.38497E-03    rms(broyden)= 0.38495E-03
  rms(prec ) = 0.39691E-03
  weight for this iteration     100.00

 eigenvalues of (default mixing * dielectric matrix)
  average eigenvalue GAMMA=   1.6081
  3.0795  2.6082  2.6082  1.3234  1.3234  1.4099  0.9396  0.9396  0.9585  0.8910

 Free energy of the ion-electron system (eV)
  ---------------------------------------------------
  alpha Z        PSCENC =       751.52672365
  Ewald energy   TEWEN  =    -22871.34503388
  -Hartree energ DENC   =     -9078.14291055
  -exchange      EXHF   =         0.00000000
  -V(xc)+E(xc)   XCENC  =      1472.51282808
  PAW double counting   =     29499.04584224   -32318.41132353
  entropy T*S    EENTRO =        -0.00000000
  eigenvalues    EBANDS =     -5211.26618023
  atomic energy  EATOM  =     37532.17946992
  Solvation  Ediel_sol  =         0.00000000
  ---------------------------------------------------
  free energy    TOTEN  =      -223.90058428 eV

  energy without entropy =     -223.90058428  energy(sigma->0) =     -223.90058428


--------------------------------------------------------------------------------------------------------




--------------------------------------- Iteration      1(  16)  ---------------------------------------


    POTLOK:  cpu time      0.0364: real time      0.0378
    SETDIJ:  cpu time      0.0309: real time      0.0310
     EDDAV:  cpu time     11.6216: real time     11.6858
       DOS:  cpu time      0.0003: real time      0.0003
    CHARGE:  cpu time      0.3245: real time      0.3263
    MIXING:  cpu time      0.0023: real time      0.0023
    --------------------------------------------
      LOOP:  cpu time     12.0159: real time     12.0835

 eigenvalue-minimisations  :  5504
 total energy-change (2. order) :-0.5130350E-06  (-0.1461630E-07)
 number of electron     448.0000022 magnetization 
 augmentation part      112.8478349 magnetization 

 Broyden mixing:
  rms(total) = 0.98252E-04    rms(broyden)= 0.98147E-04
  rms(prec ) = 0.10383E-03
  weight for this iteration     100.00

 eigenvalues of (default mixing * dielectric matrix)
  average eigenvalue GAMMA=   1.6111
  3.1091  2.5918  2.5918  1.5539  1.5539  1.3520  1.1193  1.1193  0.9214  0.9214
  0.8878

 Free energy of the ion-electron system (eV)
  ---------------------------------------------------
  alpha Z        PSCENC =       751.52672365
  Ewald energy   TEWEN  =    -22871.34503388
  -Hartree energ DENC   =     -9078.15317657
  -exchange      EXHF   =         0.00000000
  -V(xc)+E(xc)   XCENC  =      1472.51329059
  PAW double counting   =     29498.48499747   -32317.85007626
  entropy T*S    EENTRO =        -0.00000000
  eigenvalues    EBANDS =     -5211.25677973
  atomic energy  EATOM  =     37532.17946992
  Solvation  Ediel_sol  =         0.00000000
  ---------------------------------------------------
  free energy    TOTEN  =      -223.90058480 eV

  energy without entropy =     -223.90058480  energy(sigma->0) =     -223.90058480


--------------------------------------------------------------------------------------------------------




--------------------------------------- Iteration      1(  17)  ---------------------------------------


    POTLOK:  cpu time      0.0368: real time      0.0370
    SETDIJ:  cpu time      0.0314: real time      0.0315
     EDDAV:  cpu time      8.7343: real time      8.7810
       DOS:  cpu time      0.0003: real time      0.0003
    CHARGE:  cpu time      0.3246: real time      0.3263
    MIXING:  cpu time      0.0018: real time      0.0018
    --------------------------------------------
      LOOP:  cpu time      9.1292: real time      9.1779

 eigenvalue-minimisations  :  3744
 total energy-change (2. order) :-0.6443588E-07  (-0.9484879E-09)
 number of electron     448.0000022 magnetization 
 augmentation part      112.8478461 magnetization 

 Broyden mixing:
  rms(total) = 0.32151E-04    rms(broyden)= 0.31854E-04
  rms(prec ) = 0.37523E-04
  weight for this iteration     100.00

 eigenvalues of (default mixing * dielectric matrix)
  average eigenvalue GAMMA=   1.6104
  3.1720  2.8861  2.2575  1.9750  1.4188  1.4188  1.2200  1.2200  0.9689  0.9689
  0.9468  0.8726

 Free energy of the ion-electron system (eV)
  ---------------------------------------------------
  alpha Z        PSCENC =       751.52672365
  Ewald energy   TEWEN  =    -22871.34503388
  -Hartree energ DENC   =     -9078.15515565
  -exchange      EXHF   =         0.00000000
  -V(xc)+E(xc)   XCENC  =      1472.51335170
  PAW double counting   =     29498.33546493   -32317.70040020
  entropy T*S    EENTRO =        -0.00000000
  eigenvalues    EBANDS =     -5211.25500534
  atomic energy  EATOM  =     37532.17946992
  Solvation  Ediel_sol  =         0.00000000
  ---------------------------------------------------
  free energy    TOTEN  =      -223.90058486 eV

  energy without entropy =     -223.90058486  energy(sigma->0) =     -223.90058486


--------------------------------------------------------------------------------------------------------




--------------------------------------- Iteration      1(  18)  ---------------------------------------


    POTLOK:  cpu time      0.0367: real time      0.0369
    SETDIJ:  cpu time      0.0305: real time      0.0309
     EDDAV:  cpu time      8.9307: real time      8.9780
       DOS:  cpu time      0.0003: real time      0.0003
    CHARGE:  cpu time      0.3234: real time      0.3253
    MIXING:  cpu time      0.0019: real time      0.0019
    --------------------------------------------
      LOOP:  cpu time      9.3235: real time      9.3733

 eigenvalue-minimisations  :  3872
 total energy-change (2. order) :-0.1397057E-06  (-0.1553183E-08)
 number of electron     448.0000022 magnetization 
 augmentation part      112.8478641 magnetization 

 Broyden mixing:
  rms(total) = 0.47052E-04    rms(broyden)= 0.46849E-04
  rms(prec ) = 0.49057E-04
  weight for this iteration     100.00

 eigenvalues of (default mixing * dielectric matrix)
  average eigenvalue GAMMA=   1.5253
  3.1887  2.9123  2.2467  2.2467  1.2733  1.2733  1.2083  1.2083  0.9528  0.9528
  0.9442  0.8700  0.5510

 Free energy of the ion-electron system (eV)
  ---------------------------------------------------
  alpha Z        PSCENC =       751.52672365
  Ewald energy   TEWEN  =    -22871.34503388
  -Hartree energ DENC   =     -9078.15887991
  -exchange      EXHF   =         0.00000000
  -V(xc)+E(xc)   XCENC  =      1472.51349774
  PAW double counting   =     29498.20560415   -32317.57031321
  entropy T*S    EENTRO =        -0.00000000
  eigenvalues    EBANDS =     -5211.25165346
  atomic energy  EATOM  =     37532.17946992
  Solvation  Ediel_sol  =         0.00000000
  ---------------------------------------------------
  free energy    TOTEN  =      -223.90058500 eV

  energy without entropy =     -223.90058500  energy(sigma->0) =     -223.90058500


--------------------------------------------------------------------------------------------------------




--------------------------------------- Iteration      1(  19)  ---------------------------------------


    POTLOK:  cpu time      0.0369: real time      0.0371
    SETDIJ:  cpu time      0.0309: real time      0.0310
     EDDAV:  cpu time      7.5940: real time      7.6347
       DOS:  cpu time      0.0003: real time      0.0003
    CHARGE:  cpu time      0.3249: real time      0.3266
    MIXING:  cpu time      0.0020: real time      0.0020
    --------------------------------------------
      LOOP:  cpu time      7.9890: real time      8.0318

 eigenvalue-minimisations  :  3072
 total energy-change (2. order) : 0.1580338E-07  (-0.6689332E-09)
 number of electron     448.0000022 magnetization 
 augmentation part      112.8478656 magnetization 

 Broyden mixing:
  rms(total) = 0.40504E-04    rms(broyden)= 0.40270E-04
  rms(prec ) = 0.42046E-04
  weight for this iteration     100.00

 eigenvalues of (default mixing * dielectric matrix)
  average eigenvalue GAMMA=   1.5325
  3.2504  2.9283  2.3409  2.3409  1.0745  1.0745  1.2448  1.2448  1.2085  1.1516
  0.8876  0.8876  0.9664  0.8540

 Free energy of the ion-electron system (eV)
  ---------------------------------------------------
  alpha Z        PSCENC =       751.52672365
  Ewald energy   TEWEN  =    -22871.34503388
  -Hartree energ DENC   =     -9078.15884425
  -exchange      EXHF   =         0.00000000
  -V(xc)+E(xc)   XCENC  =      1472.51349727
  PAW double counting   =     29498.22462093   -32317.58926820
  entropy T*S    EENTRO =        -0.00000000
  eigenvalues    EBANDS =     -5211.25175043
  atomic energy  EATOM  =     37532.17946992
  Solvation  Ediel_sol  =         0.00000000
  ---------------------------------------------------
  free energy    TOTEN  =      -223.90058498 eV

  energy without entropy =     -223.90058498  energy(sigma->0) =     -223.90058498


--------------------------------------------------------------------------------------------------------




--------------------------------------- Iteration      1(  20)  ---------------------------------------


    POTLOK:  cpu time      0.0369: real time      0.0378
    SETDIJ:  cpu time      0.0316: real time      0.0317
     EDDAV:  cpu time      7.7053: real time      7.7461
       DOS:  cpu time      0.0004: real time      0.0004
    CHARGE:  cpu time      0.3254: real time      0.3270
    MIXING:  cpu time      0.0020: real time      0.0020
    --------------------------------------------
      LOOP:  cpu time      8.1016: real time      8.1450

 eigenvalue-minimisations  :  3136
 total energy-change (2. order) : 0.3752211E-07  (-0.1747577E-09)
 number of electron     448.0000022 magnetization 
 augmentation part      112.8478634 magnetization 

 Broyden mixing:
  rms(total) = 0.28995E-04    rms(broyden)= 0.28667E-04
  rms(prec ) = 0.29693E-04
  weight for this iteration     100.00

 eigenvalues of (default mixing * dielectric matrix)
  average eigenvalue GAMMA=   1.6026
  3.5117  2.9418  2.5020  2.4461  1.8644  1.3449  1.3449  1.2317  1.2317  1.0512
  1.0512  0.9765  0.9765  0.8164  0.7475

 Free energy of the ion-electron system (eV)
  ---------------------------------------------------
  alpha Z        PSCENC =       751.52672365
  Ewald energy   TEWEN  =    -22871.34503388
  -Hartree energ DENC   =     -9078.15828168
  -exchange      EXHF   =         0.00000000
  -V(xc)+E(xc)   XCENC  =      1472.51347113
  PAW double counting   =     29498.24759961   -32317.61222485
  entropy T*S    EENTRO =        -0.00000000
  eigenvalues    EBANDS =     -5211.25230885
  atomic energy  EATOM  =     37532.17946992
  Solvation  Ediel_sol  =         0.00000000
  ---------------------------------------------------
  free energy    TOTEN  =      -223.90058495 eV

  energy without entropy =     -223.90058495  energy(sigma->0) =     -223.90058495


--------------------------------------------------------------------------------------------------------




--------------------------------------- Iteration      1(  21)  ---------------------------------------


    POTLOK:  cpu time      0.0366: real time      0.0368
    SETDIJ:  cpu time      0.0311: real time      0.0313
     EDDAV:  cpu time      7.9765: real time      8.0188
       DOS:  cpu time      0.0004: real time      0.0004
    CHARGE:  cpu time      0.3289: real time      0.3307
    MIXING:  cpu time      0.0020: real time      0.0020
    --------------------------------------------
      LOOP:  cpu time      8.3754: real time      8.4199

 eigenvalue-minimisations  :  3296
 total energy-change (2. order) : 0.6022310E-07  (-0.2258105E-09)
 number of electron     448.0000022 magnetization 
 augmentation part      112.8478575 magnetization 

 Broyden mixing:
  rms(total) = 0.10793E-04    rms(broyden)= 0.98781E-05
  rms(prec ) = 0.10503E-04
  weight for this iteration     100.00

 eigenvalues of (default mixing * dielectric matrix)
  average eigenvalue GAMMA=   1.6084
  3.9737  2.9693  2.7467  2.4427  1.6900  1.2246  1.2246  1.4054  1.3946  1.0549
  1.0549  1.0019  1.0019  0.8809  0.8809  0.7877

 Free energy of the ion-electron system (eV)
  ---------------------------------------------------
  alpha Z        PSCENC =       751.52672365
  Ewald energy   TEWEN  =    -22871.34503388
  -Hartree energ DENC   =     -9078.15708199
  -exchange      EXHF   =         0.00000000
  -V(xc)+E(xc)   XCENC  =      1472.51341669
  PAW double counting   =     29498.29534642   -32317.65997121
  entropy T*S    EENTRO =        -0.00000000
  eigenvalues    EBANDS =     -5211.25345449
  atomic energy  EATOM  =     37532.17946992
  Solvation  Ediel_sol  =         0.00000000
  ---------------------------------------------------
  free energy    TOTEN  =      -223.90058489 eV

  energy without entropy =     -223.90058489  energy(sigma->0) =     -223.90058489


--------------------------------------------------------------------------------------------------------




--------------------------------------- Iteration      1(  22)  ---------------------------------------


    POTLOK:  cpu time      0.0386: real time      0.0432
    SETDIJ:  cpu time      0.0329: real time      0.0331
     EDDAV:  cpu time      7.5591: real time      7.6011
       DOS:  cpu time      0.0004: real time      0.0004
    --------------------------------------------
[...]
         0         1         2         3         4         5         6         7         8         9
 total charge-density along one line
 
 pseudopotential strength for first ion, spin component:           1
-25.389  -0.000  -0.000   2.511   0.000   0.000   0.000   0.000
 -0.000 -25.389  -0.000   0.000   2.511   0.000   0.000   0.000
 -0.000  -0.000 -25.389   0.000   0.000   2.511  -0.000  -0.001
  2.511   0.000   0.000   6.528  -0.000  -0.000   0.000   0.000
  0.000   2.511   0.000  -0.000   6.528  -0.000  -0.000   0.000
  0.000   0.000   2.511  -0.000  -0.000   6.528   0.000   0.000
  0.000   0.000  -0.000   0.000  -0.000   0.000   1.428   6.993
  0.000   0.000  -0.001   0.000   0.000   0.000   6.993  33.989
 total augmentation occupancy for first ion, spin component:           1
  2.002   0.000   0.000   0.002   0.000   0.000  -0.000   0.000
  0.000   2.002   0.000   0.000   0.002   0.000  -0.000   0.000
  0.000   0.000   2.002   0.000   0.000   0.002   0.001  -0.000
  0.002   0.000   0.000   0.017   0.000   0.000   0.000  -0.000
  0.000   0.002   0.000   0.000   0.017   0.000  -0.000  -0.000
  0.000   0.000   0.002   0.000   0.000   0.017   0.003  -0.000
 -0.000  -0.000   0.001   0.000  -0.000   0.003   0.403  -0.001
  0.000   0.000  -0.000  -0.000  -0.000  -0.000  -0.001   0.000


------------------------ aborting loop because EDIFF is reached ----------------------------------------


    CHARGE:  cpu time      0.3245: real time      0.3263
    FORLOC:  cpu time      0.0113: real time      0.0113
    FORNL :  cpu time      2.2753: real time      2.2891
    STRESS:  cpu time     12.8541: real time     12.9208
    FORCOR:  cpu time      0.0433: real time      0.0435
    FORHAR:  cpu time      0.0171: real time      0.0172
    MIXING:  cpu time      0.0013: real time      0.0013
    OFIELD:  cpu time      0.0000: real time      0.0000

  FORCE on cell =-STRESS in cart. coord.  units (eV):
  Direction    XX          YY          ZZ          XY          YZ          ZX
  --------------------------------------------------------------------------------------
  Alpha Z   751.52672   751.52672   751.52672
  Ewald   -7623.77303 -7623.77320 -7623.93614    -0.00265    -0.00453    -0.00438
  Hartree  3026.07776  3026.07008  3026.00944    -0.00211    -0.00346    -0.00344
  E(xc)   -2014.34810 -2014.34809 -2014.34816    -0.00000    -0.00000    -0.00000
  Local   -2024.96717 -2024.95699 -2024.73844     0.00477     0.00793     0.00778
  n-local  1887.62628  1887.62596  1887.62066     0.00000     0.00001     0.00002
  augment   687.00914   687.00933   687.00912    -0.00000    -0.00010    -0.00009
  Kinetic  5310.52617  5310.52417  5310.52449     0.00001     0.00009     0.00005
  Fock        0.00000     0.00000     0.00000     0.00000     0.00000     0.00000
  -------------------------------------------------------------------------------------
  Total      -0.32222    -0.32200    -0.33230     0.00001    -0.00006    -0.00007
  in kB      -0.36707    -0.36682    -0.37855     0.00001    -0.00006    -0.00008
  external pressure =       -0.37 kB  Pullay stress =        0.00 kB


 VOLUME and BASIS-vectors are now :
 -----------------------------------------------------------------------------
  energy-cutoff  :      341.21
  volume of cell :     1406.43
      direct lattice vectors                 reciprocal lattice vectors
    11.204002360  0.000000000  0.000000000     0.089253819  0.000000000  0.000000000
     0.000000000 11.204002360  0.000000000     0.000000000  0.089253819  0.000000000
     0.000000000  0.000000000 11.204002360     0.000000000  0.000000000  0.089253819

  length of vectors
    11.204002360 11.204002360 11.204002360     0.089253819  0.089253819  0.089253819


 FORCES acting on ions
    electron-ion (+dipol)            ewald-force                    non-local-force                 convergence-correction
 -----------------------------------------------------------------------------------------------
   0.386E+01 -.670E-01 -.170E+00   -.381E+01 0.663E-01 0.162E+00   -.109E+00 0.541E-03 0.606E-02   -.448E-05 -.191E-06 -.139E-05
   -.242E+00 0.516E+00 -.160E-01   0.247E+00 -.440E+00 0.153E-01   -.293E-02 -.650E-01 0.787E-03   0.270E-06 -.875E-08 0.186E-06
   -.242E+00 -.212E+01 -.445E+00   0.247E+00 0.200E+01 0.479E+00   -.293E-02 0.139E+00 -.274E-01   0.200E-06 0.485E-06 0.199E-05
   0.284E+00 0.964E+00 0.250E-02   -.293E+00 -.921E+00 -.259E-02   0.723E-02 -.375E-01 0.783E-04   0.636E-06 0.139E-06 -.118E-06
   -.278E-02 -.654E-01 0.166E+00   -.428E-02 0.646E-01 -.159E+00   0.573E-02 0.505E-03 -.604E-02   0.283E-06 -.169E-06 0.141E-05
   -.720E-02 0.921E+00 0.159E-01   0.709E-02 -.879E+00 -.153E-01   0.897E-04 -.372E-01 -.711E-03   0.380E-06 0.158E-05 -.876E-06
   -.242E+00 -.175E-01 0.445E+00   0.247E+00 0.185E-01 -.479E+00   -.293E-02 -.848E-03 0.273E-01   0.302E-06 -.835E-06 -.253E-05
   0.300E+00 0.115E+00 -.249E-02   -.308E+00 -.112E+00 0.259E-02   0.647E-02 -.264E-02 -.833E-04   0.150E-06 -.261E-05 0.748E-07
   0.332E+00 -.620E-01 0.168E+00   -.324E+00 0.614E-01 -.161E+00   -.637E-02 0.400E-03 -.608E-02   0.365E-05 -.228E-06 0.128E-05
   -.242E+00 0.146E+00 0.159E-02   0.247E+00 -.198E+00 -.158E-02   -.293E-02 0.429E-01 -.580E-05   -.187E-06 0.274E-06 0.178E-06
   -.721E-02 -.218E+01 -.397E-01   0.709E-02 0.206E+01 0.392E-01   0.923E-04 0.143E+00 0.431E-03   0.187E-06 -.206E-06 0.169E-06
   0.302E+00 -.302E+00 0.248E-02   -.310E+00 0.284E+00 -.259E-02   0.648E-02 0.155E-01 0.892E-04   0.353E-06 0.984E-07 0.259E-06
   0.233E+00 -.621E-01 -.168E+00   -.228E+00 0.614E-01 0.161E+00   -.404E-02 0.405E-03 0.608E-02   0.218E-05 0.219E-06 -.143E-05
   -.721E-02 -.260E+00 -.159E-02   0.709E-02 0.242E+00 0.158E-02   0.918E-04 0.151E-01 0.712E-05   -.379E-06 -.135E-05 -.548E-07
   -.721E-02 -.151E-01 0.397E-01   0.709E-02 0.162E-01 -.392E-01   0.918E-04 -.932E-03 -.426E-03   -.141E-06 0.123E-06 -.109E-06
   0.300E+00 -.996E-01 -.248E-02   -.308E+00 0.961E-01 0.259E-02   0.647E-02 0.286E-02 -.891E-04   0.403E-06 0.273E-05 -.158E-06
   -.285E+00 -.654E-01 -.166E+00   0.357E+00 0.646E-01 0.159E+00   -.619E-01 0.512E-03 0.604E-02   0.212E-05 -.331E-08 -.169E-05
   -.246E+00 0.550E+00 -.386E-03   0.250E+00 -.580E+00 0.398E-03   -.303E-02 0.241E-01 -.102E-04   0.545E-06 -.444E-05 -.129E-07
   -.246E+00 -.175E-01 0.438E+00   0.250E+00 0.185E-01 -.470E+00   -.303E-02 -.851E-03 0.268E-01   0.412E-06 -.369E-06 -.188E-05
   -.151E+00 0.960E+00 -.739E-03   0.158E+00 -.918E+00 0.777E-03   -.626E-02 -.376E-01 -.310E-04   -.132E-05 0.262E-06 0.293E-06
   0.396E-01 -.654E-01 0.166E+00   -.308E-01 0.646E-01 -.159E+00   -.725E-02 0.505E-03 -.604E-02   -.341E-06 0.651E-07 0.159E-05
   -.882E-02 0.152E+00 0.387E-03   0.877E-02 -.148E+00 -.398E-03   0.361E-04 -.314E-02 0.947E-05   0.349E-06 -.311E-05 -.159E-06
   -.246E+00 -.275E-02 -.438E+00   0.250E+00 0.273E-02 0.470E+00   -.303E-02 0.203E-04 -.268E-01   -.697E-07 -.225E-06 0.209E-05
   -.166E+00 0.112E+00 0.746E-03   0.173E+00 -.109E+00 -.777E-03   -.552E-02 -.275E-02 0.252E-04   -.615E-06 -.271E-05 0.880E-07
   -.295E+00 -.620E-01 0.168E+00   0.289E+00 0.614E-01 -.161E+00   0.486E-02 0.401E-03 -.608E-02   -.436E-05 -.187E-06 0.151E-05
   -.246E+00 -.535E+00 0.289E-03   0.250E+00 0.564E+00 -.274E-03   -.303E-02 -.239E-01 -.129E-04   0.216E-06 0.566E-05 -.982E-07
   -.881E-02 -.151E-01 0.395E-01   0.877E-02 0.162E-01 -.391E-01   0.354E-04 -.931E-03 -.409E-03   0.102E-06 -.185E-06 -.123E-06
   -.168E+00 -.299E+00 -.752E-03   0.175E+00 0.280E+00 0.777E-03   -.552E-02 0.156E-01 -.204E-04   -.819E-06 0.305E-07 0.182E-06
   -.229E+00 -.621E-01 -.168E+00   0.224E+00 0.614E-01 0.161E+00   0.404E-02 0.406E-03 0.608E-02   -.256E-05 -.274E-06 -.166E-05
   -.882E-02 -.137E+00 -.289E-03   0.877E-02 0.133E+00 0.274E-03   0.354E-04 0.336E-02 0.130E-04   0.387E-06 0.288E-05 -.870E-08
   -.881E-02 -.160E-02 -.395E-01   0.877E-02 0.163E-02 0.391E-01   0.352E-04 -.221E-04 0.409E-03   0.392E-06 0.230E-06 0.213E-06
   -.167E+00 -.963E-01 0.752E-03   0.174E+00 0.927E-01 -.777E-03   -.551E-02 0.297E-02 0.204E-04   -.607E-06 0.289E-05 0.807E-07
   -.595E-01 0.386E+01 -.156E+00   0.599E-01 -.381E+01 0.158E+00   -.527E-03 -.125E+00 -.322E-02   0.693E-06 0.407E-05 0.158E-05
   0.429E+00 -.256E+00 0.152E-01   -.448E+00 0.250E+00 -.153E-01   0.303E-01 0.922E-02 -.512E-04   -.269E-05 -.114E-05 -.493E-06
   0.904E+00 0.327E+00 -.264E-02   -.916E+00 -.323E+00 0.259E-02   0.166E-01 -.595E-02 0.782E-04   -.137E-05 -.123E-05 -.486E-06
   -.204E+01 -.256E+00 -.478E+00   0.206E+01 0.250E+00 0.470E+00   0.768E-02 0.920E-02 0.137E-01   0.295E-06 -.593E-06 -.194E-05
   -.611E-01 0.705E-02 0.159E+00   0.614E-01 -.268E-02 -.161E+00   -.544E-03 -.722E-02 0.330E-02   -.205E-06 -.743E-06 -.256E-06
   0.867E+00 -.872E-02 -.152E-01   -.879E+00 0.877E-02 0.153E-01   0.180E-01 -.858E-04 0.489E-04   -.430E-06 0.273E-07 0.730E-06
   0.106E+00 0.312E+00 0.263E-02   -.107E+00 -.308E+00 -.259E-02   0.159E-02 -.587E-02 -.670E-04   0.703E-06 -.108E-05 0.582E-06
   -.164E-01 -.256E+00 0.478E+00   0.162E-01 0.250E+00 -.470E+00   0.449E-03 0.921E-02 -.137E-01   -.221E-06 -.113E-07 0.182E-05
   -.611E-01 -.363E+00 -.159E+00   0.614E-01 0.355E+00 0.161E+00   -.545E-03 0.129E-01 -.330E-02   -.203E-06 -.264E-05 0.627E-06
   0.595E+00 -.252E+00 0.384E-03   -.588E+00 0.247E+00 -.398E-03   -.125E-01 0.930E-02 0.235E-04   0.215E-05 0.196E-06 0.302E-06
   0.908E+00 -.191E+00 0.780E-03   -.919E+00 0.189E+00 -.777E-03   0.165E-01 0.397E-02 -.631E-05   -.673E-07 0.165E-05 0.284E-06
   -.164E-01 -.252E+00 0.487E+00   0.162E-01 0.247E+00 -.479E+00   0.448E-03 0.930E-02 -.140E-01   -.102E-06 -.883E-06 0.127E-05
   -.611E-01 0.274E-01 0.159E+00   0.614E-01 -.324E-01 -.161E+00   -.545E-03 0.825E-02 0.330E-02   -.154E-05 0.323E-06 -.751E-06
   0.149E+00 -.702E-02 -.385E-03   -.149E+00 0.709E-02 0.398E-03   0.788E-04 -.123E-03 -.228E-04   0.291E-05 0.901E-07 0.112E-07
   0.109E+00 -.176E+00 -.781E-03   -.110E+00 0.174E+00 0.777E-03   0.152E-02 0.390E-02 0.676E-05   0.130E-05 0.125E-06 0.424E-07
   -.165E-02 -.252E+00 -.487E+00   0.163E-02 0.247E+00 0.479E+00   0.247E-04 0.930E-02 0.140E-01   0.716E-06 -.696E-06 -.181E-05
   -.643E-01 0.323E+00 0.157E+00   0.646E-01 -.322E+00 -.159E+00   -.594E-03 -.671E-03 0.324E-02   0.661E-06 -.109E-05 -.126E-05
   0.201E+00 -.256E+00 -.156E-02   -.189E+00 0.250E+00 0.158E-02   -.209E-01 0.922E-02 -.326E-04   0.147E-05 -.847E-06 0.416E-06
   -.274E+00 0.310E+00 -.263E-02   0.279E+00 -.306E+00 0.259E-02   -.719E-02 -.592E-02 0.720E-04   -.374E-07 -.551E-06 -.581E-06
   -.198E+01 -.872E-02 -.399E-01   0.200E+01 0.877E-02 0.391E-01   0.259E-02 -.860E-04 0.143E-02   0.256E-05 -.143E-06 -.853E-06
   -.643E-01 0.225E+00 -.157E+00   0.646E-01 -.226E+00 0.159E+00   -.594E-03 0.192E-02 -.324E-02   0.938E-06 -.381E-05 0.185E-05
   -.237E+00 -.872E-02 0.156E-02   0.242E+00 0.877E-02 -.158E-02   -.854E-02 -.849E-04 0.276E-04   0.120E-05 0.961E-06 -.781E-07
   -.898E-01 0.311E+00 0.263E-02   0.909E-01 -.308E+00 -.259E-02   -.174E-02 -.589E-02 -.669E-04   -.312E-05 0.465E-07 -.143E-06
   -.187E-01 -.871E-02 0.399E-01   0.185E-01 0.877E-02 -.391E-01   0.377E-03 -.869E-04 -.143E-02   0.893E-06 -.727E-06 0.112E-05
   -.643E-01 -.288E+00 0.157E+00   0.646E-01 0.287E+00 -.159E+00   -.595E-03 0.171E-02 0.325E-02   0.505E-06 0.198E-05 -.556E-06
   -.579E+00 -.252E+00 -.269E-03   0.572E+00 0.247E+00 0.274E-03   0.124E-01 0.931E-02 -.495E-05   -.257E-05 0.117E-05 -.299E-06
   -.278E+00 -.174E+00 0.780E-03   0.282E+00 0.172E+00 -.777E-03   -.710E-02 0.395E-02 -.670E-05   -.255E-06 0.299E-06 0.120E-05
   -.187E-01 -.701E-02 0.400E-01   0.185E-01 0.709E-02 -.392E-01   0.377E-03 -.127E-03 -.145E-02   0.758E-06 -.125E-05 0.217E-05
   -.643E-01 -.221E+00 -.157E+00   0.646E-01 0.222E+00 0.159E+00   -.594E-03 -.190E-02 -.324E-02   0.163E-05 0.479E-05 0.451E-06
   -.133E+00 -.701E-02 0.272E-03   0.133E+00 0.709E-02 -.274E-03   -.221E-03 -.125E-03 0.331E-05   -.330E-05 -.108E-05 -.172E-06
   -.932E-01 -.175E+00 -.779E-03   0.942E-01 0.173E+00 0.777E-03   -.166E-02 0.392E-02 0.627E-05   -.113E-05 0.343E-06 -.140E-05
   -.273E-02 -.702E-02 -.400E-01   0.273E-02 0.709E-02 0.392E-01   -.195E-05 -.124E-03 0.145E-02   0.903E-06 0.200E-06 -.213E-05
 -----------------------------------------------------------------------------------------------
   0.150E+00 -.150E+00 -.987E-04   0.155E-12 0.480E-13 0.127E-12   -.149E+00 0.150E+00 0.967E-04   0.702E-06 -.166E-05 0.520E-06
 
 
 POSITION                                       TOTAL-FORCE (eV/Angst)
 -----------------------------------------------------------------------------------
      0.03000      0.00000      0.00000        -0.064130     -0.000248     -0.001313
      2.80100      2.80100      0.00000         0.001514      0.010944      0.000090
      2.80100      0.00000      2.80100         0.001515      0.016208      0.005934
      0.00000      2.80100      2.80100        -0.001570      0.004994     -0.000017
      0.00000      0.00000      5.60200        -0.001340     -0.000235      0.001292
      2.80100      2.80100      5.60200        -0.000033      0.004934     -0.000100
      2.80100      0.00000      8.40300         0.001514      0.000151     -0.005927
      0.00000      2.80100      8.40300        -0.001663      0.000589      0.000018
      0.00000      5.60200      0.00000         0.001244     -0.000213      0.001299
      2.80100      8.40300      0.00000         0.001514     -0.008763      0.000002
      2.80100      5.60200      2.80100        -0.000033      0.020272     -0.000076
      0.00000      8.40300      2.80100        -0.001662     -0.002818     -0.000020
      0.00000      5.60200      5.60200         0.000844     -0.000214     -0.001299
      2.80100      8.40300      5.60200        -0.000033     -0.002758     -0.000002
      2.80100      5.60200      8.40300        -0.000033      0.000167      0.000077
      0.00000      8.40300      8.40300        -0.001662     -0.000651      0.000019
      5.60200      0.00000      0.00000         0.010207     -0.000236     -0.001285
      8.40300      2.80100      0.00000         0.001508     -0.005193      0.000002
      8.40300      0.00000      2.80100         0.001507      0.000152     -0.005801
      5.60200      2.80100      2.80100         0.001068      0.005017      0.000007
      5.60200      0.00000      5.60200         0.001599     -0.000234      0.001291
      8.40300      2.80100      5.60200        -0.000021      0.000682     -0.000002
      8.40300      0.00000      8.40300         0.001508     -0.000004      0.005801
      5.60200      2.80100      8.40300         0.001162      0.000613     -0.000005
      5.60200      5.60200      0.00000        -0.000988     -0.000213      0.001299
      8.40300      8.40300      0.00000         0.001508      0.005130      0.000003
      8.40300      5.60200      2.80100        -0.000021      0.000167      0.000074
      5.60200      8.40300      2.80100         0.001162     -0.002841      0.000004
      5.60200      5.60200      5.60200        -0.000857     -0.000214     -0.001299
      8.40300      8.40300      5.60200        -0.000021     -0.000744     -0.000003
      8.40300      5.60200      8.40300        -0.000021      0.000006     -0.000074
      5.60200      8.40300      8.40300         0.001161     -0.000675     -0.000004
      2.80100      2.83100      2.80100        -0.000215     -0.077345     -0.001281
      0.00000      0.00000      2.80100         0.010744      0.003869     -0.000134
      0.00000      2.80100      0.00000         0.005038     -0.002465      0.000032
      2.80100      0.00000      0.00000         0.020232      0.003857      0.005728
      2.80100      2.80100      8.40300        -0.000219     -0.002854      0.001307
      0.00000      0.00000      8.40300         0.005569     -0.000038      0.000125
      0.00000      2.80100      5.60200         0.000626     -0.002327     -0.000029
      2.80100      0.00000      5.60200         0.000170      0.003858     -0.005735
      2.80100      8.40300      2.80100        -0.000220      0.005150     -0.001306
      0.00000      5.60200      2.80100        -0.005285      0.003919      0.000009
      0.00000      8.40300      0.00000         0.005000      0.001672     -0.000003
      2.80100      5.60200      0.00000         0.000170      0.003918     -0.005882
      2.80100      8.40300      8.40300        -0.000219      0.003265      0.001306
      0.00000      5.60200      8.40300         0.000022     -0.000054     -0.000009
      0.00000      8.40300      5.60200         0.000594      0.001538      0.000003
      2.80100      5.60200      5.60200        -0.000002      0.003919      0.005882
      8.40300      2.80100      2.80100        -0.000241     -0.000265      0.001283
      5.60200      0.00000      2.80100        -0.008576      0.003863     -0.000016
      5.60200      2.80100      0.00000        -0.002869     -0.002350      0.000031
      8.40300      0.00000      0.00000         0.016175     -0.000038      0.000570
      8.40300      2.80100      8.40300        -0.000241      0.000764     -0.001283
      5.60200      0.00000      8.40300        -0.003403     -0.000038      0.000013
      5.60200      2.80100      5.60200        -0.000699     -0.002338     -0.000028
      8.40300      0.00000      5.60200         0.000140     -0.000038     -0.000568
      8.40300      8.40300      2.80100        -0.000241      0.000676      0.001284
      5.60200      5.60200      2.80100         0.005211      0.003918     -0.000001
      5.60200      8.40300      0.00000        -0.002833      0.001559     -0.000003
      8.40300      5.60200      0.00000         0.000140     -0.000053     -0.000575
      8.40300      8.40300      8.40300        -0.000241     -0.000756     -0.001283
      5.60200      5.60200      8.40300        -0.000096     -0.000053      0.000001
      5.60200      8.40300      5.60200        -0.000669      0.001548      0.000003
      8.40300      5.60200      5.60200        -0.000011     -0.000053      0.000575
 -----------------------------------------------------------------------------------
    total drift:                                0.000581      0.000200     -0.000001


--------------------------------------------------------------------------------------------------------



  FREE ENERGIE OF THE ION-ELECTRON SYSTEM (eV)
  ---------------------------------------------------
  free  energy   TOTEN  =      -223.90058489 eV

  energy  without entropy=     -223.90058489  energy(sigma->0) =     -223.90058489
 


--------------------------------------------------------------------------------------------------------


    POTLOK:  cpu time      0.0697: real time      0.0700


--------------------------------------------------------------------------------------------------------


     LOOP+:  cpu time    260.4162: real time    261.8361
    4ORBIT:  cpu time      0.0000: real time      0.0000

 total amount of memory used by VASP MPI-rank0   129658. kBytes
=======================================================================

   base      :      30000. kBytes
   nonl-proj :      41680. kBytes
   fftplans  :      14405. kBytes
   grid      :      19342. kBytes
   one-center:        196. kBytes
   wavefun   :      24035. kBytes
 
  
  
 General timing and accounting informations for this job:
 ========================================================
  
                  Total CPU time used (sec):      264.825
                            User time (sec):      264.187
                          System time (sec):        0.638
                         Elapsed time (sec):      266.676
  
                   Maximum memory used (kb):      322352.
                   Average memory used (kb):          N/A
  
                          Minor page faults:       126709
                          Major page faults:            0
                 Voluntary context switches:          884
