 vasp.6.3.2 27Jun22 (build Oct 14 2022 12:38:20) complex                        
  
 executed on             LinuxIFC date 2022.11.28  01:29:57
 running on   32 total cores
 distrk:  each k-point on   32 cores,    1 groups
 distr:  one band on NCORE=   4 cores,    8 groups


--------------------------------------------------------------------------------------------------------


 INCAR:
   ADDGRID = True
   EDIFF = 1e-08
   ENCUT = 341
   GGA = Ps
   IALGO = 38
   IBRION = -1
   ISMEAR = 0
   LCHARG = False
   LREAL = False
   LWAVE = False
   NELMIN = 5
   NPAR = 8
   PREC = Accurate
   SIGMA = 0.02

 POTCAR:    PAW_PBE Na_pv 19Sep2006               
 POTCAR:    PAW_PBE Cl 06Sep2000                  
 POTCAR:    PAW_PBE Na_pv 19Sep2006               
   SHA256 =  6a2f546d9e11350984debacf3dc457d8cffc0868e817d445faca461816a32b94 Na_pv/POTCAR          
   COPYR  = (c) Copyright 19Sep2006 Georg Kresse                                                    
   COPYR  = This file is part of the software VASP. Any use, copying, and all other rights are regul
   COPYR  = If you do not have a valid VASP license, you may not use, copy or distribute this file. 
   VRHFIN =Na: p6s1                                                                                 
   LEXCH  = PE                                                                                      
   EATOM  =   766.0439 eV,   56.3026 Ry                                                             
                                                                                                    
   TITEL  = PAW_PBE Na_pv 19Sep2006                                                                 
   LULTRA =        F    use ultrasoft PP ?                                                          
   IUNSCR =        1    unscreen: 0-lin 1-nonlin 2-no                                               
   RPACOR =    1.800    partial core radius                                                         
   POMASS =   22.990; ZVAL   =    7.000    mass and valenz                                          
   RCORE  =    2.200    outmost cutoff radius                                                       
   RWIGS  =    2.200; RWIGS  =    1.164    wigner-seitz radius (au A)                               
   ENMAX  =  259.561; ENMIN  =  194.671 eV                                                          
   ICORE  =        2    local potential                                                             
   LCOR   =        T    correct aug charges                                                         
   LPAW   =        T    paw PP                                                                      
   EAUG   =  368.056                                                                                
   DEXC   =    0.000                                                                                
   RMAX   =    2.245    core radius for proj-oper                                                   
   RAUG   =    1.300    factor for augmentation sphere                                              
   RDEP   =    2.259    radius for radial grids                                                     
   RDEPT  =    1.738    core radius for aug-charge                                                  
                                                                                                    
   Atomic configuration                                                                             
    5 entries                                                                                       
     n  l   j            E        occ.                                                              
     1  0  0.50     -1033.6933   2.0000                                                             
     2  0  0.50       -56.7526   2.0000                                                             
     2  1  1.50       -28.6721   6.0000                                                             
     3  0  0.50        -2.7440   1.0000                                                             
     3  2  1.50        -1.3606   0.0000                                                             
   Description                                                                                      
     l       E           TYP  RCUT    TYP  RCUT                                                     
     1    -28.6720912     23  2.000                                                                 
     1      6.8029130     23  2.000                                                                 
     0     -2.7439560     23  2.200                                                                 
     0     34.0145650     23  2.200                                                                 
     2     -1.3605826     23  2.200                                                                 
  local pseudopotential read in
  partial core-charges read in
  partial kinetic energy density read in
  atomic valenz-charges read in
  non local Contribution for L=           1  read in
    real space projection operators read in
  non local Contribution for L=           1  read in
    real space projection operators read in
  non local Contribution for L=           0  read in
    real space projection operators read in
  non local Contribution for L=           0  read in
    real space projection operators read in
    PAW grid and wavefunctions read in
 
   number of l-projection  operators is LMAX  =           4
   number of lm-projection operators is LMMAX =           8
 
 POTCAR:    PAW_PBE Cl 06Sep2000                  
   SHA256 =  9f1b6e6ed4247ac726a768b330d26d7667cc3c95a39ff49c1d064c2d9dcce931 Cl/POTCAR             
   COPYR  = (c) Copyright 06Sep2000 Georg Kresse                                                    
   COPYR  = This file is part of the software VASP. Any use, copying, and all other rights are regul
   COPYR  = If you do not have a valid VASP license, you may not use, copy or distribute this file. 
   VRHFIN =Cl: s2p5                                                                                 
   LEXCH  = PE                                                                                      
   EATOM  =   409.7259 eV,   30.1140 Ry                                                             
                                                                                                    
   TITEL  = PAW_PBE Cl 06Sep2000                                                                    
   LULTRA =        F    use ultrasoft PP ?                                                          
   IUNSCR =        1    unscreen: 0-lin 1-nonlin 2-no                                               
   RPACOR =    1.500    partial core radius                                                         
   POMASS =   35.453; ZVAL   =    7.000    mass and valenz                                          
   RCORE  =    1.900    outmost cutoff radius                                                       
   RWIGS  =    2.100; RWIGS  =    1.111    wigner-seitz radius (au A)                               
   ENMAX  =  262.472; ENMIN  =  196.854 eV                                                          
   ICORE  =        2    local potential                                                             
   LCOR   =        T    correct aug charges                                                         
   LPAW   =        T    paw PP                                                                      
   EAUG   =  356.192                                                                                
   DEXC   =    0.000                                                                                
   RMAX   =    1.945    core radius for proj-oper                                                   
   RAUG   =    1.300    factor for augmentation sphere                                              
   RDEP   =    2.020    radius for radial grids                                                     
   RDEPT  =    1.678    core radius for aug-charge                                                  
                                                                                                    
   Atomic configuration                                                                             
    6 entries                                                                                       
     n  l   j            E        occ.                                                              
     1  0  0.50     -2751.1850   2.0000                                                             
     2  0  0.50      -252.6861   2.0000                                                             
     2  1  1.50      -191.6157   6.0000                                                             
     3  0  0.50       -20.6916   2.0000                                                             
     3  1  0.50        -8.5949   5.0000                                                             
     3  2  1.50        -8.1635   0.0000                                                             
   Description                                                                                      
     l       E           TYP  RCUT    TYP  RCUT                                                     
     0    -20.6915656     23  1.900                                                                 
     0    -22.0521482     23  1.900                                                                 
     1     -8.5948577     23  1.900                                                                 
     1     -5.3847331     23  1.900                                                                 
     2     -8.1634956     23  1.900                                                                 
  local pseudopotential read in
  partial core-charges read in
  partial kinetic energy density read in
  atomic valenz-charges read in
  non local Contribution for L=           0  read in
    real space projection operators read in
  non local Contribution for L=           0  read in
    real space projection operators read in
  non local Contribution for L=           1  read in
    real space projection operators read in
  non local Contribution for L=           1  read in
    real space projection operators read in
    PAW grid and wavefunctions read in
 
   number of l-projection  operators is LMAX  =           4
   number of lm-projection operators is LMMAX =           8
 
 -----------------------------------------------------------------------------
|                                                                             |
|               ----> ADVICE to this user running VASP <----                  |
|                                                                             |
|     You have a (more or less) 'large supercell' and for larger cells it     |
|     might be more efficient to use real-space projection operators.         |
|     Therefore, try LREAL= Auto in the INCAR file.                           |
|     Mind: For very accurate calculation, you might also keep the            |
|     reciprocal projection scheme (i.e. LREAL=.FALSE.).                      |
|                                                                             |
 -----------------------------------------------------------------------------

 -----------------------------------------------------------------------------
|                                                                             |
|               ----> ADVICE to this user running VASP <----                  |
|                                                                             |
|     You enforced a specific xc type in the INCAR file but a different       |
|     type was found in the POTCAR file.                                      |
|     I HOPE YOU KNOW WHAT YOU ARE DOING!                                     |
|                                                                             |
 -----------------------------------------------------------------------------

  PAW_PBE Na_pv 19Sep2006               :
 energy of atom  1       EATOM= -766.0439
 kinetic energy error for atom=    0.0189 (will be added to EATOM!!)
  PAW_PBE Cl 06Sep2000                  :
 energy of atom  2       EATOM= -409.7259
 kinetic energy error for atom=    0.0106 (will be added to EATOM!!)
 
 
 POSCAR: Na Cl
  positions in cartesian coordinates
  No initial velocities read in
 exchange correlation table for  LEXCH =       14
   RHO(1)=    0.500       N(1)  =     2000
   RHO(2)=  100.500       N(2)  =     4000
 


--------------------------------------------------------------------------------------------------------


 ion  position               nearest neighbor table
   1  0.000  0.000  0.000-
   2  0.250  0.250  0.000-
   3  0.250  0.000  0.250-
   4  0.000  0.250  0.250-
   5  0.000  0.000  0.500-
   6  0.250  0.250  0.500-
   7  0.250  0.000  0.750-
   8  0.000  0.250  0.750-
   9  0.000  0.500  0.000-
  10  0.250  0.750  0.000-
  11  0.250  0.500  0.250-
  12  0.000  0.750  0.250-
  13  0.000  0.500  0.500-
  14  0.250  0.750  0.500-
  15  0.250  0.500  0.750-
  16  0.000  0.750  0.750-
  17  0.500  0.000  0.000-
  18  0.750  0.250  0.000-
  19  0.750  0.000  0.250-
  20  0.500  0.250  0.250-
  21  0.500  0.000  0.500-
  22  0.750  0.250  0.500-
  23  0.750  0.000  0.750-
  24  0.500  0.250  0.750-
  25  0.500  0.500  0.000-
  26  0.750  0.750  0.000-
  27  0.750  0.500  0.250-
  28  0.500  0.750  0.250-
  29  0.500  0.500  0.500-
  30  0.750  0.750  0.500-
  31  0.750  0.500  0.750-
  32  0.500  0.750  0.750-
  33  0.250  0.250  0.250-
  34  0.000  0.000  0.250-
  35  0.000  0.250  0.000-
  36  0.250  0.000  0.000-
  37  0.250  0.250  0.750-
  38  0.000  0.000  0.750-
  39  0.000  0.250  0.500-
  40  0.250  0.000  0.500-
  41  0.250  0.750  0.250-
  42  0.000  0.500  0.250-
  43  0.000  0.750  0.000-
  44  0.250  0.500  0.000-
  45  0.250  0.750  0.750-
  46  0.000  0.500  0.750-
  47  0.000  0.750  0.500-
  48  0.250  0.500  0.500-
  49  0.750  0.250  0.250-
  50  0.500  0.000  0.250-
  51  0.500  0.250  0.000-
  52  0.750  0.000  0.000-
  53  0.750  0.250  0.750-
  54  0.500  0.000  0.750-
  55  0.500  0.250  0.500-
  56  0.750  0.000  0.500-
  57  0.750  0.750  0.250-
  58  0.500  0.500  0.250-
  59  0.500  0.750  0.000-
  60  0.750  0.500  0.000-
  61  0.750  0.750  0.750-
  62  0.500  0.500  0.750-
  63  0.500  0.750  0.500-
  64  0.750  0.500  0.500-
 
  LATTYP: Found a simple cubic cell.
 ALAT       =    11.2040023600
  
  Lattice vectors:
  
 A1 = (  11.2040023600,   0.0000000000,   0.0000000000)
 A2 = (   0.0000000000,  11.2040023600,   0.0000000000)
 A3 = (   0.0000000000,   0.0000000000,  11.2040023600)


Analysis of symmetry for initial positions (statically):
=====================================================================
 Subroutine PRICEL returns following result:
 
  LATTYP: Found a face centered cubic cell.
 ALAT       =     5.6020011800
  
  Lattice vectors:
  
 A1 = (   2.8010005900,  -2.8010005900,   0.0000000000)
 A2 = (   2.8010005900,   0.0000000000,   2.8010005900)
 A3 = (   0.0000000000,  -2.8010005900,   2.8010005900)
 
  32 primitive cells build up your supercell.
 

 Routine SETGRP: Setting up the symmetry group for a 
 simple cubic supercell.


 Subroutine GETGRP returns: Found 48 space group operations
 (whereof 48 operations were pure point group operations)
 out of a pool of 48 trial point group operations.


The static configuration has the point symmetry O_h .


Analysis of symmetry for dynamics (positions and initial velocities):
=====================================================================
 Subroutine PRICEL returns following result:
 
  LATTYP: Found a face centered cubic cell.
 ALAT       =     5.6020011800
  
  Lattice vectors:
  
 A1 = (   2.8010005900,  -2.8010005900,   0.0000000000)
 A2 = (   2.8010005900,   0.0000000000,   2.8010005900)
 A3 = (   0.0000000000,  -2.8010005900,   2.8010005900)
 
  32 primitive cells build up your supercell.
 

 Routine SETGRP: Setting up the symmetry group for a 
 simple cubic supercell.


 Subroutine GETGRP returns: Found 48 space group operations
 (whereof 48 operations were pure point group operations)
 out of a pool of 48 trial point group operations.


The dynamic configuration has the point symmetry O_h .


 Subroutine INISYM returns: Found 48 space group operations
 (whereof 48 operations are pure point group operations),
 and found    32 'primitive' translations


----------------------------------------------------------------------------------------

                                     Primitive cell                                     

  volume of cell :      43.9511

  direct lattice vectors                    reciprocal lattice vectors
     2.801000590 -2.801000590  0.000000000     0.178507638 -0.178507638 -0.178507638
     2.801000590  0.000000000  2.801000590     0.178507638  0.178507638  0.178507638
     0.000000000 -2.801000590  2.801000590    -0.178507638 -0.178507638  0.178507638

  length of vectors
     3.961213023  3.961213023  3.961213023     0.309184299  0.309184299  0.309184299

  position of ions in fractional coordinates (direct lattice)
     0.000000000  0.000000000  0.000000000
     0.500000000  0.500000000  0.500000000

  ion indices of the primitive-cell ions
   primitive index   ion index
                 1           1
                 2          38

----------------------------------------------------------------------------------------

 
 
 KPOINTS: KPOINTS created by Atomic Simulation Env

Automatic generation of k-mesh.
 Grid dimensions read from file:
 generate k-points for:    2    2    2

 Generating k-lattice:

  Cartesian coordinates                     Fractional coordinates (reciprocal lattice)
     0.044626910  0.000000000  0.000000000     0.500000000  0.000000000  0.000000000
     0.000000000  0.044626910  0.000000000     0.000000000  0.500000000  0.000000000
     0.000000000  0.000000000  0.044626910     0.000000000  0.000000000  0.500000000

  Length of vectors
     0.044626910  0.044626910  0.044626910

  Shift w.r.t. Gamma in fractional coordinates (k-lattice)
     0.000000000  0.000000000  0.000000000

 
 Subroutine IBZKPT returns following result:
 ===========================================
 
 Found      4 irreducible k-points:
 
 Following reciprocal coordinates:
            Coordinates               Weight
  0.000000  0.000000  0.000000      1.000000
  0.500000  0.000000  0.000000      3.000000
  0.500000  0.500000  0.000000      3.000000
  0.500000  0.500000  0.500000      1.000000
 
 Following cartesian coordinates:
            Coordinates               Weight
  0.000000  0.000000  0.000000      1.000000
  0.044627  0.000000  0.000000      3.000000
  0.044627  0.044627  0.000000      3.000000
  0.044627  0.044627  0.044627      1.000000
 


--------------------------------------------------------------------------------------------------------




 Dimension of arrays:
   k-points           NKPTS =      4   k-points in BZ     NKDIM =      4   number of bands    NBANDS=    272
   number of dos      NEDOS =    301   number of ions     NIONS =     64
   non local maximal  LDIM  =      4   non local SUM 2l+1 LMDIM =      8
   total plane-waves  NPLWV = 343000
   max r-space proj   IRMAX =      1   max aug-charges    IRDMAX=  56280
   dimension x,y,z NGX =    70 NGY =   70 NGZ =   70
   dimension x,y,z NGXF=   140 NGYF=  140 NGZF=  140
   support grid    NGXF=   280 NGYF=  280 NGZF=  280
   ions per type =              32  32
   NGX,Y,Z   is equivalent  to a cutoff of  10.39, 10.39, 10.39 a.u.
   NGXF,Y,Z  is equivalent  to a cutoff of  20.77, 20.77, 20.77 a.u.

 SYSTEM =  unknown system                          
 POSCAR =  Na Cl                                   

 Startparameter for this run:
   NWRITE =      2    write-flag & timer
   PREC   = accura    normal or accurate (medium, high low for compatibility)
   ISTART =      0    job   : 0-new  1-cont  2-samecut
   ICHARG =      2    charge: 1-file 2-atom 10-const
   ISPIN  =      1    spin polarized calculation?
   LNONCOLLINEAR =      F non collinear calculations
   LSORBIT =      F    spin-orbit coupling
   INIWAV =      1    electr: 0-lowe 1-rand  2-diag
   LASPH  =      F    aspherical Exc in radial PAW
 Electronic Relaxation 1
   ENCUT  =  341.0 eV  25.06 Ry    5.01 a.u.  16.87 16.87 16.87*2*pi/ulx,y,z
   ENINI  =  341.0     initial cutoff
   ENAUG  =  368.1 eV  augmentation charge cutoff
   NELM   =     60;   NELMIN=  5; NELMDL= -5     # of ELM steps 
   EDIFF  = 0.1E-07   stopping-criterion for ELM
   LREAL  =      F    real-space projection
   NLSPLINE    = F    spline interpolate recip. space projectors
   LCOMPAT=      F    compatible to vasp.4.4
   GGA_COMPAT  = T    GGA compatible to vasp.4.4-vasp.4.6
   LMAXPAW     = -100 max onsite density
   LMAXMIX     =    2 max onsite mixed and CHGCAR
   VOSKOWN=      0    Vosko Wilk Nusair interpolation
   ROPT   =    0.00000   0.00000
 Ionic relaxation
   EDIFFG = 0.1E-06   stopping-criterion for IOM
   NSW    =      0    number of steps for IOM
   NBLOCK =      1;   KBLOCK =      1    inner block; outer block 
   IBRION =     -1    ionic relax: 0-MD 1-quasi-New 2-CG
   NFREE  =      0    steps in history (QN), initial steepest desc. (CG)
   ISIF   =      2    stress and relaxation
   IWAVPR =     10    prediction:  0-non 1-charg 2-wave 3-comb
   ISYM   =      2    0-nonsym 1-usesym 2-fastsym
   LCORR  =      T    Harris-Foulkes like correction to forces

   POTIM  = 0.5000    time-step for ionic-motion
   TEIN   =    0.0    initial temperature
   TEBEG  =    0.0;   TEEND  =   0.0 temperature during run
   SMASS  =  -3.00    Nose mass-parameter (am)
   estimated Nose-frequenzy (Omega)   =  0.10E-29 period in steps = 0.13E+47 mass=  -0.287E-26a.u.
   SCALEE = 1.0000    scale energy and forces
   NPACO  =    256;   APACO  = 10.0  distance and # of slots for P.C.
   PSTRESS=    0.0 pullay stress

  Mass of Ions in am
   POMASS =  22.99 35.45
  Ionic Valenz
   ZVAL   =   7.00  7.00
  Atomic Wigner-Seitz radii
   RWIGS  =  -1.00 -1.00
  virtual crystal weights 
   VCA    =   1.00  1.00
   NELECT =     448.0000    total number of electrons
   NUPDOWN=      -1.0000    fix difference up-down

 DOS related values:
   EMIN   =  10.00;   EMAX   =-10.00  energy-range for DOS
   EFERMI =   0.00
   ISMEAR =     0;   SIGMA  =   0.02  broadening in eV -4-tet -1-fermi 0-gaus

 Electronic relaxation 2 (details)
   IALGO  =     38    algorithm
   LDIAG  =      T    sub-space diagonalisation (order eigenvalues)
   LSUBROT=      F    optimize rotation matrix (better conditioning)
   TURBO    =      0    0=normal 1=particle mesh
   IRESTART =      0    0=no restart 2=restart with 2 vectors
   NREBOOT  =      0    no. of reboots
   NMIN     =      0    reboot dimension
   EREF     =   0.00    reference energy to select bands
   IMIX   =      4    mixing-type and parameters
     AMIX     =   0.40;   BMIX     =  1.00
     AMIX_MAG =   1.60;   BMIX_MAG =  1.00
     AMIN     =   0.10
     WC   =   100.;   INIMIX=   1;  MIXPRE=   1;  MAXMIX= -45

 Intra band minimization:
   WEIMIN = 0.0000     energy-eigenvalue tresh-hold
   EBREAK =  0.92E-11  absolut break condition
   DEPER  =   0.30     relativ break condition  

   TIME   =   0.40     timestep for ELM

  volume/ion in A,a.u.               =      21.98       148.30
  Fermi-wavevector in a.u.,A,eV,Ry     =   1.118049  2.112807 17.007750  1.250034
  Thomas-Fermi vector in A             =   2.254677
 
 Write flags
   LWAVE        =      F    write WAVECAR
   LDOWNSAMPLE  =      F    k-point downsampling of WAVECAR
   LCHARG       =      F    write CHGCAR
   LVTOT        =      F    write LOCPOT, total local potential
   LVHAR        =      F    write LOCPOT, Hartree potential only
   LELF         =      F    write electronic localiz. function (ELF)
   LORBIT       =      0    0 simple, 1 ext, 2 COOP (PROOUT), +10 PAW based schemes


 Dipole corrections
   LMONO  =      F    monopole corrections only (constant potential shift)
   LDIPOL =      F    correct potential (dipole corrections)
   IDIPOL =      0    1-x, 2-y, 3-z, 4-all directions 
   EPSILON=  1.0000000 bulk dielectric constant

 Exchange correlation treatment:
   GGA     =    PS    GGA type
   LEXCH   =    14    internal setting for exchange type
   LIBXC   =     F    Libxc                    
   VOSKOWN =     0    Vosko Wilk Nusair interpolation
   LHFCALC =     F    Hartree Fock is set to
   LHFONE  =     F    Hartree Fock one center treatment
   AEXX    =    0.0000 exact exchange contribution

 Linear response parameters
   LEPSILON=     F    determine dielectric tensor
   LRPA    =     F    only Hartree local field effects (RPA)
   LNABLA  =     F    use nabla operator in PAW spheres
   LVEL    =     F    velocity operator in full k-point grid
   CSHIFT  =0.1000    complex shift for real part using Kramers Kronig
   OMEGAMAX=  -1.0    maximum frequency
   DEG_THRESHOLD= 0.2000000E-02 threshold for treating states as degnerate
   RTIME   =   -0.100 relaxation time in fs
  (WPLASMAI=    0.000 imaginary part of plasma frequency in eV, 0.658/RTIME)
   DFIELD  = 0.0000000 0.0000000 0.0000000 field for delta impulse in time
 
  Optional k-point grid parameters
   LKPOINTS_OPT  =     F    use optional k-point grid
   KPOINTS_OPT_MODE=     1    mode for optional k-point grid
 
 Orbital magnetization related:
   ORBITALMAG=     F  switch on orbital magnetization
   LCHIMAG   =     F  perturbation theory with respect to B field
   DQ        =  0.001000  dq finite difference perturbation B field
   LLRAUG    =     F  two centre corrections for induced B field



--------------------------------------------------------------------------------------------------------


 Static calculation
 charge density and potential will be updated during run
 non-spin polarized calculation
 Variant of blocked Davidson
 Davidson routine will perform the subspace rotation
 perform sub-space diagonalisation
    after iterative eigenvector-optimisation
 modified Broyden-mixing scheme, WC =      100.0
 initial mixing is a Kerker type mixing with AMIX =  0.4000 and BMIX =      1.0000
 Hartree-type preconditioning will be used
 using additional bands           48
 reciprocal scheme for non local part
 use partial core corrections
 calculate Harris-corrections to forces 
   (improved forces if not selfconsistent)
 use gradient corrections 
 use of overlap-Matrix (Vanderbilt PP)
 Gauss-broadening in eV      SIGMA  =   0.02


--------------------------------------------------------------------------------------------------------


  energy-cutoff  :      341.00
  volume of cell :     1406.43
      direct lattice vectors                 reciprocal lattice vectors
    11.204002360  0.000000000  0.000000000     0.089253819  0.000000000  0.000000000
     0.000000000 11.204002360  0.000000000     0.000000000  0.089253819  0.000000000
     0.000000000  0.000000000 11.204002360     0.000000000  0.000000000  0.089253819

  length of vectors
    11.204002360 11.204002360 11.204002360     0.089253819  0.089253819  0.089253819


 
 k-points in units of 2pi/SCALE and weight: KPOINTS created by Atomic Simulation Env
   0.00000000  0.00000000  0.00000000       0.125
   0.04462691  0.00000000  0.00000000       0.375
   0.04462691  0.04462691  0.00000000       0.375
   0.04462691  0.04462691  0.04462691       0.125
 
 k-points in reciprocal lattice and weights: KPOINTS created by Atomic Simulation Env
   0.00000000  0.00000000  0.00000000       0.125
   0.50000000  0.00000000  0.00000000       0.375
   0.50000000  0.50000000  0.00000000       0.375
   0.50000000  0.50000000  0.50000000       0.125
 
 position of ions in fractional coordinates (direct lattice) 
   0.00000000  0.00000000  0.00000000
   0.25000000  0.25000000  0.00000000
   0.25000000  0.00000000  0.25000000
   0.00000000  0.25000000  0.25000000
   0.00000000  0.00000000  0.50000000
   0.25000000  0.25000000  0.50000000
   0.25000000  0.00000000  0.75000000
   0.00000000  0.25000000  0.75000000
   0.00000000  0.50000000  0.00000000
   0.25000000  0.75000000  0.00000000
   0.25000000  0.50000000  0.25000000
   0.00000000  0.75000000  0.25000000
   0.00000000  0.50000000  0.50000000
   0.25000000  0.75000000  0.50000000
   0.25000000  0.50000000  0.75000000
   0.00000000  0.75000000  0.75000000
   0.50000000  0.00000000  0.00000000
   0.75000000  0.25000000  0.00000000
   0.75000000  0.00000000  0.25000000
   0.50000000  0.25000000  0.25000000
   0.50000000  0.00000000  0.50000000
   0.75000000  0.25000000  0.50000000
   0.75000000  0.00000000  0.75000000
   0.50000000  0.25000000  0.75000000
   0.50000000  0.50000000  0.00000000
   0.75000000  0.75000000  0.00000000
   0.75000000  0.50000000  0.25000000
   0.50000000  0.75000000  0.25000000
   0.50000000  0.50000000  0.50000000
   0.75000000  0.75000000  0.50000000
   0.75000000  0.50000000  0.75000000
   0.50000000  0.75000000  0.75000000
   0.25000000  0.25000000  0.25000000
   0.00000000  0.00000000  0.25000000
   0.00000000  0.25000000  0.00000000
   0.25000000  0.00000000  0.00000000
   0.25000000  0.25000000  0.75000000
   0.00000000  0.00000000  0.75000000
   0.00000000  0.25000000  0.50000000
   0.25000000  0.00000000  0.50000000
   0.25000000  0.75000000  0.25000000
   0.00000000  0.50000000  0.25000000
   0.00000000  0.75000000  0.00000000
   0.25000000  0.50000000  0.00000000
   0.25000000  0.75000000  0.75000000
   0.00000000  0.50000000  0.75000000
   0.00000000  0.75000000  0.50000000
   0.25000000  0.50000000  0.50000000
   0.75000000  0.25000000  0.25000000
   0.50000000  0.00000000  0.25000000
   0.50000000  0.25000000  0.00000000
   0.75000000  0.00000000  0.00000000
   0.75000000  0.25000000  0.75000000
   0.50000000  0.00000000  0.75000000
   0.50000000  0.25000000  0.50000000
   0.75000000  0.00000000  0.50000000
   0.75000000  0.75000000  0.25000000
   0.50000000  0.50000000  0.25000000
   0.50000000  0.75000000  0.00000000
   0.75000000  0.50000000  0.00000000
   0.75000000  0.75000000  0.75000000
   0.50000000  0.50000000  0.75000000
   0.50000000  0.75000000  0.50000000
   0.75000000  0.50000000  0.50000000
 
 position of ions in cartesian coordinates  (Angst):
   0.00000000  0.00000000  0.00000000
   2.80100059  2.80100059  0.00000000
   2.80100059  0.00000000  2.80100059
   0.00000000  2.80100059  2.80100059
   0.00000000  0.00000000  5.60200118
   2.80100059  2.80100059  5.60200118
   2.80100059  0.00000000  8.40300177
   0.00000000  2.80100059  8.40300177
   0.00000000  5.60200118  0.00000000
   2.80100059  8.40300177  0.00000000
   2.80100059  5.60200118  2.80100059
   0.00000000  8.40300177  2.80100059
   0.00000000  5.60200118  5.60200118
   2.80100059  8.40300177  5.60200118
   2.80100059  5.60200118  8.40300177
   0.00000000  8.40300177  8.40300177
   5.60200118  0.00000000  0.00000000
   8.40300177  2.80100059  0.00000000
   8.40300177  0.00000000  2.80100059
   5.60200118  2.80100059  2.80100059
   5.60200118  0.00000000  5.60200118
   8.40300177  2.80100059  5.60200118
   8.40300177  0.00000000  8.40300177
   5.60200118  2.80100059  8.40300177
   5.60200118  5.60200118  0.00000000
   8.40300177  8.40300177  0.00000000
   8.40300177  5.60200118  2.80100059
   5.60200118  8.40300177  2.80100059
   5.60200118  5.60200118  5.60200118
   8.40300177  8.40300177  5.60200118
   8.40300177  5.60200118  8.40300177
   5.60200118  8.40300177  8.40300177
   2.80100059  2.80100059  2.80100059
   0.00000000  0.00000000  2.80100059
   0.00000000  2.80100059  0.00000000
   2.80100059  0.00000000  0.00000000
   2.80100059  2.80100059  8.40300177
   0.00000000  0.00000000  8.40300177
   0.00000000  2.80100059  5.60200118
   2.80100059  0.00000000  5.60200118
   2.80100059  8.40300177  2.80100059
   0.00000000  5.60200118  2.80100059
   0.00000000  8.40300177  0.00000000
   2.80100059  5.60200118  0.00000000
   2.80100059  8.40300177  8.40300177
   0.00000000  5.60200118  8.40300177
   0.00000000  8.40300177  5.60200118
   2.80100059  5.60200118  5.60200118
   8.40300177  2.80100059  2.80100059
   5.60200118  0.00000000  2.80100059
   5.60200118  2.80100059  0.00000000
   8.40300177  0.00000000  0.00000000
   8.40300177  2.80100059  8.40300177
   5.60200118  0.00000000  8.40300177
   5.60200118  2.80100059  5.60200118
   8.40300177  0.00000000  5.60200118
   8.40300177  8.40300177  2.80100059
   5.60200118  5.60200118  2.80100059
   5.60200118  8.40300177  0.00000000
   8.40300177  5.60200118  0.00000000
   8.40300177  8.40300177  8.40300177
   5.60200118  5.60200118  8.40300177
   5.60200118  8.40300177  5.60200118
   8.40300177  5.60200118  5.60200118
 


--------------------------------------------------------------------------------------------------------


 k-point   1 :   0.0000 0.0000 0.0000  plane waves:   20005
 k-point   2 :   0.5000 0.0000 0.0000  plane waves:   20138
 k-point   3 :   0.5000 0.5000 0.0000  plane waves:   20160
 k-point   4 :   0.5000 0.5000 0.5000  plane waves:   19952

 maximum and minimum number of plane-waves per node :      5062     4977

 maximum number of plane-waves:     20160
 maximum index in each direction: 
   IXMAX=   16   IYMAX=   16   IZMAX=   16
   IXMIN=  -17   IYMIN=  -17   IZMIN=  -17


 parallel 3D FFT for wavefunctions:
    minimum data exchange during FFTs selected (reduces bandwidth)
 parallel 3D FFT for charge:
    minimum data exchange during FFTs selected (reduces bandwidth)


 total amount of memory used by VASP MPI-rank0    73787. kBytes
=======================================================================

   base      :      30000. kBytes
   nonl-proj :       7766. kBytes
   fftplans  :      15600. kBytes
   grid      :       9092. kBytes
   one-center:         49. kBytes
   wavefun   :      11280. kBytes
 
     INWAV:  cpu time      0.0001: real time      0.0003
 Broyden mixing: mesh for mixing (old mesh)
   NGX = 33   NGY = 33   NGZ = 33
  (NGX  =140   NGY  =140   NGZ  =140)
  gives a total of  35937 points

 initial charge density was supplied:
 charge density of overlapping atoms calculated
 number of electron     448.0000000 magnetization 
 keeping initial charge density in first step


--------------------------------------------------------------------------------------------------------


 Maximum index for augmentation-charges         1834 (set IRDMAX)


--------------------------------------------------------------------------------------------------------


 First call to EWALD:  gamma=   0.158
 Maximum number of real-space cells 3x 3x 3
 Maximum number of reciprocal cells 3x 3x 3

    FEWALD:  cpu time      0.0023: real time      0.0023


--------------------------------------- Iteration      1(   1)  ---------------------------------------


    POTLOK:  cpu time      0.0535: real time      0.0587
    SETDIJ:  cpu time      0.0529: real time      0.0531
     EDDAV:  cpu time      3.8528: real time      3.8626
       DOS:  cpu time      0.0009: real time      0.0009
    --------------------------------------------
      LOOP:  cpu time      3.9601: real time      3.9753

 eigenvalue-minimisations  :  2296
 total energy-change (2. order) : 0.4618709E+04  (-0.1690212E+05)
 number of electron     448.0000000 magnetization 
 augmentation part      448.0000000 magnetization 

 Free energy of the ion-electron system (eV)
  ---------------------------------------------------
  alpha Z        PSCENC =       751.52672365
  Ewald energy   TEWEN  =    -22871.45941235
  -Hartree energ DENC   =     -8992.13840945
  -exchange      EXHF   =         0.00000000
  -V(xc)+E(xc)   XCENC  =      1456.53377852
  PAW double counting   =     26466.43774078   -29286.08056155
  entropy T*S    EENTRO =        -0.00445513
  eigenvalues    EBANDS =      -438.28510347
  atomic energy  EATOM  =     37532.17875095
  Solvation  Ediel_sol  =         0.00000000
  ---------------------------------------------------
  free energy    TOTEN  =      4618.70905195 eV

  energy without entropy =     4618.71350707  energy(sigma->0) =     4618.71127951


--------------------------------------------------------------------------------------------------------




--------------------------------------- Iteration      1(   2)  ---------------------------------------


     EDDAV:  cpu time      3.9480: real time      3.9618
       DOS:  cpu time      0.0002: real time      0.0002
    --------------------------------------------
      LOOP:  cpu time      3.9482: real time      3.9620

 eigenvalue-minimisations  :  2392
 total energy-change (2. order) :-0.4131237E+04  (-0.3957269E+04)
 number of electron     448.0000000 magnetization 
 augmentation part      448.0000000 magnetization 

 Free energy of the ion-electron system (eV)
  ---------------------------------------------------
  alpha Z        PSCENC =       751.52672365
  Ewald energy   TEWEN  =    -22871.45941235
  -Hartree energ DENC   =     -8992.13840945
  -exchange      EXHF   =         0.00000000
  -V(xc)+E(xc)   XCENC  =      1456.53377852
  PAW double counting   =     26466.43774078   -29286.08056155
  entropy T*S    EENTRO =        -0.00000000
  eigenvalues    EBANDS =     -4569.52668986
  atomic energy  EATOM  =     37532.17875095
  Solvation  Ediel_sol  =         0.00000000
  ---------------------------------------------------
  free energy    TOTEN  =       487.47192069 eV

  energy without entropy =      487.47192069  energy(sigma->0) =      487.47192069


--------------------------------------------------------------------------------------------------------




--------------------------------------- Iteration      1(   3)  ---------------------------------------


     EDDAV:  cpu time      4.1253: real time      4.1338
       DOS:  cpu time      0.0003: real time      0.0003
    --------------------------------------------
      LOOP:  cpu time      4.1257: real time      4.1341

 eigenvalue-minimisations  :  2552
 total energy-change (2. order) :-0.6757929E+03  (-0.6696012E+03)
 number of electron     448.0000000 magnetization 
 augmentation part      448.0000000 magnetization 

 Free energy of the ion-electron system (eV)
  ---------------------------------------------------
  alpha Z        PSCENC =       751.52672365
  Ewald energy   TEWEN  =    -22871.45941235
  -Hartree energ DENC   =     -8992.13840945
  -exchange      EXHF   =         0.00000000
  -V(xc)+E(xc)   XCENC  =      1456.53377852
  PAW double counting   =     26466.43774078   -29286.08056155
  entropy T*S    EENTRO =        -0.00000000
  eigenvalues    EBANDS =     -5245.31962806
  atomic energy  EATOM  =     37532.17875095
  Solvation  Ediel_sol  =         0.00000000
  ---------------------------------------------------
  free energy    TOTEN  =      -188.32101751 eV

  energy without entropy =     -188.32101751  energy(sigma->0) =     -188.32101751


--------------------------------------------------------------------------------------------------------




--------------------------------------- Iteration      1(   4)  ---------------------------------------


     EDDAV:  cpu time      4.1146: real time      4.1292
       DOS:  cpu time      0.0003: real time      0.0003
    --------------------------------------------
      LOOP:  cpu time      4.1149: real time      4.1295

 eigenvalue-minimisations  :  2528
 total energy-change (2. order) :-0.3900264E+02  (-0.3875089E+02)
 number of electron     448.0000000 magnetization 
 augmentation part      448.0000000 magnetization 

 Free energy of the ion-electron system (eV)
  ---------------------------------------------------
  alpha Z        PSCENC =       751.52672365
  Ewald energy   TEWEN  =    -22871.45941235
  -Hartree energ DENC   =     -8992.13840945
  -exchange      EXHF   =         0.00000000
  -V(xc)+E(xc)   XCENC  =      1456.53377852
  PAW double counting   =     26466.43774078   -29286.08056155
  entropy T*S    EENTRO =        -0.00000000
  eigenvalues    EBANDS =     -5284.32226314
  atomic energy  EATOM  =     37532.17875095
  Solvation  Ediel_sol  =         0.00000000
  ---------------------------------------------------
  free energy    TOTEN  =      -227.32365260 eV

  energy without entropy =     -227.32365260  energy(sigma->0) =     -227.32365260


--------------------------------------------------------------------------------------------------------




--------------------------------------- Iteration      1(   5)  ---------------------------------------


     EDDAV:  cpu time      4.4639: real time      4.4794
       DOS:  cpu time      0.0003: real time      0.0003
    CHARGE:  cpu time      0.3050: real time      0.3057
    MIXING:  cpu time      0.0060: real time      0.0061
    --------------------------------------------
      LOOP:  cpu time      4.7752: real time      4.7915

 eigenvalue-minimisations  :  2832
 total energy-change (2. order) :-0.1655434E+01  (-0.1653350E+01)
 number of electron     448.0000022 magnetization 
 augmentation part      111.6571043 magnetization 

 Broyden mixing:
  rms(total) = 0.10602E+01    rms(broyden)= 0.10598E+01
  rms(prec ) = 0.14903E+01
  weight for this iteration     100.00

 Free energy of the ion-electron system (eV)
  ---------------------------------------------------
  alpha Z        PSCENC =       751.52672365
  Ewald energy   TEWEN  =    -22871.45941235
  -Hartree energ DENC   =     -8992.13840945
  -exchange      EXHF   =         0.00000000
  -V(xc)+E(xc)   XCENC  =      1456.53377852
  PAW double counting   =     26466.43774078   -29286.08056155
  entropy T*S    EENTRO =        -0.00000000
  eigenvalues    EBANDS =     -5285.97769712
  atomic energy  EATOM  =     37532.17875095
  Solvation  Ediel_sol  =         0.00000000
  ---------------------------------------------------
  free energy    TOTEN  =      -228.97908657 eV

  energy without entropy =     -228.97908657  energy(sigma->0) =     -228.97908657


--------------------------------------------------------------------------------------------------------




--------------------------------------- Iteration      1(   6)  ---------------------------------------


    POTLOK:  cpu time      0.0514: real time      0.0574
    SETDIJ:  cpu time      0.0537: real time      0.0540
     EDDAV:  cpu time      4.2831: real time      4.2914
       DOS:  cpu time      0.0002: real time      0.0002
    CHARGE:  cpu time      0.3059: real time      0.3067
    MIXING:  cpu time      0.0049: real time      0.0049
    --------------------------------------------
      LOOP:  cpu time      4.6992: real time      4.7146

 eigenvalue-minimisations  :  2680
 total energy-change (2. order) : 0.4830754E+01  (-0.1024076E+01)
 number of electron     448.0000022 magnetization 
 augmentation part      112.4555966 magnetization 

 Broyden mixing:
  rms(total) = 0.78092E+00    rms(broyden)= 0.78087E+00
  rms(prec ) = 0.89802E+00
  weight for this iteration     100.00

 eigenvalues of (default mixing * dielectric matrix)
  average eigenvalue GAMMA=   1.0796
  1.0796

 Free energy of the ion-electron system (eV)
  ---------------------------------------------------
  alpha Z        PSCENC =       751.52672365
  Ewald energy   TEWEN  =    -22871.45941235
  -Hartree energ DENC   =     -9061.16699730
  -exchange      EXHF   =         0.00000000
  -V(xc)+E(xc)   XCENC  =      1465.39427398
  PAW double counting   =     27289.32385422   -30101.33559168
  entropy T*S    EENTRO =        -0.00000000
  eigenvalues    EBANDS =     -5228.60993380
  atomic energy  EATOM  =     37532.17875095
  Solvation  Ediel_sol  =         0.00000000
  ---------------------------------------------------
  free energy    TOTEN  =      -224.14833233 eV

  energy without entropy =     -224.14833233  energy(sigma->0) =     -224.14833233


--------------------------------------------------------------------------------------------------------




--------------------------------------- Iteration      1(   7)  ---------------------------------------


    POTLOK:  cpu time      0.0513: real time      0.0579
    SETDIJ:  cpu time      0.0534: real time      0.0536
     EDDAV:  cpu time      4.4712: real time      4.4805
       DOS:  cpu time      0.0003: real time      0.0003
    CHARGE:  cpu time      0.3056: real time      0.3063
    MIXING:  cpu time      0.0052: real time      0.0052
    --------------------------------------------
      LOOP:  cpu time      4.8871: real time      4.9037

 eigenvalue-minimisations  :  2848
 total energy-change (2. order) : 0.3713379E+00  (-0.2322423E+00)
 number of electron     448.0000022 magnetization 
 augmentation part      112.8297785 magnetization 

 Broyden mixing:
  rms(total) = 0.52831E+00    rms(broyden)= 0.52828E+00
  rms(prec ) = 0.55801E+00
  weight for this iteration     100.00

 eigenvalues of (default mixing * dielectric matrix)
  average eigenvalue GAMMA=   2.1041
  1.4662  2.7421

 Free energy of the ion-electron system (eV)
  ---------------------------------------------------
  alpha Z        PSCENC =       751.52672365
  Ewald energy   TEWEN  =    -22871.45941235
  -Hartree energ DENC   =     -9085.99931158
  -exchange      EXHF   =         0.00000000
  -V(xc)+E(xc)   XCENC  =      1470.18184667
  PAW double counting   =     28347.85395849   -31160.59040466
  entropy T*S    EENTRO =        -0.00000000
  eigenvalues    EBANDS =     -5207.46914562
  atomic energy  EATOM  =     37532.17875095
  Solvation  Ediel_sol  =         0.00000000
  ---------------------------------------------------
  free energy    TOTEN  =      -223.77699444 eV

  energy without entropy =     -223.77699444  energy(sigma->0) =     -223.77699444


--------------------------------------------------------------------------------------------------------




--------------------------------------- Iteration      1(   8)  ---------------------------------------


    POTLOK:  cpu time      0.0529: real time      0.0570
    SETDIJ:  cpu time      0.0532: real time      0.0536
     EDDAV:  cpu time      3.9261: real time      3.9337
       DOS:  cpu time      0.0003: real time      0.0003
    CHARGE:  cpu time      0.3117: real time      0.3124
    MIXING:  cpu time      0.0058: real time      0.0058
    --------------------------------------------
      LOOP:  cpu time      4.3501: real time      4.3629

 eigenvalue-minimisations  :  2392
 total energy-change (2. order) :-0.1258837E+00  (-0.2516061E-01)
 number of electron     448.0000022 magnetization 
 augmentation part      112.8045740 magnetization 

 Broyden mixing:
  rms(total) = 0.12428E+00    rms(broyden)= 0.12428E+00
  rms(prec ) = 0.12826E+00
  weight for this iteration     100.00

 eigenvalues of (default mixing * dielectric matrix)
  average eigenvalue GAMMA=   1.5569
  2.4568  1.3867  0.8272

 Free energy of the ion-electron system (eV)
  ---------------------------------------------------
  alpha Z        PSCENC =       751.52672365
  Ewald energy   TEWEN  =    -22871.45941235
  -Hartree energ DENC   =     -9074.97951573
  -exchange      EXHF   =         0.00000000
  -V(xc)+E(xc)   XCENC  =      1472.20663188
  PAW double counting   =     29756.51885835   -32576.21439235
  entropy T*S    EENTRO =        -0.00000000
  eigenvalues    EBANDS =     -5213.68052250
  atomic energy  EATOM  =     37532.17875095
  Solvation  Ediel_sol  =         0.00000000
  ---------------------------------------------------
  free energy    TOTEN  =      -223.90287811 eV

  energy without entropy =     -223.90287811  energy(sigma->0) =     -223.90287811


--------------------------------------------------------------------------------------------------------




--------------------------------------- Iteration      1(   9)  ---------------------------------------


    POTLOK:  cpu time      0.0505: real time      0.0561
    SETDIJ:  cpu time      0.0532: real time      0.0533
     EDDAV:  cpu time      4.4779: real time      4.4867
       DOS:  cpu time      0.0003: real time      0.0003
    CHARGE:  cpu time      0.3091: real time      0.3097
    MIXING:  cpu time      0.0045: real time      0.0045
    --------------------------------------------
      LOOP:  cpu time      4.8955: real time      4.9106

 eigenvalue-minimisations  :  2856
 total energy-change (2. order) : 0.5808745E-02  (-0.1368152E-02)
 number of electron     448.0000022 magnetization 
 augmentation part      112.8330824 magnetization 

 Broyden mixing:
  rms(total) = 0.49337E-01    rms(broyden)= 0.49335E-01
  rms(prec ) = 0.52190E-01
  weight for this iteration     100.00

 eigenvalues of (default mixing * dielectric matrix)
  average eigenvalue GAMMA=   1.9602
  2.9807  2.4455  1.0295  1.3850

 Free energy of the ion-electron system (eV)
  ---------------------------------------------------
  alpha Z        PSCENC =       751.52672365
  Ewald energy   TEWEN  =    -22871.45941235
  -Hartree energ DENC   =     -9077.99121112
  -exchange      EXHF   =         0.00000000
  -V(xc)+E(xc)   XCENC  =      1472.32193687
  PAW double counting   =     29604.67701738   -32423.57443327
  entropy T*S    EENTRO =        -0.00000000
  eigenvalues    EBANDS =     -5211.57644148
  atomic energy  EATOM  =     37532.17875095
  Solvation  Ediel_sol  =         0.00000000
  ---------------------------------------------------
  free energy    TOTEN  =      -223.89706936 eV

  energy without entropy =     -223.89706936  energy(sigma->0) =     -223.89706936


--------------------------------------------------------------------------------------------------------




--------------------------------------- Iteration      1(  10)  ---------------------------------------


    POTLOK:  cpu time      0.0506: real time      0.0566
    SETDIJ:  cpu time      0.0532: real time      0.0532
     EDDAV:  cpu time      3.9278: real time      3.9356
       DOS:  cpu time      0.0002: real time      0.0002
    CHARGE:  cpu time      0.3054: real time      0.3060
    MIXING:  cpu time      0.0058: real time      0.0058
    --------------------------------------------
      LOOP:  cpu time      4.3430: real time      4.3575

 eigenvalue-minimisations  :  2384
 total energy-change (2. order) :-0.4478055E-02  (-0.1539507E-02)
 number of electron     448.0000022 magnetization 
 augmentation part      112.8572983 magnetization 

 Broyden mixing:
  rms(total) = 0.16108E-01    rms(broyden)= 0.16106E-01
  rms(prec ) = 0.18158E-01
  weight for this iteration     100.00

 eigenvalues of (default mixing * dielectric matrix)
  average eigenvalue GAMMA=   1.7106
  2.9415  2.4770  1.2983  1.0273  0.8090

 Free energy of the ion-electron system (eV)
  ---------------------------------------------------
  alpha Z        PSCENC =       751.52672365
  Ewald energy   TEWEN  =    -22871.45941235
  -Hartree energ DENC   =     -9079.12013923
  -exchange      EXHF   =         0.00000000
  -V(xc)+E(xc)   XCENC  =      1472.60441457
  PAW double counting   =     29484.44225973   -32303.78916433
  entropy T*S    EENTRO =        -0.00000000
  eigenvalues    EBANDS =     -5210.28498041
  atomic energy  EATOM  =     37532.17875095
  Solvation  Ediel_sol  =         0.00000000
  ---------------------------------------------------
  free energy    TOTEN  =      -223.90154742 eV

  energy without entropy =     -223.90154742  energy(sigma->0) =     -223.90154742


--------------------------------------------------------------------------------------------------------




--------------------------------------- Iteration      1(  11)  ---------------------------------------


    POTLOK:  cpu time      0.0512: real time      0.0581
    SETDIJ:  cpu time      0.0534: real time      0.0535
     EDDAV:  cpu time      4.1307: real time      4.1388
       DOS:  cpu time      0.0003: real time      0.0003
    CHARGE:  cpu time      0.3033: real time      0.3039
    MIXING:  cpu time      0.0038: real time      0.0038
    --------------------------------------------
      LOOP:  cpu time      4.5428: real time      4.5585

 eigenvalue-minimisations  :  2568
 total energy-change (2. order) : 0.4164446E-03  (-0.9705343E-04)
 number of electron     448.0000022 magnetization 
 augmentation part      112.8505932 magnetization 

 Broyden mixing:
  rms(total) = 0.62237E-02    rms(broyden)= 0.62237E-02
  rms(prec ) = 0.66309E-02
  weight for this iteration     100.00

 eigenvalues of (default mixing * dielectric matrix)
  average eigenvalue GAMMA=   1.7155
  2.8500  1.9846  1.9846  1.0211  1.2262  1.2262

 Free energy of the ion-electron system (eV)
  ---------------------------------------------------
  alpha Z        PSCENC =       751.52672365
  Ewald energy   TEWEN  =    -22871.45941235
  -Hartree energ DENC   =     -9078.23566569
  -exchange      EXHF   =         0.00000000
  -V(xc)+E(xc)   XCENC  =      1472.53093636
  PAW double counting   =     29493.36764340   -32312.78373416
  entropy T*S    EENTRO =        -0.00000000
  eigenvalues    EBANDS =     -5211.02637313
  atomic energy  EATOM  =     37532.17875095
  Solvation  Ediel_sol  =         0.00000000
  ---------------------------------------------------
  free energy    TOTEN  =      -223.90113097 eV

  energy without entropy =     -223.90113097  energy(sigma->0) =     -223.90113097


--------------------------------------------------------------------------------------------------------




--------------------------------------- Iteration      1(  12)  ---------------------------------------


    POTLOK:  cpu time      0.0558: real time      0.0560
    SETDIJ:  cpu time      0.0533: real time      0.0534
     EDDAV:  cpu time      4.3864: real time      4.3956
       DOS:  cpu time      0.0002: real time      0.0002
    CHARGE:  cpu time      0.3144: real time      0.3150
    MIXING:  cpu time      0.0030: real time      0.0030
    --------------------------------------------
      LOOP:  cpu time      4.8131: real time      4.8233

 eigenvalue-minimisations  :  2776
 total energy-change (2. order) : 0.3722680E-04  (-0.2596916E-04)
 number of electron     448.0000022 magnetization 
 augmentation part      112.8472223 magnetization 

 Broyden mixing:
  rms(total) = 0.38539E-02    rms(broyden)= 0.38535E-02
  rms(prec ) = 0.39300E-02
  weight for this iteration     100.00

 eigenvalues of (default mixing * dielectric matrix)
  average eigenvalue GAMMA=   1.7688
  3.0213  2.8203  2.2750  1.1436  1.1436  0.9888  0.9888

 Free energy of the ion-electron system (eV)
  ---------------------------------------------------
  alpha Z        PSCENC =       751.52672365
  Ewald energy   TEWEN  =    -22871.45941235
  -Hartree energ DENC   =     -9077.92950669
  -exchange      EXHF   =         0.00000000
  -V(xc)+E(xc)   XCENC  =      1472.50548615
  PAW double counting   =     29508.18315497   -32327.55824961
  entropy T*S    EENTRO =        -0.00000000
  eigenvalues    EBANDS =     -5211.34804081
  atomic energy  EATOM  =     37532.17875095
  Solvation  Ediel_sol  =         0.00000000
  ---------------------------------------------------
  free energy    TOTEN  =      -223.90109375 eV

  energy without entropy =     -223.90109375  energy(sigma->0) =     -223.90109375


--------------------------------------------------------------------------------------------------------




--------------------------------------- Iteration      1(  13)  ---------------------------------------


    POTLOK:  cpu time      0.0524: real time      0.0565
    SETDIJ:  cpu time      0.0531: real time      0.0535
     EDDAV:  cpu time      3.8393: real time      3.8467
       DOS:  cpu time      0.0002: real time      0.0002
    CHARGE:  cpu time      0.3053: real time      0.3060
    MIXING:  cpu time      0.0062: real time      0.0062
    --------------------------------------------
      LOOP:  cpu time      4.2566: real time      4.2692

 eigenvalue-minimisations  :  2320
 total energy-change (2. order) :-0.1178096E-04  (-0.1833753E-05)
 number of electron     448.0000022 magnetization 
 augmentation part      112.8478866 magnetization 

 Broyden mixing:
  rms(total) = 0.40821E-03    rms(broyden)= 0.40820E-03
  rms(prec ) = 0.44719E-03
  weight for this iteration     100.00

 eigenvalues of (default mixing * dielectric matrix)
  average eigenvalue GAMMA=   1.6849
  3.0136  2.6536  2.4557  1.2848  1.0716  1.0716  0.9642  0.9642

 Free energy of the ion-electron system (eV)
  ---------------------------------------------------
  alpha Z        PSCENC =       751.52672365
  Ewald energy   TEWEN  =    -22871.45941235
  -Hartree energ DENC   =     -9077.99839419
  -exchange      EXHF   =         0.00000000
  -V(xc)+E(xc)   XCENC  =      1472.50946488
  PAW double counting   =     29499.86577431   -32319.23407045
  entropy T*S    EENTRO =        -0.00000000
  eigenvalues    EBANDS =     -5211.28994232
  atomic energy  EATOM  =     37532.17875095
  Solvation  Ediel_sol  =         0.00000000
  ---------------------------------------------------
  free energy    TOTEN  =      -223.90110553 eV

  energy without entropy =     -223.90110553  energy(sigma->0) =     -223.90110553


--------------------------------------------------------------------------------------------------------




--------------------------------------- Iteration      1(  14)  ---------------------------------------


    POTLOK:  cpu time      0.0504: real time      0.0564
    SETDIJ:  cpu time      0.0536: real time      0.0538
     EDDAV:  cpu time      4.2898: real time      4.2980
       DOS:  cpu time      0.0003: real time      0.0003
    CHARGE:  cpu time      0.3041: real time      0.3048
    MIXING:  cpu time      0.0061: real time      0.0061
    --------------------------------------------
      LOOP:  cpu time      4.7044: real time      4.7195

 eigenvalue-minimisations  :  2696
 total energy-change (2. order) : 0.3684909E-06  (-0.2881989E-07)
 number of electron     448.0000022 magnetization 
 augmentation part      112.8478024 magnetization 

 Broyden mixing:
  rms(total) = 0.49205E-03    rms(broyden)= 0.49205E-03
  rms(prec ) = 0.51994E-03
  weight for this iteration     100.00

 eigenvalues of (default mixing * dielectric matrix)
  average eigenvalue GAMMA=   1.7255
  3.1319  2.8339  2.3789  1.5659  1.2352  1.2352  0.9412  1.1038  1.1038

 Free energy of the ion-electron system (eV)
  ---------------------------------------------------
  alpha Z        PSCENC =       751.52672365
  Ewald energy   TEWEN  =    -22871.45941235
  -Hartree energ DENC   =     -9078.01529876
  -exchange      EXHF   =         0.00000000
  -V(xc)+E(xc)   XCENC  =      1472.51059374
  PAW double counting   =     29500.38007998   -32319.75501448
  entropy T*S    EENTRO =        -0.00000000
  eigenvalues    EBANDS =     -5211.26752789
  atomic energy  EATOM  =     37532.17875095
  Solvation  Ediel_sol  =         0.00000000
  ---------------------------------------------------
  free energy    TOTEN  =      -223.90110516 eV

  energy without entropy =     -223.90110516  energy(sigma->0) =     -223.90110516


--------------------------------------------------------------------------------------------------------




--------------------------------------- Iteration      1(  15)  ---------------------------------------


    POTLOK:  cpu time      0.0506: real time      0.0562
    SETDIJ:  cpu time      0.0531: real time      0.0532
     EDDAV:  cpu time      3.4357: real time      3.4423
       DOS:  cpu time      0.0002: real time      0.0002
    CHARGE:  cpu time      0.3135: real time      0.3141
    MIXING:  cpu time      0.0041: real time      0.0041
    --------------------------------------------
      LOOP:  cpu time      3.8573: real time      3.8702

 eigenvalue-minimisations  :  1984
 total energy-change (2. order) :-0.1043496E-05  (-0.8741582E-07)
 number of electron     448.0000022 magnetization 
 augmentation part      112.8479566 magnetization 

 Broyden mixing:
  rms(total) = 0.34932E-04    rms(broyden)= 0.34808E-04
  rms(prec ) = 0.39998E-04
  weight for this iteration     100.00

 eigenvalues of (default mixing * dielectric matrix)
  average eigenvalue GAMMA=   1.7420
  3.1395  2.7703  2.1918  2.1918  1.6531  1.2365  1.2365  0.9705  1.0148  1.0148

 Free energy of the ion-electron system (eV)
  ---------------------------------------------------
  alpha Z        PSCENC =       751.52672365
  Ewald energy   TEWEN  =    -22871.45941235
  -Hartree energ DENC   =     -9078.05138140
  -exchange      EXHF   =         0.00000000
  -V(xc)+E(xc)   XCENC  =      1472.51271415
  PAW double counting   =     29499.68091027   -32319.05685618
  entropy T*S    EENTRO =        -0.00000000
  eigenvalues    EBANDS =     -5211.23255529
  atomic energy  EATOM  =     37532.17875095
  Solvation  Ediel_sol  =         0.00000000
  ---------------------------------------------------
  free energy    TOTEN  =      -223.90110620 eV

  energy without entropy =     -223.90110620  energy(sigma->0) =     -223.90110620


--------------------------------------------------------------------------------------------------------




--------------------------------------- Iteration      1(  16)  ---------------------------------------


    POTLOK:  cpu time      0.0504: real time      0.0562
    SETDIJ:  cpu time      0.0532: real time      0.0533
     EDDAV:  cpu time      2.9958: real time      3.0017
       DOS:  cpu time      0.0003: real time      0.0003
    CHARGE:  cpu time      0.3173: real time      0.3180
    MIXING:  cpu time      0.0027: real time      0.0028
    --------------------------------------------
      LOOP:  cpu time      3.4198: real time      3.4323

 eigenvalue-minimisations  :  1616
 total energy-change (2. order) : 0.8921052E-07  (-0.1563484E-08)
 number of electron     448.0000022 magnetization 
 augmentation part      112.8479737 magnetization 

 Broyden mixing:
  rms(total) = 0.22865E-04    rms(broyden)= 0.22858E-04
  rms(prec ) = 0.23722E-04
  weight for this iteration     100.00

 eigenvalues of (default mixing * dielectric matrix)
  average eigenvalue GAMMA=   1.7224
  3.2945  2.8038  2.5856  2.3727  1.2711  1.2711  1.3707  1.1849  1.0124  0.9336
  0.8457

 Free energy of the ion-electron system (eV)
  ---------------------------------------------------
  alpha Z        PSCENC =       751.52672365
  Ewald energy   TEWEN  =    -22871.45941235
  -Hartree energ DENC   =     -9078.04820865
  -exchange      EXHF   =         0.00000000
  -V(xc)+E(xc)   XCENC  =      1472.51240266
  PAW double counting   =     29499.65706686   -32319.03151300
  entropy T*S    EENTRO =        -0.00000000
  eigenvalues    EBANDS =     -5211.23691623
  atomic energy  EATOM  =     37532.17875095
  Solvation  Ediel_sol  =         0.00000000
  ---------------------------------------------------
  free energy    TOTEN  =      -223.90110611 eV

  energy without entropy =     -223.90110611  energy(sigma->0) =     -223.90110611


--------------------------------------------------------------------------------------------------------




--------------------------------------- Iteration      1(  17)  ---------------------------------------


    POTLOK:  cpu time      0.0504: real time      0.0563
    SETDIJ:  cpu time      0.0529: real time      0.0530
     EDDAV:  cpu time      2.6495: real time      2.6547
       DOS:  cpu time      0.0002: real time      0.0002
    CHARGE:  cpu time      0.3123: real time      0.3129
    MIXING:  cpu time      0.0031: real time      0.0031
    --------------------------------------------
      LOOP:  cpu time      3.0685: real time      3.0803

 eigenvalue-minimisations  :  1312
 total energy-change (2. order) : 0.4883623E-07  (-0.4163768E-09)
 number of electron     448.0000022 magnetization 
 augmentation part      112.8479553 magnetization 

 Broyden mixing:
  rms(total) = 0.72373E-05    rms(broyden)= 0.72372E-05
  rms(prec ) = 0.73952E-05
  weight for this iteration     100.00

 eigenvalues of (default mixing * dielectric matrix)
  average eigenvalue GAMMA=   1.7104
  3.1436  2.8634  2.8634  2.3290  1.6979  1.2390  1.2390  1.3154  1.0757  0.9303
  0.9303  0.8979

 Free energy of the ion-electron system (eV)
  ---------------------------------------------------
  alpha Z        PSCENC =       751.52672365
  Ewald energy   TEWEN  =    -22871.45941235
  -Hartree energ DENC   =     -9078.04905993
  -exchange      EXHF   =         0.00000000
  -V(xc)+E(xc)   XCENC  =      1472.51241258
  PAW double counting   =     29499.68921472   -32319.06394678
  entropy T*S    EENTRO =        -0.00000000
  eigenvalues    EBANDS =     -5211.23578891
  atomic energy  EATOM  =     37532.17875095
  Solvation  Ediel_sol  =         0.00000000
  ---------------------------------------------------
  free energy    TOTEN  =      -223.90110606 eV

  energy without entropy =     -223.90110606  energy(sigma->0) =     -223.90110606


--------------------------------------------------------------------------------------------------------




--------------------------------------- Iteration      1(  18)  ---------------------------------------


    POTLOK:  cpu time      0.0512: real time      0.0570
    SETDIJ:  cpu time      0.0534: real time      0.0535
     EDDAV:  cpu time      2.6202: real time      2.6254
       DOS:  cpu time      0.0003: real time      0.0003
    --------------------------------------------
      LOOP:  cpu time      2.7251: real time      2.7361

 eigenvalue-minimisations  :  1304
 total energy-change (2. order) : 0.1258741E-08  (-0.1268186E-09)
 number of electron     448.0000022 magnetization 
 augmentation part      112.8479553 magnetization 

 Free energy of the ion-electron system (eV)
  ---------------------------------------------------
  alpha Z        PSCENC =       751.52672365
  Ewald energy   TEWEN  =    -22871.45941235
  -Hartree energ DENC   =     -9078.04889198
  -exchange      EXHF   =         0.00000000
  -V(xc)+E(xc)   XCENC  =      1472.51240967
  PAW double counting   =     29499.70265429   -32319.07711430
  entropy T*S    EENTRO =        -0.00000000
  eigenvalues    EBANDS =     -5211.23622598
  atomic energy  EATOM  =     37532.17875095
  Solvation  Ediel_sol  =         0.00000000
  ---------------------------------------------------
  free energy    TOTEN  =      -223.90110606 eV

  energy without entropy =     -223.90110606  energy(sigma->0) =     -223.90110606


--------------------------------------------------------------------------------------------------------




 average (electrostatic) potential at core
  the test charge radii are     0.9254  0.9406
  (the norm of the test charge is              1.0000)
       1 -46.9495       2 -46.9495       3 -46.9495       4 -46.9495       5 -46.9495
       6 -46.9495       7 -46.9495       8 -46.9495       9 -46.9495      10 -46.9495
      11 -46.9495      12 -46.9495      13 -46.9495      14 -46.9495      15 -46.9495
      16 -46.9495      17 -46.9495      18 -46.9495      19 -46.9495      20 -46.9495
      21 -46.9495      22 -46.9495      23 -46.9495      24 -46.9495      25 -46.9495
      26 -46.9495      27 -46.9495      28 -46.9495      29 -46.9495      30 -46.9495
      31 -46.9495      32 -46.9495      33 -93.5882      34 -93.5882      35 -93.5882
      36 -93.5882      37 -93.5882      38 -93.5882      39 -93.5882      40 -93.5882
      41 -93.5882      42 -93.5882      43 -93.5882      44 -93.5882      45 -93.5882
      46 -93.5882      47 -93.5882      48 -93.5882      49 -93.5882      50 -93.5882
      51 -93.5882      52 -93.5882      53 -93.5882      54 -93.5882      55 -93.5882
      56 -93.5882      57 -93.5882      58 -93.5882      59 -93.5882      60 -93.5882
      61 -93.5882      62 -93.5882      63 -93.5882      64 -93.5882
 
 
 
 E-fermi :  -0.5141     XC(G=0):  -8.4227     alpha+bet : -8.2520

 Fermi energy:        -0.5141061859

 k-point     1 :       0.0000    0.0000    0.0000
  band No.  band energies     occupation 
      1     -21.3034      2.00000
      2     -21.3034      2.00000
      3     -21.3034      2.00000
      4     -21.3034      2.00000
      5     -21.2928      2.00000
      6     -21.2928      2.00000
      7     -21.2928      2.00000
      8     -21.2928      2.00000
      9     -21.2928      2.00000
     10     -21.2928      2.00000
     11     -21.2928      2.00000
     12     -21.2928      2.00000
     13     -21.2928      2.00000
     14     -21.2928      2.00000
     15     -21.2928      2.00000
     16     -21.2928      2.00000
     17     -21.2926      2.00000
     18     -21.2926      2.00000
     19     -21.2926      2.00000
     20     -21.2855      2.00000
     21     -21.2855      2.00000
     22     -21.2855      2.00000
     23     -21.2855      2.00000
     24     -21.2855      2.00000
     25     -21.2855      2.00000
     26     -21.2855      2.00000
     27     -21.2855      2.00000
     28     -21.2855      2.00000
     29     -21.2855      2.00000
     30     -21.2855      2.00000
     31     -21.2855      2.00000
     32     -21.2836      2.00000
     33     -21.2836      2.00000
     34     -21.2836      2.00000
     35     -21.2836      2.00000
     36     -21.2836      2.00000
     37     -21.2836      2.00000
     38     -21.2811      2.00000
     39     -21.2811      2.00000
     40     -21.2811      2.00000
     41     -21.2811      2.00000
     42     -21.2811      2.00000
     43     -21.2811      2.00000
     44     -21.2798      2.00000
     45     -21.2798      2.00000
     46     -21.2798      2.00000
     47     -21.2798      2.00000
     48     -21.2798      2.00000
     49     -21.2798      2.00000
     50     -21.2798      2.00000
     51     -21.2798      2.00000
     52     -21.2798      2.00000
     53     -21.2798      2.00000
     54     -21.2798      2.00000
     55     -21.2798      2.00000
     56     -21.2786      2.00000
     57     -21.2786      2.00000
     58     -21.2786      2.00000
     59     -21.2786      2.00000
     60     -21.2786      2.00000
     61     -21.2786      2.00000
     62     -21.2741      2.00000
     63     -21.2741      2.00000
     64     -21.2741      2.00000
     65     -21.2741      2.00000
     66     -21.2741      2.00000
     67     -21.2741      2.00000
     68     -21.2741      2.00000
     69     -21.2741      2.00000
     70     -21.2741      2.00000
     71     -21.2741      2.00000
     72     -21.2741      2.00000
     73     -21.2741      2.00000
     74     -21.2717      2.00000
     75     -21.2717      2.00000
     76     -21.2717      2.00000
     77     -21.2717      2.00000
     78     -21.2717      2.00000
     79     -21.2717      2.00000
     80     -21.2717      2.00000
     81     -21.2717      2.00000
     82     -21.2717      2.00000
     83     -21.2717      2.00000
     84     -21.2717      2.00000
     85     -21.2717      2.00000
     86     -21.2717      2.00000
     87     -21.2717      2.00000
     88     -21.2717      2.00000
     89     -21.2717      2.00000
     90     -21.2717      2.00000
     91     -21.2717      2.00000
     92     -21.2717      2.00000
     93     -21.2717      2.00000
     94     -21.2693      2.00000
     95     -21.2693      2.00000
     96     -21.2693      2.00000
     97     -13.3579      2.00000
     98     -13.1373      2.00000
     99     -13.1373      2.00000
    100     -13.1373      2.00000
    101     -13.1373      2.00000
    102     -13.1373      2.00000
    103     -13.1373      2.00000
    104     -13.0112      2.00000
    105     -13.0112      2.00000
    106     -13.0112      2.00000
    107     -13.0112      2.00000
    108     -13.0112      2.00000
    109     -13.0112      2.00000
    110     -13.0112      2.00000
    111     -13.0112      2.00000
    112     -13.0112      2.00000
    113     -13.0112      2.00000
    114     -13.0112      2.00000
    115     -13.0112      2.00000
    116     -12.9900      2.00000
    117     -12.9900      2.00000
    118     -12.9900      2.00000
    119     -12.9900      2.00000
    120     -12.9408      2.00000
    121     -12.9408      2.00000
    122     -12.9408      2.00000
    123     -12.9215      2.00000
    124     -12.9215      2.00000
    125     -12.9215      2.00000
    126     -12.9215      2.00000
    127     -12.9215      2.00000
    128     -12.9215      2.00000
    129      -2.6999      2.00000
    130      -2.6999      2.00000
    131      -2.6999      2.00000
    132      -2.6999      2.00000
    133      -2.4239      2.00000
    134      -2.4239      2.00000
    135      -2.4239      2.00000
    136      -2.2042      2.00000
    137      -2.2042      2.00000
    138      -2.2042      2.00000
    139      -2.2042      2.00000
    140      -2.2042      2.00000
    141      -2.2042      2.00000
    142      -2.2042      2.00000
    143      -2.2042      2.00000
    144      -2.2042      2.00000
    145      -2.2042      2.00000
    146      -2.2042      2.00000
    147      -2.2042      2.00000
    148      -1.9246      2.00000
    149      -1.9246      2.00000
    150      -1.9246      2.00000
    151      -1.9246      2.00000
    152      -1.9246      2.00000
    153      -1.9246      2.00000
    154      -1.9246      2.00000
    155      -1.9246      2.00000
    156      -1.9246      2.00000
    157      -1.9246      2.00000
    158      -1.9246      2.00000
    159      -1.9246      2.00000
    160      -1.7966      2.00000
    161      -1.7966      2.00000
    162      -1.7966      2.00000
    163      -1.7966      2.00000
    164      -1.7966      2.00000
    165      -1.7966      2.00000
    166      -1.5053      2.00000
    167      -1.5053      2.00000
    168      -1.5053      2.00000
    169      -1.5053      2.00000
    170      -1.5053      2.00000
    171      -1.5053      2.00000
    172      -1.5053      2.00000
    173      -1.5053      2.00000
    174      -1.5053      2.00000
    175      -1.5053      2.00000
    176      -1.5053      2.00000
    177      -1.5053      2.00000
    178      -1.4629      2.00000
    179      -1.4629      2.00000
    180      -1.4629      2.00000
    181      -1.4629      2.00000
    182      -1.4629      2.00000
    183      -1.4629      2.00000
    184      -1.2947      2.00000
    185      -1.2947      2.00000
    186      -1.2947      2.00000
    187      -1.2947      2.00000
    188      -1.2947      2.00000
    189      -1.2947      2.00000
    190      -1.0007      2.00000
    191      -1.0007      2.00000
    192      -1.0007      2.00000
    193      -1.0007      2.00000
    194      -1.0007      2.00000
    195      -1.0007      2.00000
    196      -1.0007      2.00000
    197      -1.0007      2.00000
    198      -1.0007      2.00000
    199      -1.0007      2.00000
    200      -1.0007      2.00000
    201      -1.0007      2.00000
    202      -0.9479      2.00000
    203      -0.9479      2.00000
    204      -0.9479      2.00000
    205      -0.9479      2.00000
    206      -0.9479      2.00000
    207      -0.9479      2.00000
    208      -0.9479      2.00000
    209      -0.9479      2.00000
    210      -0.9479      2.00000
    211      -0.9479      2.00000
    212      -0.9479      2.00000
    213      -0.9479      2.00000
    214      -0.9458      2.00000
    215      -0.9458      2.00000
    216      -0.9458      2.00000
    217      -0.9458      2.00000
    218      -0.9458      2.00000
    219      -0.9458      2.00000
    220      -0.9458      2.00000
    221      -0.9458      2.00000
    222      -0.6650      2.00000
    223      -0.6650      2.00000
    224      -0.6650      2.00000
    225       4.3403      0.00000
    226       6.3682      0.00000
    227       6.3682      0.00000
    228       6.3682      0.00000
    229       6.3682      0.00000
    230       6.3682      0.00000
    231       6.3682      0.00000
    232       6.4446      0.00000
    233       6.4446      0.00000
    234       6.4446      0.00000
    235       6.4446      0.00000
    236       6.8280      0.00000
    237       6.8280      0.00000
    238       6.8280      0.00000
    239       7.2069      0.00000
    240       7.2069      0.00000
    241       7.2069      0.00000
    242       7.4642      0.00000
    243       7.4642      0.00000
    244       7.4642      0.00000
    245       7.4642      0.00000
    246       7.4642      0.00000
    247       7.4642      0.00000
    248       7.4642      0.00000
    249       7.4642      0.00000
    250       7.4642      0.00000
    251       7.4642      0.00000
    252       7.4642      0.00000
    253       7.4642      0.00000
    254       8.1684      0.00000
    255       8.1684      0.00000
    256       8.1684      0.00000
    257       8.1684      0.00000
    258       8.1684      0.00000
    259       8.1684      0.00000
    260       8.2796      0.00000
    261       8.2796      0.00000
    262       8.2796      0.00000
    263       8.2796      0.00000
    264       8.2796      0.00000
    265       8.2796      0.00000
    266       8.9020      0.00000
    267       8.9031      0.00000
    268       8.9049      0.00000
    269       8.9061      0.00000
    270       8.9082      0.00000
    271       8.9129      0.00000
    272       8.9146      0.00000

 k-point     2 :       0.5000    0.0000    0.0000
  band No.  band energies     occupation 
      1     -21.2990      2.00000
      2     -21.2990      2.00000
      3     -21.2990      2.00000
      4     -21.2990      2.00000
      5     -21.2990      2.00000
      6     -21.2990      2.00000
      7     -21.2990      2.00000
      8     -21.2990      2.00000
      9     -21.2911      2.00000
     10     -21.2911      2.00000
     11     -21.2911      2.00000
     12     -21.2911      2.00000
     13     -21.2911      2.00000
     14     -21.2911      2.00000
     15     -21.2911      2.00000
     16     -21.2911      2.00000
     17     -21.2905      2.00000
     18     -21.2905      2.00000
     19     -21.2905      2.00000
     20     -21.2905      2.00000
     21     -21.2905      2.00000
     22     -21.2905      2.00000
     23     -21.2881      2.00000
     24     -21.2881      2.00000
     25     -21.2881      2.00000
     26     -21.2881      2.00000
     27     -21.2881      2.00000
     28     -21.2881      2.00000
     29     -21.2881      2.00000
     30     -21.2881      2.00000
     31     -21.2839      2.00000
     32     -21.2839      2.00000
     33     -21.2839      2.00000
     34     -21.2839      2.00000
     35     -21.2839      2.00000
     36     -21.2839      2.00000
     37     -21.2839      2.00000
     38     -21.2839      2.00000
     39     -21.2807      2.00000
     40     -21.2807      2.00000
     41     -21.2807      2.00000
     42     -21.2807      2.00000
     43     -21.2800      2.00000
     44     -21.2800      2.00000
     45     -21.2800      2.00000
     46     -21.2800      2.00000
     47     -21.2772      2.00000
     48     -21.2772      2.00000
     49     -21.2772      2.00000
     50     -21.2772      2.00000
     51     -21.2757      2.00000
     52     -21.2757      2.00000
     53     -21.2757      2.00000
     54     -21.2757      2.00000
     55     -21.2757      2.00000
     56     -21.2757      2.00000
     57     -21.2757      2.00000
     58     -21.2757      2.00000
     59     -21.2757      2.00000
     60     -21.2757      2.00000
     61     -21.2757      2.00000
     62     -21.2757      2.00000
     63     -21.2757      2.00000
     64     -21.2757      2.00000
     65     -21.2757      2.00000
     66     -21.2757      2.00000
     67     -21.2748      2.00000
     68     -21.2748      2.00000
     69     -21.2748      2.00000
     70     -21.2748      2.00000
     71     -21.2748      2.00000
     72     -21.2748      2.00000
     73     -21.2748      2.00000
     74     -21.2748      2.00000
     75     -21.2741      2.00000
     76     -21.2741      2.00000
     77     -21.2720      2.00000
[...]
         0         1         2         3         4         5         6         7         8         9
 total charge-density along one line
 
 pseudopotential strength for first ion, spin component:           1
-25.387  -0.000  -0.000   2.510   0.000   0.000  -0.000  -0.000
 -0.000 -25.387  -0.000   0.000   2.510   0.000   0.000   0.000
 -0.000  -0.000 -25.387   0.000   0.000   2.510   0.000   0.000
  2.510   0.000   0.000   6.528   0.000   0.000   0.000  -0.000
  0.000   2.510   0.000   0.000   6.528   0.000  -0.000   0.000
  0.000   0.000   2.510   0.000   0.000   6.528  -0.000   0.000
 -0.000   0.000   0.000   0.000  -0.000  -0.000   1.428   6.993
 -0.000   0.000   0.000  -0.000   0.000   0.000   6.993  33.989
 total augmentation occupancy for first ion, spin component:           1
  2.002   0.000   0.000   0.002   0.000   0.000   0.000   0.000
  0.000   2.002   0.000   0.000   0.002   0.000   0.000   0.000
  0.000   0.000   2.002   0.000   0.000   0.002   0.000   0.000
  0.002   0.000   0.000   0.017   0.000   0.000   0.000   0.000
  0.000   0.002   0.000   0.000   0.017   0.000   0.000   0.000
  0.000   0.000   0.002   0.000   0.000   0.017   0.000   0.000
  0.000   0.000   0.000   0.000   0.000   0.000   0.403  -0.001
  0.000   0.000   0.000   0.000   0.000   0.000  -0.001   0.000


------------------------ aborting loop because EDIFF is reached ----------------------------------------


    CHARGE:  cpu time      0.3069: real time      0.3075
    FORLOC:  cpu time      0.0178: real time      0.0179
    FORNL :  cpu time      1.8081: real time      1.8119
    STRESS:  cpu time      3.1034: real time      3.1098
    FORCOR:  cpu time      0.0652: real time      0.0653
    FORHAR:  cpu time      0.0272: real time      0.0273
    MIXING:  cpu time      0.0020: real time      0.0020
    OFIELD:  cpu time      0.0001: real time      0.0001

  FORCE on cell =-STRESS in cart. coord.  units (eV):
  Direction    XX          YY          ZZ          XY          YZ          ZX
  --------------------------------------------------------------------------------------
  Alpha Z   751.52672   751.52672   751.52672
  Ewald   -7623.86558 -7623.86558 -7623.86558    -0.00000     0.00000     0.00000
  Hartree  3026.01652  3026.01652  3026.01652    -0.00000    -0.00000    -0.00000
  E(xc)   -2014.34717 -2014.34717 -2014.34717    -0.00000     0.00000     0.00000
  Local   -2024.81482 -2024.81482 -2024.81482     0.00000    -0.00000     0.00000
  n-local  1887.47452  1887.70818  1887.77799     0.00000     0.00000    -0.00000
  augment   687.00572   687.00572   687.00541    -0.00000    -0.00010    -0.00010
  Kinetic  5310.03525  5310.67852  5310.80133    -0.00000     0.00000    -0.00000
  Fock        0.00000     0.00000     0.00000     0.00000     0.00000     0.00000
  -------------------------------------------------------------------------------------
  Total      -0.32011    -0.32011    -0.32011    -0.00000    -0.00000    -0.00000
  in kB      -0.36466    -0.36466    -0.36466    -0.00000    -0.00000    -0.00000
  external pressure =       -0.36 kB  Pullay stress =        0.00 kB


 VOLUME and BASIS-vectors are now :
 -----------------------------------------------------------------------------
  energy-cutoff  :      341.00
  volume of cell :     1406.43
      direct lattice vectors                 reciprocal lattice vectors
    11.204002360  0.000000000  0.000000000     0.089253819  0.000000000  0.000000000
     0.000000000 11.204002360  0.000000000     0.000000000  0.089253819  0.000000000
     0.000000000  0.000000000 11.204002360     0.000000000  0.000000000  0.089253819

  length of vectors
    11.204002360 11.204002360 11.204002360     0.089253819  0.089253819  0.089253819


 FORCES acting on ions
    electron-ion (+dipol)            ewald-force                    non-local-force                 convergence-correction
 -----------------------------------------------------------------------------------------------
   -.306E-13 -.461E-13 -.160E-13   0.533E-13 -.241E-14 -.191E-13   -.295E-26 0.973E-27 0.283E-25   -.132E-12 -.161E-12 -.126E-12
   0.321E-12 0.279E-12 0.316E-13   0.485E-13 -.622E-14 -.235E-13   -.592E-25 -.305E-25 0.244E-25   0.164E-12 0.271E-13 -.160E-12
   0.325E-12 -.497E-13 -.148E-11   0.476E-13 -.141E-13 -.155E-13   0.615E-26 0.255E-25 0.852E-25   0.138E-12 -.116E-12 0.464E-13
   -.313E-13 0.317E-12 0.341E-12   0.711E-13 -.888E-14 -.888E-14   -.602E-25 0.217E-25 -.102E-26   -.181E-12 0.231E-13 0.105E-12
   -.393E-13 -.460E-13 0.749E-12   0.711E-13 -.152E-14 -.244E-13   -.301E-25 0.120E-25 -.632E-25   -.183E-12 -.131E-12 -.129E-12
   0.321E-12 0.336E-12 0.785E-12   0.923E-13 -.213E-13 0.889E-14   -.749E-25 -.164E-25 0.463E-25   0.108E-12 0.295E-13 -.543E-13
   0.324E-12 -.506E-13 -.745E-12   0.113E-12 0.671E-14 0.266E-14   -.351E-25 0.722E-25 0.553E-25   0.104E-12 -.916E-13 0.128E-12
   -.338E-13 0.309E-12 0.110E-11   0.110E-12 -.302E-13 -.107E-13   -.321E-25 -.516E-25 0.258E-25   -.153E-12 0.915E-13 0.632E-13
   -.328E-13 0.683E-12 -.547E-14   0.817E-13 -.800E-14 -.154E-13   0.849E-25 -.112E-25 0.304E-26   -.192E-12 0.681E-13 -.204E-12
   0.332E-12 0.229E-11 -.536E-12   0.103E-12 -.711E-14 -.190E-13   0.105E-25 -.168E-25 -.346E-25   0.104E-12 0.158E-13 -.130E-12
   0.322E-12 0.759E-12 -.143E-11   0.626E-13 0.284E-13 -.124E-13   -.684E-25 0.121E-25 0.949E-25   0.106E-12 0.145E-13 0.599E-13
   -.317E-13 0.104E-11 0.335E-12   0.906E-13 0.124E-13 -.249E-13   0.262E-25 0.242E-25 0.130E-25   -.222E-12 0.283E-13 0.709E-13
   -.356E-13 0.682E-12 0.739E-12   0.995E-13 0.124E-13 -.267E-13   0.103E-25 0.190E-26 0.178E-25   -.215E-12 0.364E-13 -.663E-13
   0.329E-12 0.323E-12 0.922E-12   0.694E-13 0.213E-13 -.125E-13   -.849E-26 0.541E-25 -.324E-25   0.705E-13 0.158E-13 -.855E-13
   0.324E-12 0.491E-12 -.793E-12   0.938E-13 0.284E-13 -.266E-13   0.248E-25 0.627E-25 0.316E-26   0.791E-13 -.138E-13 0.126E-12
   -.359E-13 0.105E-11 0.110E-11   0.586E-13 0.124E-13 -.107E-13   0.645E-25 0.266E-25 -.408E-25   -.163E-12 -.383E-13 0.904E-13
   0.725E-12 -.532E-13 0.275E-11   0.107E-12 0.193E-13 -.172E-13   -.257E-25 0.417E-25 0.327E-25   -.120E-12 -.931E-13 -.932E-13
   0.106E-11 -.400E-11 -.430E-11   0.143E-12 0.124E-13 -.207E-13   0.103E-25 -.977E-25 0.111E-25   0.370E-13 0.883E-13 -.146E-12
   0.106E-11 -.486E-13 -.208E-12   0.101E-12 0.159E-14 -.160E-13   -.601E-26 -.467E-25 -.211E-25   0.633E-13 -.167E-12 0.954E-13
   0.722E-12 -.403E-11 -.183E-11   0.155E-12 -.160E-13 -.107E-13   -.432E-25 0.682E-26 0.287E-25   -.769E-13 -.427E-14 0.462E-13
   0.734E-12 -.572E-13 -.279E-11   0.137E-12 0.287E-13 -.249E-13   0.210E-25 -.120E-25 -.309E-25   -.676E-13 -.841E-13 -.156E-12
   0.106E-11 -.315E-11 0.309E-11   0.135E-12 0.000E+00 0.710E-14   -.861E-26 0.590E-26 -.303E-25   0.101E-12 0.621E-13 -.993E-13
   0.106E-11 -.362E-13 -.261E-11   0.130E-12 -.948E-15 0.178E-14   0.700E-25 -.890E-25 0.503E-26   0.966E-13 -.114E-12 0.630E-13
   0.725E-12 -.797E-12 0.282E-11   0.167E-12 -.107E-13 -.142E-13   0.777E-26 -.134E-25 -.164E-25   -.100E-12 0.701E-13 0.118E-12
   0.725E-12 0.653E-12 0.142E-12   0.115E-12 -.355E-14 -.162E-13   0.654E-26 0.317E-25 -.125E-26   -.602E-13 0.753E-14 -.168E-12
   0.105E-11 -.684E-11 -.419E-11   0.135E-12 0.178E-13 -.545E-14   0.120E-25 0.285E-25 0.219E-25   0.990E-13 -.426E-13 -.974E-13
   0.106E-11 0.231E-11 -.636E-12   0.155E-12 0.196E-13 -.142E-13   0.246E-25 -.532E-26 -.550E-25   0.856E-13 0.667E-13 0.685E-13
   0.724E-12 0.254E-11 -.678E-12   0.139E-12 -.231E-13 -.124E-13   0.941E-26 -.333E-25 -.657E-26   -.224E-13 0.426E-13 0.360E-13
   0.727E-12 0.772E-12 -.284E-11   0.128E-12 0.100E-16 -.142E-13   0.306E-25 -.404E-25 0.453E-25   -.378E-13 -.554E-14 -.891E-13
   0.106E-11 -.810E-11 0.108E-10   0.156E-12 0.426E-13 -.107E-13   0.572E-25 0.278E-25 -.341E-25   0.135E-12 -.897E-14 -.152E-12
   0.106E-11 0.655E-11 -.386E-11   0.117E-12 0.480E-13 -.142E-13   0.845E-25 -.656E-25 0.897E-25   0.111E-12 0.843E-14 0.918E-13
   0.730E-12 0.123E-11 0.347E-11   0.194E-12 0.284E-13 -.142E-13   -.440E-25 -.467E-25 0.678E-25   -.810E-13 -.320E-13 0.134E-12
   0.240E-13 0.121E-13 -.815E-12   -.158E-12 -.142E-13 0.249E-13   0.874E-25 -.734E-25 0.337E-24   0.139E-12 -.129E-13 0.513E-13
   0.396E-14 0.149E-13 -.224E-13   -.123E-12 -.202E-13 0.213E-13   -.645E-25 0.177E-24 -.385E-24   -.159E-12 -.153E-12 0.960E-13
   0.615E-14 0.531E-13 -.380E-13   -.162E-12 -.133E-13 0.283E-13   -.259E-24 -.413E-24 -.160E-24   -.112E-12 0.574E-13 -.170E-12
   0.429E-13 0.324E-14 0.382E-12   -.163E-12 -.233E-13 0.258E-14   -.290E-24 0.228E-24 0.195E-24   0.126E-12 -.944E-13 -.113E-12
   0.318E-13 0.972E-13 -.676E-12   -.138E-12 -.213E-13 -.444E-14   0.115E-25 -.136E-24 -.211E-24   0.106E-12 0.550E-13 0.103E-12
   0.988E-14 0.146E-13 0.720E-13   -.159E-12 -.118E-13 0.142E-13   -.162E-24 -.222E-25 0.118E-24   -.116E-12 -.114E-12 0.636E-13
   -.331E-14 0.544E-13 -.974E-14   -.156E-12 -.142E-13 0.133E-13   0.633E-25 -.132E-24 -.312E-24   -.162E-12 0.458E-13 -.461E-13
   0.342E-13 0.445E-14 0.246E-11   -.962E-13 0.357E-14 0.258E-13   0.919E-25 0.246E-24 -.283E-24   0.872E-13 -.830E-13 -.102E-12
   0.441E-13 0.264E-12 -.730E-12   -.167E-12 -.124E-13 0.107E-13   0.276E-24 0.356E-24 0.115E-24   0.835E-13 0.480E-13 0.398E-13
   0.119E-13 0.719E-13 -.216E-13   -.142E-12 0.625E-14 0.213E-13   -.798E-26 0.134E-24 -.419E-25   -.196E-12 0.916E-13 0.856E-13
   0.615E-14 0.122E-12 -.378E-13   -.145E-12 -.151E-13 0.211E-13   0.841E-25 0.197E-24 0.278E-24   -.153E-12 -.246E-13 -.126E-12
   0.330E-13 0.916E-13 0.242E-11   -.110E-12 0.107E-13 -.375E-14   0.165E-24 0.901E-25 -.286E-25   0.102E-12 0.299E-13 -.181E-12
   0.518E-13 0.220E-12 -.686E-12   -.144E-12 -.178E-13 -.355E-14   -.150E-24 0.354E-24 -.271E-26   0.507E-13 -.194E-13 0.114E-12
   0.958E-14 -.232E-13 -.136E-12   -.107E-12 -.143E-13 0.213E-13   -.629E-25 0.247E-24 0.469E-25   -.165E-12 0.501E-13 0.787E-13
   -.417E-14 -.836E-13 -.102E-12   -.114E-12 0.249E-13 0.709E-14   -.112E-24 0.338E-24 -.337E-25   -.177E-12 -.112E-13 -.842E-13
   0.332E-13 0.107E-12 0.428E-12   -.561E-13 0.710E-14 0.106E-13   -.150E-26 -.542E-25 0.576E-25   0.646E-13 0.190E-13 -.341E-13
   0.154E-12 -.168E-12 -.290E-12   -.941E-13 -.355E-13 0.249E-13   -.539E-25 -.281E-24 -.109E-24   0.200E-13 0.264E-13 0.105E-12
   0.712E-13 -.351E-14 -.524E-11   -.116E-12 -.675E-14 0.187E-13   -.226E-24 -.154E-25 -.427E-25   -.535E-13 -.915E-13 0.557E-13
   0.713E-13 -.524E-11 0.627E-12   -.773E-13 -.711E-14 0.282E-13   -.837E-25 -.149E-24 -.163E-24   -.103E-12 0.395E-13 -.130E-12
   0.135E-12 0.403E-14 -.528E-11   -.764E-13 -.404E-13 0.337E-14   0.394E-24 -.990E-25 -.307E-24   0.286E-13 -.131E-12 -.659E-13
   0.146E-12 -.446E-11 -.344E-11   -.115E-12 -.142E-13 0.000E+00   -.271E-25 -.192E-24 0.464E-25   0.534E-13 0.109E-12 0.627E-13
   0.652E-13 -.329E-14 0.563E-11   -.666E-13 0.139E-13 0.240E-13   -.151E-24 0.307E-24 -.231E-24   -.960E-13 -.515E-13 0.107E-12
   0.802E-13 -.420E-12 -.249E-11   -.675E-13 -.711E-14 0.178E-13   0.124E-25 0.234E-24 -.324E-26   -.579E-13 0.297E-13 -.745E-13
   0.144E-12 0.479E-14 0.119E-10   -.853E-13 -.289E-13 0.106E-13   -.971E-25 -.257E-24 -.227E-24   0.705E-13 -.977E-13 -.142E-12
   0.133E-12 -.576E-11 0.633E-13   -.995E-13 -.107E-13 0.178E-13   -.665E-25 0.341E-24 -.146E-24   0.740E-13 0.118E-13 0.722E-13
   0.648E-13 0.715E-12 -.661E-13   -.817E-13 -.707E-14 0.213E-13   0.513E-25 -.790E-25 0.120E-24   -.165E-13 0.353E-13 0.480E-13
   0.709E-13 0.347E-11 0.158E-11   -.808E-13 -.124E-13 0.221E-13   -.141E-24 0.501E-25 0.281E-24   -.595E-13 -.545E-14 -.884E-13
   0.144E-12 0.108E-10 -.755E-11   -.435E-13 -.151E-13 0.766E-15   0.241E-24 0.240E-24 -.171E-24   0.492E-13 0.711E-13 -.149E-12
   0.126E-12 -.387E-11 -.399E-11   -.782E-13 0.142E-13 0.355E-14   -.141E-24 0.159E-24 -.237E-25   0.107E-12 -.689E-13 0.996E-13
   0.669E-13 0.155E-11 0.189E-11   -.746E-13 -.107E-13 0.178E-13   -.316E-26 -.420E-25 0.106E-24   -.466E-13 -.431E-14 0.117E-12
   0.807E-13 -.196E-12 -.104E-11   -.675E-13 0.249E-13 0.142E-13   0.113E-24 0.165E-24 0.948E-25   -.371E-13 0.558E-14 -.114E-12
   0.145E-12 0.352E-11 0.338E-11   -.924E-13 0.213E-13 0.706E-14   -.221E-24 0.144E-24 -.102E-24   0.882E-13 0.356E-13 -.624E-13
 -----------------------------------------------------------------------------------------------
   0.186E-10 -.378E-11 -.163E-11   0.240E-13 -.607E-13 0.773E-14   -.668E-24 0.194E-23 -.855E-24   -.865E-12 -.609E-12 -.997E-12
 
 
 POSITION                                       TOTAL-FORCE (eV/Angst)
 -----------------------------------------------------------------------------------
      0.00000      0.00000      0.00000        -0.000000     -0.000000     -0.000000
      2.80100      2.80100      0.00000         0.000000     -0.000000      0.000000
      2.80100      0.00000      2.80100        -0.000000     -0.000000     -0.000000
      0.00000      2.80100      2.80100        -0.000000     -0.000000     -0.000000
      0.00000      0.00000      5.60200         0.000000     -0.000000     -0.000000
      2.80100      2.80100      5.60200        -0.000000     -0.000000     -0.000000
      2.80100      0.00000      8.40300        -0.000000      0.000000     -0.000000
      0.00000      2.80100      8.40300         0.000000     -0.000000      0.000000
      0.00000      5.60200      0.00000         0.000000      0.000000      0.000000
      2.80100      8.40300      0.00000         0.000000      0.000000      0.000000
      2.80100      5.60200      2.80100        -0.000000      0.000000      0.000000
      0.00000      8.40300      2.80100         0.000000      0.000000      0.000000
      0.00000      5.60200      5.60200        -0.000000     -0.000000     -0.000000
      2.80100      8.40300      5.60200        -0.000000      0.000000     -0.000000
      2.80100      5.60200      8.40300        -0.000000     -0.000000      0.000000
      0.00000      8.40300      8.40300         0.000000      0.000000     -0.000000
      5.60200      0.00000      0.00000        -0.000000     -0.000000      0.000000
      8.40300      2.80100      0.00000         0.000000     -0.000000      0.000000
      8.40300      0.00000      2.80100         0.000000      0.000000      0.000000
      5.60200      2.80100      2.80100        -0.000000     -0.000000      0.000000
      5.60200      0.00000      5.60200         0.000000     -0.000000     -0.000000
      8.40300      2.80100      5.60200        -0.000000     -0.000000      0.000000
      8.40300      0.00000      8.40300        -0.000000     -0.000000      0.000000
      5.60200      2.80100      8.40300        -0.000000      0.000000     -0.000000
      5.60200      5.60200      0.00000        -0.000000      0.000000     -0.000000
      8.40300      8.40300      0.00000         0.000000     -0.000000      0.000000
      8.40300      5.60200      2.80100         0.000000     -0.000000     -0.000000
      5.60200      8.40300      2.80100         0.000000      0.000000     -0.000000
      5.60200      5.60200      5.60200        -0.000000      0.000000      0.000000
      8.40300      8.40300      5.60200        -0.000000      0.000000     -0.000000
      8.40300      5.60200      8.40300         0.000000      0.000000     -0.000000
      5.60200      8.40300      8.40300        -0.000000     -0.000000      0.000000
      2.80100      2.80100      2.80100         0.000000      0.000000     -0.000000
      0.00000      0.00000      2.80100        -0.000000      0.000000      0.000000
      0.00000      2.80100      0.00000         0.000000     -0.000000      0.000000
      2.80100      0.00000      0.00000         0.000000     -0.000000     -0.000000
      2.80100      2.80100      8.40300         0.000000      0.000000      0.000000
      0.00000      0.00000      8.40300         0.000000     -0.000000     -0.000000
      0.00000      2.80100      5.60200         0.000000      0.000000     -0.000000
      2.80100      0.00000      5.60200        -0.000000     -0.000000      0.000000
      2.80100      8.40300      2.80100        -0.000000      0.000000      0.000000
      0.00000      5.60200      2.80100        -0.000000      0.000000      0.000000
      0.00000      8.40300      0.00000        -0.000000     -0.000000      0.000000
      2.80100      5.60200      0.00000         0.000000      0.000000     -0.000000
      2.80100      8.40300      8.40300         0.000000      0.000000      0.000000
      0.00000      5.60200      8.40300        -0.000000      0.000000     -0.000000
      0.00000      8.40300      5.60200        -0.000000      0.000000     -0.000000
      2.80100      5.60200      5.60200         0.000000      0.000000     -0.000000
      8.40300      2.80100      2.80100         0.000000      0.000000     -0.000000
      5.60200      0.00000      2.80100         0.000000     -0.000000     -0.000000
      5.60200      2.80100      0.00000        -0.000000      0.000000      0.000000
      8.40300      0.00000      0.00000        -0.000000     -0.000000     -0.000000
      8.40300      2.80100      8.40300        -0.000000      0.000000     -0.000000
      5.60200      0.00000      8.40300        -0.000000     -0.000000      0.000000
      5.60200      2.80100      5.60200        -0.000000     -0.000000      0.000000
      8.40300      0.00000      5.60200        -0.000000      0.000000      0.000000
      8.40300      8.40300      2.80100        -0.000000     -0.000000      0.000000
      5.60200      5.60200      2.80100        -0.000000      0.000000     -0.000000
      5.60200      8.40300      0.00000        -0.000000      0.000000     -0.000000
      8.40300      5.60200      0.00000        -0.000000      0.000000      0.000000
      8.40300      8.40300      8.40300        -0.000000     -0.000000     -0.000000
      5.60200      5.60200      8.40300        -0.000000      0.000000     -0.000000
      5.60200      8.40300      5.60200         0.000000      0.000000     -0.000000
      8.40300      5.60200      5.60200        -0.000000      0.000000      0.000000
 -----------------------------------------------------------------------------------
    total drift:                                0.000000     -0.000000     -0.000000


--------------------------------------------------------------------------------------------------------



  FREE ENERGIE OF THE ION-ELECTRON SYSTEM (eV)
  ---------------------------------------------------
  free  energy   TOTEN  =      -223.90110606 eV

  energy  without entropy=     -223.90110606  energy(sigma->0) =     -223.90110606
 


--------------------------------------------------------------------------------------------------------


    POTLOK:  cpu time      0.1043: real time      0.1045


--------------------------------------------------------------------------------------------------------


     LOOP+:  cpu time     80.9923: real time     81.2499
    4ORBIT:  cpu time      0.0000: real time      0.0000

 total amount of memory used by VASP MPI-rank0    73787. kBytes
=======================================================================

   base      :      30000. kBytes
   nonl-proj :       7766. kBytes
   fftplans  :      15600. kBytes
   grid      :       9092. kBytes
   one-center:         49. kBytes
   wavefun   :      11280. kBytes
 
  
  
 General timing and accounting informations for this job:
 ========================================================
  
                  Total CPU time used (sec):       84.391
                            User time (sec):       82.996
                          System time (sec):        1.395
                         Elapsed time (sec):       89.829
  
                   Maximum memory used (kb):      301568.
                   Average memory used (kb):          N/A
  
                          Minor page faults:       186689
                          Major page faults:            0
                 Voluntary context switches:         2583
