<?xml version="1.0" encoding="ISO-8859-1"?>
<modeling>
 <generator>
  <i name="program" type="string">vasp </i>
  <i name="version" type="string">6.3.2  </i>
  <i name="subversion" type="string">27Jun22 (build Oct 14 2022 12:38:20) complex                          parallel </i>
  <i name="platform" type="string">LinuxIFC </i>
  <i name="date" type="string">2022 11 28 </i>
  <i name="time" type="string">01:29:57 </i>
 </generator>
 <incar>
  <i type="string" name="PREC">Accurate</i>
  <i type="int" name="IALGO">    38</i>
  <i type="logical" name="ADDGRID"> T  </i>
  <i type="int" name="NELMIN">     5</i>
  <i type="int" name="IBRION">    -1</i>
  <i name="EDIFF">      0.00000001</i>
  <i name="ENCUT">    341.00000000</i>
  <i type="logical" name="LREAL"> F  </i>
  <i type="int" name="ISMEAR">     0</i>
  <i name="SIGMA">      0.02000000</i>
  <i type="logical" name="LWAVE"> F  </i>
  <i type="logical" name="LCHARG"> F  </i>
  <i type="string" name="GGA">Ps</i>
 </incar>
 <primitive_cell>
  <structure name="primitive_cell" >
   <crystal>
    <varray name="basis" >
     <v>       2.80100059      -2.80100059       0.00000000 </v>
     <v>       2.80100059       0.00000000       2.80100059 </v>
     <v>       0.00000000      -2.80100059       2.80100059 </v>
    </varray>
    <i name="volume">     43.95108458 </i>
    <varray name="rec_basis" >
     <v>       0.17850764      -0.17850764      -0.17850764 </v>
     <v>       0.17850764       0.17850764       0.17850764 </v>
     <v>      -0.17850764      -0.17850764       0.17850764 </v>
    </varray>
   </crystal>
   <varray name="positions" >
    <v>       0.00000000       0.00000000       0.00000000 </v>
    <v>       0.50000000       0.50000000       0.50000000 </v>
   </varray>
  </structure>
  <varray name="primitive_index" >
   <v type="int" >        1 </v>
   <v type="int" >       38 </v>
  </varray>
 </primitive_cell>
 <kpoints>
  <generation param="Gamma">
   <v type="int" name="divisions">       2        2        2 </v>
   <v name="usershift">      0.00000000       0.00000000       0.00000000 </v>
   <v name="genvec1">      0.50000000       0.00000000       0.00000000 </v>
   <v name="genvec2">      0.00000000       0.50000000       0.00000000 </v>
   <v name="genvec3">      0.00000000       0.00000000       0.50000000 </v>
   <v name="shift">      0.00000000       0.00000000       0.00000000 </v>
  </generation>
  <varray name="kpointlist" >
   <v>       0.00000000       0.00000000       0.00000000 </v>
   <v>       0.50000000       0.00000000       0.00000000 </v>
   <v>       0.50000000       0.50000000       0.00000000 </v>
   <v>       0.50000000       0.50000000       0.50000000 </v>
  </varray>
  <varray name="weights" >
   <v>       0.12500000 </v>
   <v>       0.37500000 </v>
   <v>       0.37500000 </v>
   <v>       0.12500000 </v>
  </varray>
 </kpoints>
 <parameters>
  <separator name="general" >
   <i type="string" name="SYSTEM">unknown system</i>
   <i type="logical" name="LCOMPAT"> F  </i>
  </separator>
  <separator name="electronic" >
   <i type="string" name="PREC">accura</i>
   <i name="ENMAX">    341.00000000</i>
   <i name="ENAUG">    368.05600000</i>
   <i name="EDIFF">      0.00000001</i>
   <i type="int" name="IALGO">    38</i>
   <i type="int" name="IWAVPR">    10</i>
   <i type="int" name="NBANDS">   272</i>
   <i type="int" name="NBANDSLOW">    -1</i>
   <i type="int" name="NBANDSHIGH">    -1</i>
   <i name="NELECT">    448.00000000</i>
   <i type="int" name="TURBO">     0</i>
   <i type="int" name="IRESTART">     0</i>
   <i type="int" name="NREBOOT">     0</i>
   <i type="int" name="NMIN">     0</i>
   <i name="EREF">      0.00000000</i>
   <separator name="electronic smearing" >
    <i type="int" name="ISMEAR">     0</i>
    <i name="SIGMA">      0.02000000</i>
    <i name="KSPACING">      0.50000000</i>
    <i type="logical" name="KGAMMA"> T  </i>
    <i type="logical" name="KBLOWUP"> T  </i>
   </separator>
   <separator name="electronic projectors" >
    <i type="logical" name="LREAL"> F  </i>
    <v name="ROPT">      0.00000000      0.00000000</v>
    <i type="int" name="LMAXPAW">  -100</i>
    <i type="int" name="LMAXMIX">     2</i>
    <i type="logical" name="NLSPLINE"> F  </i>
   </separator>
   <separator name="electronic startup" >
    <i type="int" name="ISTART">     0</i>
    <i type="int" name="ICHARG">     2</i>
    <i type="int" name="INIWAV">     1</i>
   </separator>
   <separator name="electronic spin" >
    <i type="int" name="ISPIN">     1</i>
    <i type="logical" name="LNONCOLLINEAR"> F  </i>
    <v name="MAGMOM">      1.00000000      1.00000000      1.00000000      1.00000000      1.00000000      1.00000000      1.00000000      1.00000000      1.00000000      1.00000000      1.00000000      1.00000000      1.00000000      1.00000000      1.00000000      1.00000000      1.00000000      1.00000000      1.00000000      1.00000000
      1.00000000      1.00000000      1.00000000      1.00000000      1.00000000      1.00000000      1.00000000      1.00000000      1.00000000      1.00000000      1.00000000      1.00000000      1.00000000      1.00000000      1.00000000      1.00000000      1.00000000      1.00000000      1.00000000      1.00000000
      1.00000000      1.00000000      1.00000000      1.00000000      1.00000000      1.00000000      1.00000000      1.00000000      1.00000000      1.00000000      1.00000000      1.00000000      1.00000000      1.00000000      1.00000000      1.00000000      1.00000000      1.00000000      1.00000000      1.00000000
      1.00000000      1.00000000      1.00000000      1.00000000</v>
    <i name="NUPDOWN">     -1.00000000</i>
    <i type="logical" name="LSORBIT"> F  </i>
    <v name="SAXIS">      0.00000000      0.00000000      1.00000000</v>
    <i type="logical" name="LSPIRAL"> F  </i>
    <v name="QSPIRAL">      0.00000000      0.00000000      0.00000000</v>
    <i type="logical" name="LZEROZ"> F  </i>
   </separator>
   <separator name="electronic exchange-correlation" >
    <i type="logical" name="LASPH"> F  </i>
    <i type="logical" name="LMETAGGA"> F  </i>
   </separator>
   <separator name="electronic convergence" >
    <i type="int" name="NELM">    60</i>
    <i type="int" name="NELMDL">    -5</i>
    <i type="int" name="NELMIN">     5</i>
    <i name="ENINI">    341.00000000</i>
    <separator name="electronic convergence detail" >
     <i type="logical" name="LDIAG"> T  </i>
     <i type="logical" name="LSUBROT"> F  </i>
     <i name="WEIMIN">      0.00000000</i>
     <i name="EBREAK">      0.00000000</i>
     <i name="DEPER">      0.30000000</i>
     <i type="int" name="NRMM">     4</i>
     <i name="TIME">      0.40000000</i>
    </separator>
   </separator>
   <separator name="electronic mixer" >
    <i name="AMIX">      0.40000000</i>
    <i name="BMIX">      1.00000000</i>
    <i name="AMIN">      0.10000000</i>
    <i name="AMIX_MAG">      1.60000000</i>
    <i name="BMIX_MAG">      1.00000000</i>
    <separator name="electronic mixer details" >
     <i type="int" name="IMIX">     4</i>
     <i type="logical" name="MIXFIRST"> F  </i>
     <i type="int" name="MAXMIX">   -45</i>
     <i name="WC">    100.00000000</i>
     <i type="int" name="INIMIX">     1</i>
     <i type="int" name="MIXPRE">     1</i>
     <i type="int" name="MREMOVE">     5</i>
    </separator>
   </separator>
   <separator name="electronic dipolcorrection" >
    <i type="logical" name="LDIPOL"> F  </i>
    <i type="logical" name="LMONO"> F  </i>
    <i type="int" name="IDIPOL">     0</i>
    <i name="EPSILON">      1.00000000</i>
    <v name="DIPOL">   -100.00000000   -100.00000000   -100.00000000</v>
    <i name="EFIELD">      0.00000000</i>
   </separator>
  </separator>
  <separator name="grids" >
   <i type="int" name="NGX">    70</i>
   <i type="int" name="NGY">    70</i>
   <i type="int" name="NGZ">    70</i>
   <i type="int" name="NGXF">   140</i>
   <i type="int" name="NGYF">   140</i>
   <i type="int" name="NGZF">   140</i>
   <i type="logical" name="ADDGRID"> T  </i>
  </separator>
  <separator name="ionic" >
   <i type="int" name="NSW">     0</i>
   <i type="int" name="IBRION">    -1</i>
   <i type="int" name="MDALGO">     0</i>
   <i type="int" name="ISIF">     2</i>
   <i name="PSTRESS">      0.00000000</i>
   <i name="EDIFFG">      0.00000010</i>
   <i type="int" name="NFREE">     0</i>
   <i name="POTIM">      0.50000000</i>
   <i name="SMASS">     -3.00000000</i>
   <i name="SCALEE">      1.00000000</i>
  </separator>
  <separator name="ionic md" >
   <i name="TEBEG">      0.00010000</i>
   <i name="TEEND">      0.00010000</i>
   <i type="int" name="NBLOCK">     1</i>
   <i type="int" name="KBLOCK">     1</i>
   <i type="int" name="NPACO">   256</i>
   <i name="APACO">     10.00000000</i>
  </separator>
  <separator name="symmetry" >
   <i type="int" name="ISYM">     2</i>
   <i name="SYMPREC">      0.00001000</i>
  </separator>
  <separator name="dos" >
   <i type="int" name="LORBIT">     0</i>
   <v name="RWIGS">     -1.00000000     -1.00000000</v>
   <i type="int" name="NEDOS">   301</i>
   <i name="EMIN">     10.00000000</i>
   <i name="EMAX">    -10.00000000</i>
   <i name="EFERMI">      0.00000000</i>
  </separator>
  <separator name="writing" >
   <i type="int" name="NWRITE">     2</i>
   <i type="logical" name="LWAVE"> F  </i>
   <i type="logical" name="LDOWNSAMPLE"> F  </i>
   <i type="logical" name="LCHARG"> F  </i>
   <i type="logical" name="LPARD"> F  </i>
   <i type="logical" name="LVTOT"> F  </i>
   <i type="logical" name="LVHAR"> F  </i>
   <i type="logical" name="LELF"> F  </i>
   <i type="logical" name="LOPTICS"> F  </i>
   <v name="STM">      0.00000000      0.00000000      0.00000000      0.00000000      0.00000000      0.00000000      0.00000000</v>
  </separator>
  <separator name="performance" >
   <i type="int" name="NPAR">     8</i>
   <i type="int" name="NSIM">     4</i>
   <i type="int" name="NBLK">    -1</i>
   <i type="logical" name="LPLANE"> T  </i>
   <i type="logical" name="LSCALAPACK"> T  </i>
   <i type="logical" name="LSCAAWARE"> F  </i>
   <i type="logical" name="LSCALU"> F  </i>
   <i type="logical" name="LASYNC"> F  </i>
   <i type="logical" name="LORBITALREAL"> F  </i>
  </separator>
  <separator name="miscellaneous" >
   <i type="int" name="IDIOT">     3</i>
   <i type="int" name="PHON_NSTRUCT">    -1</i>
   <i type="logical" name="LMUSIC"> F  </i>
   <v name="POMASS">     22.99000000     35.45300000</v>
   <v name="DARWINR">      0.00000000      0.00000000</v>
   <v name="DARWINV">      1.00000000      1.00000000</v>
   <i type="logical" name="LCORR"> T  </i>
  </separator>
  <i type="logical" name="GGA_COMPAT"> T  </i>
  <i type="logical" name="LBERRY"> F  </i>
  <i type="int" name="ICORELEVEL">     0</i>
  <i type="logical" name="LDAU"> F  </i>
  <i type="int" name="I_CONSTRAINED_M">     0</i>
  <separator name="electronic exchange-correlation" >
   <i type="string" name="GGA">PS</i>
   <i type="int" name="VOSKOWN">     0</i>
   <i type="logical" name="LHFCALC"> F  </i>
   <i type="string" name="PRECFOCK"></i>
   <i type="logical" name="LSYMGRAD"> F  </i>
   <i type="logical" name="LHFONE"> F  </i>
   <i type="logical" name="LRHFCALC"> F  </i>
   <i type="logical" name="LTHOMAS"> F  </i>
   <i type="logical" name="LMODELHF"> F  </i>
   <i type="logical" name="LFOCKACE"> F  </i>
   <i name="ENCUT4O">     -1.00000000</i>
   <i type="int" name="EXXOEP">     0</i>
   <i type="int" name="FOURORBIT">     0</i>
   <i name="AEXX">      0.00000000</i>
   <i name="HFALPHA">      0.00000000</i>
   <i name="MCALPHA">      0.00000000</i>
   <i name="ALDAX">      1.00000000</i>
   <i name="AGGAX">      1.00000000</i>
   <i name="ALDAC">      1.00000000</i>
   <i name="AGGAC">      1.00000000</i>
   <i type="int" name="NKREDX">     1</i>
   <i type="int" name="NKREDY">     1</i>
   <i type="int" name="NKREDZ">     1</i>
   <i type="logical" name="SHIFTRED"> F  </i>
   <i type="logical" name="ODDONLY"> F  </i>
   <i type="logical" name="EVENONLY"> F  </i>
   <i type="int" name="LMAXFOCK">     0</i>
   <i type="int" name="NMAXFOCKAE">     0</i>
   <i type="logical" name="LFOCKAEDFT"> F  </i>
   <i name="HFSCREEN">      0.00000000</i>
   <i name="HFSCREENC">      0.00000000</i>
   <i type="int" name="NBANDSGWLOW">     0</i>
  </separator>
  <separator name="vdW DFT" >
   <i type="logical" name="LUSE_VDW"> F  </i>
   <i name="Zab_VDW">     -0.84910000</i>
   <i name="PARAM1">      0.12340000</i>
   <i name="PARAM2">      1.00000000</i>
   <i name="PARAM3">      0.00000000</i>
  </separator>
  <separator name="model GW" >
   <i type="int" name="MODEL_GW">     0</i>
   <i name="MODEL_EPS0">     13.18532537</i>
   <i name="MODEL_ALPHA">      1.00000000</i>
  </separator>
  <separator name="linear response parameters" >
   <i type="logical" name="LEPSILON"> F  </i>
   <i type="logical" name="LRPA"> F  </i>
   <i type="logical" name="LNABLA"> F  </i>
   <i type="logical" name="LVEL"> F  </i>
   <i name="CSHIFT">      0.10000000</i>
   <i name="OMEGAMAX">     -1.00000000</i>
   <i name="DEG_THRESHOLD">      0.00200000</i>
   <i name="RTIME">     -0.10000000</i>
   <i name="WPLASMAI">      0.00000000</i>
   <v name="DFIELD">      0.00000000      0.00000000      0.00000000</v>
   <v name="WPLASMA">      0.00000000      0.00000000      0.00000000      0.00000000      0.00000000      0.00000000      0.00000000      0.00000000      0.00000000</v>
  </separator>
  <separator name="orbital magnetization" >
   <i type="logical" name="NUCIND"> F  </i>
   <v name="MAGPOS">      0.00000000      0.00000000      0.00000000</v>
   <i type="logical" name="LNICSALL"> T  </i>
   <i type="logical" name="ORBITALMAG"> F  </i>
   <i type="logical" name="LMAGBLOCH"> F  </i>
   <i type="logical" name="LCHIMAG"> F  </i>
   <i type="logical" name="LGAUGE"> T  </i>
   <i type="int" name="MAGATOM">     0</i>
   <v name="MAGDIPOL">      0.00000000      0.00000000      0.00000000</v>
   <v name="AVECCONST">      0.00000000      0.00000000      0.00000000</v>
  </separator>
  <separator name="response functions" >
   <i type="logical" name="LFINITE_TEMPERATURE"> F  </i>
   <i type="logical" name="LADDER"> F  </i>
   <i type="logical" name="LRPAFORCE"> F  </i>
   <i type="logical" name="LFXC"> F  </i>
   <i type="logical" name="LHARTREE"> T  </i>
   <i type="int" name="IBSE">     0</i>
   <v type="int" name="KPOINT">    -1     0     0     0</v>
   <i type="logical" name="LTCTC"> F  </i>
   <i type="logical" name="LTCTE"> F  </i>
   <i type="logical" name="LTETE"> F  </i>
   <i type="logical" name="LTRIPLET"> F  </i>
   <i type="logical" name="LFXCEPS"> F  </i>
   <i type="logical" name="LFXHEG"> F  </i>
   <i type="int" name="NATURALO">     2</i>
   <i type="logical" name="LHOLEGF"> F  </i>
   <i type="logical" name="L2ORDER"> F  </i>
   <i type="logical" name="LDMP1"> F  </i>
   <i type="logical" name="LMP2LT"> F  </i>
   <i type="logical" name="LSMP2LT"> F  </i>
   <i type="logical" name="LGWLF"> F  </i>
   <i name="ENCUTGW">     -2.00000000</i>
   <i name="ENCUTGWSOFT">     -2.00000000</i>
   <i name="ENCUTLF">     -1.00000000</i>
   <i type="logical" name="LESF_SPLINES"> F  </i>
   <i type="int" name="LMAXMP2">    -1</i>
   <i name="SCISSOR">      0.00000000</i>
   <i type="int" name="NOMEGA">     0</i>
   <i type="int" name="NOMEGAR">     0</i>
   <i type="int" name="NBANDSGW">    -1</i>
   <i type="int" name="NBANDSO">    -1</i>
   <i type="int" name="NBANDSV">    -1</i>
   <i type="int" name="NELMGW">     1</i>
   <i type="int" name="NELMHF">     1</i>
   <i type="int" name="DIM">     3</i>
   <i type="int" name="IESPILON">     4</i>
   <i type="int" name="ANTIRES">     0</i>
   <i name="OMEGAMAX">    -30.00000000</i>
   <i name="OMEGAMIN">    -30.00000000</i>
   <i name="OMEGATL">   -200.00000000</i>
   <i type="int" name="OMEGAGRID">     0</i>
   <i name="CSHIFT">     -0.10000000</i>
   <i type="logical" name="LSELFENERGY"> F  </i>
   <i type="logical" name="LSPECTRAL"> F  </i>
   <i type="logical" name="LSPECTRALGW"> F  </i>
   <i type="logical" name="LSINGLES"> F  </i>
   <i type="logical" name="LFERMIGW"> F  </i>
   <i type="logical" name="ODDONLYGW"> F  </i>
   <i type="logical" name="EVENONLYGW"> F  </i>
   <i type="int" name="NKREDLFX">     1</i>
   <i type="int" name="NKREDLFY">     1</i>
   <i type="int" name="NKREDLFZ">     1</i>
   <i type="int" name="MAXMEM">  2800</i>
   <i type="int" name="TELESCOPE">     0</i>
   <i type="int" name="NTAUPAR">    -1</i>
   <i type="int" name="NOMEGAPAR">    -1</i>
   <i name="DAMP_NEWTON">      0.80000001</i>
   <i name="LAMBDA">      1.00000000</i>
  </separator>
  <separator name="External order field" >
   <i name="OFIELD_KAPPA">      0.00000000</i>
   <v name="OFIELD_K">      0.00000000      0.00000000      0.00000000</v>
   <i name="OFIELD_Q6_NEAR">      0.00000000</i>
   <i name="OFIELD_Q6_FAR">      0.00000000</i>
   <i name="OFIELD_A">      0.00000000</i>
  </separator>
  <separator name="optional k-points parameters" >
   <i type="int" name="KPOINTS_OPT_MODE">     1</i>
   <i type="logical" name="LKPOINTS_OPT"> F  </i>
  </separator>
 </parameters>
 <atominfo>
  <atoms>      64 </atoms>
  <types>       2 </types>
  <array name="atoms" >
   <dimension dim="1">ion</dimension>
   <field type="string">element</field>
   <field type="int">atomtype</field>
   <set>
    <rc><c>Na</c><c>   1</c></rc>
    <rc><c>Na</c><c>   1</c></rc>
    <rc><c>Na</c><c>   1</c></rc>
    <rc><c>Na</c><c>   1</c></rc>
    <rc><c>Na</c><c>   1</c></rc>
    <rc><c>Na</c><c>   1</c></rc>
    <rc><c>Na</c><c>   1</c></rc>
    <rc><c>Na</c><c>   1</c></rc>
    <rc><c>Na</c><c>   1</c></rc>
    <rc><c>Na</c><c>   1</c></rc>
    <rc><c>Na</c><c>   1</c></rc>
    <rc><c>Na</c><c>   1</c></rc>
    <rc><c>Na</c><c>   1</c></rc>
    <rc><c>Na</c><c>   1</c></rc>
    <rc><c>Na</c><c>   1</c></rc>
    <rc><c>Na</c><c>   1</c></rc>
    <rc><c>Na</c><c>   1</c></rc>
    <rc><c>Na</c><c>   1</c></rc>
    <rc><c>Na</c><c>   1</c></rc>
    <rc><c>Na</c><c>   1</c></rc>
    <rc><c>Na</c><c>   1</c></rc>
    <rc><c>Na</c><c>   1</c></rc>
    <rc><c>Na</c><c>   1</c></rc>
    <rc><c>Na</c><c>   1</c></rc>
    <rc><c>Na</c><c>   1</c></rc>
    <rc><c>Na</c><c>   1</c></rc>
    <rc><c>Na</c><c>   1</c></rc>
    <rc><c>Na</c><c>   1</c></rc>
    <rc><c>Na</c><c>   1</c></rc>
    <rc><c>Na</c><c>   1</c></rc>
    <rc><c>Na</c><c>   1</c></rc>
    <rc><c>Na</c><c>   1</c></rc>
    <rc><c>Cl</c><c>   2</c></rc>
    <rc><c>Cl</c><c>   2</c></rc>
    <rc><c>Cl</c><c>   2</c></rc>
    <rc><c>Cl</c><c>   2</c></rc>
    <rc><c>Cl</c><c>   2</c></rc>
    <rc><c>Cl</c><c>   2</c></rc>
    <rc><c>Cl</c><c>   2</c></rc>
    <rc><c>Cl</c><c>   2</c></rc>
    <rc><c>Cl</c><c>   2</c></rc>
    <rc><c>Cl</c><c>   2</c></rc>
    <rc><c>Cl</c><c>   2</c></rc>
    <rc><c>Cl</c><c>   2</c></rc>
    <rc><c>Cl</c><c>   2</c></rc>
    <rc><c>Cl</c><c>   2</c></rc>
    <rc><c>Cl</c><c>   2</c></rc>
    <rc><c>Cl</c><c>   2</c></rc>
    <rc><c>Cl</c><c>   2</c></rc>
    <rc><c>Cl</c><c>   2</c></rc>
    <rc><c>Cl</c><c>   2</c></rc>
    <rc><c>Cl</c><c>   2</c></rc>
    <rc><c>Cl</c><c>   2</c></rc>
    <rc><c>Cl</c><c>   2</c></rc>
    <rc><c>Cl</c><c>   2</c></rc>
    <rc><c>Cl</c><c>   2</c></rc>
    <rc><c>Cl</c><c>   2</c></rc>
    <rc><c>Cl</c><c>   2</c></rc>
    <rc><c>Cl</c><c>   2</c></rc>
    <rc><c>Cl</c><c>   2</c></rc>
    <rc><c>Cl</c><c>   2</c></rc>
    <rc><c>Cl</c><c>   2</c></rc>
    <rc><c>Cl</c><c>   2</c></rc>
    <rc><c>Cl</c><c>   2</c></rc>
   </set>
  </array>
  <array name="atomtypes" >
   <dimension dim="1">type</dimension>
   <field type="int">atomspertype</field>
   <field type="string">element</field>
   <field>mass</field>
   <field>valence</field>
   <field type="string">pseudopotential</field>
   <set>
    <rc><c>  32</c><c>Na</c><c>     22.99000000</c><c>      7.00000000</c><c>  PAW_PBE Na_pv 19Sep2006               </c></rc>
    <rc><c>  32</c><c>Cl</c><c>     35.45300000</c><c>      7.00000000</c><c>  PAW_PBE Cl 06Sep2000                  </c></rc>
   </set>
  </array>
 </atominfo>
 <structure name="initialpos" >
  <crystal>
   <varray name="basis" >
    <v>      11.20400236       0.00000000       0.00000000 </v>
    <v>       0.00000000      11.20400236       0.00000000 </v>
    <v>       0.00000000       0.00000000      11.20400236 </v>
   </varray>
   <i name="volume">   1406.43470641 </i>
   <varray name="rec_basis" >
    <v>       0.08925382       0.00000000       0.00000000 </v>
    <v>       0.00000000       0.08925382       0.00000000 </v>
    <v>       0.00000000       0.00000000       0.08925382 </v>
   </varray>
  </crystal>
  <varray name="positions" >
   <v>       0.00000000       0.00000000       0.00000000 </v>
   <v>       0.25000000       0.25000000       0.00000000 </v>
   <v>       0.25000000       0.00000000       0.25000000 </v>
   <v>       0.00000000       0.25000000       0.25000000 </v>
   <v>       0.00000000       0.00000000       0.50000000 </v>
   <v>       0.25000000       0.25000000       0.50000000 </v>
   <v>       0.25000000       0.00000000       0.75000000 </v>
   <v>       0.00000000       0.25000000       0.75000000 </v>
   <v>       0.00000000       0.50000000       0.00000000 </v>
   <v>       0.25000000       0.75000000       0.00000000 </v>
   <v>       0.25000000       0.50000000       0.25000000 </v>
   <v>       0.00000000       0.75000000       0.25000000 </v>
   <v>       0.00000000       0.50000000       0.50000000 </v>
   <v>       0.25000000       0.75000000       0.50000000 </v>
   <v>       0.25000000       0.50000000       0.75000000 </v>
   <v>       0.00000000       0.75000000       0.75000000 </v>
   <v>       0.50000000       0.00000000       0.00000000 </v>
   <v>       0.75000000       0.25000000       0.00000000 </v>
   <v>       0.75000000       0.00000000       0.25000000 </v>
   <v>       0.50000000       0.25000000       0.25000000 </v>
   <v>       0.50000000       0.00000000       0.50000000 </v>
   <v>       0.75000000       0.25000000       0.50000000 </v>
   <v>       0.75000000       0.00000000       0.75000000 </v>
   <v>       0.50000000       0.25000000       0.75000000 </v>
   <v>       0.50000000       0.50000000       0.00000000 </v>
   <v>       0.75000000       0.75000000       0.00000000 </v>
   <v>       0.75000000       0.50000000       0.25000000 </v>
   <v>       0.50000000       0.75000000       0.25000000 </v>
   <v>       0.50000000       0.50000000       0.50000000 </v>
   <v>       0.75000000       0.75000000       0.50000000 </v>
   <v>       0.75000000       0.50000000       0.75000000 </v>
   <v>       0.50000000       0.75000000       0.75000000 </v>
   <v>       0.25000000       0.25000000       0.25000000 </v>
   <v>       0.00000000       0.00000000       0.25000000 </v>
   <v>       0.00000000       0.25000000       0.00000000 </v>
   <v>       0.25000000       0.00000000       0.00000000 </v>
   <v>       0.25000000       0.25000000       0.75000000 </v>
   <v>       0.00000000       0.00000000       0.75000000 </v>
   <v>       0.00000000       0.25000000       0.50000000 </v>
   <v>       0.25000000       0.00000000       0.50000000 </v>
   <v>       0.25000000       0.75000000       0.25000000 </v>
   <v>       0.00000000       0.50000000       0.25000000 </v>
   <v>       0.00000000       0.75000000       0.00000000 </v>
   <v>       0.25000000       0.50000000       0.00000000 </v>
   <v>       0.25000000       0.75000000       0.75000000 </v>
   <v>       0.00000000       0.50000000       0.75000000 </v>
   <v>       0.00000000       0.75000000       0.50000000 </v>
   <v>       0.25000000       0.50000000       0.50000000 </v>
   <v>       0.75000000       0.25000000       0.25000000 </v>
   <v>       0.50000000       0.00000000       0.25000000 </v>
   <v>       0.50000000       0.25000000       0.00000000 </v>
   <v>       0.75000000       0.00000000       0.00000000 </v>
   <v>       0.75000000       0.25000000       0.75000000 </v>
   <v>       0.50000000       0.00000000       0.75000000 </v>
   <v>       0.50000000       0.25000000       0.50000000 </v>
   <v>       0.75000000       0.00000000       0.50000000 </v>
   <v>       0.75000000       0.75000000       0.25000000 </v>
   <v>       0.50000000       0.50000000       0.25000000 </v>
   <v>       0.50000000       0.75000000       0.00000000 </v>
   <v>       0.75000000       0.50000000       0.00000000 </v>
   <v>       0.75000000       0.75000000       0.75000000 </v>
   <v>       0.50000000       0.50000000       0.75000000 </v>
   <v>       0.50000000       0.75000000       0.50000000 </v>
   <v>       0.75000000       0.50000000       0.50000000 </v>
  </varray>
 </structure>
 <calculation>
  <scstep>
   <time name="dav">    3.85    3.86</time>
   <time name="total">    3.96    3.98</time>
   <energy>
    <i name="alphaZ">    751.52672365 </i>
    <i name="ewald"> -22871.45941235 </i>
    <i name="hartreedc">  -8992.13840945 </i>
    <i name="XCdc">   1456.53377852 </i>
    <i name="pawpsdc">  26466.43774078 </i>
    <i name="pawaedc"> -29286.08056155 </i>
    <i name="eentropy">     -0.00445513 </i>
    <i name="bandstr">   -438.28510347 </i>
    <i name="atom">  37532.17875095 </i>
    <i name="e_fr_energy">   4618.70905195 </i>
    <i name="e_wo_entrp">   4618.71350707 </i>
    <i name="e_0_energy">   4618.71127951 </i>
   </energy>
  </scstep>
  <scstep>
   <time name="dav">    3.95    3.96</time>
   <time name="total">    3.95    3.96</time>
   <energy>
    <i name="e_fr_energy">    487.47192069 </i>
    <i name="e_wo_entrp">    487.47192069 </i>
    <i name="e_0_energy">    487.47192069 </i>
   </energy>
  </scstep>
  <scstep>
   <time name="dav">    4.13    4.13</time>
   <time name="total">    4.13    4.13</time>
   <energy>
    <i name="e_fr_energy">   -188.32101751 </i>
    <i name="e_wo_entrp">   -188.32101751 </i>
    <i name="e_0_energy">   -188.32101751 </i>
   </energy>
  </scstep>
  <scstep>
   <time name="dav">    4.11    4.13</time>
   <time name="total">    4.11    4.13</time>
   <energy>
    <i name="e_fr_energy">   -227.32365260 </i>
    <i name="e_wo_entrp">   -227.32365260 </i>
    <i name="e_0_energy">   -227.32365260 </i>
   </energy>
  </scstep>
  <scstep>
   <time name="dav">    4.46    4.48</time>
   <time name="total">    4.78    4.79</time>
   <energy>
    <i name="e_fr_energy">   -228.97908657 </i>
    <i name="e_wo_entrp">   -228.97908657 </i>
    <i name="e_0_energy">   -228.97908657 </i>
   </energy>
  </scstep>
  <scstep>
   <time name="dav">    4.28    4.29</time>
   <time name="total">    4.70    4.71</time>
   <energy>
    <i name="e_fr_energy">   -224.14833233 </i>
    <i name="e_wo_entrp">   -224.14833233 </i>
    <i name="e_0_energy">   -224.14833233 </i>
   </energy>
  </scstep>
  <scstep>
   <time name="dav">    4.47    4.48</time>
   <time name="total">    4.89    4.90</time>
   <energy>
    <i name="e_fr_energy">   -223.77699444 </i>
    <i name="e_wo_entrp">   -223.77699444 </i>
    <i name="e_0_energy">   -223.77699444 </i>
   </energy>
  </scstep>
  <scstep>
   <time name="dav">    3.93    3.93</time>
   <time name="total">    4.35    4.36</time>
   <energy>
    <i name="e_fr_energy">   -223.90287811 </i>
    <i name="e_wo_entrp">   -223.90287811 </i>
    <i name="e_0_energy">   -223.90287811 </i>
   </energy>
  </scstep>
  <scstep>
   <time name="dav">    4.48    4.49</time>
   <time name="total">    4.90    4.91</time>
   <energy>
    <i name="e_fr_energy">   -223.89706936 </i>
    <i name="e_wo_entrp">   -223.89706936 </i>
    <i name="e_0_energy">   -223.89706936 </i>
   </energy>
  </scstep>
  <scstep>
   <time name="dav">    3.93    3.94</time>
   <time name="total">    4.34    4.36</time>
   <energy>
    <i name="e_fr_energy">   -223.90154742 </i>
    <i name="e_wo_entrp">   -223.90154742 </i>
    <i name="e_0_energy">   -223.90154742 </i>
   </energy>
  </scstep>
  <scstep>
   <time name="dav">    4.13    4.14</time>
   <time name="total">    4.54    4.56</time>
   <energy>
    <i name="e_fr_energy">   -223.90113097 </i>
    <i name="e_wo_entrp">   -223.90113097 </i>
    <i name="e_0_energy">   -223.90113097 </i>
   </energy>
  </scstep>
  <scstep>
   <time name="dav">    4.39    4.40</time>
   <time name="total">    4.81    4.82</time>
   <energy>
    <i name="e_fr_energy">   -223.90109375 </i>
    <i name="e_wo_entrp">   -223.90109375 </i>
    <i name="e_0_energy">   -223.90109375 </i>
   </energy>
  </scstep>
  <scstep>
   <time name="dav">    3.84    3.85</time>
   <time name="total">    4.26    4.27</time>
   <energy>
    <i name="e_fr_energy">   -223.90110553 </i>
    <i name="e_wo_entrp">   -223.90110553 </i>
    <i name="e_0_energy">   -223.90110553 </i>
   </energy>
  </scstep>
  <scstep>
   <time name="dav">    4.29    4.30</time>
   <time name="total">    4.70    4.72</time>
   <energy>
    <i name="e_fr_energy">   -223.90110516 </i>
    <i name="e_wo_entrp">   -223.90110516 </i>
    <i name="e_0_energy">   -223.90110516 </i>
   </energy>
  </scstep>
  <scstep>
   <time name="dav">    3.44    3.44</time>
   <time name="total">    3.86    3.87</time>
   <energy>
    <i name="e_fr_energy">   -223.90110620 </i>
    <i name="e_wo_entrp">   -223.90110620 </i>
    <i name="e_0_energy">   -223.90110620 </i>
   </energy>
  </scstep>
  <scstep>
   <time name="dav">    3.00    3.00</time>
   <time name="total">    3.42    3.43</time>
   <energy>
    <i name="e_fr_energy">   -223.90110611 </i>
    <i name="e_wo_entrp">   -223.90110611 </i>
    <i name="e_0_energy">   -223.90110611 </i>
   </energy>
  </scstep>
  <scstep>
   <time name="dav">    2.65    2.65</time>
   <time name="total">    3.07    3.08</time>
   <energy>
    <i name="e_fr_energy">   -223.90110606 </i>
    <i name="e_wo_entrp">   -223.90110606 </i>
    <i name="e_0_energy">   -223.90110606 </i>
   </energy>
  </scstep>
  <scstep>
   <time name="dav">    2.62    2.63</time>
   <time name="total">    2.73    2.74</time>
   <energy>
    <i name="alphaZ">    751.52672365 </i>
    <i name="ewald"> -22871.45941235 </i>
    <i name="hartreedc">  -9078.04889198 </i>
    <i name="XCdc">   1472.51240967 </i>
    <i name="pawpsdc">  29499.70265429 </i>
    <i name="pawaedc"> -32319.07711430 </i>
    <i name="eentropy">     -0.00000000 </i>
    <i name="bandstr">  -5211.23622598 </i>
    <i name="atom">  37532.17875095 </i>
    <i name="e_fr_energy">   -223.90110606 </i>
    <i name="e_wo_entrp">   -223.90110606 </i>
    <i name="e_0_energy">   -223.90110606 </i>
   </energy>
  </scstep>
  <structure>
   <crystal>
    <varray name="basis" >
     <v>      11.20400236       0.00000000       0.00000000 </v>
     <v>       0.00000000      11.20400236       0.00000000 </v>
     <v>       0.00000000       0.00000000      11.20400236 </v>
    </varray>
    <i name="volume">   1406.43470641 </i>
    <varray name="rec_basis" >
     <v>       0.08925382       0.00000000       0.00000000 </v>
     <v>       0.00000000       0.08925382       0.00000000 </v>
     <v>       0.00000000       0.00000000       0.08925382 </v>
    </varray>
   </crystal>
   <varray name="positions" >
    <v>       0.00000000       0.00000000       0.00000000 </v>
    <v>       0.25000000       0.25000000       0.00000000 </v>
    <v>       0.25000000       0.00000000       0.25000000 </v>
    <v>       0.00000000       0.25000000       0.25000000 </v>
    <v>       0.00000000       0.00000000       0.50000000 </v>
    <v>       0.25000000       0.25000000       0.50000000 </v>
    <v>       0.25000000       0.00000000       0.75000000 </v>
    <v>       0.00000000       0.25000000       0.75000000 </v>
    <v>       0.00000000       0.50000000       0.00000000 </v>
    <v>       0.25000000       0.75000000       0.00000000 </v>
    <v>       0.25000000       0.50000000       0.25000000 </v>
    <v>       0.00000000       0.75000000       0.25000000 </v>
    <v>       0.00000000       0.50000000       0.50000000 </v>
    <v>       0.25000000       0.75000000       0.50000000 </v>
    <v>       0.25000000       0.50000000       0.75000000 </v>
    <v>       0.00000000       0.75000000       0.75000000 </v>
    <v>       0.50000000       0.00000000       0.00000000 </v>
    <v>       0.75000000       0.25000000       0.00000000 </v>
    <v>       0.75000000       0.00000000       0.25000000 </v>
    <v>       0.50000000       0.25000000       0.25000000 </v>
    <v>       0.50000000       0.00000000       0.50000000 </v>
    <v>       0.75000000       0.25000000       0.50000000 </v>
    <v>       0.75000000       0.00000000       0.75000000 </v>
    <v>       0.50000000       0.25000000       0.75000000 </v>
    <v>       0.50000000       0.50000000       0.00000000 </v>
    <v>       0.75000000       0.75000000       0.00000000 </v>
    <v>       0.75000000       0.50000000       0.25000000 </v>
    <v>       0.50000000       0.75000000       0.25000000 </v>
    <v>       0.50000000       0.50000000       0.50000000 </v>
    <v>       0.75000000       0.75000000       0.50000000 </v>
    <v>       0.75000000       0.50000000       0.75000000 </v>
    <v>       0.50000000       0.75000000       0.75000000 </v>
    <v>       0.25000000       0.25000000       0.25000000 </v>
    <v>       0.00000000       0.00000000       0.25000000 </v>
    <v>       0.00000000       0.25000000       0.00000000 </v>
    <v>       0.25000000       0.00000000       0.00000000 </v>
    <v>       0.25000000       0.25000000       0.75000000 </v>
    <v>       0.00000000       0.00000000       0.75000000 </v>
    <v>       0.00000000       0.25000000       0.50000000 </v>
    <v>       0.25000000       0.00000000       0.50000000 </v>
    <v>       0.25000000       0.75000000       0.25000000 </v>
    <v>       0.00000000       0.50000000       0.25000000 </v>
    <v>       0.00000000       0.75000000       0.00000000 </v>
    <v>       0.25000000       0.50000000       0.00000000 </v>
    <v>       0.25000000       0.75000000       0.75000000 </v>
    <v>       0.00000000       0.50000000       0.75000000 </v>
    <v>       0.00000000       0.75000000       0.50000000 </v>
    <v>       0.25000000       0.50000000       0.50000000 </v>
    <v>       0.75000000       0.25000000       0.25000000 </v>
    <v>       0.50000000       0.00000000       0.25000000 </v>
    <v>       0.50000000       0.25000000       0.00000000 </v>
    <v>       0.75000000       0.00000000       0.00000000 </v>
    <v>       0.75000000       0.25000000       0.75000000 </v>
    <v>       0.50000000       0.00000000       0.75000000 </v>
    <v>       0.50000000       0.25000000       0.50000000 </v>
    <v>       0.75000000       0.00000000       0.50000000 </v>
    <v>       0.75000000       0.75000000       0.25000000 </v>
    <v>       0.50000000       0.50000000       0.25000000 </v>
    <v>       0.50000000       0.75000000       0.00000000 </v>
    <v>       0.75000000       0.50000000       0.00000000 </v>
    <v>       0.75000000       0.75000000       0.75000000 </v>
    <v>       0.50000000       0.50000000       0.75000000 </v>
    <v>       0.50000000       0.75000000       0.50000000 </v>
    <v>       0.75000000       0.50000000       0.50000000 </v>
   </varray>
  </structure>
  <varray name="forces" >
   <v>      -0.00000000      -0.00000000      -0.00000000 </v>
   <v>       0.00000000      -0.00000000       0.00000000 </v>
   <v>      -0.00000000      -0.00000000      -0.00000000 </v>
   <v>      -0.00000000      -0.00000000      -0.00000000 </v>
   <v>       0.00000000      -0.00000000      -0.00000000 </v>
   <v>      -0.00000000      -0.00000000      -0.00000000 </v>
   <v>      -0.00000000       0.00000000      -0.00000000 </v>
   <v>       0.00000000      -0.00000000       0.00000000 </v>
   <v>       0.00000000       0.00000000       0.00000000 </v>
   <v>       0.00000000       0.00000000       0.00000000 </v>
   <v>      -0.00000000       0.00000000       0.00000000 </v>
   <v>       0.00000000       0.00000000       0.00000000 </v>
   <v>      -0.00000000      -0.00000000      -0.00000000 </v>
   <v>      -0.00000000       0.00000000      -0.00000000 </v>
   <v>      -0.00000000      -0.00000000       0.00000000 </v>
   <v>       0.00000000       0.00000000      -0.00000000 </v>
   <v>      -0.00000000      -0.00000000       0.00000000 </v>
   <v>       0.00000000      -0.00000000       0.00000000 </v>
   <v>       0.00000000       0.00000000       0.00000000 </v>
   <v>      -0.00000000      -0.00000000       0.00000000 </v>
   <v>       0.00000000      -0.00000000      -0.00000000 </v>
   <v>      -0.00000000      -0.00000000       0.00000000 </v>
   <v>      -0.00000000      -0.00000000       0.00000000 </v>
   <v>      -0.00000000       0.00000000      -0.00000000 </v>
   <v>      -0.00000000       0.00000000      -0.00000000 </v>
   <v>       0.00000000      -0.00000000       0.00000000 </v>
   <v>       0.00000000      -0.00000000      -0.00000000 </v>
   <v>       0.00000000       0.00000000      -0.00000000 </v>
   <v>      -0.00000000       0.00000000       0.00000000 </v>
   <v>      -0.00000000       0.00000000      -0.00000000 </v>
   <v>       0.00000000       0.00000000      -0.00000000 </v>
   <v>      -0.00000000      -0.00000000       0.00000000 </v>
   <v>       0.00000000       0.00000000      -0.00000000 </v>
   <v>      -0.00000000       0.00000000       0.00000000 </v>
   <v>       0.00000000      -0.00000000       0.00000000 </v>
   <v>       0.00000000      -0.00000000      -0.00000000 </v>
   <v>       0.00000000       0.00000000       0.00000000 </v>
   <v>       0.00000000      -0.00000000      -0.00000000 </v>
   <v>       0.00000000       0.00000000      -0.00000000 </v>
   <v>      -0.00000000      -0.00000000       0.00000000 </v>
   <v>      -0.00000000       0.00000000       0.00000000 </v>
   <v>      -0.00000000       0.00000000       0.00000000 </v>
   <v>      -0.00000000      -0.00000000       0.00000000 </v>
   <v>       0.00000000       0.00000000      -0.00000000 </v>
   <v>       0.00000000       0.00000000       0.00000000 </v>
   <v>      -0.00000000       0.00000000      -0.00000000 </v>
   <v>      -0.00000000       0.00000000      -0.00000000 </v>
   <v>       0.00000000       0.00000000      -0.00000000 </v>
   <v>       0.00000000       0.00000000      -0.00000000 </v>
   <v>       0.00000000      -0.00000000      -0.00000000 </v>
   <v>      -0.00000000       0.00000000       0.00000000 </v>
   <v>      -0.00000000      -0.00000000      -0.00000000 </v>
   <v>      -0.00000000       0.00000000      -0.00000000 </v>
   <v>      -0.00000000      -0.00000000       0.00000000 </v>
   <v>      -0.00000000      -0.00000000       0.00000000 </v>
   <v>      -0.00000000       0.00000000       0.00000000 </v>
   <v>      -0.00000000      -0.00000000       0.00000000 </v>
   <v>      -0.00000000       0.00000000      -0.00000000 </v>
   <v>      -0.00000000       0.00000000      -0.00000000 </v>
   <v>      -0.00000000       0.00000000       0.00000000 </v>
   <v>      -0.00000000      -0.00000000      -0.00000000 </v>
   <v>      -0.00000000       0.00000000      -0.00000000 </v>
   <v>       0.00000000       0.00000000      -0.00000000 </v>
   <v>      -0.00000000       0.00000000       0.00000000 </v>
  </varray>
  <varray name="stress" >
   <v>      -0.36466420       0.00000000      -0.00000000 </v>
   <v>      -0.00000000      -0.36466420      -0.00000000 </v>
   <v>       0.00000000      -0.00000000      -0.36466420 </v>
  </varray>
  <energy>
   <i name="e_fr_energy">   -223.90110606 </i>
   <i name="e_wo_entrp">   -223.90110606 </i>
   <i name="e_0_energy">   -223.90110606 </i>
  </energy>
  <time name="totalsc">   80.99   81.25</time>
  <eigenvalues>
   <array>
    <dimension dim="1">band</dimension>
    <dimension dim="2">kpoint</dimension>
    <dimension dim="3">spin</dimension>
    <field>eigene</field>
    <field>occ</field>
    <set>
     <set comment="spin 1">
      <set comment="kpoint 1">
       <r>  -21.3034    1.0000 </r>
       <r>  -21.3034    1.0000 </r>
       <r>  -21.3034    1.0000 </r>
       <r>  -21.3034    1.0000 </r>
       <r>  -21.2928    1.0000 </r>
       <r>  -21.2928    1.0000 </r>
       <r>  -21.2928    1.0000 </r>
       <r>  -21.2928    1.0000 </r>
       <r>  -21.2928    1.0000 </r>
       <r>  -21.2928    1.0000 </r>
       <r>  -21.2928    1.0000 </r>
       <r>  -21.2928    1.0000 </r>
       <r>  -21.2928    1.0000 </r>
       <r>  -21.2928    1.0000 </r>
       <r>  -21.2928    1.0000 </r>
       <r>  -21.2928    1.0000 </r>
       <r>  -21.2926    1.0000 </r>
       <r>  -21.2926    1.0000 </r>
       <r>  -21.2926    1.0000 </r>
       <r>  -21.2855    1.0000 </r>
       <r>  -21.2855    1.0000 </r>
       <r>  -21.2855    1.0000 </r>
       <r>  -21.2855    1.0000 </r>
       <r>  -21.2855    1.0000 </r>
       <r>  -21.2855    1.0000 </r>
       <r>  -21.2855    1.0000 </r>
       <r>  -21.2855    1.0000 </r>
       <r>  -21.2855    1.0000 </r>
       <r>  -21.2855    1.0000 </r>
       <r>  -21.2855    1.0000 </r>
       <r>  -21.2855    1.0000 </r>
       <r>  -21.2836    1.0000 </r>
       <r>  -21.2836    1.0000 </r>
       <r>  -21.2836    1.0000 </r>
       <r>  -21.2836    1.0000 </r>
       <r>  -21.2836    1.0000 </r>
       <r>  -21.2836    1.0000 </r>
       <r>  -21.2811    1.0000 </r>
       <r>  -21.2811    1.0000 </r>
       <r>  -21.2811    1.0000 </r>
       <r>  -21.2811    1.0000 </r>
       <r>  -21.2811    1.0000 </r>
       <r>  -21.2811    1.0000 </r>
       <r>  -21.2798    1.0000 </r>
       <r>  -21.2798    1.0000 </r>
       <r>  -21.2798    1.0000 </r>
       <r>  -21.2798    1.0000 </r>
       <r>  -21.2798    1.0000 </r>
       <r>  -21.2798    1.0000 </r>
       <r>  -21.2798    1.0000 </r>
       <r>  -21.2798    1.0000 </r>
       <r>  -21.2798    1.0000 </r>
       <r>  -21.2798    1.0000 </r>
       <r>  -21.2798    1.0000 </r>
       <r>  -21.2798    1.0000 </r>
       <r>  -21.2786    1.0000 </r>
       <r>  -21.2786    1.0000 </r>
       <r>  -21.2786    1.0000 </r>
       <r>  -21.2786    1.0000 </r>
       <r>  -21.2786    1.0000 </r>
       <r>  -21.2786    1.0000 </r>
       <r>  -21.2741    1.0000 </r>
       <r>  -21.2741    1.0000 </r>
       <r>  -21.2741    1.0000 </r>
       <r>  -21.2741    1.0000 </r>
       <r>  -21.2741    1.0000 </r>
       <r>  -21.2741    1.0000 </r>
       <r>  -21.2741    1.0000 </r>
       <r>  -21.2741    1.0000 </r>
       <r>  -21.2741    1.0000 </r>
       <r>  -21.2741    1.0000 </r>
       <r>  -21.2741    1.0000 </r>
       <r>  -21.2741    1.0000 </r>
       <r>  -21.2717    1.0000 </r>
       <r>  -21.2717    1.0000 </r>
       <r>  -21.2717    1.0000 </r>
       <r>  -21.2717    1.0000 </r>
       <r>  -21.2717    1.0000 </r>
       <r>  -21.2717    1.0000 </r>
       <r>  -21.2717    1.0000 </r>
       <r>  -21.2717    1.0000 </r>
       <r>  -21.2717    1.0000 </r>
       <r>  -21.2717    1.0000 </r>
       <r>  -21.2717    1.0000 </r>
       <r>  -21.2717    1.0000 </r>
       <r>  -21.2717    1.0000 </r>
       <r>  -21.2717    1.0000 </r>
       <r>  -21.2717    1.0000 </r>
       <r>  -21.2717    1.0000 </r>
       <r>  -21.2717    1.0000 </r>
       <r>  -21.2717    1.0000 </r>
       <r>  -21.2717    1.0000 </r>
       <r>  -21.2717    1.0000 </r>
       <r>  -21.2693    1.0000 </r>
       <r>  -21.2693    1.0000 </r>
       <r>  -21.2693    1.0000 </r>
       <r>  -13.3579    1.0000 </r>
       <r>  -13.1373    1.0000 </r>
       <r>  -13.1373    1.0000 </r>
       <r>  -13.1373    1.0000 </r>
       <r>  -13.1373    1.0000 </r>
       <r>  -13.1373    1.0000 </r>
       <r>  -13.1373    1.0000 </r>
       <r>  -13.0112    1.0000 </r>
       <r>  -13.0112    1.0000 </r>
       <r>  -13.0112    1.0000 </r>
       <r>  -13.0112    1.0000 </r>
       <r>  -13.0112    1.0000 </r>
       <r>  -13.0112    1.0000 </r>
       <r>  -13.0112    1.0000 </r>
       <r>  -13.0112    1.0000 </r>
       <r>  -13.0112    1.0000 </r>
       <r>  -13.0112    1.0000 </r>
       <r>  -13.0112    1.0000 </r>
       <r>  -13.0112    1.0000 </r>
       <r>  -12.9900    1.0000 </r>
       <r>  -12.9900    1.0000 </r>
       <r>  -12.9900    1.0000 </r>
       <r>  -12.9900    1.0000 </r>
       <r>  -12.9408    1.0000 </r>
       <r>  -12.9408    1.0000 </r>
       <r>  -12.9408    1.0000 </r>
       <r>  -12.9215    1.0000 </r>
       <r>  -12.9215    1.0000 </r>
       <r>  -12.9215    1.0000 </r>
       <r>  -12.9215    1.0000 </r>
       <r>  -12.9215    1.0000 </r>
       <r>  -12.9215    1.0000 </r>
       <r>   -2.6999    1.0000 </r>
       <r>   -2.6999    1.0000 </r>
       <r>   -2.6999    1.0000 </r>
       <r>   -2.6999    1.0000 </r>
       <r>   -2.4239    1.0000 </r>
       <r>   -2.4239    1.0000 </r>
       <r>   -2.4239    1.0000 </r>
       <r>   -2.2042    1.0000 </r>
       <r>   -2.2042    1.0000 </r>
       <r>   -2.2042    1.0000 </r>
       <r>   -2.2042    1.0000 </r>
       <r>   -2.2042    1.0000 </r>
       <r>   -2.2042    1.0000 </r>
       <r>   -2.2042    1.0000 </r>
       <r>   -2.2042    1.0000 </r>
       <r>   -2.2042    1.0000 </r>
       <r>   -2.2042    1.0000 </r>
       <r>   -2.2042    1.0000 </r>
       <r>   -2.2042    1.0000 </r>
       <r>   -1.9246    1.0000 </r>
       <r>   -1.9246    1.0000 </r>
       <r>   -1.9246    1.0000 </r>
       <r>   -1.9246    1.0000 </r>
       <r>   -1.9246    1.0000 </r>
       <r>   -1.9246    1.0000 </r>
       <r>   -1.9246    1.0000 </r>
       <r>   -1.9246    1.0000 </r>
       <r>   -1.9246    1.0000 </r>
       <r>   -1.9246    1.0000 </r>
       <r>   -1.9246    1.0000 </r>
       <r>   -1.9246    1.0000 </r>
       <r>   -1.7966    1.0000 </r>
       <r>   -1.7966    1.0000 </r>
       <r>   -1.7966    1.0000 </r>
       <r>   -1.7966    1.0000 </r>
       <r>   -1.7966    1.0000 </r>
       <r>   -1.7966    1.0000 </r>
       <r>   -1.5053    1.0000 </r>
       <r>   -1.5053    1.0000 </r>
       <r>   -1.5053    1.0000 </r>
       <r>   -1.5053    1.0000 </r>
       <r>   -1.5053    1.0000 </r>
       <r>   -1.5053    1.0000 </r>
       <r>   -1.5053    1.0000 </r>
       <r>   -1.5053    1.0000 </r>
       <r>   -1.5053    1.0000 </r>
       <r>   -1.5053    1.0000 </r>
       <r>   -1.5053    1.0000 </r>
       <r>   -1.5053    1.0000 </r>
       <r>   -1.4629    1.0000 </r>
       <r>   -1.4629    1.0000 </r>
       <r>   -1.4629    1.0000 </r>
       <r>   -1.4629    1.0000 </r>
       <r>   -1.4629    1.0000 </r>
       <r>   -1.4629    1.0000 </r>
       <r>   -1.2947    1.0000 </r>
       <r>   -1.2947    1.0000 </r>
       <r>   -1.2947    1.0000 </r>
       <r>   -1.2947    1.0000 </r>
       <r>   -1.2947    1.0000 </r>
       <r>   -1.2947    1.0000 </r>
       <r>   -1.0007    1.0000 </r>
       <r>   -1.0007    1.0000 </r>
       <r>   -1.0007    1.0000 </r>
       <r>   -1.0007    1.0000 </r>
       <r>   -1.0007    1.0000 </r>
       <r>   -1.0007    1.0000 </r>
       <r>   -1.0007    1.0000 </r>
       <r>   -1.0007    1.0000 </r>
       <r>   -1.0007    1.0000 </r>
       <r>   -1.0007    1.0000 </r>
       <r>   -1.0007    1.0000 </r>
       <r>   -1.0007    1.0000 </r>
       <r>   -0.9479    1.0000 </r>
       <r>   -0.9479    1.0000 </r>
       <r>   -0.9479    1.0000 </r>
       <r>   -0.9479    1.0000 </r>
       <r>   -0.9479    1.0000 </r>
       <r>   -0.9479    1.0000 </r>
       <r>   -0.9479    1.0000 </r>
       <r>   -0.9479    1.0000 </r>
       <r>   -0.9479    1.0000 </r>
       <r>   -0.9479    1.0000 </r>
       <r>   -0.9479    1.0000 </r>
       <r>   -0.9479    1.0000 </r>
       <r>   -0.9458    1.0000 </r>
       <r>   -0.9458    1.0000 </r>
       <r>   -0.9458    1.0000 </r>
       <r>   -0.9458    1.0000 </r>
       <r>   -0.9458    1.0000 </r>
       <r>   -0.9458    1.0000 </r>
       <r>   -0.9458    1.0000 </r>
       <r>   -0.9458    1.0000 </r>
       <r>   -0.6650    1.0000 </r>
       <r>   -0.6650    1.0000 </r>
       <r>   -0.6650    1.0000 </r>
       <r>    4.3403    0.0000 </r>
       <r>    6.3682    0.0000 </r>
       <r>    6.3682    0.0000 </r>
       <r>    6.3682    0.0000 </r>
       <r>    6.3682    0.0000 </r>
       <r>    6.3682    0.0000 </r>
       <r>    6.3682    0.0000 </r>
       <r>    6.4446    0.0000 </r>
       <r>    6.4446    0.0000 </r>
       <r>    6.4446    0.0000 </r>
       <r>    6.4446    0.0000 </r>
       <r>    6.8280    0.0000 </r>
       <r>    6.8280    0.0000 </r>
       <r>    6.8280    0.0000 </r>
       <r>    7.2069    0.0000 </r>
       <r>    7.2069    0.0000 </r>
       <r>    7.2069    0.0000 </r>
       <r>    7.4642    0.0000 </r>
       <r>    7.4642    0.0000 </r>
       <r>    7.4642    0.0000 </r>
       <r>    7.4642    0.0000 </r>
       <r>    7.4642    0.0000 </r>
       <r>    7.4642    0.0000 </r>
       <r>    7.4642    0.0000 </r>
       <r>    7.4642    0.0000 </r>
       <r>    7.4642    0.0000 </r>
       <r>    7.4642    0.0000 </r>
       <r>    7.4642    0.0000 </r>
       <r>    7.4642    0.0000 </r>
       <r>    8.1684    0.0000 </r>
       <r>    8.1684    0.0000 </r>
       <r>    8.1684    0.0000 </r>
       <r>    8.1684    0.0000 </r>
       <r>    8.1684    0.0000 </r>
       <r>    8.1684    0.0000 </r>
       <r>    8.2796    0.0000 </r>
       <r>    8.2796    0.0000 </r>
       <r>    8.2796    0.0000 </r>
       <r>    8.2796    0.0000 </r>
       <r>    8.2796    0.0000 </r>
       <r>    8.2796    0.0000 </r>
       <r>    8.9020    0.0000 </r>
       <r>    8.9031    0.0000 </r>
       <r>    8.9049    0.0000 </r>
       <r>    8.9061    0.0000 </r>
       <r>    8.9082    0.0000 </r>
       <r>    8.9129    0.0000 </r>
       <r>    8.9146    0.0000 </r>
      </set>
      <set comment="kpoint 2">
       <r>  -21.2990    1.0000 </r>
       <r>  -21.2990    1.0000 </r>
       <r>  -21.2990    1.0000 </r>
       <r>  -21.2990    1.0000 </r>
       <r>  -21.2990    1.0000 </r>
       <r>  -21.2990    1.0000 </r>
       <r>  -21.2990    1.0000 </r>
       <r>  -21.2990    1.0000 </r>
       <r>  -21.2911    1.0000 </r>
       <r>  -21.2911    1.0000 </r>
       <r>  -21.2911    1.0000 </r>
       <r>  -21.2911    1.0000 </r>
       <r>  -21.2911    1.0000 </r>
       <r>  -21.2911    1.0000 </r>
       <r>  -21.2911    1.0000 </r>
       <r>  -21.2911    1.0000 </r>
       <r>  -21.2905    1.0000 </r>
       <r>  -21.2905    1.0000 </r>
       <r>  -21.2905    1.0000 </r>
       <r>  -21.2905    1.0000 </r>
       <r>  -21.2905    1.0000 </r>
       <r>  -21.2905    1.0000 </r>
       <r>  -21.2881    1.0000 </r>
       <r>  -21.2881    1.0000 </r>
       <r>  -21.2881    1.0000 </r>
       <r>  -21.2881    1.0000 </r>
       <r>  -21.2881    1.0000 </r>
       <r>  -21.2881    1.0000 </r>
       <r>  -21.2881    1.0000 </r>
       <r>  -21.2881    1.0000 </r>
       <r>  -21.2839    1.0000 </r>
       <r>  -21.2839    1.0000 </r>
       <r>  -21.2839    1.0000 </r>
       <r>  -21.2839    1.0000 </r>
       <r>  -21.2839    1.0000 </r>
       <r>  -21.2839    1.0000 </r>
       <r>  -21.2839    1.0000 </r>
       <r>  -21.2839    1.0000 </r>
       <r>  -21.2807    1.0000 </r>
       <r>  -21.2807    1.0000 </r>
       <r>  -21.2807    1.0000 </r>
       <r>  -21.2807    1.0000 </r>
       <r>  -21.2800    1.0000 </r>
       <r>  -21.2800    1.0000 </r>
       <r>  -21.2800    1.0000 </r>
       <r>  -21.2800    1.0000 </r>
       <r>  -21.2772    1.0000 </r>
       <r>  -21.2772    1.0000 </r>
       <r>  -21.2772    1.0000 </r>
       <r>  -21.2772    1.0000 </r>
       <r>  -21.2757    1.0000 </r>
       <r>  -21.2757    1.0000 </r>
       <r>  -21.2757    1.0000 </r>
       <r>  -21.2757    1.0000 </r>
       <r>  -21.2757    1.0000 </r>
       <r>  -21.2757    1.0000 </r>
       <r>  -21.2757    1.0000 </r>
       <r>  -21.2757    1.0000 </r>
       <r>  -21.2757    1.0000 </r>
       <r>  -21.2757    1.0000 </r>
       <r>  -21.2757    1.0000 </r>
       <r>  -21.2757    1.0000 </r>
       <r>  -21.2757    1.0000 </r>
       <r>  -21.2757    1.0000 </r>
       <r>  -21.2757    1.0000 </r>
       <r>  -21.2757    1.0000 </r>
       <r>  -21.2748    1.0000 </r>
       <r>  -21.2748    1.0000 </r>
       <r>  -21.2748    1.0000 </r>
       <r>  -21.2748    1.0000 </r>
       <r>  -21.2748    1.0000 </r>
       <r>  -21.2748    1.0000 </r>
       <r>  -21.2748    1.0000 </r>
       <r>  -21.2748    1.0000 </r>
       <r>  -21.2741    1.0000 </r>
       <r>  -21.2741    1.0000 </r>
       <r>  -21.2720    1.0000 </r>
       <r>  -21.2720    1.0000 </r>
       <r>  -21.2720    1.0000 </r>
       <r>  -21.2720    1.0000 </r>
       <r>  -21.2720    1.0000 </r>
       <r>  -21.2720    1.0000 </r>
       <r>  -21.2720    1.0000 </r>
       <r>  -21.2720    1.0000 </r>
       <r>  -21.2717    1.0000 </r>
       <r>  -21.2717    1.0000 </r>
       <r>  -21.2717    1.0000 </r>
       <r>  -21.2717    1.0000 </r>
       <r>  -21.2717    1.0000 </r>
       <r>  -21.2717    1.0000 </r>
       <r>  -21.2717    1.0000 </r>
       <r>  -21.2717    1.0000 </r>
       <r>  -21.2707    1.0000 </r>
       <r>  -21.2707    1.0000 </r>
       <r>  -21.2707    1.0000 </r>
       <r>  -21.2707    1.0000 </r>
       <r>  -13.2911    1.0000 </r>
       <r>  -13.2911    1.0000 </r>
       <r>  -13.0968    1.0000 </r>
       <r>  -13.0968    1.0000 </r>
       <r>  -13.0968    1.0000 </r>
       <r>  -13.0968    1.0000 </r>
       <r>  -13.0968    1.0000 </r>
       <r>  -13.0968    1.0000 </r>
       <r>  -13.0968    1.0000 </r>
       <r>  -13.0968    1.0000 </r>
       <r>  -13.0006    1.0000 </r>
       <r>  -13.0006    1.0000 </r>
       <r>  -13.0006    1.0000 </r>
       <r>  -13.0006    1.0000 </r>
       <r>  -13.0006    1.0000 </r>
       <r>  -13.0006    1.0000 </r>
       <r>  -13.0006    1.0000 </r>
       <r>  -13.0006    1.0000 </r>
       <r>  -12.9955    1.0000 </r>
       <r>  -12.9955    1.0000 </r>
       <r>  -12.9438    1.0000 </r>
       <r>  -12.9438    1.0000 </r>
       <r>  -12.9438    1.0000 </r>
       <r>  -12.9438    1.0000 </r>
       <r>  -12.9438    1.0000 </r>
       <r>  -12.9438    1.0000 </r>
       <r>  -12.9438    1.0000 </r>
       <r>  -12.9438    1.0000 </r>
       <r>  -12.9312    1.0000 </r>
       <r>  -12.9312    1.0000 </r>
       <r>  -12.9312    1.0000 </r>
       <r>  -12.9312    1.0000 </r>
       <r>   -2.5043    1.0000 </r>
       <r>   -2.5043    1.0000 </r>
       <r>   -2.5043    1.0000 </r>
       <r>   -2.5043    1.0000 </r>
       <r>   -2.5043    1.0000 </r>
       <r>   -2.5043    1.0000 </r>
       <r>   -2.5043    1.0000 </r>
       <r>   -2.5043    1.0000 </r>
       <r>   -2.2876    1.0000 </r>
       <r>   -2.2876    1.0000 </r>
       <r>   -2.2876    1.0000 </r>
       <r>   -2.2876    1.0000 </r>
       <r>   -2.2741    1.0000 </r>
       <r>   -2.2741    1.0000 </r>
       <r>   -2.1364    1.0000 </r>
       <r>   -2.1364    1.0000 </r>
       <r>   -2.1364    1.0000 </r>
       <r>   -2.1364    1.0000 </r>
       <r>   -2.1364    1.0000 </r>
       <r>   -2.1364    1.0000 </r>
       <r>   -2.1364    1.0000 </r>
       <r>   -2.1364    1.0000 </r>
       <r>   -1.9854    1.0000 </r>
       <r>   -1.9854    1.0000 </r>
       <r>   -1.9854    1.0000 </r>
       <r>   -1.9854    1.0000 </r>
       <r>   -1.9854    1.0000 </r>
       <r>   -1.9854    1.0000 </r>
       <r>   -1.9854    1.0000 </r>
       <r>   -1.9854    1.0000 </r>
       <r>   -1.8088    1.0000 </r>
       <r>   -1.8088    1.0000 </r>
       <r>   -1.8088    1.0000 </r>
       <r>   -1.8088    1.0000 </r>
       <r>   -1.8088    1.0000 </r>
       <r>   -1.8088    1.0000 </r>
       <r>   -1.8088    1.0000 </r>
       <r>   -1.8088    1.0000 </r>
       <r>   -1.4977    1.0000 </r>
       <r>   -1.4977    1.0000 </r>
       <r>   -1.4977    1.0000 </r>
       <r>   -1.4977    1.0000 </r>
       <r>   -1.3804    1.0000 </r>
       <r>   -1.3804    1.0000 </r>
       <r>   -1.3804    1.0000 </r>
       <r>   -1.3804    1.0000 </r>
       <r>   -1.2122    1.0000 </r>
       <r>   -1.2122    1.0000 </r>
       <r>   -1.2122    1.0000 </r>
       <r>   -1.2122    1.0000 </r>
       <r>   -1.1909    1.0000 </r>
       <r>   -1.1909    1.0000 </r>
       <r>   -1.1909    1.0000 </r>
       <r>   -1.1909    1.0000 </r>
       <r>   -1.1909    1.0000 </r>
       <r>   -1.1909    1.0000 </r>
       <r>   -1.1909    1.0000 </r>
       <r>   -1.1909    1.0000 </r>
       <r>   -1.1742    1.0000 </r>
       <r>   -1.1742    1.0000 </r>
       <r>   -1.1742    1.0000 </r>
       <r>   -1.1742    1.0000 </r>
       <r>   -1.1742    1.0000 </r>
       <r>   -1.1742    1.0000 </r>
       <r>   -1.1742    1.0000 </r>
       <r>   -1.1742    1.0000 </r>
       <r>   -1.1597    1.0000 </r>
       <r>   -1.1597    1.0000 </r>
       <r>   -1.1597    1.0000 </r>
       <r>   -1.1597    1.0000 </r>
       <r>   -1.1597    1.0000 </r>
       <r>   -1.1597    1.0000 </r>
       <r>   -1.1597    1.0000 </r>
       <r>   -1.1597    1.0000 </r>
       <r>   -1.0833    1.0000 </r>
       <r>   -1.0833    1.0000 </r>
       <r>   -0.9469    1.0000 </r>
       <r>   -0.9469    1.0000 </r>
       <r>   -0.9469    1.0000 </r>
       <r>   -0.9469    1.0000 </r>
       <r>   -0.9469    1.0000 </r>
       <r>   -0.9469    1.0000 </r>
       <r>   -0.9469    1.0000 </r>
       <r>   -0.9469    1.0000 </r>
       <r>   -0.9325    1.0000 </r>
       <r>   -0.9325    1.0000 </r>
       <r>   -0.9325    1.0000 </r>
       <r>   -0.9325    1.0000 </r>
       <r>   -0.9325    1.0000 </r>
       <r>   -0.9325    1.0000 </r>
       <r>   -0.9325    1.0000 </r>
       <r>   -0.9325    1.0000 </r>
       <r>   -0.7684    1.0000 </r>
       <r>   -0.7684    1.0000 </r>
       <r>   -0.7684    1.0000 </r>
       <r>   -0.7684    1.0000 </r>
       <r>    5.0224    0.0000 </r>
       <r>    5.0224    0.0000 </r>
       <r>    6.7184    0.0000 </r>
       <r>    6.7184    0.0000 </r>
       <r>    6.7184    0.0000 </r>
       <r>    6.7184    0.0000 </r>
       <r>    6.7184    0.0000 </r>
       <r>    6.7184    0.0000 </r>
       <r>    6.7184    0.0000 </r>
       <r>    6.7184    0.0000 </r>
       <r>    6.8432    0.0000 </r>
       <r>    6.8432    0.0000 </r>
       <r>    6.8432    0.0000 </r>
       <r>    6.8432    0.0000 </r>
       <r>    6.8432    0.0000 </r>
       <r>    6.8432    0.0000 </r>
       <r>    6.8432    0.0000 </r>
       <r>    6.8432    0.0000 </r>
       <r>    6.9711    0.0000 </r>
       <r>    6.9711    0.0000 </r>
       <r>    7.3626    0.0000 </r>
       <r>    7.3626    0.0000 </r>
       <r>    7.3626    0.0000 </r>
       <r>    7.3626    0.0000 </r>
       <r>    7.4803    0.0000 </r>
       <r>    7.4803    0.0000 </r>
       <r>    7.7146    0.0000 </r>
       <r>    7.7146    0.0000 </r>
       <r>    7.7146    0.0000 </r>
       <r>    7.7146    0.0000 </r>
       <r>    8.2660    0.0000 </r>
       <r>    8.2660    0.0000 </r>
       <r>    8.2660    0.0000 </r>
       <r>    8.2660    0.0000 </r>
       <r>    8.2660    0.0000 </r>
       <r>    8.2660    0.0000 </r>
       <r>    8.2660    0.0000 </r>
       <r>    8.2660    0.0000 </r>
       <r>    8.5383    0.0000 </r>
       <r>    8.5383    0.0000 </r>
       <r>    8.5384    0.0000 </r>
       <r>    8.5385    0.0000 </r>
       <r>    8.5386    0.0000 </r>
       <r>    8.5386    0.0000 </r>
       <r>    8.5387    0.0000 </r>
       <r>    8.5387    0.0000 </r>
       <r>    8.5387    0.0000 </r>
       <r>    8.5387    0.0000 </r>
      </set>
      <set comment="kpoint 3">
       <r>  -21.2967    1.0000 </r>
       <r>  -21.2967    1.0000 </r>
       <r>  -21.2967    1.0000 </r>
       <r>  -21.2967    1.0000 </r>
       <r>  -21.2967    1.0000 </r>
       <r>  -21.2967    1.0000 </r>
       <r>  -21.2967    1.0000 </r>
       <r>  -21.2967    1.0000 </r>
       <r>  -21.2937    1.0000 </r>
       <r>  -21.2937    1.0000 </r>
       <r>  -21.2937    1.0000 </r>
       <r>  -21.2937    1.0000 </r>
       <r>  -21.2937    1.0000 </r>
       <r>  -21.2937    1.0000 </r>
       <r>  -21.2937    1.0000 </r>
       <r>  -21.2937    1.0000 </r>
       <r>  -21.2913    1.0000 </r>
       <r>  -21.2913    1.0000 </r>
       <r>  -21.2913    1.0000 </r>
       <r>  -21.2913    1.0000 </r>
       <r>  -21.2913    1.0000 </r>
       <r>  -21.2913    1.0000 </r>
       <r>  -21.2913    1.0000 </r>
       <r>  -21.2913    1.0000 </r>
       <r>  -21.2886    1.0000 </r>
       <r>  -21.2886    1.0000 </r>
       <r>  -21.2886    1.0000 </r>
       <r>  -21.2886    1.0000 </r>
       <r>  -21.2867    1.0000 </r>
       <r>  -21.2867    1.0000 </r>
       <r>  -21.2867    1.0000 </r>
       <r>  -21.2867    1.0000 </r>
       <r>  -21.2802    1.0000 </r>
       <r>  -21.2802    1.0000 </r>
       <r>  -21.2802    1.0000 </r>
       <r>  -21.2802    1.0000 </r>
       <r>  -21.2792    1.0000 </r>
       <r>  -21.2792    1.0000 </r>
       <r>  -21.2792    1.0000 </r>
       <r>  -21.2792    1.0000 </r>
       <r>  -21.2792    1.0000 </r>
       <r>  -21.2792    1.0000 </r>
       <r>  -21.2792    1.0000 </r>
       <r>  -21.2792    1.0000 </r>
       <r>  -21.2788    1.0000 </r>
       <r>  -21.2788    1.0000 </r>
       <r>  -21.2788    1.0000 </r>
       <r>  -21.2788    1.0000 </r>
       <r>  -21.2788    1.0000 </r>
       <r>  -21.2788    1.0000 </r>
       <r>  -21.2788    1.0000 </r>
       <r>  -21.2788    1.0000 </r>
       <r>  -21.2768    1.0000 </r>
       <r>  -21.2768    1.0000 </r>
       <r>  -21.2768    1.0000 </r>
       <r>  -21.2768    1.0000 </r>
       <r>  -21.2768    1.0000 </r>
       <r>  -21.2768    1.0000 </r>
       <r>  -21.2768    1.0000 </r>
       <r>  -21.2768    1.0000 </r>
       <r>  -21.2762    1.0000 </r>
       <r>  -21.2762    1.0000 </r>
       <r>  -21.2762    1.0000 </r>
       <r>  -21.2762    1.0000 </r>
       <r>  -21.2743    1.0000 </r>
       <r>  -21.2743    1.0000 </r>
       <r>  -21.2743    1.0000 </r>
       <r>  -21.2743    1.0000 </r>
       <r>  -21.2743    1.0000 </r>
       <r>  -21.2743    1.0000 </r>
       <r>  -21.2743    1.0000 </r>
       <r>  -21.2743    1.0000 </r>
       <r>  -21.2728    1.0000 </r>
       <r>  -21.2728    1.0000 </r>
       <r>  -21.2728    1.0000 </r>
       <r>  -21.2728    1.0000 </r>
       <r>  -21.2728    1.0000 </r>
       <r>  -21.2728    1.0000 </r>
       <r>  -21.2728    1.0000 </r>
       <r>  -21.2728    1.0000 </r>
       <r>  -21.2726    1.0000 </r>
       <r>  -21.2726    1.0000 </r>
       <r>  -21.2726    1.0000 </r>
       <r>  -21.2726    1.0000 </r>
       <r>  -21.2726    1.0000 </r>
       <r>  -21.2726    1.0000 </r>
       <r>  -21.2726    1.0000 </r>
       <r>  -21.2726    1.0000 </r>
       <r>  -21.2721    1.0000 </r>
       <r>  -21.2721    1.0000 </r>
       <r>  -21.2721    1.0000 </r>
       <r>  -21.2721    1.0000 </r>
       <r>  -21.2696    1.0000 </r>
       <r>  -21.2696    1.0000 </r>
       <r>  -21.2696    1.0000 </r>
       <r>  -21.2696    1.0000 </r>
       <r>  -13.2316    1.0000 </r>
       <r>  -13.2316    1.0000 </r>
       <r>  -13.2316    1.0000 </r>
       <r>  -13.2316    1.0000 </r>
       <r>  -13.0648    1.0000 </r>
       <r>  -13.0648    1.0000 </r>
       <r>  -13.0648    1.0000 </r>
       <r>  -13.0648    1.0000 </r>
       <r>  -13.0648    1.0000 </r>
       <r>  -13.0648    1.0000 </r>
       <r>  -13.0648    1.0000 </r>
       <r>  -13.0648    1.0000 </r>
       <r>  -12.9764    1.0000 </r>
       <r>  -12.9764    1.0000 </r>
       <r>  -12.9764    1.0000 </r>
       <r>  -12.9764    1.0000 </r>
       <r>  -12.9764    1.0000 </r>
       <r>  -12.9764    1.0000 </r>
       <r>  -12.9764    1.0000 </r>
       <r>  -12.9764    1.0000 </r>
       <r>  -12.9562    1.0000 </r>
       <r>  -12.9562    1.0000 </r>
       <r>  -12.9562    1.0000 </r>
       <r>  -12.9562    1.0000 </r>
       <r>  -12.9562    1.0000 </r>
       <r>  -12.9562    1.0000 </r>
       <r>  -12.9562    1.0000 </r>
       <r>  -12.9562    1.0000 </r>
       <r>  -12.9307    1.0000 </r>
       <r>  -12.9307    1.0000 </r>
       <r>  -12.9307    1.0000 </r>
       <r>  -12.9307    1.0000 </r>
       <r>   -2.4129    1.0000 </r>
       <r>   -2.4129    1.0000 </r>
       <r>   -2.4129    1.0000 </r>
       <r>   -2.4129    1.0000 </r>
       <r>   -2.4129    1.0000 </r>
       <r>   -2.4129    1.0000 </r>
       <r>   -2.4129    1.0000 </r>
       <r>   -2.4129    1.0000 </r>
       <r>   -2.2478    1.0000 </r>
       <r>   -2.2478    1.0000 </r>
       <r>   -2.2478    1.0000 </r>
       <r>   -2.2478    1.0000 </r>
       <r>   -2.2478    1.0000 </r>
       <r>   -2.2478    1.0000 </r>
       <r>   -2.2478    1.0000 </r>
       <r>   -2.2478    1.0000 </r>
       <r>   -2.2474    1.0000 </r>
       <r>   -2.2474    1.0000 </r>
       <r>   -2.2474    1.0000 </r>
       <r>   -2.2474    1.0000 </r>
       <r>   -2.2474    1.0000 </r>
       <r>   -2.2474    1.0000 </r>
       <r>   -2.2474    1.0000 </r>
       <r>   -2.2474    1.0000 </r>
       <r>   -2.1564    1.0000 </r>
       <r>   -2.1564    1.0000 </r>
       <r>   -2.1564    1.0000 </r>
       <r>   -2.1564    1.0000 </r>
       <r>   -1.8470    1.0000 </r>
       <r>   -1.8470    1.0000 </r>
       <r>   -1.8470    1.0000 </r>
       <r>   -1.8470    1.0000 </r>
       <r>   -1.4770    1.0000 </r>
       <r>   -1.4770    1.0000 </r>
       <r>   -1.4770    1.0000 </r>
       <r>   -1.4770    1.0000 </r>
       <r>   -1.4770    1.0000 </r>
       <r>   -1.4770    1.0000 </r>
       <r>   -1.4770    1.0000 </r>
       <r>   -1.4770    1.0000 </r>
       <r>   -1.4684    1.0000 </r>
       <r>   -1.4684    1.0000 </r>
       <r>   -1.4684    1.0000 </r>
       <r>   -1.4684    1.0000 </r>
       <r>   -1.4033    1.0000 </r>
       <r>   -1.4033    1.0000 </r>
       <r>   -1.4033    1.0000 </r>
       <r>   -1.4033    1.0000 </r>
       <r>   -1.4033    1.0000 </r>
       <r>   -1.4033    1.0000 </r>
       <r>   -1.4033    1.0000 </r>
       <r>   -1.4033    1.0000 </r>
       <r>   -1.2266    1.0000 </r>
       <r>   -1.2266    1.0000 </r>
       <r>   -1.2266    1.0000 </r>
       <r>   -1.2266    1.0000 </r>
       <r>   -1.2266    1.0000 </r>
       <r>   -1.2266    1.0000 </r>
       <r>   -1.2266    1.0000 </r>
       <r>   -1.2266    1.0000 </r>
       <r>   -1.1886    1.0000 </r>
       <r>   -1.1886    1.0000 </r>
       <r>   -1.1886    1.0000 </r>
       <r>   -1.1886    1.0000 </r>
       <r>   -1.1020    1.0000 </r>
       <r>   -1.1020    1.0000 </r>
       <r>   -1.1020    1.0000 </r>
       <r>   -1.1020    1.0000 </r>
       <r>   -1.1020    1.0000 </r>
       <r>   -1.1020    1.0000 </r>
       <r>   -1.1020    1.0000 </r>
       <r>   -1.1020    1.0000 </r>
       <r>   -1.0181    1.0000 </r>
       <r>   -1.0181    1.0000 </r>
       <r>   -1.0181    1.0000 </r>
       <r>   -1.0181    1.0000 </r>
       <r>   -1.0181    1.0000 </r>
       <r>   -1.0181    1.0000 </r>
       <r>   -1.0181    1.0000 </r>
       <r>   -1.0181    1.0000 </r>
       <r>   -0.9735    1.0000 </r>
       <r>   -0.9735    1.0000 </r>
       <r>   -0.9735    1.0000 </r>
       <r>   -0.9735    1.0000 </r>
       <r>   -0.9735    1.0000 </r>
       <r>   -0.9735    1.0000 </r>
       <r>   -0.9735    1.0000 </r>
       <r>   -0.9735    1.0000 </r>
       <r>   -0.8897    1.0000 </r>
       <r>   -0.8897    1.0000 </r>
       <r>   -0.8897    1.0000 </r>
       <r>   -0.8897    1.0000 </r>
       <r>   -0.7391    1.0000 </r>
       <r>   -0.7391    1.0000 </r>
       <r>   -0.7391    1.0000 </r>
       <r>   -0.7391    1.0000 </r>
       <r>    5.5395    0.0000 </r>
       <r>    5.5395    0.0000 </r>
       <r>    5.5395    0.0000 </r>
       <r>    5.5395    0.0000 </r>
       <r>    6.6391    0.0000 </r>
       <r>    6.6391    0.0000 </r>
       <r>    6.6391    0.0000 </r>
       <r>    6.6391    0.0000 </r>
       <r>    6.6391    0.0000 </r>
       <r>    6.6391    0.0000 </r>
       <r>    6.6391    0.0000 </r>
       <r>    6.6391    0.0000 </r>
       <r>    7.4769    0.0000 </r>
       <r>    7.4769    0.0000 </r>
       <r>    7.4769    0.0000 </r>
       <r>    7.4769    0.0000 </r>
       <r>    7.4850    0.0000 </r>
       <r>    7.4850    0.0000 </r>
       <r>    7.4850    0.0000 </r>
       <r>    7.4850    0.0000 </r>
       <r>    7.4850    0.0000 </r>
       <r>    7.4850    0.0000 </r>
       <r>    7.4850    0.0000 </r>
       <r>    7.4850    0.0000 </r>
       <r>    7.5314    0.0000 </r>
       <r>    7.5314    0.0000 </r>
       <r>    7.5314    0.0000 </r>
       <r>    7.5314    0.0000 </r>
       <r>    7.5314    0.0000 </r>
       <r>    7.5314    0.0000 </r>
       <r>    7.5314    0.0000 </r>
       <r>    7.5314    0.0000 </r>
       <r>    7.9342    0.0000 </r>
       <r>    7.9342    0.0000 </r>
       <r>    7.9342    0.0000 </r>
       <r>    7.9342    0.0000 </r>
       <r>    7.9342    0.0000 </r>
       <r>    7.9342    0.0000 </r>
       <r>    7.9342    0.0000 </r>
       <r>    7.9342    0.0000 </r>
       <r>    8.2979    0.0000 </r>
       <r>    8.2979    0.0000 </r>
       <r>    8.2979    0.0000 </r>
       <r>    8.2979    0.0000 </r>
       <r>    8.8788    0.0000 </r>
       <r>    8.8823    0.0000 </r>
       <r>    8.8856    0.0000 </r>
       <r>    8.9173    0.0000 </r>
      </set>
      <set comment="kpoint 4">
       <r>  -21.2941    1.0000 </r>
       <r>  -21.2941    1.0000 </r>
       <r>  -21.2941    1.0000 </r>
       <r>  -21.2941    1.0000 </r>
       <r>  -21.2941    1.0000 </r>
       <r>  -21.2941    1.0000 </r>
       <r>  -21.2941    1.0000 </r>
       <r>  -21.2941    1.0000 </r>
       <r>  -21.2941    1.0000 </r>
       <r>  -21.2941    1.0000 </r>
       <r>  -21.2941    1.0000 </r>
       <r>  -21.2941    1.0000 </r>
       <r>  -21.2941    1.0000 </r>
       <r>  -21.2941    1.0000 </r>
       <r>  -21.2941    1.0000 </r>
       <r>  -21.2941    1.0000 </r>
       <r>  -21.2941    1.0000 </r>
       <r>  -21.2941    1.0000 </r>
       <r>  -21.2941    1.0000 </r>
       <r>  -21.2941    1.0000 </r>
       <r>  -21.2941    1.0000 </r>
       <r>  -21.2941    1.0000 </r>
       <r>  -21.2941    1.0000 </r>
       <r>  -21.2941    1.0000 </r>
       <r>  -21.2864    1.0000 </r>
       <r>  -21.2864    1.0000 </r>
       <r>  -21.2864    1.0000 </r>
       <r>  -21.2864    1.0000 </r>
       <r>  -21.2864    1.0000 </r>
       <r>  -21.2864    1.0000 </r>
       <r>  -21.2864    1.0000 </r>
       <r>  -21.2864    1.0000 </r>
       <r>  -21.2791    1.0000 </r>
       <r>  -21.2791    1.0000 </r>
       <r>  -21.2791    1.0000 </r>
       <r>  -21.2791    1.0000 </r>
       <r>  -21.2791    1.0000 </r>
       <r>  -21.2791    1.0000 </r>
       <r>  -21.2791    1.0000 </r>
       <r>  -21.2791    1.0000 </r>
       <r>  -21.2791    1.0000 </r>
       <r>  -21.2791    1.0000 </r>
       <r>  -21.2791    1.0000 </r>
       <r>  -21.2791    1.0000 </r>
       <r>  -21.2791    1.0000 </r>
       <r>  -21.2791    1.0000 </r>
       <r>  -21.2791    1.0000 </r>
       <r>  -21.2791    1.0000 </r>
       <r>  -21.2791    1.0000 </r>
       <r>  -21.2791    1.0000 </r>
       <r>  -21.2791    1.0000 </r>
       <r>  -21.2791    1.0000 </r>
       <r>  -21.2791    1.0000 </r>
       <r>  -21.2791    1.0000 </r>
       <r>  -21.2791    1.0000 </r>
       <r>  -21.2791    1.0000 </r>
       <r>  -21.2751    1.0000 </r>
       <r>  -21.2751    1.0000 </r>
       <r>  -21.2751    1.0000 </r>
       <r>  -21.2751    1.0000 </r>
       <r>  -21.2751    1.0000 </r>
       <r>  -21.2751    1.0000 </r>
       <r>  -21.2751    1.0000 </r>
       <r>  -21.2751    1.0000 </r>
       <r>  -21.2751    1.0000 </r>
       <r>  -21.2751    1.0000 </r>
       <r>  -21.2751    1.0000 </r>
       <r>  -21.2751    1.0000 </r>
       <r>  -21.2751    1.0000 </r>
       <r>  -21.2751    1.0000 </r>
       <r>  -21.2751    1.0000 </r>
       <r>  -21.2751    1.0000 </r>
       <r>  -21.2751    1.0000 </r>
       <r>  -21.2751    1.0000 </r>
       <r>  -21.2751    1.0000 </r>
       <r>  -21.2751    1.0000 </r>
       <r>  -21.2751    1.0000 </r>
       <r>  -21.2751    1.0000 </r>
       <r>  -21.2751    1.0000 </r>
       <r>  -21.2751    1.0000 </r>
       <r>  -21.2705    1.0000 </r>
       <r>  -21.2705    1.0000 </r>
       <r>  -21.2705    1.0000 </r>
       <r>  -21.2705    1.0000 </r>
       <r>  -21.2705    1.0000 </r>
       <r>  -21.2705    1.0000 </r>
       <r>  -21.2705    1.0000 </r>
       <r>  -21.2705    1.0000 </r>
       <r>  -21.2705    1.0000 </r>
       <r>  -21.2705    1.0000 </r>
       <r>  -21.2705    1.0000 </r>
       <r>  -21.2705    1.0000 </r>
       <r>  -21.2705    1.0000 </r>
       <r>  -21.2705    1.0000 </r>
       <r>  -21.2705    1.0000 </r>
       <r>  -21.2705    1.0000 </r>
       <r>  -13.1797    1.0000 </r>
       <r>  -13.1797    1.0000 </r>
       <r>  -13.1797    1.0000 </r>
       <r>  -13.1797    1.0000 </r>
       <r>  -13.1797    1.0000 </r>
       <r>  -13.1797    1.0000 </r>
       <r>  -13.1797    1.0000 </r>
       <r>  -13.1797    1.0000 </r>
       <r>  -12.9663    1.0000 </r>
       <r>  -12.9663    1.0000 </r>
       <r>  -12.9663    1.0000 </r>
       <r>  -12.9663    1.0000 </r>
       <r>  -12.9663    1.0000 </r>
       <r>  -12.9663    1.0000 </r>
       <r>  -12.9663    1.0000 </r>
       <r>  -12.9663    1.0000 </r>
       <r>  -12.9663    1.0000 </r>
       <r>  -12.9663    1.0000 </r>
       <r>  -12.9663    1.0000 </r>
       <r>  -12.9663    1.0000 </r>
       <r>  -12.9663    1.0000 </r>
       <r>  -12.9663    1.0000 </r>
       <r>  -12.9663    1.0000 </r>
       <r>  -12.9663    1.0000 </r>
       <r>  -12.9663    1.0000 </r>
       <r>  -12.9663    1.0000 </r>
       <r>  -12.9663    1.0000 </r>
       <r>  -12.9663    1.0000 </r>
       <r>  -12.9663    1.0000 </r>
       <r>  -12.9663    1.0000 </r>
       <r>  -12.9663    1.0000 </r>
       <r>  -12.9663    1.0000 </r>
       <r>   -2.3275    1.0000 </r>
       <r>   -2.3275    1.0000 </r>
       <r>   -2.3275    1.0000 </r>
       <r>   -2.3275    1.0000 </r>
       <r>   -2.3275    1.0000 </r>
       <r>   -2.3275    1.0000 </r>
       <r>   -2.3275    1.0000 </r>
       <r>   -2.3275    1.0000 </r>
       <r>   -2.3275    1.0000 </r>
       <r>   -2.3275    1.0000 </r>
       <r>   -2.3275    1.0000 </r>
       <r>   -2.3275    1.0000 </r>
       <r>   -2.3275    1.0000 </r>
       <r>   -2.3275    1.0000 </r>
       <r>   -2.3275    1.0000 </r>
       <r>   -2.3275    1.0000 </r>
       <r>   -2.3275    1.0000 </r>
       <r>   -2.3275    1.0000 </r>
       <r>   -2.3275    1.0000 </r>
       <r>   -2.3275    1.0000 </r>
       <r>   -2.3275    1.0000 </r>
       <r>   -2.3275    1.0000 </r>
       <r>   -2.3275    1.0000 </r>
       <r>   -2.3275    1.0000 </r>
       <r>   -1.8287    1.0000 </r>
       <r>   -1.8287    1.0000 </r>
       <r>   -1.8287    1.0000 </r>
       <r>   -1.8287    1.0000 </r>
       <r>   -1.8287    1.0000 </r>
       <r>   -1.8287    1.0000 </r>
       <r>   -1.8287    1.0000 </r>
       <r>   -1.8287    1.0000 </r>
       <r>   -1.4787    1.0000 </r>
       <r>   -1.4787    1.0000 </r>
       <r>   -1.4787    1.0000 </r>
       <r>   -1.4787    1.0000 </r>
       <r>   -1.4787    1.0000 </r>
       <r>   -1.4787    1.0000 </r>
       <r>   -1.4787    1.0000 </r>
       <r>   -1.4787    1.0000 </r>
       <r>   -1.4787    1.0000 </r>
       <r>   -1.4787    1.0000 </r>
       <r>   -1.4787    1.0000 </r>
       <r>   -1.4787    1.0000 </r>
       <r>   -1.4787    1.0000 </r>
       <r>   -1.4787    1.0000 </r>
       <r>   -1.4787    1.0000 </r>
       <r>   -1.4787    1.0000 </r>
       <r>   -1.4787    1.0000 </r>
       <r>   -1.4787    1.0000 </r>
       <r>   -1.4787    1.0000 </r>
       <r>   -1.4787    1.0000 </r>
       <r>   -1.4787    1.0000 </r>
       <r>   -1.4787    1.0000 </r>
       <r>   -1.4787    1.0000 </r>
       <r>   -1.4787    1.0000 </r>
       <r>   -1.1274    1.0000 </r>
       <r>   -1.1274    1.0000 </r>
       <r>   -1.1274    1.0000 </r>
       <r>   -1.1274    1.0000 </r>
       <r>   -1.1274    1.0000 </r>
       <r>   -1.1274    1.0000 </r>
       <r>   -1.1274    1.0000 </r>
       <r>   -1.1274    1.0000 </r>
       <r>   -1.1274    1.0000 </r>
       <r>   -1.1274    1.0000 </r>
       <r>   -1.1274    1.0000 </r>
       <r>   -1.1274    1.0000 </r>
       <r>   -1.1274    1.0000 </r>
       <r>   -1.1274    1.0000 </r>
       <r>   -1.1274    1.0000 </r>
       <r>   -1.1274    1.0000 </r>
       <r>   -1.1274    1.0000 </r>
       <r>   -1.1274    1.0000 </r>
       <r>   -1.1274    1.0000 </r>
       <r>   -1.1274    1.0000 </r>
       <r>   -1.1274    1.0000 </r>
       <r>   -1.1274    1.0000 </r>
       <r>   -1.1274    1.0000 </r>
       <r>   -1.1274    1.0000 </r>
       <r>   -0.8100    1.0000 </r>
       <r>   -0.8100    1.0000 </r>
       <r>   -0.8100    1.0000 </r>
       <r>   -0.8100    1.0000 </r>
       <r>   -0.8100    1.0000 </r>
       <r>   -0.8100    1.0000 </r>
       <r>   -0.8100    1.0000 </r>
       <r>   -0.8100    1.0000 </r>
       <r>   -0.8100    1.0000 </r>
       <r>   -0.8100    1.0000 </r>
       <r>   -0.8100    1.0000 </r>
       <r>   -0.8100    1.0000 </r>
       <r>   -0.8100    1.0000 </r>
       <r>   -0.8100    1.0000 </r>
       <r>   -0.8100    1.0000 </r>
       <r>   -0.8100    1.0000 </r>
       <r>    5.8315    0.0000 </r>
       <r>    5.8315    0.0000 </r>
       <r>    5.8315    0.0000 </r>
       <r>    5.8315    0.0000 </r>
       <r>    5.8315    0.0000 </r>
       <r>    5.8315    0.0000 </r>
       <r>    5.8315    0.0000 </r>
       <r>    5.8315    0.0000 </r>
       <r>    7.3992    0.0000 </r>
       <r>    7.3992    0.0000 </r>
       <r>    7.3992    0.0000 </r>
       <r>    7.3992    0.0000 </r>
       <r>    7.3992    0.0000 </r>
       <r>    7.3992    0.0000 </r>
       <r>    7.3992    0.0000 </r>
       <r>    7.3992    0.0000 </r>
       <r>    7.3992    0.0000 </r>
       <r>    7.3992    0.0000 </r>
       <r>    7.3992    0.0000 </r>
       <r>    7.3992    0.0000 </r>
       <r>    7.3992    0.0000 </r>
       <r>    7.3992    0.0000 </r>
       <r>    7.3992    0.0000 </r>
       <r>    7.3992    0.0000 </r>
       <r>    7.3992    0.0000 </r>
       <r>    7.3992    0.0000 </r>
       <r>    7.3992    0.0000 </r>
       <r>    7.3992    0.0000 </r>
       <r>    7.3992    0.0000 </r>
       <r>    7.3992    0.0000 </r>
       <r>    7.3992    0.0000 </r>
       <r>    7.3992    0.0000 </r>
       <r>    8.5577    0.0000 </r>
       <r>    8.5577    0.0000 </r>
       <r>    8.5577    0.0000 </r>
       <r>    8.5577    0.0000 </r>
       <r>    8.5577    0.0000 </r>
       <r>    8.5577    0.0000 </r>
       <r>    8.5577    0.0000 </r>
       <r>    8.5577    0.0000 </r>
       <r>    8.5577    0.0000 </r>
       <r>    8.5577    0.0000 </r>
       <r>    8.5577    0.0000 </r>
       <r>    8.5577    0.0000 </r>
       <r>    8.5577    0.0000 </r>
       <r>    8.5577    0.0000 </r>
       <r>    8.5577    0.0000 </r>
       <r>    8.5577    0.0000 </r>
      </set>
     </set>
    </set>
   </array>
  </eigenvalues>
  <separator name="orbital magnetization" >
   <v name="MAGDIPOLOUT">      0.00000000      0.00000000      0.00000000</v>
  </separator>
  <dos>
   <i name="efermi">     -0.51410619 </i>
   <total>
    <array>
     <dimension dim="1">gridpoints</dimension>
     <dimension dim="2">spin</dimension>
     <field>energy</field>
     <field>total</field>
     <field>integrated</field>
     <set>
      <set comment="spin 1">
       <r>   -22.8145     0.0000     0.0000 </r>
       <r>   -22.7037     0.0000     0.0000 </r>
       <r>   -22.5928     0.0000     0.0000 </r>
       <r>   -22.4820     0.0000     0.0000 </r>
       <r>   -22.3712     0.0000     0.0000 </r>
       <r>   -22.2604     0.0000     0.0000 </r>
       <r>   -22.1496     0.0000     0.0000 </r>
       <r>   -22.0388     0.0000     0.0000 </r>
       <r>   -21.9280     0.0000     0.0000 </r>
       <r>   -21.8172     0.0000     0.0000 </r>
       <r>   -21.7064     0.0000     0.0000 </r>
       <r>   -21.5956     0.0000     0.0000 </r>
       <r>   -21.4848     0.0000     0.0000 </r>
       <r>   -21.3739     0.0000     0.0000 </r>
       <r>   -21.2631  1491.4237   165.2635 </r>
       <r>   -21.1523   241.2840   192.0000 </r>
       <r>   -21.0415     0.0000   192.0000 </r>
       <r>   -20.9307     0.0000   192.0000 </r>
       <r>   -20.8199     0.0000   192.0000 </r>
       <r>   -20.7091     0.0000   192.0000 </r>
       <r>   -20.5983     0.0000   192.0000 </r>
       <r>   -20.4875     0.0000   192.0000 </r>
       <r>   -20.3767     0.0000   192.0000 </r>
       <r>   -20.2659     0.0000   192.0000 </r>
       <r>   -20.1550     0.0000   192.0000 </r>
       <r>   -20.0442     0.0000   192.0000 </r>
       <r>   -19.9334     0.0000   192.0000 </r>
       <r>   -19.8226     0.0000   192.0000 </r>
       <r>   -19.7118     0.0000   192.0000 </r>
       <r>   -19.6010     0.0000   192.0000 </r>
       <r>   -19.4902     0.0000   192.0000 </r>
       <r>   -19.3794     0.0000   192.0000 </r>
       <r>   -19.2686     0.0000   192.0000 </r>
       <r>   -19.1578     0.0000   192.0000 </r>
       <r>   -19.0469     0.0000   192.0000 </r>
       <r>   -18.9361     0.0000   192.0000 </r>
       <r>   -18.8253     0.0000   192.0000 </r>
       <r>   -18.7145     0.0000   192.0000 </r>
       <r>   -18.6037     0.0000   192.0000 </r>
       <r>   -18.4929     0.0000   192.0000 </r>
       <r>   -18.3821     0.0000   192.0000 </r>
       <r>   -18.2713     0.0000   192.0000 </r>
       <r>   -18.1605     0.0000   192.0000 </r>
       <r>   -18.0497     0.0000   192.0000 </r>
       <r>   -17.9389     0.0000   192.0000 </r>
       <r>   -17.8280     0.0000   192.0000 </r>
       <r>   -17.7172     0.0000   192.0000 </r>
       <r>   -17.6064     0.0000   192.0000 </r>
       <r>   -17.4956     0.0000   192.0000 </r>
       <r>   -17.3848     0.0000   192.0000 </r>
       <r>   -17.2740     0.0000   192.0000 </r>
       <r>   -17.1632     0.0000   192.0000 </r>
       <r>   -17.0524     0.0000   192.0000 </r>
       <r>   -16.9416     0.0000   192.0000 </r>
       <r>   -16.8308     0.0000   192.0000 </r>
       <r>   -16.7200     0.0000   192.0000 </r>
       <r>   -16.6091     0.0000   192.0000 </r>
       <r>   -16.4983     0.0000   192.0000 </r>
       <r>   -16.3875     0.0000   192.0000 </r>
       <r>   -16.2767     0.0000   192.0000 </r>
       <r>   -16.1659     0.0000   192.0000 </r>
       <r>   -16.0551     0.0000   192.0000 </r>
       <r>   -15.9443     0.0000   192.0000 </r>
       <r>   -15.8335     0.0000   192.0000 </r>
       <r>   -15.7227     0.0000   192.0000 </r>
       <r>   -15.6119     0.0000   192.0000 </r>
       <r>   -15.5011     0.0000   192.0000 </r>
       <r>   -15.3902     0.0000   192.0000 </r>
       <r>   -15.2794     0.0000   192.0000 </r>
       <r>   -15.1686     0.0000   192.0000 </r>
       <r>   -15.0578     0.0000   192.0000 </r>
       <r>   -14.9470     0.0000   192.0000 </r>
       <r>   -14.8362     0.0000   192.0000 </r>
       <r>   -14.7254     0.0000   192.0000 </r>
       <r>   -14.6146     0.0000   192.0000 </r>
       <r>   -14.5038     0.0000   192.0000 </r>
       <r>   -14.3930     0.0000   192.0000 </r>
       <r>   -14.2822     0.0000   192.0000 </r>
       <r>   -14.1713     0.0000   192.0000 </r>
       <r>   -14.0605     0.0000   192.0000 </r>
       <r>   -13.9497     0.0000   192.0000 </r>
       <r>   -13.8389     0.0000   192.0000 </r>
       <r>   -13.7281     0.0000   192.0000 </r>
       <r>   -13.6173     0.0000   192.0000 </r>
       <r>   -13.5065     0.0000   192.0000 </r>
       <r>   -13.3957     0.0085   192.0009 </r>
       <r>   -13.2849    11.3351   193.2570 </r>
       <r>   -13.1741    43.3941   198.0654 </r>
       <r>   -13.0633   102.7992   209.4566 </r>
       <r>   -12.9524   278.2829   240.2929 </r>
       <r>   -12.8416   141.7483   256.0000 </r>
       <r>   -12.7308     0.0000   256.0000 </r>
       <r>   -12.6200     0.0000   256.0000 </r>
       <r>   -12.5092     0.0000   256.0000 </r>
       <r>   -12.3984     0.0000   256.0000 </r>
       <r>   -12.2876     0.0000   256.0000 </r>
       <r>   -12.1768     0.0000   256.0000 </r>
       <r>   -12.0660     0.0000   256.0000 </r>
       <r>   -11.9552     0.0000   256.0000 </r>
       <r>   -11.8443     0.0000   256.0000 </r>
       <r>   -11.7335     0.0000   256.0000 </r>
       <r>   -11.6227     0.0000   256.0000 </r>
       <r>   -11.5119     0.0000   256.0000 </r>
       <r>   -11.4011     0.0000   256.0000 </r>
       <r>   -11.2903     0.0000   256.0000 </r>
       <r>   -11.1795     0.0000   256.0000 </r>
       <r>   -11.0687     0.0000   256.0000 </r>
       <r>   -10.9579     0.0000   256.0000 </r>
       <r>   -10.8471     0.0000   256.0000 </r>
       <r>   -10.7363     0.0000   256.0000 </r>
       <r>   -10.6254     0.0000   256.0000 </r>
       <r>   -10.5146     0.0000   256.0000 </r>
       <r>   -10.4038     0.0000   256.0000 </r>
       <r>   -10.2930     0.0000   256.0000 </r>
       <r>   -10.1822     0.0000   256.0000 </r>
       <r>   -10.0714     0.0000   256.0000 </r>
       <r>    -9.9606     0.0000   256.0000 </r>
       <r>    -9.8498     0.0000   256.0000 </r>
       <r>    -9.7390     0.0000   256.0000 </r>
       <r>    -9.6282     0.0000   256.0000 </r>
       <r>    -9.5174     0.0000   256.0000 </r>
       <r>    -9.4065     0.0000   256.0000 </r>
       <r>    -9.2957     0.0000   256.0000 </r>
       <r>    -9.1849     0.0000   256.0000 </r>
       <r>    -9.0741     0.0000   256.0000 </r>
       <r>    -8.9633     0.0000   256.0000 </r>
       <r>    -8.8525     0.0000   256.0000 </r>
       <r>    -8.7417     0.0000   256.0000 </r>
       <r>    -8.6309     0.0000   256.0000 </r>
       <r>    -8.5201     0.0000   256.0000 </r>
       <r>    -8.4093     0.0000   256.0000 </r>
       <r>    -8.2985     0.0000   256.0000 </r>
       <r>    -8.1876     0.0000   256.0000 </r>
       <r>    -8.0768     0.0000   256.0000 </r>
       <r>    -7.9660     0.0000   256.0000 </r>
       <r>    -7.8552     0.0000   256.0000 </r>
       <r>    -7.7444     0.0000   256.0000 </r>
       <r>    -7.6336     0.0000   256.0000 </r>
       <r>    -7.5228     0.0000   256.0000 </r>
       <r>    -7.4120     0.0000   256.0000 </r>
       <r>    -7.3012     0.0000   256.0000 </r>
       <r>    -7.1904     0.0000   256.0000 </r>
       <r>    -7.0796     0.0000   256.0000 </r>
       <r>    -6.9687     0.0000   256.0000 </r>
       <r>    -6.8579     0.0000   256.0000 </r>
       <r>    -6.7471     0.0000   256.0000 </r>
       <r>    -6.6363     0.0000   256.0000 </r>
       <r>    -6.5255     0.0000   256.0000 </r>
       <r>    -6.4147     0.0000   256.0000 </r>
       <r>    -6.3039     0.0000   256.0000 </r>
       <r>    -6.1931     0.0000   256.0000 </r>
       <r>    -6.0823     0.0000   256.0000 </r>
       <r>    -5.9715     0.0000   256.0000 </r>
       <r>    -5.8607     0.0000   256.0000 </r>
       <r>    -5.7498     0.0000   256.0000 </r>
       <r>    -5.6390     0.0000   256.0000 </r>
       <r>    -5.5282     0.0000   256.0000 </r>
       <r>    -5.4174     0.0000   256.0000 </r>
       <r>    -5.3066     0.0000   256.0000 </r>
       <r>    -5.1958     0.0000   256.0000 </r>
       <r>    -5.0850     0.0000   256.0000 </r>
       <r>    -4.9742     0.0000   256.0000 </r>
       <r>    -4.8634     0.0000   256.0000 </r>
       <r>    -4.7526     0.0000   256.0000 </r>
       <r>    -4.6417     0.0000   256.0000 </r>
       <r>    -4.5309     0.0000   256.0000 </r>
       <r>    -4.4201     0.0000   256.0000 </r>
       <r>    -4.3093     0.0000   256.0000 </r>
       <r>    -4.1985     0.0000   256.0000 </r>
       <r>    -4.0877     0.0000   256.0000 </r>
       <r>    -3.9769     0.0000   256.0000 </r>
       <r>    -3.8661     0.0000   256.0000 </r>
       <r>    -3.7553     0.0000   256.0000 </r>
       <r>    -3.6445     0.0000   256.0000 </r>
       <r>    -3.5337     0.0000   256.0000 </r>
       <r>    -3.4228     0.0000   256.0000 </r>
       <r>    -3.3120     0.0000   256.0000 </r>
       <r>    -3.2012     0.0000   256.0000 </r>
       <r>    -3.0904     0.0000   256.0000 </r>
       <r>    -2.9796     0.0000   256.0000 </r>
       <r>    -2.8688     0.0000   256.0000 </r>
       <r>    -2.7580     0.0002   256.0000 </r>
       <r>    -2.6472     9.0235   256.9999 </r>
       <r>    -2.5364     0.6311   257.0699 </r>
       <r>    -2.4256    66.5946   264.4492 </r>
       <r>    -2.3148    92.8134   274.7338 </r>
       <r>    -2.2039   171.7205   293.7620 </r>
       <r>    -2.0931    94.5883   304.2433 </r>
       <r>    -1.9823    31.8364   307.7711 </r>
       <r>    -1.8715    50.5891   313.3768 </r>
       <r>    -1.7607   111.5665   325.7397 </r>
       <r>    -1.6499     0.0934   325.7500 </r>
       <r>    -1.5391     0.2739   325.7803 </r>
       <r>    -1.4283   204.6959   348.4625 </r>
       <r>    -1.3175    80.0213   357.3307 </r>
       <r>    -1.2067    90.8812   367.4012 </r>
       <r>    -1.0959   284.8585   398.9662 </r>
       <r>    -0.9850   118.3026   412.0752 </r>
       <r>    -0.8742   223.4726   436.8380 </r>
       <r>    -0.7634    58.2042   443.2877 </r>
       <r>    -0.6526    41.2346   447.8569 </r>
       <r>    -0.5418     1.2916   448.0000 </r>
       <r>    -0.4310     0.0000   448.0000 </r>
       <r>    -0.3202     0.0000   448.0000 </r>
       <r>    -0.2094     0.0000   448.0000 </r>
       <r>    -0.0986     0.0000   448.0000 </r>
       <r>     0.0122     0.0000   448.0000 </r>
       <r>     0.1230     0.0000   448.0000 </r>
       <r>     0.2339     0.0000   448.0000 </r>
       <r>     0.3447     0.0000   448.0000 </r>
       <r>     0.4555     0.0000   448.0000 </r>
       <r>     0.5663     0.0000   448.0000 </r>
       <r>     0.6771     0.0000   448.0000 </r>
       <r>     0.7879     0.0000   448.0000 </r>
       <r>     0.8987     0.0000   448.0000 </r>
       <r>     1.0095     0.0000   448.0000 </r>
       <r>     1.1203     0.0000   448.0000 </r>
       <r>     1.2311     0.0000   448.0000 </r>
       <r>     1.3419     0.0000   448.0000 </r>
       <r>     1.4528     0.0000   448.0000 </r>
       <r>     1.5636     0.0000   448.0000 </r>
       <r>     1.6744     0.0000   448.0000 </r>
       <r>     1.7852     0.0000   448.0000 </r>
       <r>     1.8960     0.0000   448.0000 </r>
       <r>     2.0068     0.0000   448.0000 </r>
       <r>     2.1176     0.0000   448.0000 </r>
       <r>     2.2284     0.0000   448.0000 </r>
       <r>     2.3392     0.0000   448.0000 </r>
       <r>     2.4500     0.0000   448.0000 </r>
       <r>     2.5608     0.0000   448.0000 </r>
       <r>     2.6717     0.0000   448.0000 </r>
       <r>     2.7825     0.0000   448.0000 </r>
       <r>     2.8933     0.0000   448.0000 </r>
       <r>     3.0041     0.0000   448.0000 </r>
       <r>     3.1149     0.0000   448.0000 </r>
       <r>     3.2257     0.0000   448.0000 </r>
       <r>     3.3365     0.0000   448.0000 </r>
       <r>     3.4473     0.0000   448.0000 </r>
       <r>     3.5581     0.0000   448.0000 </r>
       <r>     3.6689     0.0000   448.0000 </r>
       <r>     3.7798     0.0000   448.0000 </r>
       <r>     3.8906     0.0000   448.0000 </r>
       <r>     4.0014     0.0000   448.0000 </r>
       <r>     4.1122     0.0000   448.0000 </r>
       <r>     4.2230     0.0000   448.0000 </r>
       <r>     4.3338     0.7264   448.0805 </r>
       <r>     4.4446     1.5297   448.2500 </r>
       <r>     4.5554     0.0000   448.2500 </r>
       <r>     4.6662     0.0000   448.2500 </r>
       <r>     4.7770     0.0000   448.2500 </r>
       <r>     4.8878     0.0000   448.2500 </r>
       <r>     4.9987     0.6308   448.3199 </r>
       <r>     5.1095    12.9060   449.7500 </r>
       <r>     5.2203     0.0000   449.7500 </r>
       <r>     5.3311     0.0000   449.7500 </r>
       <r>     5.4419     0.0000   449.7500 </r>
       <r>     5.5527    22.3254   452.2239 </r>
       <r>     5.6635     4.7482   452.7500 </r>
       <r>     5.7743     0.0005   452.7501 </r>
       <r>     5.8851    18.0472   454.7499 </r>
       <r>     5.9959     0.0000   454.7500 </r>
       <r>     6.1067     0.0000   454.7500 </r>
       <r>     6.2176     0.0000   454.7500 </r>
       <r>     6.3284     0.0325   454.7536 </r>
       <r>     6.4392    16.6603   456.5997 </r>
       <r>     6.5500     5.8684   457.2500 </r>
       <r>     6.6608    50.7419   462.8727 </r>
       <r>     6.7716    57.5480   469.2495 </r>
       <r>     6.8824    60.7638   475.9832 </r>
       <r>     6.9932    12.8932   477.4119 </r>
       <r>     7.1040     0.7946   477.5000 </r>
       <r>     7.2148     4.8235   478.0345 </r>
       <r>     7.3256     2.0671   478.2635 </r>
       <r>     7.4365    81.6324   487.3092 </r>
       <r>     7.5473   168.3346   505.9622 </r>
       <r>     7.6581     7.1102   506.7501 </r>
       <r>     7.7689    27.0710   509.7498 </r>
       <r>     7.8797     0.0031   509.7503 </r>
       <r>     7.9905    54.1421   515.7498 </r>
       <r>     8.1013     0.0000   515.7500 </r>
       <r>     8.2121    13.5270   517.2489 </r>
       <r>     8.3229    93.7149   527.6334 </r>
       <r>     8.4337     1.0508   527.7500 </r>
       <r>     8.5445    51.3061   533.4352 </r>
       <r>     8.6554    52.4759   539.2500 </r>
       <r>     8.7662     0.0000   539.2500 </r>
       <r>     8.8770     7.5816   540.0901 </r>
       <r>     8.9878    35.2849   544.0000 </r>
       <r>     9.0986     0.0000   544.0000 </r>
       <r>     9.2094     0.0000   544.0000 </r>
       <r>     9.3202     0.0000   544.0000 </r>
       <r>     9.4310     0.0000   544.0000 </r>
       <r>     9.5418     0.0000   544.0000 </r>
       <r>     9.6526     0.0000   544.0000 </r>
       <r>     9.7634     0.0000   544.0000 </r>
       <r>     9.8743     0.0000   544.0000 </r>
       <r>     9.9851     0.0000   544.0000 </r>
       <r>    10.0959     0.0000   544.0000 </r>
       <r>    10.2067     0.0000   544.0000 </r>
       <r>    10.3175     0.0000   544.0000 </r>
       <r>    10.4283     0.0000   544.0000 </r>
      </set>
     </set>
    </array>
   </total>
  </dos>
 </calculation>
 <structure name="finalpos" >
  <crystal>
   <varray name="basis" >
    <v>      11.20400236       0.00000000       0.00000000 </v>
    <v>       0.00000000      11.20400236       0.00000000 </v>
    <v>       0.00000000       0.00000000      11.20400236 </v>
   </varray>
   <i name="volume">   1406.43470641 </i>
   <varray name="rec_basis" >
    <v>       0.08925382       0.00000000       0.00000000 </v>
    <v>       0.00000000       0.08925382       0.00000000 </v>
    <v>       0.00000000       0.00000000       0.08925382 </v>
   </varray>
  </crystal>
  <varray name="positions" >
   <v>       0.00000000       0.00000000       0.00000000 </v>
   <v>       0.25000000       0.25000000       0.00000000 </v>
   <v>       0.25000000       0.00000000       0.25000000 </v>
   <v>       0.00000000       0.25000000       0.25000000 </v>
   <v>       0.00000000       0.00000000       0.50000000 </v>
   <v>       0.25000000       0.25000000       0.50000000 </v>
   <v>       0.25000000       0.00000000       0.75000000 </v>
   <v>       0.00000000       0.25000000       0.75000000 </v>
   <v>       0.00000000       0.50000000       0.00000000 </v>
   <v>       0.25000000       0.75000000       0.00000000 </v>
   <v>       0.25000000       0.50000000       0.25000000 </v>
   <v>       0.00000000       0.75000000       0.25000000 </v>
   <v>       0.00000000       0.50000000       0.50000000 </v>
   <v>       0.25000000       0.75000000       0.50000000 </v>
   <v>       0.25000000       0.50000000       0.75000000 </v>
   <v>       0.00000000       0.75000000       0.75000000 </v>
   <v>       0.50000000       0.00000000       0.00000000 </v>
   <v>       0.75000000       0.25000000       0.00000000 </v>
   <v>       0.75000000       0.00000000       0.25000000 </v>
   <v>       0.50000000       0.25000000       0.25000000 </v>
   <v>       0.50000000       0.00000000       0.50000000 </v>
   <v>       0.75000000       0.25000000       0.50000000 </v>
   <v>       0.75000000       0.00000000       0.75000000 </v>
   <v>       0.50000000       0.25000000       0.75000000 </v>
   <v>       0.50000000       0.50000000       0.00000000 </v>
   <v>       0.75000000       0.75000000       0.00000000 </v>
   <v>       0.75000000       0.50000000       0.25000000 </v>
   <v>       0.50000000       0.75000000       0.25000000 </v>
   <v>       0.50000000       0.50000000       0.50000000 </v>
   <v>       0.75000000       0.75000000       0.50000000 </v>
   <v>       0.75000000       0.50000000       0.75000000 </v>
   <v>       0.50000000       0.75000000       0.75000000 </v>
   <v>       0.25000000       0.25000000       0.25000000 </v>
   <v>       0.00000000       0.00000000       0.25000000 </v>
   <v>       0.00000000       0.25000000       0.00000000 </v>
   <v>       0.25000000       0.00000000       0.00000000 </v>
   <v>       0.25000000       0.25000000       0.75000000 </v>
   <v>       0.00000000       0.00000000       0.75000000 </v>
   <v>       0.00000000       0.25000000       0.50000000 </v>
   <v>       0.25000000       0.00000000       0.50000000 </v>
   <v>       0.25000000       0.75000000       0.25000000 </v>
   <v>       0.00000000       0.50000000       0.25000000 </v>
   <v>       0.00000000       0.75000000       0.00000000 </v>
   <v>       0.25000000       0.50000000       0.00000000 </v>
   <v>       0.25000000       0.75000000       0.75000000 </v>
   <v>       0.00000000       0.50000000       0.75000000 </v>
   <v>       0.00000000       0.75000000       0.50000000 </v>
   <v>       0.25000000       0.50000000       0.50000000 </v>
   <v>       0.75000000       0.25000000       0.25000000 </v>
   <v>       0.50000000       0.00000000       0.25000000 </v>
   <v>       0.50000000       0.25000000       0.00000000 </v>
   <v>       0.75000000       0.00000000       0.00000000 </v>
   <v>       0.75000000       0.25000000       0.75000000 </v>
   <v>       0.50000000       0.00000000       0.75000000 </v>
   <v>       0.50000000       0.25000000       0.50000000 </v>
   <v>       0.75000000       0.00000000       0.50000000 </v>
   <v>       0.75000000       0.75000000       0.25000000 </v>
   <v>       0.50000000       0.50000000       0.25000000 </v>
   <v>       0.50000000       0.75000000       0.00000000 </v>
   <v>       0.75000000       0.50000000       0.00000000 </v>
   <v>       0.75000000       0.75000000       0.75000000 </v>
   <v>       0.50000000       0.50000000       0.75000000 </v>
   <v>       0.50000000       0.75000000       0.50000000 </v>
   <v>       0.75000000       0.50000000       0.50000000 </v>
  </varray>
 </structure>
</modeling>
