 running on   32 total cores
 distrk:  each k-point on   32 cores,    1 groups
 distr:  one band on    4 cores,    8 groups
 vasp.6.3.2 27Jun22 (build Oct 14 2022 12:38:20) complex                        
  
 POSCAR found type information on POSCAR NaCl
 POSCAR found :  2 types and      64 ions
 scaLAPACK will be used
 -----------------------------------------------------------------------------
|                                                                             |
|               ----> ADVICE to this user running VASP <----                  |
|                                                                             |
|     You have a (more or less) 'large supercell' and for larger cells it     |
|     might be more efficient to use real-space projection operators.         |
|     Therefore, try LREAL= Auto in the INCAR file.                           |
|     Mind: For very accurate calculation, you might also keep the            |
|     reciprocal projection scheme (i.e. LREAL=.FALSE.).                      |
|                                                                             |
 -----------------------------------------------------------------------------

 -----------------------------------------------------------------------------
|                                                                             |
|               ----> ADVICE to this user running VASP <----                  |
|                                                                             |
|     You enforced a specific xc type in the INCAR file but a different       |
|     type was found in the POTCAR file.                                      |
|     I HOPE YOU KNOW WHAT YOU ARE DOING!                                     |
|                                                                             |
 -----------------------------------------------------------------------------

 LDA part: xc-table for Pade appr. of Perdew
 POSCAR, INCAR and KPOINTS ok, starting setup
 FFT: planning ... GRIDC
 FFT: planning ... GRID_SOFT
 FFT: planning ... GRID
 WAVECAR not read
 entering main loop
       N       E                     dE             d eps       ncg     rms          rms(c)
DAV:   1     0.461870905195E+04    0.46187E+04   -0.16902E+05  2296   0.132E+03
DAV:   2     0.487471920690E+03   -0.41312E+04   -0.39573E+04  2392   0.393E+02
DAV:   3    -0.188321017509E+03   -0.67579E+03   -0.66960E+03  2552   0.175E+02
DAV:   4    -0.227323652598E+03   -0.39003E+02   -0.38751E+02  2528   0.415E+01
DAV:   5    -0.228979086571E+03   -0.16554E+01   -0.16533E+01  2832   0.860E+00    0.106E+01
DAV:   6    -0.224148332333E+03    0.48308E+01   -0.10241E+01  2680   0.562E+00    0.781E+00
DAV:   7    -0.223776994444E+03    0.37134E+00   -0.23224E+00  2848   0.253E+00    0.528E+00
DAV:   8    -0.223902878108E+03   -0.12588E+00   -0.25161E-01  2392   0.125E+00    0.124E+00
DAV:   9    -0.223897069363E+03    0.58087E-02   -0.13682E-02  2856   0.278E-01    0.493E-01
DAV:  10    -0.223901547418E+03   -0.44781E-02   -0.15395E-02  2384   0.207E-01    0.161E-01
DAV:  11    -0.223901130973E+03    0.41644E-03   -0.97053E-04  2568   0.586E-02    0.622E-02
DAV:  12    -0.223901093746E+03    0.37227E-04   -0.25969E-04  2776   0.220E-02    0.385E-02
DAV:  13    -0.223901105527E+03   -0.11781E-04   -0.18338E-05  2320   0.741E-03    0.408E-03
DAV:  14    -0.223901105159E+03    0.36849E-06   -0.28820E-07  2696   0.163E-03    0.492E-03
DAV:  15    -0.223901106202E+03   -0.10435E-05   -0.87416E-07  1984   0.122E-03    0.349E-04
DAV:  16    -0.223901106113E+03    0.89211E-07   -0.15635E-08  1616   0.390E-04    0.229E-04
DAV:  17    -0.223901106064E+03    0.48836E-07   -0.41638E-09  1312   0.206E-04    0.724E-05
DAV:  18    -0.223901106063E+03    0.12587E-08   -0.12682E-09  1304   0.138E-04
   1 F= -.22390111E+03 E0= -.22390111E+03  d E =-.810383E-27
