  64  64   0   0
  0.2197554E+02  0.1120400E-08  0.1120400E-08  0.1120400E-08  0.5000000E-15
  1.000000000000000E-004
  CAR 
 unknown system                          
     11.04301446    -22.84971590  301     -0.56524569      1.00000000
    -22.850  0.0000E+00  0.0000E+00
    -22.737  0.0000E+00  0.0000E+00
    -22.624  0.0000E+00  0.0000E+00
    -22.511  0.0000E+00  0.0000E+00
    -22.398  0.0000E+00  0.0000E+00
    -22.285  0.0000E+00  0.0000E+00
    -22.172  0.0000E+00  0.0000E+00
    -22.059  0.0000E+00  0.0000E+00
    -21.946  0.0000E+00  0.0000E+00
    -21.833  0.0000E+00  0.0000E+00
    -21.720  0.0000E+00  0.0000E+00
    -21.607  0.0000E+00  0.0000E+00
    -21.494  0.0000E+00  0.0000E+00
    -21.381  0.6951E-05  0.7853E-06
    -21.268  0.1305E+04  0.1474E+03
    -21.155  0.3948E+03  0.1920E+03
    -21.042  0.0000E+00  0.1920E+03
    -20.929  0.0000E+00  0.1920E+03
    -20.816  0.0000E+00  0.1920E+03
    -20.703  0.0000E+00  0.1920E+03
    -20.590  0.0000E+00  0.1920E+03
    -20.477  0.0000E+00  0.1920E+03
    -20.364  0.0000E+00  0.1920E+03
    -20.251  0.0000E+00  0.1920E+03
    -20.138  0.0000E+00  0.1920E+03
    -20.025  0.0000E+00  0.1920E+03
    -19.912  0.0000E+00  0.1920E+03
    -19.799  0.0000E+00  0.1920E+03
    -19.686  0.0000E+00  0.1920E+03
    -19.573  0.0000E+00  0.1920E+03
    -19.460  0.0000E+00  0.1920E+03
    -19.347  0.0000E+00  0.1920E+03
    -19.234  0.0000E+00  0.1920E+03
    -19.122  0.0000E+00  0.1920E+03
    -19.009  0.0000E+00  0.1920E+03
    -18.896  0.0000E+00  0.1920E+03
    -18.783  0.0000E+00  0.1920E+03
    -18.670  0.0000E+00  0.1920E+03
    -18.557  0.0000E+00  0.1920E+03
    -18.444  0.0000E+00  0.1920E+03
    -18.331  0.0000E+00  0.1920E+03
    -18.218  0.0000E+00  0.1920E+03
    -18.105  0.0000E+00  0.1920E+03
    -17.992  0.0000E+00  0.1920E+03
    -17.879  0.0000E+00  0.1920E+03
    -17.766  0.0000E+00  0.1920E+03
    -17.653  0.0000E+00  0.1920E+03
    -17.540  0.0000E+00  0.1920E+03
    -17.427  0.0000E+00  0.1920E+03
    -17.314  0.0000E+00  0.1920E+03
    -17.201  0.0000E+00  0.1920E+03
    -17.088  0.0000E+00  0.1920E+03
    -16.975  0.0000E+00  0.1920E+03
    -16.862  0.0000E+00  0.1920E+03
    -16.749  0.0000E+00  0.1920E+03
    -16.636  0.0000E+00  0.1920E+03
    -16.523  0.0000E+00  0.1920E+03
    -16.410  0.0000E+00  0.1920E+03
    -16.297  0.0000E+00  0.1920E+03
    -16.184  0.0000E+00  0.1920E+03
    -16.071  0.0000E+00  0.1920E+03
    -15.958  0.0000E+00  0.1920E+03
    -15.845  0.0000E+00  0.1920E+03
    -15.732  0.0000E+00  0.1920E+03
    -15.619  0.0000E+00  0.1920E+03
    -15.506  0.0000E+00  0.1920E+03
    -15.393  0.0000E+00  0.1920E+03
    -15.280  0.0000E+00  0.1920E+03
    -15.167  0.0000E+00  0.1920E+03
    -15.054  0.0000E+00  0.1920E+03
    -14.941  0.0000E+00  0.1920E+03
    -14.828  0.0000E+00  0.1920E+03
    -14.715  0.0000E+00  0.1920E+03
    -14.602  0.0000E+00  0.1920E+03
    -14.490  0.0000E+00  0.1920E+03
    -14.377  0.0000E+00  0.1920E+03
    -14.264  0.0000E+00  0.1920E+03
    -14.151  0.0000E+00  0.1920E+03
    -14.038  0.0000E+00  0.1920E+03
    -13.925  0.0000E+00  0.1920E+03
    -13.812  0.0000E+00  0.1920E+03
    -13.699  0.0000E+00  0.1920E+03
    -13.586  0.0000E+00  0.1920E+03
    -13.473  0.6142E-15  0.1920E+03
    -13.360  0.1003E+01  0.1921E+03
    -13.247  0.1846E+02  0.1942E+03
    -13.134  0.4861E+02  0.1997E+03
    -13.021  0.1235E+03  0.2136E+03
    -12.908  0.3684E+03  0.2553E+03
    -12.795  0.6526E+01  0.2560E+03
    -12.682  0.0000E+00  0.2560E+03
    -12.569  0.0000E+00  0.2560E+03
    -12.456  0.0000E+00  0.2560E+03
    -12.343  0.0000E+00  0.2560E+03
    -12.230  0.0000E+00  0.2560E+03
    -12.117  0.0000E+00  0.2560E+03
    -12.004  0.0000E+00  0.2560E+03
    -11.891  0.0000E+00  0.2560E+03
    -11.778  0.0000E+00  0.2560E+03
    -11.665  0.0000E+00  0.2560E+03
    -11.552  0.0000E+00  0.2560E+03
    -11.439  0.0000E+00  0.2560E+03
    -11.326  0.0000E+00  0.2560E+03
    -11.213  0.0000E+00  0.2560E+03
    -11.100  0.0000E+00  0.2560E+03
    -10.987  0.0000E+00  0.2560E+03
    -10.874  0.0000E+00  0.2560E+03
    -10.761  0.0000E+00  0.2560E+03
    -10.648  0.0000E+00  0.2560E+03
    -10.535  0.0000E+00  0.2560E+03
    -10.422  0.0000E+00  0.2560E+03
    -10.309  0.0000E+00  0.2560E+03
    -10.196  0.0000E+00  0.2560E+03
    -10.083  0.0000E+00  0.2560E+03
     -9.970  0.0000E+00  0.2560E+03
     -9.858  0.0000E+00  0.2560E+03
     -9.745  0.0000E+00  0.2560E+03
     -9.632  0.0000E+00  0.2560E+03
     -9.519  0.0000E+00  0.2560E+03
     -9.406  0.0000E+00  0.2560E+03
     -9.293  0.0000E+00  0.2560E+03
     -9.180  0.0000E+00  0.2560E+03
     -9.067  0.0000E+00  0.2560E+03
     -8.954  0.0000E+00  0.2560E+03
     -8.841  0.0000E+00  0.2560E+03
     -8.728  0.0000E+00  0.2560E+03
     -8.615  0.0000E+00  0.2560E+03
     -8.502  0.0000E+00  0.2560E+03
     -8.389  0.0000E+00  0.2560E+03
     -8.276  0.0000E+00  0.2560E+03
     -8.163  0.0000E+00  0.2560E+03
     -8.050  0.0000E+00  0.2560E+03
     -7.937  0.0000E+00  0.2560E+03
     -7.824  0.0000E+00  0.2560E+03
     -7.711  0.0000E+00  0.2560E+03
     -7.598  0.0000E+00  0.2560E+03
     -7.485  0.0000E+00  0.2560E+03
     -7.372  0.0000E+00  0.2560E+03
     -7.259  0.0000E+00  0.2560E+03
     -7.146  0.0000E+00  0.2560E+03
     -7.033  0.0000E+00  0.2560E+03
     -6.920  0.0000E+00  0.2560E+03
     -6.807  0.0000E+00  0.2560E+03
     -6.694  0.0000E+00  0.2560E+03
     -6.581  0.0000E+00  0.2560E+03
     -6.468  0.0000E+00  0.2560E+03
     -6.355  0.0000E+00  0.2560E+03
     -6.242  0.0000E+00  0.2560E+03
     -6.129  0.0000E+00  0.2560E+03
     -6.016  0.0000E+00  0.2560E+03
     -5.903  0.0000E+00  0.2560E+03
     -5.790  0.0000E+00  0.2560E+03
     -5.677  0.0000E+00  0.2560E+03
     -5.564  0.0000E+00  0.2560E+03
     -5.451  0.0000E+00  0.2560E+03
     -5.338  0.0000E+00  0.2560E+03
     -5.225  0.0000E+00  0.2560E+03
     -5.113  0.0000E+00  0.2560E+03
     -5.000  0.0000E+00  0.2560E+03
     -4.887  0.0000E+00  0.2560E+03
     -4.774  0.0000E+00  0.2560E+03
     -4.661  0.0000E+00  0.2560E+03
     -4.548  0.0000E+00  0.2560E+03
     -4.435  0.0000E+00  0.2560E+03
     -4.322  0.0000E+00  0.2560E+03
     -4.209  0.0000E+00  0.2560E+03
     -4.096  0.0000E+00  0.2560E+03
     -3.983  0.0000E+00  0.2560E+03
     -3.870  0.0000E+00  0.2560E+03
     -3.757  0.0000E+00  0.2560E+03
     -3.644  0.0000E+00  0.2560E+03
     -3.531  0.0000E+00  0.2560E+03
     -3.418  0.0000E+00  0.2560E+03
     -3.305  0.0000E+00  0.2560E+03
     -3.192  0.0000E+00  0.2560E+03
     -3.079  0.0000E+00  0.2560E+03
     -2.966  0.0000E+00  0.2560E+03
     -2.853  0.0000E+00  0.2560E+03
     -2.740  0.2061E-01  0.2560E+03
     -2.627  0.8831E+01  0.2570E+03
     -2.514  0.1321E+02  0.2585E+03
     -2.401  0.8857E+02  0.2685E+03
     -2.288  0.7938E+02  0.2775E+03
     -2.175  0.1596E+03  0.2955E+03
     -2.062  0.7750E+02  0.3042E+03
     -1.949  0.5397E+02  0.3103E+03
     -1.836  0.5313E+02  0.3163E+03
     -1.723  0.8321E+02  0.3257E+03
     -1.610  0.2671E-11  0.3258E+03
     -1.497  0.4328E+02  0.3306E+03
     -1.384  0.2143E+03  0.3549E+03
     -1.271  0.3388E+02  0.3587E+03
     -1.158  0.2334E+03  0.3850E+03
     -1.045  0.1537E+03  0.4024E+03
     -0.932  0.2392E+03  0.4294E+03
     -0.819  0.7822E+02  0.4383E+03
     -0.706  0.7911E+02  0.4472E+03
     -0.593  0.6931E+01  0.4480E+03
     -0.481  0.0000E+00  0.4480E+03
     -0.368  0.0000E+00  0.4480E+03
     -0.255  0.0000E+00  0.4480E+03
     -0.142  0.0000E+00  0.4480E+03
     -0.029  0.0000E+00  0.4480E+03
      0.084  0.0000E+00  0.4480E+03
      0.197  0.0000E+00  0.4480E+03
      0.310  0.0000E+00  0.4480E+03
      0.423  0.0000E+00  0.4480E+03
      0.536  0.0000E+00  0.4480E+03
      0.649  0.0000E+00  0.4480E+03
      0.762  0.0000E+00  0.4480E+03
      0.875  0.0000E+00  0.4480E+03
      0.988  0.0000E+00  0.4480E+03
      1.101  0.0000E+00  0.4480E+03
      1.214  0.0000E+00  0.4480E+03
      1.327  0.0000E+00  0.4480E+03
      1.440  0.0000E+00  0.4480E+03
      1.553  0.0000E+00  0.4480E+03
      1.666  0.0000E+00  0.4480E+03
      1.779  0.0000E+00  0.4480E+03
      1.892  0.0000E+00  0.4480E+03
      2.005  0.0000E+00  0.4480E+03
      2.118  0.0000E+00  0.4480E+03
      2.231  0.0000E+00  0.4480E+03
      2.344  0.0000E+00  0.4480E+03
      2.457  0.0000E+00  0.4480E+03
      2.570  0.0000E+00  0.4480E+03
      2.683  0.0000E+00  0.4480E+03
      2.796  0.0000E+00  0.4480E+03
      2.909  0.0000E+00  0.4480E+03
      3.022  0.0000E+00  0.4480E+03
      3.135  0.0000E+00  0.4480E+03
      3.248  0.0000E+00  0.4480E+03
      3.361  0.0000E+00  0.4480E+03
      3.474  0.0000E+00  0.4480E+03
      3.587  0.0000E+00  0.4480E+03
      3.700  0.0000E+00  0.4480E+03
      3.813  0.0000E+00  0.4480E+03
      3.926  0.0000E+00  0.4480E+03
      4.039  0.0000E+00  0.4480E+03
      4.151  0.0000E+00  0.4480E+03
      4.264  0.9195E-07  0.4480E+03
      4.377  0.2203E+01  0.4482E+03
      4.490  0.9494E-02  0.4482E+03
      4.603  0.0000E+00  0.4482E+03
      4.716  0.0000E+00  0.4482E+03
      4.829  0.0000E+00  0.4482E+03
      4.942  0.1569E-06  0.4483E+03
      5.055  0.1314E+02  0.4497E+03
      5.168  0.1418E+00  0.4498E+03
      5.281  0.0000E+00  0.4498E+03
      5.394  0.0000E+00  0.4498E+03
      5.507  0.3716E+00  0.4498E+03
      5.620  0.2618E+02  0.4527E+03
      5.733  0.3320E-09  0.4528E+03
      5.846  0.1479E+02  0.4544E+03
      5.959  0.2914E+01  0.4548E+03
      6.072  0.0000E+00  0.4548E+03
      6.185  0.0000E+00  0.4548E+03
      6.298  0.1376E-04  0.4548E+03
      6.411  0.1333E+02  0.4563E+03
      6.524  0.8799E+01  0.4572E+03
      6.637  0.2353E+02  0.4599E+03
      6.750  0.8181E+02  0.4692E+03
      6.863  0.5587E+02  0.4755E+03
      6.976  0.1311E+02  0.4769E+03
      7.089  0.4918E+01  0.4775E+03
      7.202  0.2407E+01  0.4778E+03
      7.315  0.4244E+01  0.4783E+03
      7.428  0.7832E+02  0.4871E+03
      7.541  0.1598E+03  0.5052E+03
      7.654  0.1410E+02  0.5068E+03
      7.767  0.2655E+02  0.5097E+03
      7.880  0.6005E-02  0.5098E+03
      7.993  0.5310E+02  0.5157E+03
      8.106  0.1042E-03  0.5158E+03
      8.219  0.1331E+02  0.5173E+03
      8.332  0.9264E+02  0.5277E+03
      8.445  0.2607E+00  0.5278E+03
      8.558  0.1219E+03  0.5415E+03
      8.671  0.3744E+02  0.5457E+03
      8.783  0.1719E-08  0.5458E+03
      8.896  0.6078E+02  0.5526E+03
      9.009  0.1311E+03  0.5674E+03
      9.122  0.1834E+02  0.5695E+03
      9.235  0.9906E+01  0.5706E+03
      9.348  0.3435E+02  0.5745E+03
      9.461  0.2411E+00  0.5745E+03
      9.574  0.1304E+02  0.5760E+03
      9.687  0.0000E+00  0.5760E+03
      9.800  0.0000E+00  0.5760E+03
      9.913  0.0000E+00  0.5760E+03
     10.026  0.0000E+00  0.5760E+03
     10.139  0.0000E+00  0.5760E+03
     10.252  0.0000E+00  0.5760E+03
     10.365  0.0000E+00  0.5760E+03
     10.478  0.0000E+00  0.5760E+03
     10.591  0.0000E+00  0.5760E+03
     10.704  0.0000E+00  0.5760E+03
     10.817  0.0000E+00  0.5760E+03
     10.930  0.0000E+00  0.5760E+03
     11.043  0.0000E+00  0.5760E+03
