       N       E                     dE             d eps       ncg     rms          rms(c)
DAV:   1     0.431682386581E+04    0.43168E+04   -0.17182E+05  3456   0.125E+03
DAV:   2     0.363436695670E+03   -0.39534E+04   -0.37615E+04  3840   0.367E+02
DAV:   3    -0.206224592872E+03   -0.56966E+03   -0.56543E+03  4224   0.156E+02
DAV:   4    -0.228193813856E+03   -0.21969E+02   -0.21871E+02  4160   0.331E+01
DAV:   5    -0.229006623778E+03   -0.81281E+00   -0.81151E+00  4320   0.616E+00    0.106E+01
DAV:   6    -0.224137288331E+03    0.48693E+01   -0.95053E+00  4320   0.527E+00    0.777E+00
DAV:   7    -0.223777213609E+03    0.36007E+00   -0.20559E+00  4672   0.235E+00    0.534E+00
DAV:   8    -0.223902352298E+03   -0.12514E+00   -0.26543E-01  4032   0.123E+00    0.140E+00
DAV:   9    -0.223897021489E+03    0.53308E-02   -0.11339E-02  4224   0.260E-01    0.596E-01
DAV:  10    -0.223901334431E+03   -0.43129E-02   -0.17761E-02  4000   0.229E-01    0.283E-01
DAV:  11    -0.223900651097E+03    0.68333E-03   -0.14915E-03  4480   0.819E-02    0.862E-02
DAV:  12    -0.223900614106E+03    0.36991E-04   -0.14185E-04  4448   0.231E-02    0.160E-02
DAV:  13    -0.223900614045E+03    0.61402E-07   -0.23103E-05  4096   0.824E-03    0.414E-03
DAV:  14    -0.223900615711E+03   -0.16664E-05   -0.18983E-06  4128   0.353E-03    0.763E-03
DAV:  15    -0.223900616769E+03   -0.10579E-05   -0.33624E-07  4064   0.151E-03    0.348E-03
DAV:  16    -0.223900617283E+03   -0.51424E-06   -0.12846E-07  4192   0.852E-04    0.644E-04
DAV:  17    -0.223900617343E+03   -0.59430E-07   -0.90723E-09  2752   0.635E-04    0.130E-04
DAV:  18    -0.223900617405E+03   -0.62697E-07   -0.81391E-09  2688   0.377E-04    0.423E-04
DAV:  19    -0.223900617368E+03    0.37428E-07   -0.45468E-09  2304   0.245E-04    0.305E-04
DAV:  20    -0.223900617332E+03    0.35361E-07   -0.18870E-09  2464   0.323E-04    0.191E-04
DAV:  21    -0.223900617300E+03    0.32123E-07   -0.15504E-09  2272   0.137E-04    0.857E-05
DAV:  22    -0.223900617299E+03    0.14843E-08   -0.64951E-10  2304   0.116E-04
   1 F= -.22390062E+03 E0= -.22390062E+03  d E =-.726226E-13
