 vasp.6.3.2 27Jun22 (build Oct 14 2022 12:13:54) complex                        
  
 executed on             LinuxIFC date 2025.08.28  22:01:02
 running on   32 total cores
 distrk:  each k-point on   32 cores,    1 groups
 distr:  one band on NCORE=   1 cores,   32 groups


--------------------------------------------------------------------------------------------------------


 INCAR:
   ENCUT = 341.213600
   SIGMA = 0.020000
   EDIFF = 1.00e-08
   GGA = PS
   PREC = Accurate
   IALGO = 38
   IBRION = -1
   ISMEAR = 0
   NELMIN = 5
   ADDGRID = .TRUE.
   LCHARG = .FALSE.
   LWAVE = .FALSE.
   LREAL = .FALSE.

 POTCAR:    PAW_PBE Na_pv 19Sep2006               
 POTCAR:    PAW_PBE Cl 06Sep2000                  
 -----------------------------------------------------------------------------
|                                                                             |
|           W    W    AA    RRRRR   N    N  II  N    N   GGGG   !!!           |
|           W    W   A  A   R    R  NN   N  II  NN   N  G    G  !!!           |
|           W    W  A    A  R    R  N N  N  II  N N  N  G       !!!           |
|           W WW W  AAAAAA  RRRRR   N  N N  II  N  N N  G  GGG   !            |
|           WW  WW  A    A  R   R   N   NN  II  N   NN  G    G                |
|           W    W  A    A  R    R  N    N  II  N    N   GGGG   !!!           |
|                                                                             |
|     For optimal performance we recommend to set                             |
|       NCORE = 2 up to number-of-cores-per-socket                            |
|     NCORE specifies how many cores store one orbital (NPAR=cpu/NCORE).      |
|     This setting can greatly improve the performance of VASP for DFT.       |
|     The default, NCORE=1 might be grossly inefficient on modern             |
|     multi-core architectures or massively parallel machines. Do your        |
|     own testing! More info at https://www.vasp.at/wiki/index.php/NCORE      |
|     Unfortunately you need to use the default for GW and RPA                |
|     calculations (for HF NCORE is supported but not extensively tested      |
|     yet).                                                                   |
|                                                                             |
 -----------------------------------------------------------------------------

 POTCAR:    PAW_PBE Na_pv 19Sep2006               
   SHA256 =  6a2f546d9e11350984debacf3dc457d8cffc0868e817d445faca461816a32b94 Na_pv/POTCAR          
   COPYR  = (c) Copyright 19Sep2006 Georg Kresse                                                    
   COPYR  = This file is part of the software VASP. Any use, copying, and all other rights are regul
   COPYR  = If you do not have a valid VASP license, you may not use, copy or distribute this file. 
   VRHFIN =Na: p6s1                                                                                 
   LEXCH  = PE                                                                                      
   EATOM  =   766.0439 eV,   56.3026 Ry                                                             
                                                                                                    
   TITEL  = PAW_PBE Na_pv 19Sep2006                                                                 
   LULTRA =        F    use ultrasoft PP ?                                                          
   IUNSCR =        1    unscreen: 0-lin 1-nonlin 2-no                                               
   RPACOR =    1.800    partial core radius                                                         
   POMASS =   22.990; ZVAL   =    7.000    mass and valenz                                          
   RCORE  =    2.200    outmost cutoff radius                                                       
   RWIGS  =    2.200; RWIGS  =    1.164    wigner-seitz radius (au A)                               
   ENMAX  =  259.561; ENMIN  =  194.671 eV                                                          
   ICORE  =        2    local potential                                                             
   LCOR   =        T    correct aug charges                                                         
   LPAW   =        T    paw PP                                                                      
   EAUG   =  368.056                                                                                
   DEXC   =    0.000                                                                                
   RMAX   =    2.245    core radius for proj-oper                                                   
   RAUG   =    1.300    factor for augmentation sphere                                              
   RDEP   =    2.259    radius for radial grids                                                     
   RDEPT  =    1.738    core radius for aug-charge                                                  
                                                                                                    
   Atomic configuration                                                                             
    5 entries                                                                                       
     n  l   j            E        occ.                                                              
     1  0  0.50     -1033.6933   2.0000                                                             
     2  0  0.50       -56.7526   2.0000                                                             
     2  1  1.50       -28.6721   6.0000                                                             
     3  0  0.50        -2.7440   1.0000                                                             
     3  2  1.50        -1.3606   0.0000                                                             
   Description                                                                                      
     l       E           TYP  RCUT    TYP  RCUT                                                     
     1    -28.6720912     23  2.000                                                                 
     1      6.8029130     23  2.000                                                                 
     0     -2.7439560     23  2.200                                                                 
     0     34.0145650     23  2.200                                                                 
     2     -1.3605826     23  2.200                                                                 
  local pseudopotential read in
  partial core-charges read in
  partial kinetic energy density read in
  atomic valenz-charges read in
  non local Contribution for L=           1  read in
    real space projection operators read in
  non local Contribution for L=           1  read in
    real space projection operators read in
  non local Contribution for L=           0  read in
    real space projection operators read in
  non local Contribution for L=           0  read in
    real space projection operators read in
    PAW grid and wavefunctions read in
 
   number of l-projection  operators is LMAX  =           4
   number of lm-projection operators is LMMAX =           8
 
 POTCAR:    PAW_PBE Cl 06Sep2000                  
   SHA256 =  9f1b6e6ed4247ac726a768b330d26d7667cc3c95a39ff49c1d064c2d9dcce931 Cl/POTCAR             
   COPYR  = (c) Copyright 06Sep2000 Georg Kresse                                                    
   COPYR  = This file is part of the software VASP. Any use, copying, and all other rights are regul
   COPYR  = If you do not have a valid VASP license, you may not use, copy or distribute this file. 
   VRHFIN =Cl: s2p5                                                                                 
   LEXCH  = PE                                                                                      
   EATOM  =   409.7259 eV,   30.1140 Ry                                                             
                                                                                                    
   TITEL  = PAW_PBE Cl 06Sep2000                                                                    
   LULTRA =        F    use ultrasoft PP ?                                                          
   IUNSCR =        1    unscreen: 0-lin 1-nonlin 2-no                                               
   RPACOR =    1.500    partial core radius                                                         
   POMASS =   35.453; ZVAL   =    7.000    mass and valenz                                          
   RCORE  =    1.900    outmost cutoff radius                                                       
   RWIGS  =    2.100; RWIGS  =    1.111    wigner-seitz radius (au A)                               
   ENMAX  =  262.472; ENMIN  =  196.854 eV                                                          
   ICORE  =        2    local potential                                                             
   LCOR   =        T    correct aug charges                                                         
   LPAW   =        T    paw PP                                                                      
   EAUG   =  356.192                                                                                
   DEXC   =    0.000                                                                                
   RMAX   =    1.945    core radius for proj-oper                                                   
   RAUG   =    1.300    factor for augmentation sphere                                              
   RDEP   =    2.020    radius for radial grids                                                     
   RDEPT  =    1.678    core radius for aug-charge                                                  
                                                                                                    
   Atomic configuration                                                                             
    6 entries                                                                                       
     n  l   j            E        occ.                                                              
     1  0  0.50     -2751.1850   2.0000                                                             
     2  0  0.50      -252.6861   2.0000                                                             
     2  1  1.50      -191.6157   6.0000                                                             
     3  0  0.50       -20.6916   2.0000                                                             
     3  1  0.50        -8.5949   5.0000                                                             
     3  2  1.50        -8.1635   0.0000                                                             
   Description                                                                                      
     l       E           TYP  RCUT    TYP  RCUT                                                     
     0    -20.6915656     23  1.900                                                                 
     0    -22.0521482     23  1.900                                                                 
     1     -8.5948577     23  1.900                                                                 
     1     -5.3847331     23  1.900                                                                 
     2     -8.1634956     23  1.900                                                                 
  local pseudopotential read in
  partial core-charges read in
  partial kinetic energy density read in
  atomic valenz-charges read in
  non local Contribution for L=           0  read in
    real space projection operators read in
  non local Contribution for L=           0  read in
    real space projection operators read in
  non local Contribution for L=           1  read in
    real space projection operators read in
  non local Contribution for L=           1  read in
    real space projection operators read in
    PAW grid and wavefunctions read in
 
   number of l-projection  operators is LMAX  =           4
   number of lm-projection operators is LMMAX =           8
 
 -----------------------------------------------------------------------------
|                                                                             |
|               ----> ADVICE to this user running VASP <----                  |
|                                                                             |
|     You have a (more or less) 'large supercell' and for larger cells it     |
|     might be more efficient to use real-space projection operators.         |
|     Therefore, try LREAL= Auto in the INCAR file.                           |
|     Mind: For very accurate calculation, you might also keep the            |
|     reciprocal projection scheme (i.e. LREAL=.FALSE.).                      |
|                                                                             |
 -----------------------------------------------------------------------------

 -----------------------------------------------------------------------------
|                                                                             |
|               ----> ADVICE to this user running VASP <----                  |
|                                                                             |
|     You enforced a specific xc type in the INCAR file but a different       |
|     type was found in the POTCAR file.                                      |
|     I HOPE YOU KNOW WHAT YOU ARE DOING!                                     |
|                                                                             |
 -----------------------------------------------------------------------------

  PAW_PBE Na_pv 19Sep2006               :
 energy of atom  1       EATOM= -766.0439
 kinetic energy error for atom=    0.0189 (will be added to EATOM!!)
  PAW_PBE Cl 06Sep2000                  :
 energy of atom  2       EATOM= -409.7259
 kinetic energy error for atom=    0.0106 (will be added to EATOM!!)
 
 
 POSCAR: Na Cl
  positions in cartesian coordinates
  No initial velocities read in
 exchange correlation table for  LEXCH =       14
   RHO(1)=    0.500       N(1)  =     2000
   RHO(2)=  100.500       N(2)  =     4000
 


--------------------------------------------------------------------------------------------------------


 ion  position               nearest neighbor table
   1  0.997  0.000  0.000-
   2  0.250  0.250  0.000-
   3  0.250  0.000  0.250-
   4  0.000  0.250  0.250-
   5  0.000  0.000  0.500-
   6  0.250  0.250  0.500-
   7  0.250  0.000  0.750-
   8  0.000  0.250  0.750-
   9  0.000  0.500  0.000-
  10  0.250  0.750  0.000-
  11  0.250  0.500  0.250-
  12  0.000  0.750  0.250-
  13  0.000  0.500  0.500-
  14  0.250  0.750  0.500-
  15  0.250  0.500  0.750-
  16  0.000  0.750  0.750-
  17  0.500  0.000  0.000-
  18  0.750  0.250  0.000-
  19  0.750  0.000  0.250-
  20  0.500  0.250  0.250-
  21  0.500  0.000  0.500-
  22  0.750  0.250  0.500-
  23  0.750  0.000  0.750-
  24  0.500  0.250  0.750-
  25  0.500  0.500  0.000-
  26  0.750  0.750  0.000-
  27  0.750  0.500  0.250-
  28  0.500  0.750  0.250-
  29  0.500  0.500  0.500-
  30  0.750  0.750  0.500-
  31  0.750  0.500  0.750-
  32  0.500  0.750  0.750-
  33  0.247  0.250  0.250-
  34  0.000  0.000  0.250-
  35  0.000  0.250  0.000-
  36  0.250  0.000  0.000-
  37  0.250  0.250  0.750-
  38  0.000  0.000  0.750-
  39  0.000  0.250  0.500-
  40  0.250  0.000  0.500-
  41  0.250  0.750  0.250-
  42  0.000  0.500  0.250-
  43  0.000  0.750  0.000-
  44  0.250  0.500  0.000-
  45  0.250  0.750  0.750-
  46  0.000  0.500  0.750-
  47  0.000  0.750  0.500-
  48  0.250  0.500  0.500-
  49  0.750  0.250  0.250-
  50  0.500  0.000  0.250-
  51  0.500  0.250  0.000-
  52  0.750  0.000  0.000-
  53  0.750  0.250  0.750-
  54  0.500  0.000  0.750-
  55  0.500  0.250  0.500-
  56  0.750  0.000  0.500-
  57  0.750  0.750  0.250-
  58  0.500  0.500  0.250-
  59  0.500  0.750  0.000-
  60  0.750  0.500  0.000-
  61  0.750  0.750  0.750-
  62  0.500  0.500  0.750-
  63  0.500  0.750  0.500-
  64  0.750  0.500  0.500-
 
  LATTYP: Found a simple cubic cell.
 ALAT       =    11.2040023600
  
  Lattice vectors:
  
 A1 = (  11.2040023600,   0.0000000000,   0.0000000000)
 A2 = (   0.0000000000,  11.2040023600,   0.0000000000)
 A3 = (   0.0000000000,   0.0000000000,  11.2040023600)


Analysis of symmetry for initial positions (statically):
=====================================================================
 Subroutine PRICEL returns:
 Original cell was already a primitive cell.
 

 Routine SETGRP: Setting up the symmetry group for a 
 simple cubic supercell.


 Subroutine GETGRP returns: Found  2 space group operations
 (whereof  2 operations were pure point group operations)
 out of a pool of 48 trial point group operations.


The static configuration has the point symmetry C_1h.


Analysis of symmetry for dynamics (positions and initial velocities):
=====================================================================
 Subroutine PRICEL returns:
 Original cell was already a primitive cell.
 

 Routine SETGRP: Setting up the symmetry group for a 
 simple cubic supercell.


 Subroutine GETGRP returns: Found  2 space group operations
 (whereof  2 operations were pure point group operations)
 out of a pool of 48 trial point group operations.


The dynamic configuration has the point symmetry C_1h.


 Subroutine INISYM returns: Found  2 space group operations
 (whereof  2 operations are pure point group operations),
 and found     1 'primitive' translations


----------------------------------------------------------------------------------------

                                     Primitive cell                                     

  volume of cell :    1406.4347

  direct lattice vectors                    reciprocal lattice vectors
    11.204002360  0.000000000  0.000000000     0.089253819  0.000000000  0.000000000
     0.000000000 11.204002360  0.000000000     0.000000000  0.089253819  0.000000000
     0.000000000  0.000000000 11.204002360     0.000000000  0.000000000  0.089253819

  length of vectors
    11.204002360 11.204002360 11.204002360     0.089253819  0.089253819  0.089253819

  position of ions in fractional coordinates (direct lattice)
     0.997322385  0.000000000  0.000000000
     0.250000000  0.250000000  0.000000000
     0.250000000  0.000000000  0.250000000
     0.000000000  0.250000000  0.250000000
     0.000000000  0.000000000  0.500000000
     0.250000000  0.250000000  0.500000000
     0.250000000  0.000000000  0.750000000
     0.000000000  0.250000000  0.750000000
     0.000000000  0.500000000  0.000000000
     0.250000000  0.750000000  0.000000000
     0.250000000  0.500000000  0.250000000
     0.000000000  0.750000000  0.250000000
     0.000000000  0.500000000  0.500000000
     0.250000000  0.750000000  0.500000000
     0.250000000  0.500000000  0.750000000
     0.000000000  0.750000000  0.750000000
     0.500000000  0.000000000  0.000000000
     0.750000000  0.250000000  0.000000000
     0.750000000  0.000000000  0.250000000
     0.500000000  0.250000000  0.250000000
     0.500000000  0.000000000  0.500000000
     0.750000000  0.250000000  0.500000000
     0.750000000  0.000000000  0.750000000
     0.500000000  0.250000000  0.750000000
     0.500000000  0.500000000  0.000000000
     0.750000000  0.750000000  0.000000000
     0.750000000  0.500000000  0.250000000
     0.500000000  0.750000000  0.250000000
     0.500000000  0.500000000  0.500000000
     0.750000000  0.750000000  0.500000000
     0.750000000  0.500000000  0.750000000
     0.500000000  0.750000000  0.750000000
     0.247322385  0.250000000  0.250000000
     0.000000000  0.000000000  0.250000000
     0.000000000  0.250000000  0.000000000
     0.250000000  0.000000000  0.000000000
     0.250000000  0.250000000  0.750000000
     0.000000000  0.000000000  0.750000000
     0.000000000  0.250000000  0.500000000
     0.250000000  0.000000000  0.500000000
     0.250000000  0.750000000  0.250000000
     0.000000000  0.500000000  0.250000000
     0.000000000  0.750000000  0.000000000
     0.250000000  0.500000000  0.000000000
     0.250000000  0.750000000  0.750000000
     0.000000000  0.500000000  0.750000000
     0.000000000  0.750000000  0.500000000
     0.250000000  0.500000000  0.500000000
     0.750000000  0.250000000  0.250000000
     0.500000000  0.000000000  0.250000000
     0.500000000  0.250000000  0.000000000
     0.750000000  0.000000000  0.000000000
     0.750000000  0.250000000  0.750000000
     0.500000000  0.000000000  0.750000000
     0.500000000  0.250000000  0.500000000
     0.750000000  0.000000000  0.500000000
     0.750000000  0.750000000  0.250000000
     0.500000000  0.500000000  0.250000000
     0.500000000  0.750000000  0.000000000
     0.750000000  0.500000000  0.000000000
     0.750000000  0.750000000  0.750000000
     0.500000000  0.500000000  0.750000000
     0.500000000  0.750000000  0.500000000
     0.750000000  0.500000000  0.500000000

  ion indices of the primitive-cell ions
   primitive index   ion index
                 1           1
                 2           2
                 3           3
                 4           4
                 5           5
                 6           6
                 7           7
                 8           8
                 9           9
                10          10
                11          11
                12          12
                13          13
                14          14
                15          15
                16          16
                17          17
                18          18
                19          19
                20          20
                21          21
                22          22
                23          23
                24          24
                25          25
                26          26
                27          27
                28          28
                29          29
                30          30
                31          31
                32          32
                33          33
                34          34
                35          35
                36          36
                37          37
                38          38
                39          39
                40          40
                41          41
                42          42
                43          43
                44          44
                45          45
                46          46
                47          47
                48          48
                49          49
                50          50
                51          51
                52          52
                53          53
                54          54
                55          55
                56          56
                57          57
                58          58
                59          59
                60          60
                61          61
                62          62
                63          63
                64          64

----------------------------------------------------------------------------------------

 
 
 KPOINTS: KPOINTS created by Atomic Simulation Env

Automatic generation of k-mesh.
 Grid dimensions read from file:
 generate k-points for:    2    2    2

 Generating k-lattice:

  Cartesian coordinates                     Fractional coordinates (reciprocal lattice)
     0.044626910  0.000000000  0.000000000     0.500000000  0.000000000  0.000000000
     0.000000000  0.044626910  0.000000000     0.000000000  0.500000000  0.000000000
     0.000000000  0.000000000  0.044626910     0.000000000  0.000000000  0.500000000

  Length of vectors
     0.044626910  0.044626910  0.044626910

  Shift w.r.t. Gamma in fractional coordinates (k-lattice)
     0.000000000  0.000000000  0.000000000

 
 Subroutine IBZKPT returns following result:
 ===========================================
 
 Found      6 irreducible k-points:
 
 Following reciprocal coordinates:
            Coordinates               Weight
  0.000000  0.000000  0.000000      1.000000
  0.500000  0.000000  0.000000      1.000000
  0.000000  0.500000  0.000000      2.000000
  0.500000  0.500000  0.000000      2.000000
  0.000000  0.500000  0.500000      1.000000
  0.500000  0.500000  0.500000      1.000000
 
 Following cartesian coordinates:
            Coordinates               Weight
  0.000000  0.000000  0.000000      1.000000
  0.044627  0.000000  0.000000      1.000000
  0.000000  0.044627  0.000000      2.000000
  0.044627  0.044627  0.000000      2.000000
  0.000000  0.044627  0.044627      1.000000
  0.044627  0.044627  0.044627      1.000000
 


--------------------------------------------------------------------------------------------------------




 Dimension of arrays:
   k-points           NKPTS =      6   k-points in BZ     NKDIM =      6   number of bands    NBANDS=    288
   number of dos      NEDOS =    301   number of ions     NIONS =     64
   non local maximal  LDIM  =      4   non local SUM 2l+1 LMDIM =      8
   total plane-waves  NPLWV = 343000
   max r-space proj   IRMAX =      1   max aug-charges    IRDMAX=  56280
   dimension x,y,z NGX =    70 NGY =   70 NGZ =   70
   dimension x,y,z NGXF=   140 NGYF=  140 NGZF=  140
   support grid    NGXF=   280 NGYF=  280 NGZF=  280
   ions per type =              32  32
   NGX,Y,Z   is equivalent  to a cutoff of  10.39, 10.39, 10.39 a.u.
   NGXF,Y,Z  is equivalent  to a cutoff of  20.77, 20.77, 20.77 a.u.

 SYSTEM =  unknown system                          
 POSCAR =  Na Cl                                   

 Startparameter for this run:
   NWRITE =      2    write-flag & timer
   PREC   = accura    normal or accurate (medium, high low for compatibility)
   ISTART =      0    job   : 0-new  1-cont  2-samecut
   ICHARG =      2    charge: 1-file 2-atom 10-const
   ISPIN  =      1    spin polarized calculation?
   LNONCOLLINEAR =      F non collinear calculations
   LSORBIT =      F    spin-orbit coupling
   INIWAV =      1    electr: 0-lowe 1-rand  2-diag
   LASPH  =      F    aspherical Exc in radial PAW
 Electronic Relaxation 1
   ENCUT  =  341.2 eV  25.08 Ry    5.01 a.u.  16.87 16.87 16.87*2*pi/ulx,y,z
   ENINI  =  341.2     initial cutoff
   ENAUG  =  368.1 eV  augmentation charge cutoff
   NELM   =     60;   NELMIN=  5; NELMDL= -5     # of ELM steps 
   EDIFF  = 0.1E-07   stopping-criterion for ELM
   LREAL  =      F    real-space projection
   NLSPLINE    = F    spline interpolate recip. space projectors
   LCOMPAT=      F    compatible to vasp.4.4
   GGA_COMPAT  = T    GGA compatible to vasp.4.4-vasp.4.6
   LMAXPAW     = -100 max onsite density
   LMAXMIX     =    2 max onsite mixed and CHGCAR
   VOSKOWN=      0    Vosko Wilk Nusair interpolation
   ROPT   =    0.00000   0.00000
 Ionic relaxation
   EDIFFG = 0.1E-06   stopping-criterion for IOM
   NSW    =      0    number of steps for IOM
   NBLOCK =      1;   KBLOCK =      1    inner block; outer block 
   IBRION =     -1    ionic relax: 0-MD 1-quasi-New 2-CG
   NFREE  =      0    steps in history (QN), initial steepest desc. (CG)
   ISIF   =      2    stress and relaxation
   IWAVPR =     10    prediction:  0-non 1-charg 2-wave 3-comb
   ISYM   =      2    0-nonsym 1-usesym 2-fastsym
   LCORR  =      T    Harris-Foulkes like correction to forces

   POTIM  = 0.5000    time-step for ionic-motion
   TEIN   =    0.0    initial temperature
   TEBEG  =    0.0;   TEEND  =   0.0 temperature during run
   SMASS  =  -3.00    Nose mass-parameter (am)
   estimated Nose-frequenzy (Omega)   =  0.10E-29 period in steps = 0.13E+47 mass=  -0.287E-26a.u.
   SCALEE = 1.0000    scale energy and forces
   NPACO  =    256;   APACO  = 10.0  distance and # of slots for P.C.
   PSTRESS=    0.0 pullay stress

  Mass of Ions in am
   POMASS =  22.99 35.45
  Ionic Valenz
   ZVAL   =   7.00  7.00
  Atomic Wigner-Seitz radii
   RWIGS  =  -1.00 -1.00
  virtual crystal weights 
   VCA    =   1.00  1.00
   NELECT =     448.0000    total number of electrons
   NUPDOWN=      -1.0000    fix difference up-down

 DOS related values:
   EMIN   =  10.00;   EMAX   =-10.00  energy-range for DOS
   EFERMI =   0.00
   ISMEAR =     0;   SIGMA  =   0.02  broadening in eV -4-tet -1-fermi 0-gaus

 Electronic relaxation 2 (details)
   IALGO  =     38    algorithm
   LDIAG  =      T    sub-space diagonalisation (order eigenvalues)
   LSUBROT=      F    optimize rotation matrix (better conditioning)
   TURBO    =      0    0=normal 1=particle mesh
   IRESTART =      0    0=no restart 2=restart with 2 vectors
   NREBOOT  =      0    no. of reboots
   NMIN     =      0    reboot dimension
   EREF     =   0.00    reference energy to select bands
   IMIX   =      4    mixing-type and parameters
     AMIX     =   0.40;   BMIX     =  1.00
     AMIX_MAG =   1.60;   BMIX_MAG =  1.00
     AMIN     =   0.10
     WC   =   100.;   INIMIX=   1;  MIXPRE=   1;  MAXMIX= -45

 Intra band minimization:
   WEIMIN = 0.0000     energy-eigenvalue tresh-hold
   EBREAK =  0.87E-11  absolut break condition
   DEPER  =   0.30     relativ break condition  

   TIME   =   0.40     timestep for ELM

  volume/ion in A,a.u.               =      21.98       148.30
  Fermi-wavevector in a.u.,A,eV,Ry     =   1.118049  2.112807 17.007750  1.250034
  Thomas-Fermi vector in A             =   2.254677
 
 Write flags
   LWAVE        =      F    write WAVECAR
   LDOWNSAMPLE  =      F    k-point downsampling of WAVECAR
   LCHARG       =      F    write CHGCAR
   LVTOT        =      F    write LOCPOT, total local potential
   LVHAR        =      F    write LOCPOT, Hartree potential only
   LELF         =      F    write electronic localiz. function (ELF)
   LORBIT       =      0    0 simple, 1 ext, 2 COOP (PROOUT), +10 PAW based schemes


 Dipole corrections
   LMONO  =      F    monopole corrections only (constant potential shift)
   LDIPOL =      F    correct potential (dipole corrections)
   IDIPOL =      0    1-x, 2-y, 3-z, 4-all directions 
   EPSILON=  1.0000000 bulk dielectric constant

 Exchange correlation treatment:
   GGA     =    PS    GGA type
   LEXCH   =    14    internal setting for exchange type
   LIBXC   =     F    Libxc                    
   VOSKOWN =     0    Vosko Wilk Nusair interpolation
   LHFCALC =     F    Hartree Fock is set to
   LHFONE  =     F    Hartree Fock one center treatment
   AEXX    =    0.0000 exact exchange contribution

 Linear response parameters
   LEPSILON=     F    determine dielectric tensor
   LRPA    =     F    only Hartree local field effects (RPA)
   LNABLA  =     F    use nabla operator in PAW spheres
   LVEL    =     F    velocity operator in full k-point grid
   CSHIFT  =0.1000    complex shift for real part using Kramers Kronig
   OMEGAMAX=  -1.0    maximum frequency
   DEG_THRESHOLD= 0.2000000E-02 threshold for treating states as degnerate
   RTIME   =   -0.100 relaxation time in fs
  (WPLASMAI=    0.000 imaginary part of plasma frequency in eV, 0.658/RTIME)
   DFIELD  = 0.0000000 0.0000000 0.0000000 field for delta impulse in time
 
  Optional k-point grid parameters
   LKPOINTS_OPT  =     F    use optional k-point grid
   KPOINTS_OPT_MODE=     1    mode for optional k-point grid
 
 Orbital magnetization related:
   ORBITALMAG=     F  switch on orbital magnetization
   LCHIMAG   =     F  perturbation theory with respect to B field
   DQ        =  0.001000  dq finite difference perturbation B field
   LLRAUG    =     F  two centre corrections for induced B field



--------------------------------------------------------------------------------------------------------


 Static calculation
 charge density and potential will be updated during run
 non-spin polarized calculation
 Variant of blocked Davidson
 Davidson routine will perform the subspace rotation
 perform sub-space diagonalisation
    after iterative eigenvector-optimisation
 modified Broyden-mixing scheme, WC =      100.0
 initial mixing is a Kerker type mixing with AMIX =  0.4000 and BMIX =      1.0000
 Hartree-type preconditioning will be used
 using additional bands           64
 reciprocal scheme for non local part
 use partial core corrections
 calculate Harris-corrections to forces 
   (improved forces if not selfconsistent)
 use gradient corrections 
 use of overlap-Matrix (Vanderbilt PP)
 Gauss-broadening in eV      SIGMA  =   0.02


--------------------------------------------------------------------------------------------------------


  energy-cutoff  :      341.21
  volume of cell :     1406.43
      direct lattice vectors                 reciprocal lattice vectors
    11.204002360  0.000000000  0.000000000     0.089253819  0.000000000  0.000000000
     0.000000000 11.204002360  0.000000000     0.000000000  0.089253819  0.000000000
     0.000000000  0.000000000 11.204002360     0.000000000  0.000000000  0.089253819

  length of vectors
    11.204002360 11.204002360 11.204002360     0.089253819  0.089253819  0.089253819


 
 k-points in units of 2pi/SCALE and weight: KPOINTS created by Atomic Simulation Env
   0.00000000  0.00000000  0.00000000       0.125
   0.04462691  0.00000000  0.00000000       0.125
   0.00000000  0.04462691  0.00000000       0.250
   0.04462691  0.04462691  0.00000000       0.250
   0.00000000  0.04462691  0.04462691       0.125
   0.04462691  0.04462691  0.04462691       0.125
 
 k-points in reciprocal lattice and weights: KPOINTS created by Atomic Simulation Env
   0.00000000  0.00000000  0.00000000       0.125
   0.50000000  0.00000000  0.00000000       0.125
   0.00000000  0.50000000  0.00000000       0.250
   0.50000000  0.50000000  0.00000000       0.250
   0.00000000  0.50000000  0.50000000       0.125
   0.50000000  0.50000000  0.50000000       0.125
 
 position of ions in fractional coordinates (direct lattice) 
   0.99732239  0.00000000  0.00000000
   0.25000000  0.25000000  0.00000000
   0.25000000  0.00000000  0.25000000
   0.00000000  0.25000000  0.25000000
   0.00000000  0.00000000  0.50000000
   0.25000000  0.25000000  0.50000000
   0.25000000  0.00000000  0.75000000
   0.00000000  0.25000000  0.75000000
   0.00000000  0.50000000  0.00000000
   0.25000000  0.75000000  0.00000000
   0.25000000  0.50000000  0.25000000
   0.00000000  0.75000000  0.25000000
   0.00000000  0.50000000  0.50000000
   0.25000000  0.75000000  0.50000000
   0.25000000  0.50000000  0.75000000
   0.00000000  0.75000000  0.75000000
   0.50000000  0.00000000  0.00000000
   0.75000000  0.25000000  0.00000000
   0.75000000  0.00000000  0.25000000
   0.50000000  0.25000000  0.25000000
   0.50000000  0.00000000  0.50000000
   0.75000000  0.25000000  0.50000000
   0.75000000  0.00000000  0.75000000
   0.50000000  0.25000000  0.75000000
   0.50000000  0.50000000  0.00000000
   0.75000000  0.75000000  0.00000000
   0.75000000  0.50000000  0.25000000
   0.50000000  0.75000000  0.25000000
   0.50000000  0.50000000  0.50000000
   0.75000000  0.75000000  0.50000000
   0.75000000  0.50000000  0.75000000
   0.50000000  0.75000000  0.75000000
   0.24732239  0.25000000  0.25000000
   0.00000000  0.00000000  0.25000000
   0.00000000  0.25000000  0.00000000
   0.25000000  0.00000000  0.00000000
   0.25000000  0.25000000  0.75000000
   0.00000000  0.00000000  0.75000000
   0.00000000  0.25000000  0.50000000
   0.25000000  0.00000000  0.50000000
   0.25000000  0.75000000  0.25000000
   0.00000000  0.50000000  0.25000000
   0.00000000  0.75000000  0.00000000
   0.25000000  0.50000000  0.00000000
   0.25000000  0.75000000  0.75000000
   0.00000000  0.50000000  0.75000000
   0.00000000  0.75000000  0.50000000
   0.25000000  0.50000000  0.50000000
   0.75000000  0.25000000  0.25000000
   0.50000000  0.00000000  0.25000000
   0.50000000  0.25000000  0.00000000
   0.75000000  0.00000000  0.00000000
   0.75000000  0.25000000  0.75000000
   0.50000000  0.00000000  0.75000000
   0.50000000  0.25000000  0.50000000
   0.75000000  0.00000000  0.50000000
   0.75000000  0.75000000  0.25000000
   0.50000000  0.50000000  0.25000000
   0.50000000  0.75000000  0.00000000
   0.75000000  0.50000000  0.00000000
   0.75000000  0.75000000  0.75000000
   0.50000000  0.50000000  0.75000000
   0.50000000  0.75000000  0.50000000
   0.75000000  0.50000000  0.50000000
 
 position of ions in cartesian coordinates  (Angst):
  11.17400236  0.00000000  0.00000000
   2.80100059  2.80100059  0.00000000
   2.80100059  0.00000000  2.80100059
   0.00000000  2.80100059  2.80100059
   0.00000000  0.00000000  5.60200118
   2.80100059  2.80100059  5.60200118
   2.80100059  0.00000000  8.40300177
   0.00000000  2.80100059  8.40300177
   0.00000000  5.60200118  0.00000000
   2.80100059  8.40300177  0.00000000
   2.80100059  5.60200118  2.80100059
   0.00000000  8.40300177  2.80100059
   0.00000000  5.60200118  5.60200118
   2.80100059  8.40300177  5.60200118
   2.80100059  5.60200118  8.40300177
   0.00000000  8.40300177  8.40300177
   5.60200118  0.00000000  0.00000000
   8.40300177  2.80100059  0.00000000
   8.40300177  0.00000000  2.80100059
   5.60200118  2.80100059  2.80100059
   5.60200118  0.00000000  5.60200118
   8.40300177  2.80100059  5.60200118
   8.40300177  0.00000000  8.40300177
   5.60200118  2.80100059  8.40300177
   5.60200118  5.60200118  0.00000000
   8.40300177  8.40300177  0.00000000
   8.40300177  5.60200118  2.80100059
   5.60200118  8.40300177  2.80100059
   5.60200118  5.60200118  5.60200118
   8.40300177  8.40300177  5.60200118
   8.40300177  5.60200118  8.40300177
   5.60200118  8.40300177  8.40300177
   2.77100059  2.80100059  2.80100059
   0.00000000  0.00000000  2.80100059
   0.00000000  2.80100059  0.00000000
   2.80100059  0.00000000  0.00000000
   2.80100059  2.80100059  8.40300177
   0.00000000  0.00000000  8.40300177
   0.00000000  2.80100059  5.60200118
   2.80100059  0.00000000  5.60200118
   2.80100059  8.40300177  2.80100059
   0.00000000  5.60200118  2.80100059
   0.00000000  8.40300177  0.00000000
   2.80100059  5.60200118  0.00000000
   2.80100059  8.40300177  8.40300177
   0.00000000  5.60200118  8.40300177
   0.00000000  8.40300177  5.60200118
   2.80100059  5.60200118  5.60200118
   8.40300177  2.80100059  2.80100059
   5.60200118  0.00000000  2.80100059
   5.60200118  2.80100059  0.00000000
   8.40300177  0.00000000  0.00000000
   8.40300177  2.80100059  8.40300177
   5.60200118  0.00000000  8.40300177
   5.60200118  2.80100059  5.60200118
   8.40300177  0.00000000  5.60200118
   8.40300177  8.40300177  2.80100059
   5.60200118  5.60200118  2.80100059
   5.60200118  8.40300177  0.00000000
   8.40300177  5.60200118  0.00000000
   8.40300177  8.40300177  8.40300177
   5.60200118  5.60200118  8.40300177
   5.60200118  8.40300177  5.60200118
   8.40300177  5.60200118  5.60200118
 


--------------------------------------------------------------------------------------------------------


 k-point   1 :   0.0000 0.0000 0.0000  plane waves:   20005
 k-point   2 :   0.5000 0.0000 0.0000  plane waves:   20138
 k-point   3 :   0.0000 0.5000 0.0000  plane waves:   20138
 k-point   4 :   0.5000 0.5000 0.0000  plane waves:   20160
 k-point   5 :   0.0000 0.5000 0.5000  plane waves:   20160
 k-point   6 :   0.5000 0.5000 0.5000  plane waves:   20336

 maximum and minimum number of plane-waves per node :     20336    20005

 maximum number of plane-waves:     20336
 maximum index in each direction: 
   IXMAX=   16   IYMAX=   16   IZMAX=   16
   IXMIN=  -17   IYMIN=  -17   IZMIN=  -17


 serial   3D FFT for wavefunctions
 parallel 3D FFT for charge:
    minimum data exchange during FFTs selected (reduces bandwidth)


 total amount of memory used by VASP MPI-rank0   118439. kBytes
=======================================================================

   base      :      30000. kBytes
   nonl-proj :      36470. kBytes
   fftplans  :      14405. kBytes
   grid      :      19342. kBytes
   one-center:        196. kBytes
   wavefun   :      18026. kBytes
 
     INWAV:  cpu time      0.0000: real time      0.0000
 Broyden mixing: mesh for mixing (old mesh)
   NGX = 33   NGY = 33   NGZ = 33
  (NGX  =140   NGY  =140   NGZ  =140)
  gives a total of  35937 points

 initial charge density was supplied:
 charge density of overlapping atoms calculated
 number of electron     448.0000000 magnetization 
 keeping initial charge density in first step


--------------------------------------------------------------------------------------------------------


 Maximum index for augmentation-charges         1834 (set IRDMAX)


--------------------------------------------------------------------------------------------------------


 First call to EWALD:  gamma=   0.158
 Maximum number of real-space cells 3x 3x 3
 Maximum number of reciprocal cells 3x 3x 3

    FEWALD:  cpu time      0.0015: real time      0.0015


--------------------------------------- Iteration      1(   1)  ---------------------------------------


    POTLOK:  cpu time      0.0423: real time      0.0428
    SETDIJ:  cpu time      0.0320: real time      0.0322
     EDDAV:  cpu time      7.6139: real time      7.6539
       DOS:  cpu time      0.0009: real time      0.0009
    --------------------------------------------
      LOOP:  cpu time      7.6891: real time      7.7298

 eigenvalue-minimisations  :  3456
 total energy-change (2. order) : 0.4316824E+04  (-0.1718199E+05)
 number of electron     448.0000000 magnetization 
 augmentation part      448.0000000 magnetization 

 Free energy of the ion-electron system (eV)
  ---------------------------------------------------
  alpha Z        PSCENC =       751.52672365
  Ewald energy   TEWEN  =    -22871.34213018
  -Hartree energ DENC   =     -8992.24452000
  -exchange      EXHF   =         0.00000000
  -V(xc)+E(xc)   XCENC  =      1456.53426046
  PAW double counting   =     26466.43774078   -29286.08056155
  entropy T*S    EENTRO =        -0.00258540
  eigenvalues    EBANDS =      -740.18453188
  atomic energy  EATOM  =     37532.17946992
  Solvation  Ediel_sol  =         0.00000000
  ---------------------------------------------------
  free energy    TOTEN  =      4316.82386581 eV

  energy without entropy =     4316.82645120  energy(sigma->0) =     4316.82515851


--------------------------------------------------------------------------------------------------------




--------------------------------------- Iteration      1(   2)  ---------------------------------------


     EDDAV:  cpu time      8.3168: real time      8.3601
       DOS:  cpu time      0.0002: real time      0.0002
    --------------------------------------------
      LOOP:  cpu time      8.3170: real time      8.3603

 eigenvalue-minimisations  :  3840
 total energy-change (2. order) :-0.3953387E+04  (-0.3761456E+04)
 number of electron     448.0000000 magnetization 
 augmentation part      448.0000000 magnetization 

 Free energy of the ion-electron system (eV)
  ---------------------------------------------------
  alpha Z        PSCENC =       751.52672365
  Ewald energy   TEWEN  =    -22871.34213018
  -Hartree energ DENC   =     -8992.24452000
  -exchange      EXHF   =         0.00000000
  -V(xc)+E(xc)   XCENC  =      1456.53426046
  PAW double counting   =     26466.43774078   -29286.08056155
  entropy T*S    EENTRO =        -0.00000000
  eigenvalues    EBANDS =     -4693.57428741
  atomic energy  EATOM  =     37532.17946992
  Solvation  Ediel_sol  =         0.00000000
  ---------------------------------------------------
  free energy    TOTEN  =       363.43669567 eV

  energy without entropy =      363.43669567  energy(sigma->0) =      363.43669567


--------------------------------------------------------------------------------------------------------




--------------------------------------- Iteration      1(   3)  ---------------------------------------


     EDDAV:  cpu time      8.9917: real time      9.0396
       DOS:  cpu time      0.0002: real time      0.0002
    --------------------------------------------
      LOOP:  cpu time      8.9919: real time      9.0398

 eigenvalue-minimisations  :  4224
 total energy-change (2. order) :-0.5696613E+03  (-0.5654283E+03)
 number of electron     448.0000000 magnetization 
 augmentation part      448.0000000 magnetization 

 Free energy of the ion-electron system (eV)
  ---------------------------------------------------
  alpha Z        PSCENC =       751.52672365
  Ewald energy   TEWEN  =    -22871.34213018
  -Hartree energ DENC   =     -8992.24452000
  -exchange      EXHF   =         0.00000000
  -V(xc)+E(xc)   XCENC  =      1456.53426046
  PAW double counting   =     26466.43774078   -29286.08056155
  entropy T*S    EENTRO =        -0.00000000
  eigenvalues    EBANDS =     -5263.23557596
  atomic energy  EATOM  =     37532.17946992
  Solvation  Ediel_sol  =         0.00000000
  ---------------------------------------------------
  free energy    TOTEN  =      -206.22459287 eV

  energy without entropy =     -206.22459287  energy(sigma->0) =     -206.22459287


--------------------------------------------------------------------------------------------------------




--------------------------------------- Iteration      1(   4)  ---------------------------------------


     EDDAV:  cpu time      8.8976: real time      8.9470
       DOS:  cpu time      0.0002: real time      0.0002
    --------------------------------------------
      LOOP:  cpu time      8.8978: real time      8.9472

 eigenvalue-minimisations  :  4160
 total energy-change (2. order) :-0.2196922E+02  (-0.2187092E+02)
 number of electron     448.0000000 magnetization 
 augmentation part      448.0000000 magnetization 

 Free energy of the ion-electron system (eV)
  ---------------------------------------------------
  alpha Z        PSCENC =       751.52672365
  Ewald energy   TEWEN  =    -22871.34213018
  -Hartree energ DENC   =     -8992.24452000
  -exchange      EXHF   =         0.00000000
  -V(xc)+E(xc)   XCENC  =      1456.53426046
  PAW double counting   =     26466.43774078   -29286.08056155
  entropy T*S    EENTRO =        -0.00000000
  eigenvalues    EBANDS =     -5285.20479694
  atomic energy  EATOM  =     37532.17946992
  Solvation  Ediel_sol  =         0.00000000
  ---------------------------------------------------
  free energy    TOTEN  =      -228.19381386 eV

  energy without entropy =     -228.19381386  energy(sigma->0) =     -228.19381386


--------------------------------------------------------------------------------------------------------




--------------------------------------- Iteration      1(   5)  ---------------------------------------


     EDDAV:  cpu time      9.1701: real time      9.2182
       DOS:  cpu time      0.0002: real time      0.0002
    CHARGE:  cpu time      0.2646: real time      0.2664
    MIXING:  cpu time      0.0011: real time      0.0011
    --------------------------------------------
      LOOP:  cpu time      9.4360: real time      9.4859

 eigenvalue-minimisations  :  4320
 total energy-change (2. order) :-0.8128099E+00  (-0.8115137E+00)
 number of electron     448.0000022 magnetization 
 augmentation part      111.6489554 magnetization 

 Broyden mixing:
  rms(total) = 0.10606E+01    rms(broyden)= 0.10602E+01
  rms(prec ) = 0.14940E+01
  weight for this iteration     100.00

 Free energy of the ion-electron system (eV)
  ---------------------------------------------------
  alpha Z        PSCENC =       751.52672365
  Ewald energy   TEWEN  =    -22871.34213018
  -Hartree energ DENC   =     -8992.24452000
  -exchange      EXHF   =         0.00000000
  -V(xc)+E(xc)   XCENC  =      1456.53426046
  PAW double counting   =     26466.43774078   -29286.08056155
  entropy T*S    EENTRO =        -0.00000000
  eigenvalues    EBANDS =     -5286.01760686
  atomic energy  EATOM  =     37532.17946992
  Solvation  Ediel_sol  =         0.00000000
  ---------------------------------------------------
  free energy    TOTEN  =      -229.00662378 eV

  energy without entropy =     -229.00662378  energy(sigma->0) =     -229.00662378


--------------------------------------------------------------------------------------------------------




--------------------------------------- Iteration      1(   6)  ---------------------------------------


    POTLOK:  cpu time      0.0370: real time      0.0380
    SETDIJ:  cpu time      0.0299: real time      0.0301
     EDDAV:  cpu time      9.1745: real time      9.2218
       DOS:  cpu time      0.0002: real time      0.0002
    CHARGE:  cpu time      0.2653: real time      0.2665
    MIXING:  cpu time      0.0011: real time      0.0011
    --------------------------------------------
      LOOP:  cpu time      9.5079: real time      9.5576

 eigenvalue-minimisations  :  4320
 total energy-change (2. order) : 0.4869335E+01  (-0.9505311E+00)
 number of electron     448.0000022 magnetization 
 augmentation part      112.4561967 magnetization 

 Broyden mixing:
  rms(total) = 0.77659E+00    rms(broyden)= 0.77654E+00
  rms(prec ) = 0.89244E+00
  weight for this iteration     100.00

 eigenvalues of (default mixing * dielectric matrix)
  average eigenvalue GAMMA=   1.0701
  1.0701

 Free energy of the ion-electron system (eV)
  ---------------------------------------------------
  alpha Z        PSCENC =       751.52672365
  Ewald energy   TEWEN  =    -22871.34213018
  -Hartree energ DENC   =     -9061.96953466
  -exchange      EXHF   =         0.00000000
  -V(xc)+E(xc)   XCENC  =      1465.44522134
  PAW double counting   =     27289.92409766   -30102.01579042
  entropy T*S    EENTRO =        -0.00000000
  eigenvalues    EBANDS =     -5227.88534565
  atomic energy  EATOM  =     37532.17946992
  Solvation  Ediel_sol  =         0.00000000
  ---------------------------------------------------
  free energy    TOTEN  =      -224.13728833 eV

  energy without entropy =     -224.13728833  energy(sigma->0) =     -224.13728833


--------------------------------------------------------------------------------------------------------




--------------------------------------- Iteration      1(   7)  ---------------------------------------


    POTLOK:  cpu time      0.0367: real time      0.0409
    SETDIJ:  cpu time      0.0301: real time      0.0303
     EDDAV:  cpu time      9.7795: real time      9.8314
       DOS:  cpu time      0.0003: real time      0.0003
    CHARGE:  cpu time      0.2657: real time      0.2670
    MIXING:  cpu time      0.0013: real time      0.0013
    --------------------------------------------
      LOOP:  cpu time     10.1136: real time     10.1710

 eigenvalue-minimisations  :  4672
 total energy-change (2. order) : 0.3600747E+00  (-0.2055949E+00)
 number of electron     448.0000022 magnetization 
 augmentation part      112.8262233 magnetization 

 Broyden mixing:
  rms(total) = 0.53373E+00    rms(broyden)= 0.53370E+00
  rms(prec ) = 0.56382E+00
  weight for this iteration     100.00

 eigenvalues of (default mixing * dielectric matrix)
  average eigenvalue GAMMA=   2.1505
  1.4372  2.8639

 Free energy of the ion-electron system (eV)
  ---------------------------------------------------
  alpha Z        PSCENC =       751.52672365
  Ewald energy   TEWEN  =    -22871.34213018
  -Hartree energ DENC   =     -9085.80538973
  -exchange      EXHF   =         0.00000000
  -V(xc)+E(xc)   XCENC  =      1470.11708440
  PAW double counting   =     28327.20999230   -31139.93228652
  entropy T*S    EENTRO =        -0.00000000
  eigenvalues    EBANDS =     -5207.73067745
  atomic energy  EATOM  =     37532.17946992
  Solvation  Ediel_sol  =         0.00000000
  ---------------------------------------------------
  free energy    TOTEN  =      -223.77721361 eV

  energy without entropy =     -223.77721361  energy(sigma->0) =     -223.77721361


--------------------------------------------------------------------------------------------------------




--------------------------------------- Iteration      1(   8)  ---------------------------------------


    POTLOK:  cpu time      0.0365: real time      0.0374
    SETDIJ:  cpu time      0.0302: real time      0.0303
     EDDAV:  cpu time      8.6847: real time      8.7302
       DOS:  cpu time      0.0002: real time      0.0002
    CHARGE:  cpu time      0.2655: real time      0.2667
    MIXING:  cpu time      0.0014: real time      0.0014
    --------------------------------------------
      LOOP:  cpu time      9.0185: real time      9.0663

 eigenvalue-minimisations  :  4032
 total energy-change (2. order) :-0.1251387E+00  (-0.2654259E-01)
 number of electron     448.0000022 magnetization 
 augmentation part      112.8095960 magnetization 

 Broyden mixing:
  rms(total) = 0.14013E+00    rms(broyden)= 0.14013E+00
  rms(prec ) = 0.14298E+00
  weight for this iteration     100.00

 eigenvalues of (default mixing * dielectric matrix)
  average eigenvalue GAMMA=   1.5551
  2.5206  1.3842  0.7604

 Free energy of the ion-electron system (eV)
  ---------------------------------------------------
  alpha Z        PSCENC =       751.52672365
  Ewald energy   TEWEN  =    -22871.34213018
  -Hartree energ DENC   =     -9075.29342940
  -exchange      EXHF   =         0.00000000
  -V(xc)+E(xc)   XCENC  =      1472.33984864
  PAW double counting   =     29806.36717833   -32626.17193828
  entropy T*S    EENTRO =        -0.00000000
  eigenvalues    EBANDS =     -5213.50807498
  atomic energy  EATOM  =     37532.17946992
  Solvation  Ediel_sol  =         0.00000000
  ---------------------------------------------------
  free energy    TOTEN  =      -223.90235230 eV

  energy without entropy =     -223.90235230  energy(sigma->0) =     -223.90235230


--------------------------------------------------------------------------------------------------------




--------------------------------------- Iteration      1(   9)  ---------------------------------------


    POTLOK:  cpu time      0.0357: real time      0.0359
    SETDIJ:  cpu time      0.0299: real time      0.0303
     EDDAV:  cpu time      9.0044: real time      9.0517
       DOS:  cpu time      0.0003: real time      0.0003
    CHARGE:  cpu time      0.2662: real time      0.2677
    MIXING:  cpu time      0.0012: real time      0.0012
    --------------------------------------------
      LOOP:  cpu time      9.3376: real time      9.3871

 eigenvalue-minimisations  :  4224
 total energy-change (2. order) : 0.5330809E-02  (-0.1133913E-02)
 number of electron     448.0000022 magnetization 
 augmentation part      112.8316864 magnetization 

 Broyden mixing:
  rms(total) = 0.59569E-01    rms(broyden)= 0.59568E-01
  rms(prec ) = 0.61631E-01
  weight for this iteration     100.00

 eigenvalues of (default mixing * dielectric matrix)
  average eigenvalue GAMMA=   2.0036
  2.8140  2.8140  0.9959  1.3906

 Free energy of the ion-electron system (eV)
  ---------------------------------------------------
  alpha Z        PSCENC =       751.52672365
  Ewald energy   TEWEN  =    -22871.34213018
  -Hartree energ DENC   =     -9077.97395548
  -exchange      EXHF   =         0.00000000
  -V(xc)+E(xc)   XCENC  =      1472.35761178
  PAW double counting   =     29629.33162186   -32448.31065473
  entropy T*S    EENTRO =        -0.00000000
  eigenvalues    EBANDS =     -5211.66570832
  atomic energy  EATOM  =     37532.17946992
  Solvation  Ediel_sol  =         0.00000000
  ---------------------------------------------------
  free energy    TOTEN  =      -223.89702149 eV

  energy without entropy =     -223.89702149  energy(sigma->0) =     -223.89702149


--------------------------------------------------------------------------------------------------------




--------------------------------------- Iteration      1(  10)  ---------------------------------------


    POTLOK:  cpu time      0.0361: real time      0.0363
    SETDIJ:  cpu time      0.0302: real time      0.0304
     EDDAV:  cpu time      8.6290: real time      8.6748
       DOS:  cpu time      0.0002: real time      0.0002
    CHARGE:  cpu time      0.2640: real time      0.2653
    MIXING:  cpu time      0.0016: real time      0.0016
    --------------------------------------------
      LOOP:  cpu time      8.9611: real time      9.0085

 eigenvalue-minimisations  :  4000
 total energy-change (2. order) :-0.4312942E-02  (-0.1776126E-02)
 number of electron     448.0000022 magnetization 
 augmentation part      112.8604917 magnetization 

 Broyden mixing:
  rms(total) = 0.28310E-01    rms(broyden)= 0.28308E-01
  rms(prec ) = 0.30268E-01
  weight for this iteration     100.00

 eigenvalues of (default mixing * dielectric matrix)
  average eigenvalue GAMMA=   1.7101
  2.9366  2.5141  1.2975  1.0179  0.7845

 Free energy of the ion-electron system (eV)
  ---------------------------------------------------
  alpha Z        PSCENC =       751.52672365
  Ewald energy   TEWEN  =    -22871.34213018
  -Hartree energ DENC   =     -9079.37639858
  -exchange      EXHF   =         0.00000000
  -V(xc)+E(xc)   XCENC  =      1472.60104510
  PAW double counting   =     29455.16362871   -32274.39502683
  entropy T*S    EENTRO =        -0.00000000
  eigenvalues    EBANDS =     -5210.25864623
  atomic energy  EATOM  =     37532.17946992
  Solvation  Ediel_sol  =         0.00000000
  ---------------------------------------------------
  free energy    TOTEN  =      -223.90133443 eV

  energy without entropy =     -223.90133443  energy(sigma->0) =     -223.90133443


--------------------------------------------------------------------------------------------------------




--------------------------------------- Iteration      1(  11)  ---------------------------------------


    POTLOK:  cpu time      0.0360: real time      0.0362
    SETDIJ:  cpu time      0.0306: real time      0.0307
     EDDAV:  cpu time      9.4563: real time      9.5055
       DOS:  cpu time      0.0002: real time      0.0002
    CHARGE:  cpu time      0.2648: real time      0.2665
    MIXING:  cpu time      0.0011: real time      0.0011
    --------------------------------------------
      LOOP:  cpu time      9.7889: real time      9.8403

 eigenvalue-minimisations  :  4480
 total energy-change (2. order) : 0.6833340E-03  (-0.1491466E-03)
 number of electron     448.0000022 magnetization 
 augmentation part      112.8516066 magnetization 

 Broyden mixing:
  rms(total) = 0.86162E-02    rms(broyden)= 0.86161E-02
  rms(prec ) = 0.90367E-02
  weight for this iteration     100.00

 eigenvalues of (default mixing * dielectric matrix)
  average eigenvalue GAMMA=   1.5597
  2.9132  2.4518  1.3169  1.0098  0.8334  0.8334

 Free energy of the ion-electron system (eV)
  ---------------------------------------------------
  alpha Z        PSCENC =       751.52672365
  Ewald energy   TEWEN  =    -22871.34213018
  -Hartree energ DENC   =     -9078.32213895
  -exchange      EXHF   =         0.00000000
  -V(xc)+E(xc)   XCENC  =      1472.52849918
  PAW double counting   =     29487.02237780   -32306.39666484
  entropy T*S    EENTRO =        -0.00000000
  eigenvalues    EBANDS =     -5211.09678768
  atomic energy  EATOM  =     37532.17946992
  Solvation  Ediel_sol  =         0.00000000
  ---------------------------------------------------
  free energy    TOTEN  =      -223.90065110 eV

  energy without entropy =     -223.90065110  energy(sigma->0) =     -223.90065110


--------------------------------------------------------------------------------------------------------




--------------------------------------- Iteration      1(  12)  ---------------------------------------


    POTLOK:  cpu time      0.0360: real time      0.0363
    SETDIJ:  cpu time      0.0305: real time      0.0306
     EDDAV:  cpu time      9.3766: real time      9.4258
       DOS:  cpu time      0.0002: real time      0.0002
    CHARGE:  cpu time      0.2650: real time      0.2662
    MIXING:  cpu time      0.0013: real time      0.0013
    --------------------------------------------
      LOOP:  cpu time      9.7095: real time      9.7604

 eigenvalue-minimisations  :  4448
 total energy-change (2. order) : 0.3699060E-04  (-0.1418549E-04)
 number of electron     448.0000022 magnetization 
 augmentation part      112.8488948 magnetization 

 Broyden mixing:
  rms(total) = 0.15962E-02    rms(broyden)= 0.15955E-02
  rms(prec ) = 0.18523E-02
  weight for this iteration     100.00

 eigenvalues of (default mixing * dielectric matrix)
  average eigenvalue GAMMA=   1.5903
  2.8833  2.3856  1.6495  1.1463  1.1463  1.1129  0.8084

 Free energy of the ion-electron system (eV)
  ---------------------------------------------------
  alpha Z        PSCENC =       751.52672365
  Ewald energy   TEWEN  =    -22871.34213018
  -Hartree energ DENC   =     -9078.17721113
  -exchange      EXHF   =         0.00000000
  -V(xc)+E(xc)   XCENC  =      1472.51809631
  PAW double counting   =     29497.94397589   -32317.31976080
  entropy T*S    EENTRO =        -0.00000000
  eigenvalues    EBANDS =     -5211.22977777
  atomic energy  EATOM  =     37532.17946992
  Solvation  Ediel_sol  =         0.00000000
  ---------------------------------------------------
  free energy    TOTEN  =      -223.90061411 eV

  energy without entropy =     -223.90061411  energy(sigma->0) =     -223.90061411


--------------------------------------------------------------------------------------------------------




--------------------------------------- Iteration      1(  13)  ---------------------------------------


    POTLOK:  cpu time      0.0366: real time      0.0376
    SETDIJ:  cpu time      0.0301: real time      0.0303
     EDDAV:  cpu time      8.7794: real time      8.8261
       DOS:  cpu time      0.0002: real time      0.0002
    CHARGE:  cpu time      0.2647: real time      0.2664
    MIXING:  cpu time      0.0014: real time      0.0014
    --------------------------------------------
      LOOP:  cpu time      9.1125: real time      9.1619

 eigenvalue-minimisations  :  4096
 total energy-change (2. order) : 0.6140181E-07  (-0.2310273E-05)
 number of electron     448.0000022 magnetization 
 augmentation part      112.8477210 magnetization 

 Broyden mixing:
  rms(total) = 0.41359E-03    rms(broyden)= 0.41305E-03
  rms(prec ) = 0.47700E-03
  weight for this iteration     100.00

 eigenvalues of (default mixing * dielectric matrix)
  average eigenvalue GAMMA=   1.6080
  2.9800  2.2927  2.2927  1.2222  1.0215  1.0127  1.0209  1.0209

 Free energy of the ion-electron system (eV)
  ---------------------------------------------------
  alpha Z        PSCENC =       751.52672365
  Ewald energy   TEWEN  =    -22871.34213018
  -Hartree energ DENC   =     -9078.10403732
  -exchange      EXHF   =         0.00000000
  -V(xc)+E(xc)   XCENC  =      1472.51044690
  PAW double counting   =     29498.86694358   -32318.24243509
  entropy T*S    EENTRO =        -0.00000000
  eigenvalues    EBANDS =     -5211.29559551
  atomic energy  EATOM  =     37532.17946992
  Solvation  Ediel_sol  =         0.00000000
  ---------------------------------------------------
  free energy    TOTEN  =      -223.90061404 eV

  energy without entropy =     -223.90061404  energy(sigma->0) =     -223.90061404


--------------------------------------------------------------------------------------------------------




--------------------------------------- Iteration      1(  14)  ---------------------------------------


    POTLOK:  cpu time      0.0361: real time      0.0406
    SETDIJ:  cpu time      0.0301: real time      0.0303
     EDDAV:  cpu time      8.8631: real time      8.9099
       DOS:  cpu time      0.0002: real time      0.0002
    CHARGE:  cpu time      0.2658: real time      0.2672
    MIXING:  cpu time      0.0020: real time      0.0020
    --------------------------------------------
      LOOP:  cpu time      9.1973: real time      9.2502

 eigenvalue-minimisations  :  4128
 total energy-change (2. order) :-0.1666391E-05  (-0.1898292E-06)
 number of electron     448.0000022 magnetization 
 augmentation part      112.8477109 magnetization 

 Broyden mixing:
  rms(total) = 0.76266E-03    rms(broyden)= 0.76262E-03
  rms(prec ) = 0.78259E-03
  weight for this iteration     100.00

 eigenvalues of (default mixing * dielectric matrix)
  average eigenvalue GAMMA=   1.6448
  3.0267  2.6103  2.6103  1.3925  1.2216  1.2216  0.9521  0.9521  0.8155

 Free energy of the ion-electron system (eV)
  ---------------------------------------------------
  alpha Z        PSCENC =       751.52672365
  Ewald energy   TEWEN  =    -22871.34213018
  -Hartree energ DENC   =     -9078.12336660
  -exchange      EXHF   =         0.00000000
  -V(xc)+E(xc)   XCENC  =      1472.51239966
  PAW double counting   =     29499.85318286   -32319.22297236
  entropy T*S    EENTRO =        -0.00000000
  eigenvalues    EBANDS =     -5211.28392267
  atomic energy  EATOM  =     37532.17946992
  Solvation  Ediel_sol  =         0.00000000
  ---------------------------------------------------
  free energy    TOTEN  =      -223.90061571 eV

  energy without entropy =     -223.90061571  energy(sigma->0) =     -223.90061571


--------------------------------------------------------------------------------------------------------




--------------------------------------- Iteration      1(  15)  ---------------------------------------


    POTLOK:  cpu time      0.0366: real time      0.0377
    SETDIJ:  cpu time      0.0303: real time      0.0304
     EDDAV:  cpu time      8.7287: real time      8.7746
       DOS:  cpu time      0.0002: real time      0.0002
    CHARGE:  cpu time      0.2641: real time      0.2654
    MIXING:  cpu time      0.0013: real time      0.0013
    --------------------------------------------
      LOOP:  cpu time      9.0613: real time      9.1096

 eigenvalue-minimisations  :  4064
 total energy-change (2. order) :-0.1057859E-05  (-0.3362411E-07)
 number of electron     448.0000022 magnetization 
 augmentation part      112.8477748 magnetization 

 Broyden mixing:
  rms(total) = 0.34826E-03    rms(broyden)= 0.34823E-03
  rms(prec ) = 0.35855E-03
  weight for this iteration     100.00

 eigenvalues of (default mixing * dielectric matrix)
  average eigenvalue GAMMA=   1.6105
  3.1016  2.6856  2.4991  1.4488  1.3132  1.3132  0.9551  0.9551  0.9596  0.8738

 Free energy of the ion-electron system (eV)
  ---------------------------------------------------
  alpha Z        PSCENC =       751.52672365
  Ewald energy   TEWEN  =    -22871.34213018
  -Hartree energ DENC   =     -9078.14715987
  -exchange      EXHF   =         0.00000000
  -V(xc)+E(xc)   XCENC  =      1472.51289995
  PAW double counting   =     29499.01065792   -32318.37590904
  entropy T*S    EENTRO =        -0.00000000
  eigenvalues    EBANDS =     -5211.26516912
  atomic energy  EATOM  =     37532.17946992
  Solvation  Ediel_sol  =         0.00000000
  ---------------------------------------------------
  free energy    TOTEN  =      -223.90061677 eV

  energy without entropy =     -223.90061677  energy(sigma->0) =     -223.90061677


--------------------------------------------------------------------------------------------------------




--------------------------------------- Iteration      1(  16)  ---------------------------------------


    POTLOK:  cpu time      0.0360: real time      0.0362
    SETDIJ:  cpu time      0.0304: real time      0.0306
     EDDAV:  cpu time      8.9568: real time      9.0042
       DOS:  cpu time      0.0002: real time      0.0002
    CHARGE:  cpu time      0.2699: real time      0.2712
    MIXING:  cpu time      0.0012: real time      0.0013
    --------------------------------------------
      LOOP:  cpu time      9.2945: real time      9.3436

 eigenvalue-minimisations  :  4192
 total energy-change (2. order) :-0.5142429E-06  (-0.1284574E-07)
 number of electron     448.0000022 magnetization 
 augmentation part      112.8478428 magnetization 

 Broyden mixing:
  rms(total) = 0.64407E-04    rms(broyden)= 0.64249E-04
  rms(prec ) = 0.70268E-04
  weight for this iteration     100.00

 eigenvalues of (default mixing * dielectric matrix)
  average eigenvalue GAMMA=   1.6042
  3.1117  2.6604  2.4716  1.4951  1.4951  1.3951  1.1598  1.1598  0.9016  0.9016
  0.8947

 Free energy of the ion-electron system (eV)
  ---------------------------------------------------
  alpha Z        PSCENC =       751.52672365
  Ewald energy   TEWEN  =    -22871.34213018
  -Hartree energ DENC   =     -9078.15716755
  -exchange      EXHF   =         0.00000000
  -V(xc)+E(xc)   XCENC  =      1472.51333265
  PAW double counting   =     29498.41557917   -32317.78052624
  entropy T*S    EENTRO =        -0.00000000
  eigenvalues    EBANDS =     -5211.25589870
  atomic energy  EATOM  =     37532.17946992
  Solvation  Ediel_sol  =         0.00000000
  ---------------------------------------------------
  free energy    TOTEN  =      -223.90061728 eV

  energy without entropy =     -223.90061728  energy(sigma->0) =     -223.90061728


--------------------------------------------------------------------------------------------------------




--------------------------------------- Iteration      1(  17)  ---------------------------------------


    POTLOK:  cpu time      0.0356: real time      0.0359
    SETDIJ:  cpu time      0.0303: real time      0.0304
     EDDAV:  cpu time      6.5575: real time      6.5922
       DOS:  cpu time      0.0002: real time      0.0002
    CHARGE:  cpu time      0.2671: real time      0.2684
    MIXING:  cpu time      0.0023: real time      0.0023
    --------------------------------------------
      LOOP:  cpu time      6.8930: real time      6.9294

 eigenvalue-minimisations  :  2752
 total energy-change (2. order) :-0.5943002E-07  (-0.9072277E-09)
 number of electron     448.0000022 magnetization 
 augmentation part      112.8478543 magnetization 

 Broyden mixing:
  rms(total) = 0.13026E-04    rms(broyden)= 0.12273E-04
  rms(prec ) = 0.19925E-04
  weight for this iteration     100.00

 eigenvalues of (default mixing * dielectric matrix)
  average eigenvalue GAMMA=   1.6049
  3.1764  2.8640  2.1674  2.1674  1.3096  1.3096  1.2635  1.2635  0.9550  0.8685
  0.9567  0.9567

 Free energy of the ion-electron system (eV)
  ---------------------------------------------------
  alpha Z        PSCENC =       751.52672365
  Ewald energy   TEWEN  =    -22871.34213018
  -Hartree energ DENC   =     -9078.15958161
  -exchange      EXHF   =         0.00000000
  -V(xc)+E(xc)   XCENC  =      1472.51342867
  PAW double counting   =     29498.29090569   -32317.65565270
  entropy T*S    EENTRO =        -0.00000000
  eigenvalues    EBANDS =     -5211.25378079
  atomic energy  EATOM  =     37532.17946992
  Solvation  Ediel_sol  =         0.00000000
  ---------------------------------------------------
  free energy    TOTEN  =      -223.90061734 eV

  energy without entropy =     -223.90061734  energy(sigma->0) =     -223.90061734


--------------------------------------------------------------------------------------------------------




--------------------------------------- Iteration      1(  18)  ---------------------------------------


    POTLOK:  cpu time      0.0357: real time      0.0359
    SETDIJ:  cpu time      0.0305: real time      0.0306
     EDDAV:  cpu time      6.4430: real time      6.4772
       DOS:  cpu time      0.0002: real time      0.0002
    CHARGE:  cpu time      0.2678: real time      0.2690
    MIXING:  cpu time      0.0015: real time      0.0015
    --------------------------------------------
      LOOP:  cpu time      6.7786: real time      6.8145

 eigenvalue-minimisations  :  2688
 total energy-change (2. order) :-0.6269693E-07  (-0.8139143E-09)
 number of electron     448.0000022 magnetization 
 augmentation part      112.8478647 magnetization 

 Broyden mixing:
  rms(total) = 0.42306E-04    rms(broyden)= 0.42081E-04
  rms(prec ) = 0.44156E-04
  weight for this iteration     100.00

 eigenvalues of (default mixing * dielectric matrix)
  average eigenvalue GAMMA=   1.5540
  3.2072  2.8787  2.2705  2.2705  1.2120  1.2120  1.0720  1.0720  1.2545  1.1416
  0.9586  0.8262  0.8262

 Free energy of the ion-electron system (eV)
  ---------------------------------------------------
  alpha Z        PSCENC =       751.52672365
  Ewald energy   TEWEN  =    -22871.34213018
  -Hartree energ DENC   =     -9078.16182164
  -exchange      EXHF   =         0.00000000
  -V(xc)+E(xc)   XCENC  =      1472.51350437
  PAW double counting   =     29498.21314643   -32317.57776335
  entropy T*S    EENTRO =        -0.00000000
  eigenvalues    EBANDS =     -5211.25174661
  atomic energy  EATOM  =     37532.17946992
  Solvation  Ediel_sol  =         0.00000000
  ---------------------------------------------------
  free energy    TOTEN  =      -223.90061741 eV

  energy without entropy =     -223.90061741  energy(sigma->0) =     -223.90061741


--------------------------------------------------------------------------------------------------------




--------------------------------------- Iteration      1(  19)  ---------------------------------------


    POTLOK:  cpu time      0.0356: real time      0.0359
    SETDIJ:  cpu time      0.0304: real time      0.0305
     EDDAV:  cpu time      5.7841: real time      5.8146
       DOS:  cpu time      0.0002: real time      0.0002
    CHARGE:  cpu time      0.2656: real time      0.2668
    MIXING:  cpu time      0.0017: real time      0.0017
    --------------------------------------------
      LOOP:  cpu time      6.1176: real time      6.1497

 eigenvalue-minimisations  :  2304
 total energy-change (2. order) : 0.3742753E-07  (-0.4546800E-09)
 number of electron     448.0000022 magnetization 
 augmentation part      112.8478639 magnetization 

 Broyden mixing:
  rms(total) = 0.30484E-04    rms(broyden)= 0.30172E-04
  rms(prec ) = 0.31571E-04
  weight for this iteration     100.00

 eigenvalues of (default mixing * dielectric matrix)
  average eigenvalue GAMMA=   1.6167
  3.3569  2.9285  2.3975  2.3975  1.6287  1.6287  1.1721  1.1721  1.2530  1.0710
  0.9948  0.8462  0.8936  0.8936

 Free energy of the ion-electron system (eV)
  ---------------------------------------------------
  alpha Z        PSCENC =       751.52672365
  Ewald energy   TEWEN  =    -22871.34213018
  -Hartree energ DENC   =     -9078.16148392
  -exchange      EXHF   =         0.00000000
  -V(xc)+E(xc)   XCENC  =      1472.51349490
  PAW double counting   =     29498.24109167   -32317.60574687
  entropy T*S    EENTRO =        -0.00000000
  eigenvalues    EBANDS =     -5211.25203654
  atomic energy  EATOM  =     37532.17946992
  Solvation  Ediel_sol  =         0.00000000
  ---------------------------------------------------
  free energy    TOTEN  =      -223.90061737 eV

  energy without entropy =     -223.90061737  energy(sigma->0) =     -223.90061737


--------------------------------------------------------------------------------------------------------




--------------------------------------- Iteration      1(  20)  ---------------------------------------


    POTLOK:  cpu time      0.0361: real time      0.0363
    SETDIJ:  cpu time      0.0302: real time      0.0303
     EDDAV:  cpu time      6.0565: real time      6.0885
       DOS:  cpu time      0.0002: real time      0.0002
    CHARGE:  cpu time      0.2649: real time      0.2667
    MIXING:  cpu time      0.0015: real time      0.0015
    --------------------------------------------
      LOOP:  cpu time      6.3893: real time      6.4235

 eigenvalue-minimisations  :  2464
 total energy-change (2. order) : 0.3536115E-07  (-0.1887005E-09)
 number of electron     448.0000022 magnetization 
 augmentation part      112.8478601 magnetization 

 Broyden mixing:
  rms(total) = 0.19057E-04    rms(broyden)= 0.18555E-04
  rms(prec ) = 0.19160E-04
  weight for this iteration     100.00

 eigenvalues of (default mixing * dielectric matrix)
  average eigenvalue GAMMA=   1.6342
  3.8072  3.0208  2.7054  2.4041  1.2809  1.2809  1.4915  1.4915  1.3844  1.0395
  1.0395  0.9594  0.9594  0.8244  0.8244

 Free energy of the ion-electron system (eV)
  ---------------------------------------------------
  alpha Z        PSCENC =       751.52672365
  Ewald energy   TEWEN  =    -22871.34213018
  -Hartree energ DENC   =     -9078.16084737
  -exchange      EXHF   =         0.00000000
  -V(xc)+E(xc)   XCENC  =      1472.51345867
  PAW double counting   =     29498.26301362   -32317.62767213
  entropy T*S    EENTRO =        -0.00000000
  eigenvalues    EBANDS =     -5211.25263352
  atomic energy  EATOM  =     37532.17946992
  Solvation  Ediel_sol  =         0.00000000
  ---------------------------------------------------
  free energy    TOTEN  =      -223.90061733 eV

  energy without entropy =     -223.90061733  energy(sigma->0) =     -223.90061733


--------------------------------------------------------------------------------------------------------




--------------------------------------- Iteration      1(  21)  ---------------------------------------


    POTLOK:  cpu time      0.0359: real time      0.0371
    SETDIJ:  cpu time      0.0309: real time      0.0310
     EDDAV:  cpu time      5.7242: real time      5.7555
       DOS:  cpu time      0.0005: real time      0.0005
    CHARGE:  cpu time      0.2641: real time      0.2659
    MIXING:  cpu time      0.0017: real time      0.0017
    --------------------------------------------
      LOOP:  cpu time      6.0573: real time      6.0918

 eigenvalue-minimisations  :  2272
 total energy-change (2. order) : 0.3212335E-07  (-0.1550355E-09)
 number of electron     448.0000022 magnetization 
 augmentation part      112.8478577 magnetization 

 Broyden mixing:
  rms(total) = 0.85669E-05    rms(broyden)= 0.73819E-05
  rms(prec ) = 0.78583E-05
  weight for this iteration     100.00
  WARNING: grid for Broyden might be to small

 eigenvalues of (default mixing * dielectric matrix)
  average eigenvalue GAMMA=   1.6165
  4.0490  3.0248  2.7730  2.3663  1.6526  1.6526  1.2367  1.2367  1.1940  0.8242
  1.0152  1.0152  0.9729  0.9729  0.9392  0.9392

 Free energy of the ion-electron system (eV)
  ---------------------------------------------------
  alpha Z        PSCENC =       751.52672365
  Ewald energy   TEWEN  =    -22871.34213018
  -Hartree energ DENC   =     -9078.16022806
  -exchange      EXHF   =         0.00000000
  -V(xc)+E(xc)   XCENC  =      1472.51343538
  PAW double counting   =     29498.29334418   -32317.65800975
  entropy T*S    EENTRO =        -0.00000000
  eigenvalues    EBANDS =     -5211.25322244
  atomic energy  EATOM  =     37532.17946992
  Solvation  Ediel_sol  =         0.00000000
  ---------------------------------------------------
  free energy    TOTEN  =      -223.90061730 eV

  energy without entropy =     -223.90061730  energy(sigma->0) =     -223.90061730


--------------------------------------------------------------------------------------------------------




--------------------------------------- Iteration      1(  22)  ---------------------------------------


    POTLOK:  cpu time      0.0371: real time      0.0409
    SETDIJ:  cpu time      0.0302: real time      0.0304
     EDDAV:  cpu time      5.7870: real time      5.8196
       DOS:  cpu time      0.0005: real time      0.0005
    --------------------------------------------
      LOOP:  cpu time      5.8547: real time      5.8914

 eigenvalue-minimisations  :  2304
 total energy-change (2. order) : 0.1484295E-08  (-0.6495129E-10)
 number of electron     448.0000022 magnetization 
 augmentation part      112.8478577 magnetization 

 Free energy of the ion-electron system (eV)
  ---------------------------------------------------
  alpha Z        PSCENC =       751.52672365
  Ewald energy   TEWEN  =    -22871.34213018
[...]
         0         1         2         3         4         5         6         7         8         9
 total charge-density along one line
 
 pseudopotential strength for first ion, spin component:           1
-25.385   0.000   0.000   2.509  -0.000  -0.000  -0.000  -0.000
  0.000 -25.385   0.000  -0.000   2.509  -0.000  -0.000  -0.000
  0.000   0.000 -25.385  -0.000  -0.000   2.509   0.000   0.001
  2.509  -0.000  -0.000   6.529   0.000   0.000   0.000  -0.000
 -0.000   2.509  -0.000   0.000   6.529   0.000   0.000  -0.000
 -0.000  -0.000   2.509   0.000   0.000   6.529  -0.000  -0.000
 -0.000  -0.000   0.000   0.000   0.000  -0.000   1.428   6.993
 -0.000  -0.000   0.001  -0.000  -0.000  -0.000   6.993  33.988
 total augmentation occupancy for first ion, spin component:           1
  2.002  -0.000  -0.000   0.002  -0.000  -0.000   0.000  -0.000
 -0.000   2.002  -0.000  -0.000   0.002  -0.000   0.000  -0.000
 -0.000  -0.000   2.002  -0.000  -0.000   0.002  -0.001   0.000
  0.002  -0.000  -0.000   0.017  -0.000  -0.000   0.000   0.000
 -0.000   0.002  -0.000  -0.000   0.017  -0.000   0.000   0.000
 -0.000  -0.000   0.002  -0.000  -0.000   0.017  -0.003   0.000
  0.000   0.000  -0.001   0.000   0.000  -0.003   0.403  -0.001
 -0.000  -0.000   0.000   0.000   0.000   0.000  -0.001   0.000


------------------------ aborting loop because EDIFF is reached ----------------------------------------


    CHARGE:  cpu time      0.2632: real time      0.2645
    FORLOC:  cpu time      0.0118: real time      0.0118
    FORNL :  cpu time      1.7551: real time      1.7657
    STRESS:  cpu time      9.9378: real time      9.9865
    FORCOR:  cpu time      0.0432: real time      0.0434
    FORHAR:  cpu time      0.0172: real time      0.0173
    MIXING:  cpu time      0.0013: real time      0.0013
    OFIELD:  cpu time      0.0000: real time      0.0000

  FORCE on cell =-STRESS in cart. coord.  units (eV):
  Direction    XX          YY          ZZ          XY          YZ          ZX
  --------------------------------------------------------------------------------------
  Alpha Z   751.52672   751.52672   751.52672
  Ewald   -7623.61658 -7623.93144 -7623.93144     0.00702    -0.00445     0.00702
  Hartree  3026.13304  3026.01360  3026.01360     0.00659    -0.00366     0.00659
  E(xc)   -2014.34804 -2014.34817 -2014.34817     0.00000    -0.00000     0.00000
  Local   -2025.17408 -2024.74725 -2024.74725    -0.01359     0.00811    -0.01359
  n-local  1887.63149  1887.51938  1887.72169    -0.00001    -0.00000    -0.00001
  augment   687.00904   687.00942   687.00911     0.00001    -0.00011    -0.00008
  Kinetic  5310.52612  5310.26904  5310.77973    -0.00011     0.00004    -0.00011
  Fock        0.00000     0.00000     0.00000     0.00000     0.00000     0.00000
  -------------------------------------------------------------------------------------
  Total      -0.31229    -0.33235    -0.33235    -0.00013    -0.00007    -0.00013
  in kB      -0.35575    -0.37861    -0.37861    -0.00015    -0.00008    -0.00015
  external pressure =       -0.37 kB  Pullay stress =        0.00 kB


 VOLUME and BASIS-vectors are now :
 -----------------------------------------------------------------------------
  energy-cutoff  :      341.21
  volume of cell :     1406.43
      direct lattice vectors                 reciprocal lattice vectors
    11.204002360  0.000000000  0.000000000     0.089253819  0.000000000  0.000000000
     0.000000000 11.204002360  0.000000000     0.000000000  0.089253819  0.000000000
     0.000000000  0.000000000 11.204002360     0.000000000  0.000000000  0.089253819

  length of vectors
    11.204002360 11.204002360 11.204002360     0.089253819  0.089253819  0.089253819


 FORCES acting on ions
    electron-ion (+dipol)            ewald-force                    non-local-force                 convergence-correction
 -----------------------------------------------------------------------------------------------
   -.396E+01 0.166E+00 0.166E+00   0.391E+01 -.159E+00 -.159E+00   0.115E+00 -.604E-02 -.604E-02   0.361E-05 0.123E-05 0.123E-05
   -.715E+00 0.438E+00 -.159E-01   0.668E+00 -.470E+00 0.153E-01   0.406E-01 0.268E-01 0.766E-03   -.221E-05 -.165E-05 -.917E-07
   -.715E+00 -.159E-01 0.438E+00   0.668E+00 0.153E-01 -.470E+00   0.406E-01 0.766E-03 0.268E-01   -.221E-05 -.917E-07 -.165E-05
   0.188E+01 0.250E-02 0.250E-02   -.175E+01 -.259E-02 -.259E-02   -.150E+00 0.728E-04 0.728E-04   -.325E-06 0.290E-07 0.290E-07
   -.102E+00 0.168E+00 -.168E+00   0.102E+00 -.161E+00 0.161E+00   -.104E-03 -.608E-02 0.607E-02   -.474E-06 0.130E-05 -.137E-05
   -.952E+00 0.395E-01 0.159E-01   0.910E+00 -.391E-01 -.153E-01   0.376E-01 -.410E-03 -.759E-03   -.313E-05 -.164E-08 0.269E-06
   0.133E+00 -.386E-03 -.438E+00   -.141E+00 0.398E-03 0.470E+00   0.576E-02 -.101E-04 -.268E-01   0.512E-06 0.168E-06 0.159E-05
   -.285E+00 0.248E-02 -.250E-02   0.292E+00 -.259E-02 0.259E-02   -.555E-02 0.898E-04 -.793E-04   -.141E-07 0.840E-07 -.104E-06
   -.102E+00 -.168E+00 0.168E+00   0.102E+00 0.161E+00 -.161E+00   -.104E-03 0.607E-02 -.608E-02   -.474E-06 -.137E-05 0.130E-05
   0.133E+00 -.438E+00 -.386E-03   -.141E+00 0.470E+00 0.398E-03   0.576E-02 -.268E-01 -.101E-04   0.512E-06 0.159E-05 0.168E-06
   -.952E+00 0.159E-01 0.395E-01   0.910E+00 -.153E-01 -.391E-01   0.376E-01 -.759E-03 -.410E-03   -.313E-05 0.269E-06 -.164E-08
   -.285E+00 -.250E-02 0.248E-02   0.292E+00 0.259E-02 -.259E-02   -.555E-02 -.793E-04 0.898E-04   -.141E-07 -.104E-06 0.840E-07
   -.287E-02 -.168E+00 -.168E+00   0.597E-02 0.161E+00 0.161E+00   -.244E-02 0.608E-02 0.608E-02   0.601E-06 -.172E-05 -.172E-05
   -.104E+00 -.395E-01 0.387E-03   0.101E+00 0.391E-01 -.398E-03   0.270E-02 0.408E-03 0.981E-05   0.358E-06 0.350E-08 -.268E-06
   -.104E+00 0.387E-03 -.395E-01   0.101E+00 -.398E-03 0.391E-01   0.270E-02 0.981E-05 0.408E-03   0.358E-06 -.268E-06 0.350E-08
   -.298E+00 -.248E-02 -.248E-02   0.306E+00 0.259E-02 0.259E-02   -.646E-02 -.896E-04 -.896E-04   0.125E-05 0.240E-07 0.240E-07
   0.516E+00 -.166E+00 -.166E+00   -.580E+00 0.159E+00 0.159E+00   0.554E-01 0.603E-02 0.603E-02   -.128E-05 -.155E-05 -.155E-05
   0.542E+00 -.445E+00 0.159E-02   -.528E+00 0.479E+00 -.158E-02   -.126E-01 -.273E-01 -.936E-05   -.700E-06 0.126E-05 -.408E-07
   0.542E+00 0.159E-02 -.445E+00   -.528E+00 -.158E-02 0.479E+00   -.126E-01 -.936E-05 -.273E-01   -.700E-06 -.408E-07 0.126E-05
   0.229E+01 -.765E-03 -.766E-03   -.217E+01 0.777E-03 0.777E-03   -.133E+00 -.102E-04 -.102E-04   0.823E-06 0.169E-07 0.169E-07
   0.192E+00 -.166E+00 0.166E+00   -.193E+00 0.159E+00 -.159E+00   0.710E-03 0.604E-02 -.603E-02   -.413E-06 -.206E-05 0.179E-05
   0.307E+00 -.397E-01 -.159E-02   -.288E+00 0.392E-01 0.158E-02   -.157E-01 0.427E-03 0.961E-05   0.163E-05 0.382E-06 0.101E-07
   0.340E+00 0.290E-03 0.445E+00   -.340E+00 -.274E-03 -.479E+00   -.252E-04 -.131E-04 0.273E-01   -.239E-05 -.574E-07 -.144E-05
   0.184E+00 -.751E-03 0.758E-03   -.192E+00 0.777E-03 -.777E-03   0.638E-02 -.211E-04 0.154E-04   -.170E-05 0.615E-07 0.289E-06
   0.192E+00 0.166E+00 -.166E+00   -.193E+00 -.159E+00 0.159E+00   0.710E-03 -.603E-02 0.604E-02   -.413E-06 0.179E-05 -.206E-05
   0.340E+00 0.445E+00 0.290E-03   -.340E+00 -.479E+00 -.274E-03   -.252E-04 0.273E-01 -.131E-04   -.239E-05 -.144E-05 -.574E-07
   0.307E+00 -.159E-02 -.397E-01   -.288E+00 0.158E-02 0.392E-01   -.157E-01 0.961E-05 0.427E-03   0.163E-05 0.101E-07 0.382E-06
   0.184E+00 0.758E-03 -.751E-03   -.192E+00 -.777E-03 0.777E-03   0.638E-02 0.154E-04 -.211E-04   -.170E-05 0.289E-06 0.615E-07
   0.126E+00 0.166E+00 0.166E+00   -.128E+00 -.159E+00 -.159E+00   0.152E-02 -.604E-02 -.604E-02   -.196E-06 0.195E-05 0.195E-05
   0.104E+00 0.397E-01 -.290E-03   -.101E+00 -.392E-01 0.274E-03   -.304E-02 -.427E-03 0.130E-04   -.502E-06 -.399E-06 0.279E-06
   0.104E+00 -.290E-03 0.397E-01   -.101E+00 0.274E-03 -.392E-01   -.304E-02 0.130E-04 -.427E-03   -.502E-06 0.279E-06 -.399E-06
   0.169E+00 0.752E-03 0.752E-03   -.176E+00 -.777E-03 -.777E-03   0.551E-02 0.208E-04 0.208E-04   -.124E-05 -.706E-07 -.706E-07
   -.396E+01 0.159E+00 0.159E+00   0.391E+01 -.161E+00 -.161E+00   0.122E+00 0.326E-02 0.326E-02   -.488E-05 -.872E-06 -.872E-06
   -.655E+00 0.487E+00 0.152E-01   0.672E+00 -.479E+00 -.153E-01   -.258E-01 -.140E-01 -.470E-04   0.297E-05 0.101E-05 0.124E-06
   -.655E+00 0.152E-01 0.487E+00   0.672E+00 -.153E-01 -.479E+00   -.258E-01 -.470E-04 -.140E-01   0.297E-05 0.124E-06 0.101E-05
   0.167E+01 -.263E-02 -.263E-02   -.169E+01 0.259E-02 0.259E-02   0.333E-02 0.768E-04 0.768E-04   -.436E-05 -.162E-06 -.162E-06
   -.101E+00 0.157E+00 -.157E+00   0.987E-01 -.159E+00 0.159E+00   0.451E-02 0.325E-02 -.324E-02   -.349E-05 -.310E-06 0.482E-06
   -.900E+00 0.401E-01 -.152E-01   0.911E+00 -.392E-01 0.153E-01   -.164E-01 -.145E-02 0.468E-04   0.187E-05 0.187E-05 0.545E-06
   0.144E+00 0.383E-03 -.487E+00   -.137E+00 -.398E-03 0.479E+00   -.108E-01 0.236E-04 0.140E-01   0.663E-06 0.527E-06 -.131E-05
   -.293E+00 -.263E-02 0.264E-02   0.290E+00 0.259E-02 -.259E-02   0.552E-02 0.706E-04 -.727E-04   -.367E-05 0.671E-07 -.904E-06
   -.101E+00 -.157E+00 0.157E+00   0.987E-01 0.159E+00 -.159E+00   0.451E-02 -.324E-02 0.325E-02   -.349E-05 0.482E-06 -.310E-06
   0.144E+00 -.487E+00 0.383E-03   -.137E+00 0.479E+00 -.398E-03   -.108E-01 0.140E-01 0.236E-04   0.663E-06 -.131E-05 0.527E-06
   -.900E+00 -.152E-01 0.401E-01   0.911E+00 0.153E-01 -.392E-01   -.164E-01 0.468E-04 -.145E-02   0.187E-05 0.545E-06 0.187E-05
   -.293E+00 0.264E-02 -.263E-02   0.290E+00 -.259E-02 0.259E-02   0.552E-02 -.727E-04 0.706E-04   -.367E-05 -.904E-06 0.671E-07
   -.395E-02 -.157E+00 -.157E+00   0.278E-02 0.159E+00 0.159E+00   0.192E-02 -.324E-02 -.324E-02   0.297E-06 0.223E-06 0.223E-06
   -.101E+00 -.400E-01 -.383E-03   0.102E+00 0.392E-01 0.398E-03   -.140E-02 0.145E-02 -.236E-04   0.120E-05 -.207E-05 -.408E-06
   -.101E+00 -.383E-03 -.400E-01   0.102E+00 0.398E-03 0.392E-01   -.140E-02 -.236E-04 0.145E-02   0.120E-05 -.408E-06 -.207E-05
   -.309E+00 0.263E-02 0.263E-02   0.305E+00 -.259E-02 -.259E-02   0.590E-02 -.679E-04 -.679E-04   -.308E-05 0.801E-06 0.801E-06
   0.583E+00 -.159E+00 -.159E+00   -.577E+00 0.161E+00 0.161E+00   -.905E-02 -.330E-02 -.330E-02   0.533E-05 0.132E-05 0.132E-05
   0.533E+00 -.478E+00 -.156E-02   -.531E+00 0.470E+00 0.158E-02   -.210E-02 0.137E-01 -.246E-04   -.156E-05 -.675E-06 0.185E-06
   0.533E+00 -.156E-02 -.478E+00   -.531E+00 0.158E-02 0.470E+00   -.210E-02 -.246E-04 0.137E-01   -.156E-05 0.185E-06 -.675E-06
   0.222E+01 0.781E-03 0.780E-03   -.223E+01 -.777E-03 -.777E-03   -.116E-01 -.933E-05 -.933E-05   0.269E-05 -.108E-06 -.108E-06
   0.192E+00 -.159E+00 0.159E+00   -.190E+00 0.161E+00 -.161E+00   -.441E-02 -.330E-02 0.330E-02   0.342E-05 0.316E-06 -.125E-05
   0.286E+00 -.399E-01 0.156E-02   -.290E+00 0.391E-01 -.158E-02   0.720E-02 0.143E-02 0.281E-04   -.179E-05 -.159E-05 -.212E-07
   0.348E+00 -.271E-03 0.478E+00   -.344E+00 0.274E-03 -.470E+00   -.755E-02 -.264E-05 -.137E-01   -.237E-06 0.169E-07 0.748E-06
   0.192E+00 0.778E-03 -.782E-03   -.189E+00 -.777E-03 0.777E-03   -.437E-02 -.578E-05 0.775E-05   0.307E-05 0.107E-05 0.400E-07
   0.192E+00 0.159E+00 -.159E+00   -.190E+00 -.161E+00 0.161E+00   -.441E-02 0.330E-02 -.330E-02   0.342E-05 -.125E-05 0.316E-06
   0.348E+00 0.478E+00 -.271E-03   -.344E+00 -.470E+00 0.274E-03   -.755E-02 -.137E-01 -.264E-05   -.237E-06 0.748E-06 0.169E-07
   0.286E+00 0.156E-02 -.399E-01   -.290E+00 -.158E-02 0.391E-01   0.720E-02 0.281E-04 0.143E-02   -.179E-05 -.212E-07 -.159E-05
   0.192E+00 -.782E-03 0.778E-03   -.189E+00 0.777E-03 -.777E-03   -.437E-02 0.775E-05 -.578E-05   0.307E-05 0.400E-07 0.107E-05
   0.125E+00 0.159E+00 0.159E+00   -.124E+00 -.161E+00 -.161E+00   -.806E-03 0.330E-02 0.330E-02   -.491E-06 -.356E-06 -.356E-06
   0.101E+00 0.399E-01 0.274E-03   -.102E+00 -.391E-01 -.274E-03   0.176E-02 -.143E-02 0.132E-05   -.125E-05 0.181E-05 -.480E-06
   0.101E+00 0.274E-03 0.399E-01   -.102E+00 -.274E-03 -.391E-01   0.176E-02 0.132E-05 -.143E-02   -.125E-05 -.480E-06 0.181E-05
   0.177E+00 -.778E-03 -.778E-03   -.175E+00 0.777E-03 0.777E-03   -.395E-02 0.619E-05 0.619E-05   0.320E-05 -.901E-06 -.901E-06
 -----------------------------------------------------------------------------------------------
   0.429E-03 -.643E-04 -.641E-04   0.959E-13 -.786E-13 0.129E-12   -.120E-02 0.646E-04 0.646E-04   -.137E-04 -.362E-06 -.362E-06
 
 
 POSITION                                       TOTAL-FORCE (eV/Angst)
 -----------------------------------------------------------------------------------
     11.17400      0.00000      0.00000         0.063052      0.001291      0.001291
      2.80100      2.80100      0.00000        -0.006518     -0.005800      0.000092
      2.80100      0.00000      2.80100        -0.006518      0.000092     -0.005800
      0.00000      2.80100      2.80100        -0.018609     -0.000017     -0.000017
      0.00000      0.00000      5.60200         0.000265      0.001300     -0.001298
      2.80100      2.80100      5.60200        -0.004996      0.000074     -0.000094
      2.80100      0.00000      8.40300        -0.002116      0.000002      0.005800
      0.00000      2.80100      8.40300         0.001497     -0.000020      0.000018
      0.00000      5.60200      0.00000         0.000265     -0.001298      0.001300
      2.80100      8.40300      0.00000        -0.002116      0.005800      0.000002
      2.80100      5.60200      2.80100        -0.004996     -0.000094      0.000074
      0.00000      8.40300      2.80100         0.001497      0.000018     -0.000020
      0.00000      5.60200      5.60200         0.000668     -0.001300     -0.001300
      2.80100      8.40300      5.60200        -0.000587     -0.000073     -0.000002
      2.80100      5.60200      8.40300        -0.000587     -0.000002     -0.000073
      0.00000      8.40300      8.40300         0.001659      0.000019      0.000019
      5.60200      0.00000      0.00000        -0.008679     -0.001293     -0.001293
      8.40300      2.80100      0.00000         0.001320      0.005926      0.000003
      8.40300      0.00000      2.80100         0.001320      0.000003      0.005926
      5.60200      2.80100      2.80100        -0.017368      0.000002      0.000002
      5.60200      0.00000      5.60200        -0.000075     -0.001291      0.001290
      8.40300      2.80100      5.60200         0.002870     -0.000077     -0.000003
      8.40300      0.00000      8.40300        -0.000843      0.000003     -0.005926
      5.60200      2.80100      8.40300        -0.001316      0.000005     -0.000004
      5.60200      5.60200      0.00000        -0.000075      0.001290     -0.001291
      8.40300      8.40300      0.00000        -0.000843     -0.005926      0.000003
      8.40300      5.60200      2.80100         0.002870     -0.000003     -0.000077
      5.60200      8.40300      2.80100        -0.001316     -0.000004      0.000005
      5.60200      5.60200      5.60200        -0.000207      0.001291      0.001291
      8.40300      8.40300      5.60200         0.000704      0.000077     -0.000003
      8.40300      5.60200      8.40300         0.000704     -0.000003      0.000077
      5.60200      8.40300      8.40300        -0.001160     -0.000005     -0.000005
      2.77100      2.80100      2.80100         0.076266      0.001290      0.001290
      0.00000      0.00000      2.80100        -0.008919     -0.005875     -0.000130
      0.00000      2.80100      0.00000        -0.008919     -0.000130     -0.005875
      2.80100      0.00000      0.00000        -0.013837      0.000036      0.000036
      2.80100      2.80100      8.40300         0.001790      0.001283     -0.001282
      0.00000      0.00000      8.40300        -0.004947     -0.000576      0.000124
      0.00000      2.80100      5.60200        -0.004518      0.000009      0.005886
      2.80100      0.00000      5.60200         0.002198      0.000030     -0.000029
      2.80100      8.40300      2.80100         0.001790     -0.001282      0.001283
      0.00000      5.60200      2.80100        -0.004518      0.005886      0.000009
      0.00000      8.40300      0.00000        -0.004947      0.000124     -0.000576
      2.80100      5.60200      0.00000         0.002198     -0.000029      0.000030
      2.80100      8.40300      8.40300         0.000760     -0.001282     -0.001282
      0.00000      5.60200      8.40300        -0.000544      0.000576     -0.000009
      0.00000      8.40300      5.60200        -0.000544     -0.000009      0.000576
      2.80100      5.60200      5.60200         0.002350     -0.000030     -0.000030
      8.40300      2.80100      2.80100        -0.003625     -0.001306     -0.001306
      5.60200      0.00000      2.80100        -0.001024      0.005732     -0.000010
      5.60200      2.80100      0.00000        -0.001024     -0.000010      0.005732
      8.40300      0.00000      0.00000        -0.021772     -0.000006     -0.000006
      8.40300      2.80100      8.40300        -0.001741     -0.001305      0.001306
      5.60200      0.00000      8.40300         0.002874      0.000568      0.000012
      5.60200      2.80100      5.60200        -0.003190     -0.000000     -0.005737
      8.40300      0.00000      5.60200        -0.001718     -0.000004      0.000003
      8.40300      8.40300      2.80100        -0.001741      0.001306     -0.001305
      5.60200      5.60200      2.80100        -0.003190     -0.005737     -0.000000
      5.60200      8.40300      0.00000         0.002874      0.000012      0.000568
      8.40300      5.60200      0.00000        -0.001718      0.000003     -0.000004
      8.40300      8.40300      8.40300        -0.000309      0.001305      0.001305
      5.60200      5.60200      8.40300         0.000711     -0.000568      0.000001
      5.60200      8.40300      5.60200         0.000711      0.000001     -0.000568
      8.40300      5.60200      5.60200        -0.001547      0.000004      0.000004
 -----------------------------------------------------------------------------------
    total drift:                               -0.000784     -0.000000      0.000000


--------------------------------------------------------------------------------------------------------



  FREE ENERGIE OF THE ION-ELECTRON SYSTEM (eV)
  ---------------------------------------------------
  free  energy   TOTEN  =      -223.90061730 eV

  energy  without entropy=     -223.90061730  energy(sigma->0) =     -223.90061730
 


--------------------------------------------------------------------------------------------------------


    POTLOK:  cpu time      0.0689: real time      0.0692


--------------------------------------------------------------------------------------------------------


     LOOP+:  cpu time    196.6633: real time    197.7264
    4ORBIT:  cpu time      0.0000: real time      0.0000

 total amount of memory used by VASP MPI-rank0   118439. kBytes
=======================================================================

   base      :      30000. kBytes
   nonl-proj :      36470. kBytes
   fftplans  :      14405. kBytes
   grid      :      19342. kBytes
   one-center:        196. kBytes
   wavefun   :      18026. kBytes
 
  
  
 General timing and accounting informations for this job:
 ========================================================
  
                  Total CPU time used (sec):      200.207
                            User time (sec):      199.585
                          System time (sec):        0.622
                         Elapsed time (sec):      201.698
  
                   Maximum memory used (kb):      307896.
                   Average memory used (kb):          N/A
  
                          Minor page faults:       129806
                          Major page faults:            0
                 Voluntary context switches:          862
