<?xml version="1.0" encoding="ISO-8859-1"?>
<modeling>
 <generator>
  <i name="program" type="string">vasp </i>
  <i name="version" type="string">6.3.2  </i>
  <i name="subversion" type="string">27Jun22 (build Oct 14 2022 12:13:54) complex                          parallel </i>
  <i name="platform" type="string">LinuxIFC </i>
  <i name="date" type="string">2025 08 28 </i>
  <i name="time" type="string">22:01:02 </i>
 </generator>
 <incar>
  <i type="string" name="PREC">Accurate</i>
  <i type="int" name="IALGO">    38</i>
  <i type="logical" name="ADDGRID"> T  </i>
  <i type="int" name="NELMIN">     5</i>
  <i type="int" name="IBRION">    -1</i>
  <i name="EDIFF">      0.00000001</i>
  <i name="ENCUT">    341.21360000</i>
  <i type="logical" name="LREAL"> F  </i>
  <i type="int" name="ISMEAR">     0</i>
  <i name="SIGMA">      0.02000000</i>
  <i type="logical" name="LWAVE"> F  </i>
  <i type="logical" name="LCHARG"> F  </i>
  <i type="string" name="GGA">PS</i>
 </incar>
 <primitive_cell>
  <structure name="primitive_cell" >
   <crystal>
    <varray name="basis" >
     <v>      11.20400236       0.00000000       0.00000000 </v>
     <v>       0.00000000      11.20400236       0.00000000 </v>
     <v>       0.00000000       0.00000000      11.20400236 </v>
    </varray>
    <i name="volume">   1406.43470641 </i>
    <varray name="rec_basis" >
     <v>       0.08925382       0.00000000       0.00000000 </v>
     <v>       0.00000000       0.08925382       0.00000000 </v>
     <v>       0.00000000       0.00000000       0.08925382 </v>
    </varray>
   </crystal>
   <varray name="positions" >
    <v>       0.99732239       0.00000000       0.00000000 </v>
    <v>       0.25000000       0.25000000       0.00000000 </v>
    <v>       0.25000000       0.00000000       0.25000000 </v>
    <v>       0.00000000       0.25000000       0.25000000 </v>
    <v>       0.00000000       0.00000000       0.50000000 </v>
    <v>       0.25000000       0.25000000       0.50000000 </v>
    <v>       0.25000000       0.00000000       0.75000000 </v>
    <v>       0.00000000       0.25000000       0.75000000 </v>
    <v>       0.00000000       0.50000000       0.00000000 </v>
    <v>       0.25000000       0.75000000       0.00000000 </v>
    <v>       0.25000000       0.50000000       0.25000000 </v>
    <v>       0.00000000       0.75000000       0.25000000 </v>
    <v>       0.00000000       0.50000000       0.50000000 </v>
    <v>       0.25000000       0.75000000       0.50000000 </v>
    <v>       0.25000000       0.50000000       0.75000000 </v>
    <v>       0.00000000       0.75000000       0.75000000 </v>
    <v>       0.50000000       0.00000000       0.00000000 </v>
    <v>       0.75000000       0.25000000       0.00000000 </v>
    <v>       0.75000000       0.00000000       0.25000000 </v>
    <v>       0.50000000       0.25000000       0.25000000 </v>
    <v>       0.50000000       0.00000000       0.50000000 </v>
    <v>       0.75000000       0.25000000       0.50000000 </v>
    <v>       0.75000000       0.00000000       0.75000000 </v>
    <v>       0.50000000       0.25000000       0.75000000 </v>
    <v>       0.50000000       0.50000000       0.00000000 </v>
    <v>       0.75000000       0.75000000       0.00000000 </v>
    <v>       0.75000000       0.50000000       0.25000000 </v>
    <v>       0.50000000       0.75000000       0.25000000 </v>
    <v>       0.50000000       0.50000000       0.50000000 </v>
    <v>       0.75000000       0.75000000       0.50000000 </v>
    <v>       0.75000000       0.50000000       0.75000000 </v>
    <v>       0.50000000       0.75000000       0.75000000 </v>
    <v>       0.24732239       0.25000000       0.25000000 </v>
    <v>       0.00000000       0.00000000       0.25000000 </v>
    <v>       0.00000000       0.25000000       0.00000000 </v>
    <v>       0.25000000       0.00000000       0.00000000 </v>
    <v>       0.25000000       0.25000000       0.75000000 </v>
    <v>       0.00000000       0.00000000       0.75000000 </v>
    <v>       0.00000000       0.25000000       0.50000000 </v>
    <v>       0.25000000       0.00000000       0.50000000 </v>
    <v>       0.25000000       0.75000000       0.25000000 </v>
    <v>       0.00000000       0.50000000       0.25000000 </v>
    <v>       0.00000000       0.75000000       0.00000000 </v>
    <v>       0.25000000       0.50000000       0.00000000 </v>
    <v>       0.25000000       0.75000000       0.75000000 </v>
    <v>       0.00000000       0.50000000       0.75000000 </v>
    <v>       0.00000000       0.75000000       0.50000000 </v>
    <v>       0.25000000       0.50000000       0.50000000 </v>
    <v>       0.75000000       0.25000000       0.25000000 </v>
    <v>       0.50000000       0.00000000       0.25000000 </v>
    <v>       0.50000000       0.25000000       0.00000000 </v>
    <v>       0.75000000       0.00000000       0.00000000 </v>
    <v>       0.75000000       0.25000000       0.75000000 </v>
    <v>       0.50000000       0.00000000       0.75000000 </v>
    <v>       0.50000000       0.25000000       0.50000000 </v>
    <v>       0.75000000       0.00000000       0.50000000 </v>
    <v>       0.75000000       0.75000000       0.25000000 </v>
    <v>       0.50000000       0.50000000       0.25000000 </v>
    <v>       0.50000000       0.75000000       0.00000000 </v>
    <v>       0.75000000       0.50000000       0.00000000 </v>
    <v>       0.75000000       0.75000000       0.75000000 </v>
    <v>       0.50000000       0.50000000       0.75000000 </v>
    <v>       0.50000000       0.75000000       0.50000000 </v>
    <v>       0.75000000       0.50000000       0.50000000 </v>
   </varray>
  </structure>
  <varray name="primitive_index" >
   <v type="int" >        1 </v>
   <v type="int" >        2 </v>
   <v type="int" >        3 </v>
   <v type="int" >        4 </v>
   <v type="int" >        5 </v>
   <v type="int" >        6 </v>
   <v type="int" >        7 </v>
   <v type="int" >        8 </v>
   <v type="int" >        9 </v>
   <v type="int" >       10 </v>
   <v type="int" >       11 </v>
   <v type="int" >       12 </v>
   <v type="int" >       13 </v>
   <v type="int" >       14 </v>
   <v type="int" >       15 </v>
   <v type="int" >       16 </v>
   <v type="int" >       17 </v>
   <v type="int" >       18 </v>
   <v type="int" >       19 </v>
   <v type="int" >       20 </v>
   <v type="int" >       21 </v>
   <v type="int" >       22 </v>
   <v type="int" >       23 </v>
   <v type="int" >       24 </v>
   <v type="int" >       25 </v>
   <v type="int" >       26 </v>
   <v type="int" >       27 </v>
   <v type="int" >       28 </v>
   <v type="int" >       29 </v>
   <v type="int" >       30 </v>
   <v type="int" >       31 </v>
   <v type="int" >       32 </v>
   <v type="int" >       33 </v>
   <v type="int" >       34 </v>
   <v type="int" >       35 </v>
   <v type="int" >       36 </v>
   <v type="int" >       37 </v>
   <v type="int" >       38 </v>
   <v type="int" >       39 </v>
   <v type="int" >       40 </v>
   <v type="int" >       41 </v>
   <v type="int" >       42 </v>
   <v type="int" >       43 </v>
   <v type="int" >       44 </v>
   <v type="int" >       45 </v>
   <v type="int" >       46 </v>
   <v type="int" >       47 </v>
   <v type="int" >       48 </v>
   <v type="int" >       49 </v>
   <v type="int" >       50 </v>
   <v type="int" >       51 </v>
   <v type="int" >       52 </v>
   <v type="int" >       53 </v>
   <v type="int" >       54 </v>
   <v type="int" >       55 </v>
   <v type="int" >       56 </v>
   <v type="int" >       57 </v>
   <v type="int" >       58 </v>
   <v type="int" >       59 </v>
   <v type="int" >       60 </v>
   <v type="int" >       61 </v>
   <v type="int" >       62 </v>
   <v type="int" >       63 </v>
   <v type="int" >       64 </v>
  </varray>
 </primitive_cell>
 <kpoints>
  <generation param="Gamma">
   <v type="int" name="divisions">       2        2        2 </v>
   <v name="usershift">      0.00000000       0.00000000       0.00000000 </v>
   <v name="genvec1">      0.50000000       0.00000000       0.00000000 </v>
   <v name="genvec2">      0.00000000       0.50000000       0.00000000 </v>
   <v name="genvec3">      0.00000000       0.00000000       0.50000000 </v>
   <v name="shift">      0.00000000       0.00000000       0.00000000 </v>
  </generation>
  <varray name="kpointlist" >
   <v>       0.00000000       0.00000000       0.00000000 </v>
   <v>       0.50000000       0.00000000       0.00000000 </v>
   <v>       0.00000000       0.50000000       0.00000000 </v>
   <v>       0.50000000       0.50000000       0.00000000 </v>
   <v>       0.00000000       0.50000000       0.50000000 </v>
   <v>       0.50000000       0.50000000       0.50000000 </v>
  </varray>
  <varray name="weights" >
   <v>       0.12500000 </v>
   <v>       0.12500000 </v>
   <v>       0.25000000 </v>
   <v>       0.25000000 </v>
   <v>       0.12500000 </v>
   <v>       0.12500000 </v>
  </varray>
 </kpoints>
 <parameters>
  <separator name="general" >
   <i type="string" name="SYSTEM">unknown system</i>
   <i type="logical" name="LCOMPAT"> F  </i>
  </separator>
  <separator name="electronic" >
   <i type="string" name="PREC">accura</i>
   <i name="ENMAX">    341.21360000</i>
   <i name="ENAUG">    368.05600000</i>
   <i name="EDIFF">      0.00000001</i>
   <i type="int" name="IALGO">    38</i>
   <i type="int" name="IWAVPR">    10</i>
   <i type="int" name="NBANDS">   288</i>
   <i type="int" name="NBANDSLOW">    -1</i>
   <i type="int" name="NBANDSHIGH">    -1</i>
   <i name="NELECT">    448.00000000</i>
   <i type="int" name="TURBO">     0</i>
   <i type="int" name="IRESTART">     0</i>
   <i type="int" name="NREBOOT">     0</i>
   <i type="int" name="NMIN">     0</i>
   <i name="EREF">      0.00000000</i>
   <separator name="electronic smearing" >
    <i type="int" name="ISMEAR">     0</i>
    <i name="SIGMA">      0.02000000</i>
    <i name="KSPACING">      0.50000000</i>
    <i type="logical" name="KGAMMA"> T  </i>
    <i type="logical" name="KBLOWUP"> T  </i>
   </separator>
   <separator name="electronic projectors" >
    <i type="logical" name="LREAL"> F  </i>
    <v name="ROPT">      0.00000000      0.00000000</v>
    <i type="int" name="LMAXPAW">  -100</i>
    <i type="int" name="LMAXMIX">     2</i>
    <i type="logical" name="NLSPLINE"> F  </i>
   </separator>
   <separator name="electronic startup" >
    <i type="int" name="ISTART">     0</i>
    <i type="int" name="ICHARG">     2</i>
    <i type="int" name="INIWAV">     1</i>
   </separator>
   <separator name="electronic spin" >
    <i type="int" name="ISPIN">     1</i>
    <i type="logical" name="LNONCOLLINEAR"> F  </i>
    <v name="MAGMOM">      1.00000000      1.00000000      1.00000000      1.00000000      1.00000000      1.00000000      1.00000000      1.00000000      1.00000000      1.00000000      1.00000000      1.00000000      1.00000000      1.00000000      1.00000000      1.00000000      1.00000000      1.00000000      1.00000000      1.00000000
      1.00000000      1.00000000      1.00000000      1.00000000      1.00000000      1.00000000      1.00000000      1.00000000      1.00000000      1.00000000      1.00000000      1.00000000      1.00000000      1.00000000      1.00000000      1.00000000      1.00000000      1.00000000      1.00000000      1.00000000
      1.00000000      1.00000000      1.00000000      1.00000000      1.00000000      1.00000000      1.00000000      1.00000000      1.00000000      1.00000000      1.00000000      1.00000000      1.00000000      1.00000000      1.00000000      1.00000000      1.00000000      1.00000000      1.00000000      1.00000000
      1.00000000      1.00000000      1.00000000      1.00000000</v>
    <i name="NUPDOWN">     -1.00000000</i>
    <i type="logical" name="LSORBIT"> F  </i>
    <v name="SAXIS">      0.00000000      0.00000000      1.00000000</v>
    <i type="logical" name="LSPIRAL"> F  </i>
    <v name="QSPIRAL">      0.00000000      0.00000000      0.00000000</v>
    <i type="logical" name="LZEROZ"> F  </i>
   </separator>
   <separator name="electronic exchange-correlation" >
    <i type="logical" name="LASPH"> F  </i>
    <i type="logical" name="LMETAGGA"> F  </i>
   </separator>
   <separator name="electronic convergence" >
    <i type="int" name="NELM">    60</i>
    <i type="int" name="NELMDL">    -5</i>
    <i type="int" name="NELMIN">     5</i>
    <i name="ENINI">    341.21360000</i>
    <separator name="electronic convergence detail" >
     <i type="logical" name="LDIAG"> T  </i>
     <i type="logical" name="LSUBROT"> F  </i>
     <i name="WEIMIN">      0.00000000</i>
     <i name="EBREAK">      0.00000000</i>
     <i name="DEPER">      0.30000000</i>
     <i type="int" name="NRMM">     4</i>
     <i name="TIME">      0.40000000</i>
    </separator>
   </separator>
   <separator name="electronic mixer" >
    <i name="AMIX">      0.40000000</i>
    <i name="BMIX">      1.00000000</i>
    <i name="AMIN">      0.10000000</i>
    <i name="AMIX_MAG">      1.60000000</i>
    <i name="BMIX_MAG">      1.00000000</i>
    <separator name="electronic mixer details" >
     <i type="int" name="IMIX">     4</i>
     <i type="logical" name="MIXFIRST"> F  </i>
     <i type="int" name="MAXMIX">   -45</i>
     <i name="WC">    100.00000000</i>
     <i type="int" name="INIMIX">     1</i>
     <i type="int" name="MIXPRE">     1</i>
     <i type="int" name="MREMOVE">     5</i>
    </separator>
   </separator>
   <separator name="electronic dipolcorrection" >
    <i type="logical" name="LDIPOL"> F  </i>
    <i type="logical" name="LMONO"> F  </i>
    <i type="int" name="IDIPOL">     0</i>
    <i name="EPSILON">      1.00000000</i>
    <v name="DIPOL">   -100.00000000   -100.00000000   -100.00000000</v>
    <i name="EFIELD">      0.00000000</i>
   </separator>
  </separator>
  <separator name="grids" >
   <i type="int" name="NGX">    70</i>
   <i type="int" name="NGY">    70</i>
   <i type="int" name="NGZ">    70</i>
   <i type="int" name="NGXF">   140</i>
   <i type="int" name="NGYF">   140</i>
   <i type="int" name="NGZF">   140</i>
   <i type="logical" name="ADDGRID"> T  </i>
  </separator>
  <separator name="ionic" >
   <i type="int" name="NSW">     0</i>
   <i type="int" name="IBRION">    -1</i>
   <i type="int" name="MDALGO">     0</i>
   <i type="int" name="ISIF">     2</i>
   <i name="PSTRESS">      0.00000000</i>
   <i name="EDIFFG">      0.00000010</i>
   <i type="int" name="NFREE">     0</i>
   <i name="POTIM">      0.50000000</i>
   <i name="SMASS">     -3.00000000</i>
   <i name="SCALEE">      1.00000000</i>
  </separator>
  <separator name="ionic md" >
   <i name="TEBEG">      0.00010000</i>
   <i name="TEEND">      0.00010000</i>
   <i type="int" name="NBLOCK">     1</i>
   <i type="int" name="KBLOCK">     1</i>
   <i type="int" name="NPACO">   256</i>
   <i name="APACO">     10.00000000</i>
  </separator>
  <separator name="symmetry" >
   <i type="int" name="ISYM">     2</i>
   <i name="SYMPREC">      0.00001000</i>
  </separator>
  <separator name="dos" >
   <i type="int" name="LORBIT">     0</i>
   <v name="RWIGS">     -1.00000000     -1.00000000</v>
   <i type="int" name="NEDOS">   301</i>
   <i name="EMIN">     10.00000000</i>
   <i name="EMAX">    -10.00000000</i>
   <i name="EFERMI">      0.00000000</i>
  </separator>
  <separator name="writing" >
   <i type="int" name="NWRITE">     2</i>
   <i type="logical" name="LWAVE"> F  </i>
   <i type="logical" name="LDOWNSAMPLE"> F  </i>
   <i type="logical" name="LCHARG"> F  </i>
   <i type="logical" name="LPARD"> F  </i>
   <i type="logical" name="LVTOT"> F  </i>
   <i type="logical" name="LVHAR"> F  </i>
   <i type="logical" name="LELF"> F  </i>
   <i type="logical" name="LOPTICS"> F  </i>
   <v name="STM">      0.00000000      0.00000000      0.00000000      0.00000000      0.00000000      0.00000000      0.00000000</v>
  </separator>
  <separator name="performance" >
   <i type="int" name="NPAR">    32</i>
   <i type="int" name="NSIM">     4</i>
   <i type="int" name="NBLK">    -1</i>
   <i type="logical" name="LPLANE"> T  </i>
   <i type="logical" name="LSCALAPACK"> T  </i>
   <i type="logical" name="LSCAAWARE"> F  </i>
   <i type="logical" name="LSCALU"> F  </i>
   <i type="logical" name="LASYNC"> F  </i>
   <i type="logical" name="LORBITALREAL"> F  </i>
  </separator>
  <separator name="miscellaneous" >
   <i type="int" name="IDIOT">     3</i>
   <i type="int" name="PHON_NSTRUCT">    -1</i>
   <i type="logical" name="LMUSIC"> F  </i>
   <v name="POMASS">     22.99000000     35.45300000</v>
   <v name="DARWINR">      0.00000000      0.00000000</v>
   <v name="DARWINV">      1.00000000      1.00000000</v>
   <i type="logical" name="LCORR"> T  </i>
  </separator>
  <i type="logical" name="GGA_COMPAT"> T  </i>
  <i type="logical" name="LBERRY"> F  </i>
  <i type="int" name="ICORELEVEL">     0</i>
  <i type="logical" name="LDAU"> F  </i>
  <i type="int" name="I_CONSTRAINED_M">     0</i>
  <separator name="electronic exchange-correlation" >
   <i type="string" name="GGA">PS</i>
   <i type="int" name="VOSKOWN">     0</i>
   <i type="logical" name="LHFCALC"> F  </i>
   <i type="string" name="PRECFOCK"></i>
   <i type="logical" name="LSYMGRAD"> F  </i>
   <i type="logical" name="LHFONE"> F  </i>
   <i type="logical" name="LRHFCALC"> F  </i>
   <i type="logical" name="LTHOMAS"> F  </i>
   <i type="logical" name="LMODELHF"> F  </i>
   <i type="logical" name="LFOCKACE"> F  </i>
   <i name="ENCUT4O">     -1.00000000</i>
   <i type="int" name="EXXOEP">     0</i>
   <i type="int" name="FOURORBIT">     0</i>
   <i name="AEXX">      0.00000000</i>
   <i name="HFALPHA">      0.00000000</i>
   <i name="MCALPHA">      0.00000000</i>
   <i name="ALDAX">      1.00000000</i>
   <i name="AGGAX">      1.00000000</i>
   <i name="ALDAC">      1.00000000</i>
   <i name="AGGAC">      1.00000000</i>
   <i type="int" name="NKREDX">     1</i>
   <i type="int" name="NKREDY">     1</i>
   <i type="int" name="NKREDZ">     1</i>
   <i type="logical" name="SHIFTRED"> F  </i>
   <i type="logical" name="ODDONLY"> F  </i>
   <i type="logical" name="EVENONLY"> F  </i>
   <i type="int" name="LMAXFOCK">     0</i>
   <i type="int" name="NMAXFOCKAE">     0</i>
   <i type="logical" name="LFOCKAEDFT"> F  </i>
   <i name="HFSCREEN">      0.00000000</i>
   <i name="HFSCREENC">      0.00000000</i>
   <i type="int" name="NBANDSGWLOW">     0</i>
  </separator>
  <separator name="vdW DFT" >
   <i type="logical" name="LUSE_VDW"> F  </i>
   <i name="Zab_VDW">     -0.84910000</i>
   <i name="PARAM1">      0.12340000</i>
   <i name="PARAM2">      1.00000000</i>
   <i name="PARAM3">      0.00000000</i>
  </separator>
  <separator name="model GW" >
   <i type="int" name="MODEL_GW">     0</i>
   <i name="MODEL_EPS0">     13.18532537</i>
   <i name="MODEL_ALPHA">      1.00000000</i>
  </separator>
  <separator name="linear response parameters" >
   <i type="logical" name="LEPSILON"> F  </i>
   <i type="logical" name="LRPA"> F  </i>
   <i type="logical" name="LNABLA"> F  </i>
   <i type="logical" name="LVEL"> F  </i>
   <i name="CSHIFT">      0.10000000</i>
   <i name="OMEGAMAX">     -1.00000000</i>
   <i name="DEG_THRESHOLD">      0.00200000</i>
   <i name="RTIME">     -0.10000000</i>
   <i name="WPLASMAI">      0.00000000</i>
   <v name="DFIELD">      0.00000000      0.00000000      0.00000000</v>
   <v name="WPLASMA">      0.00000000      0.00000000      0.00000000      0.00000000      0.00000000      0.00000000      0.00000000      0.00000000      0.00000000</v>
  </separator>
  <separator name="orbital magnetization" >
   <i type="logical" name="NUCIND"> F  </i>
   <v name="MAGPOS">      0.00000000      0.00000000      0.00000000</v>
   <i type="logical" name="LNICSALL"> T  </i>
   <i type="logical" name="ORBITALMAG"> F  </i>
   <i type="logical" name="LMAGBLOCH"> F  </i>
   <i type="logical" name="LCHIMAG"> F  </i>
   <i type="logical" name="LGAUGE"> T  </i>
   <i type="int" name="MAGATOM">     0</i>
   <v name="MAGDIPOL">      0.00000000      0.00000000      0.00000000</v>
   <v name="AVECCONST">      0.00000000      0.00000000      0.00000000</v>
  </separator>
  <separator name="response functions" >
   <i type="logical" name="LFINITE_TEMPERATURE"> F  </i>
   <i type="logical" name="LADDER"> F  </i>
   <i type="logical" name="LRPAFORCE"> F  </i>
   <i type="logical" name="LFXC"> F  </i>
   <i type="logical" name="LHARTREE"> T  </i>
   <i type="int" name="IBSE">     0</i>
   <v type="int" name="KPOINT">    -1     0     0     0</v>
   <i type="logical" name="LTCTC"> F  </i>
   <i type="logical" name="LTCTE"> F  </i>
   <i type="logical" name="LTETE"> F  </i>
   <i type="logical" name="LTRIPLET"> F  </i>
   <i type="logical" name="LFXCEPS"> F  </i>
   <i type="logical" name="LFXHEG"> F  </i>
   <i type="int" name="NATURALO">     2</i>
   <i type="logical" name="LHOLEGF"> F  </i>
   <i type="logical" name="L2ORDER"> F  </i>
   <i type="logical" name="LDMP1"> F  </i>
   <i type="logical" name="LMP2LT"> F  </i>
   <i type="logical" name="LSMP2LT"> F  </i>
   <i type="logical" name="LGWLF"> F  </i>
   <i name="ENCUTGW">     -2.00000000</i>
   <i name="ENCUTGWSOFT">     -2.00000000</i>
   <i name="ENCUTLF">     -1.00000000</i>
   <i type="logical" name="LESF_SPLINES"> F  </i>
   <i type="int" name="LMAXMP2">    -1</i>
   <i name="SCISSOR">      0.00000000</i>
   <i type="int" name="NOMEGA">     0</i>
   <i type="int" name="NOMEGAR">     0</i>
   <i type="int" name="NBANDSGW">    -1</i>
   <i type="int" name="NBANDSO">    -1</i>
   <i type="int" name="NBANDSV">    -1</i>
   <i type="int" name="NELMGW">     1</i>
   <i type="int" name="NELMHF">     1</i>
   <i type="int" name="DIM">     3</i>
   <i type="int" name="IESPILON">     4</i>
   <i type="int" name="ANTIRES">     0</i>
   <i name="OMEGAMAX">    -30.00000000</i>
   <i name="OMEGAMIN">    -30.00000000</i>
   <i name="OMEGATL">   -200.00000000</i>
   <i type="int" name="OMEGAGRID">     0</i>
   <i name="CSHIFT">     -0.10000000</i>
   <i type="logical" name="LSELFENERGY"> F  </i>
   <i type="logical" name="LSPECTRAL"> F  </i>
   <i type="logical" name="LSPECTRALGW"> F  </i>
   <i type="logical" name="LSINGLES"> F  </i>
   <i type="logical" name="LFERMIGW"> F  </i>
   <i type="logical" name="ODDONLYGW"> F  </i>
   <i type="logical" name="EVENONLYGW"> F  </i>
   <i type="int" name="NKREDLFX">     1</i>
   <i type="int" name="NKREDLFY">     1</i>
   <i type="int" name="NKREDLFZ">     1</i>
   <i type="int" name="MAXMEM">  2800</i>
   <i type="int" name="TELESCOPE">     0</i>
   <i type="int" name="NTAUPAR">    -1</i>
   <i type="int" name="NOMEGAPAR">    -1</i>
   <i name="DAMP_NEWTON">      0.80000001</i>
   <i name="LAMBDA">      1.00000000</i>
  </separator>
  <separator name="External order field" >
   <i name="OFIELD_KAPPA">      0.00000000</i>
   <v name="OFIELD_K">      0.00000000      0.00000000      0.00000000</v>
   <i name="OFIELD_Q6_NEAR">      0.00000000</i>
   <i name="OFIELD_Q6_FAR">      0.00000000</i>
   <i name="OFIELD_A">      0.00000000</i>
  </separator>
  <separator name="optional k-points parameters" >
   <i type="int" name="KPOINTS_OPT_MODE">     1</i>
   <i type="logical" name="LKPOINTS_OPT"> F  </i>
  </separator>
 </parameters>
 <atominfo>
  <atoms>      64 </atoms>
  <types>       2 </types>
  <array name="atoms" >
   <dimension dim="1">ion</dimension>
   <field type="string">element</field>
   <field type="int">atomtype</field>
   <set>
    <rc><c>Na</c><c>   1</c></rc>
    <rc><c>Na</c><c>   1</c></rc>
    <rc><c>Na</c><c>   1</c></rc>
    <rc><c>Na</c><c>   1</c></rc>
    <rc><c>Na</c><c>   1</c></rc>
    <rc><c>Na</c><c>   1</c></rc>
    <rc><c>Na</c><c>   1</c></rc>
    <rc><c>Na</c><c>   1</c></rc>
    <rc><c>Na</c><c>   1</c></rc>
    <rc><c>Na</c><c>   1</c></rc>
    <rc><c>Na</c><c>   1</c></rc>
    <rc><c>Na</c><c>   1</c></rc>
    <rc><c>Na</c><c>   1</c></rc>
    <rc><c>Na</c><c>   1</c></rc>
    <rc><c>Na</c><c>   1</c></rc>
    <rc><c>Na</c><c>   1</c></rc>
    <rc><c>Na</c><c>   1</c></rc>
    <rc><c>Na</c><c>   1</c></rc>
    <rc><c>Na</c><c>   1</c></rc>
    <rc><c>Na</c><c>   1</c></rc>
    <rc><c>Na</c><c>   1</c></rc>
    <rc><c>Na</c><c>   1</c></rc>
    <rc><c>Na</c><c>   1</c></rc>
    <rc><c>Na</c><c>   1</c></rc>
    <rc><c>Na</c><c>   1</c></rc>
    <rc><c>Na</c><c>   1</c></rc>
    <rc><c>Na</c><c>   1</c></rc>
    <rc><c>Na</c><c>   1</c></rc>
    <rc><c>Na</c><c>   1</c></rc>
    <rc><c>Na</c><c>   1</c></rc>
    <rc><c>Na</c><c>   1</c></rc>
    <rc><c>Na</c><c>   1</c></rc>
    <rc><c>Cl</c><c>   2</c></rc>
    <rc><c>Cl</c><c>   2</c></rc>
    <rc><c>Cl</c><c>   2</c></rc>
    <rc><c>Cl</c><c>   2</c></rc>
    <rc><c>Cl</c><c>   2</c></rc>
    <rc><c>Cl</c><c>   2</c></rc>
    <rc><c>Cl</c><c>   2</c></rc>
    <rc><c>Cl</c><c>   2</c></rc>
    <rc><c>Cl</c><c>   2</c></rc>
    <rc><c>Cl</c><c>   2</c></rc>
    <rc><c>Cl</c><c>   2</c></rc>
    <rc><c>Cl</c><c>   2</c></rc>
    <rc><c>Cl</c><c>   2</c></rc>
    <rc><c>Cl</c><c>   2</c></rc>
    <rc><c>Cl</c><c>   2</c></rc>
    <rc><c>Cl</c><c>   2</c></rc>
    <rc><c>Cl</c><c>   2</c></rc>
    <rc><c>Cl</c><c>   2</c></rc>
    <rc><c>Cl</c><c>   2</c></rc>
    <rc><c>Cl</c><c>   2</c></rc>
    <rc><c>Cl</c><c>   2</c></rc>
    <rc><c>Cl</c><c>   2</c></rc>
    <rc><c>Cl</c><c>   2</c></rc>
    <rc><c>Cl</c><c>   2</c></rc>
    <rc><c>Cl</c><c>   2</c></rc>
    <rc><c>Cl</c><c>   2</c></rc>
    <rc><c>Cl</c><c>   2</c></rc>
    <rc><c>Cl</c><c>   2</c></rc>
    <rc><c>Cl</c><c>   2</c></rc>
    <rc><c>Cl</c><c>   2</c></rc>
    <rc><c>Cl</c><c>   2</c></rc>
    <rc><c>Cl</c><c>   2</c></rc>
   </set>
  </array>
  <array name="atomtypes" >
   <dimension dim="1">type</dimension>
   <field type="int">atomspertype</field>
   <field type="string">element</field>
   <field>mass</field>
   <field>valence</field>
   <field type="string">pseudopotential</field>
   <set>
    <rc><c>  32</c><c>Na</c><c>     22.99000000</c><c>      7.00000000</c><c>  PAW_PBE Na_pv 19Sep2006               </c></rc>
    <rc><c>  32</c><c>Cl</c><c>     35.45300000</c><c>      7.00000000</c><c>  PAW_PBE Cl 06Sep2000                  </c></rc>
   </set>
  </array>
 </atominfo>
 <structure name="initialpos" >
  <crystal>
   <varray name="basis" >
    <v>      11.20400236       0.00000000       0.00000000 </v>
    <v>       0.00000000      11.20400236       0.00000000 </v>
    <v>       0.00000000       0.00000000      11.20400236 </v>
   </varray>
   <i name="volume">   1406.43470641 </i>
   <varray name="rec_basis" >
    <v>       0.08925382       0.00000000       0.00000000 </v>
    <v>       0.00000000       0.08925382       0.00000000 </v>
    <v>       0.00000000       0.00000000       0.08925382 </v>
   </varray>
  </crystal>
  <varray name="positions" >
   <v>       0.99732239       0.00000000       0.00000000 </v>
   <v>       0.25000000       0.25000000       0.00000000 </v>
   <v>       0.25000000       0.00000000       0.25000000 </v>
   <v>       0.00000000       0.25000000       0.25000000 </v>
   <v>       0.00000000       0.00000000       0.50000000 </v>
   <v>       0.25000000       0.25000000       0.50000000 </v>
   <v>       0.25000000       0.00000000       0.75000000 </v>
   <v>       0.00000000       0.25000000       0.75000000 </v>
   <v>       0.00000000       0.50000000       0.00000000 </v>
   <v>       0.25000000       0.75000000       0.00000000 </v>
   <v>       0.25000000       0.50000000       0.25000000 </v>
   <v>       0.00000000       0.75000000       0.25000000 </v>
   <v>       0.00000000       0.50000000       0.50000000 </v>
   <v>       0.25000000       0.75000000       0.50000000 </v>
   <v>       0.25000000       0.50000000       0.75000000 </v>
   <v>       0.00000000       0.75000000       0.75000000 </v>
   <v>       0.50000000       0.00000000       0.00000000 </v>
   <v>       0.75000000       0.25000000       0.00000000 </v>
   <v>       0.75000000       0.00000000       0.25000000 </v>
   <v>       0.50000000       0.25000000       0.25000000 </v>
   <v>       0.50000000       0.00000000       0.50000000 </v>
   <v>       0.75000000       0.25000000       0.50000000 </v>
   <v>       0.75000000       0.00000000       0.75000000 </v>
   <v>       0.50000000       0.25000000       0.75000000 </v>
   <v>       0.50000000       0.50000000       0.00000000 </v>
   <v>       0.75000000       0.75000000       0.00000000 </v>
   <v>       0.75000000       0.50000000       0.25000000 </v>
   <v>       0.50000000       0.75000000       0.25000000 </v>
   <v>       0.50000000       0.50000000       0.50000000 </v>
   <v>       0.75000000       0.75000000       0.50000000 </v>
   <v>       0.75000000       0.50000000       0.75000000 </v>
   <v>       0.50000000       0.75000000       0.75000000 </v>
   <v>       0.24732239       0.25000000       0.25000000 </v>
   <v>       0.00000000       0.00000000       0.25000000 </v>
   <v>       0.00000000       0.25000000       0.00000000 </v>
   <v>       0.25000000       0.00000000       0.00000000 </v>
   <v>       0.25000000       0.25000000       0.75000000 </v>
   <v>       0.00000000       0.00000000       0.75000000 </v>
   <v>       0.00000000       0.25000000       0.50000000 </v>
   <v>       0.25000000       0.00000000       0.50000000 </v>
   <v>       0.25000000       0.75000000       0.25000000 </v>
   <v>       0.00000000       0.50000000       0.25000000 </v>
   <v>       0.00000000       0.75000000       0.00000000 </v>
   <v>       0.25000000       0.50000000       0.00000000 </v>
   <v>       0.25000000       0.75000000       0.75000000 </v>
   <v>       0.00000000       0.50000000       0.75000000 </v>
   <v>       0.00000000       0.75000000       0.50000000 </v>
   <v>       0.25000000       0.50000000       0.50000000 </v>
   <v>       0.75000000       0.25000000       0.25000000 </v>
   <v>       0.50000000       0.00000000       0.25000000 </v>
   <v>       0.50000000       0.25000000       0.00000000 </v>
   <v>       0.75000000       0.00000000       0.00000000 </v>
   <v>       0.75000000       0.25000000       0.75000000 </v>
   <v>       0.50000000       0.00000000       0.75000000 </v>
   <v>       0.50000000       0.25000000       0.50000000 </v>
   <v>       0.75000000       0.00000000       0.50000000 </v>
   <v>       0.75000000       0.75000000       0.25000000 </v>
   <v>       0.50000000       0.50000000       0.25000000 </v>
   <v>       0.50000000       0.75000000       0.00000000 </v>
   <v>       0.75000000       0.50000000       0.00000000 </v>
   <v>       0.75000000       0.75000000       0.75000000 </v>
   <v>       0.50000000       0.50000000       0.75000000 </v>
   <v>       0.50000000       0.75000000       0.50000000 </v>
   <v>       0.75000000       0.50000000       0.50000000 </v>
  </varray>
 </structure>
 <calculation>
  <scstep>
   <time name="dav">    7.61    7.65</time>
   <time name="total">    7.69    7.73</time>
   <energy>
    <i name="alphaZ">    751.52672365 </i>
    <i name="ewald"> -22871.34213018 </i>
    <i name="hartreedc">  -8992.24452000 </i>
    <i name="XCdc">   1456.53426046 </i>
    <i name="pawpsdc">  26466.43774078 </i>
    <i name="pawaedc"> -29286.08056155 </i>
    <i name="eentropy">     -0.00258540 </i>
    <i name="bandstr">   -740.18453188 </i>
    <i name="atom">  37532.17946992 </i>
    <i name="e_fr_energy">   4316.82386581 </i>
    <i name="e_wo_entrp">   4316.82645120 </i>
    <i name="e_0_energy">   4316.82515851 </i>
   </energy>
  </scstep>
  <scstep>
   <time name="dav">    8.32    8.36</time>
   <time name="total">    8.32    8.36</time>
   <energy>
    <i name="e_fr_energy">    363.43669567 </i>
    <i name="e_wo_entrp">    363.43669567 </i>
    <i name="e_0_energy">    363.43669567 </i>
   </energy>
  </scstep>
  <scstep>
   <time name="dav">    8.99    9.04</time>
   <time name="total">    8.99    9.04</time>
   <energy>
    <i name="e_fr_energy">   -206.22459287 </i>
    <i name="e_wo_entrp">   -206.22459287 </i>
    <i name="e_0_energy">   -206.22459287 </i>
   </energy>
  </scstep>
  <scstep>
   <time name="dav">    8.90    8.95</time>
   <time name="total">    8.90    8.95</time>
   <energy>
    <i name="e_fr_energy">   -228.19381386 </i>
    <i name="e_wo_entrp">   -228.19381386 </i>
    <i name="e_0_energy">   -228.19381386 </i>
   </energy>
  </scstep>
  <scstep>
   <time name="dav">    9.17    9.22</time>
   <time name="total">    9.44    9.49</time>
   <energy>
    <i name="e_fr_energy">   -229.00662378 </i>
    <i name="e_wo_entrp">   -229.00662378 </i>
    <i name="e_0_energy">   -229.00662378 </i>
   </energy>
  </scstep>
  <scstep>
   <time name="dav">    9.17    9.22</time>
   <time name="total">    9.51    9.56</time>
   <energy>
    <i name="e_fr_energy">   -224.13728833 </i>
    <i name="e_wo_entrp">   -224.13728833 </i>
    <i name="e_0_energy">   -224.13728833 </i>
   </energy>
  </scstep>
  <scstep>
   <time name="dav">    9.78    9.83</time>
   <time name="total">   10.11   10.17</time>
   <energy>
    <i name="e_fr_energy">   -223.77721361 </i>
    <i name="e_wo_entrp">   -223.77721361 </i>
    <i name="e_0_energy">   -223.77721361 </i>
   </energy>
  </scstep>
  <scstep>
   <time name="dav">    8.68    8.73</time>
   <time name="total">    9.02    9.07</time>
   <energy>
    <i name="e_fr_energy">   -223.90235230 </i>
    <i name="e_wo_entrp">   -223.90235230 </i>
    <i name="e_0_energy">   -223.90235230 </i>
   </energy>
  </scstep>
  <scstep>
   <time name="dav">    9.00    9.05</time>
   <time name="total">    9.34    9.39</time>
   <energy>
    <i name="e_fr_energy">   -223.89702149 </i>
    <i name="e_wo_entrp">   -223.89702149 </i>
    <i name="e_0_energy">   -223.89702149 </i>
   </energy>
  </scstep>
  <scstep>
   <time name="dav">    8.63    8.67</time>
   <time name="total">    8.96    9.01</time>
   <energy>
    <i name="e_fr_energy">   -223.90133443 </i>
    <i name="e_wo_entrp">   -223.90133443 </i>
    <i name="e_0_energy">   -223.90133443 </i>
   </energy>
  </scstep>
  <scstep>
   <time name="dav">    9.46    9.51</time>
   <time name="total">    9.79    9.84</time>
   <energy>
    <i name="e_fr_energy">   -223.90065110 </i>
    <i name="e_wo_entrp">   -223.90065110 </i>
    <i name="e_0_energy">   -223.90065110 </i>
   </energy>
  </scstep>
  <scstep>
   <time name="dav">    9.38    9.43</time>
   <time name="total">    9.71    9.76</time>
   <energy>
    <i name="e_fr_energy">   -223.90061411 </i>
    <i name="e_wo_entrp">   -223.90061411 </i>
    <i name="e_0_energy">   -223.90061411 </i>
   </energy>
  </scstep>
  <scstep>
   <time name="dav">    8.78    8.83</time>
   <time name="total">    9.11    9.16</time>
   <energy>
    <i name="e_fr_energy">   -223.90061404 </i>
    <i name="e_wo_entrp">   -223.90061404 </i>
    <i name="e_0_energy">   -223.90061404 </i>
   </energy>
  </scstep>
  <scstep>
   <time name="dav">    8.86    8.91</time>
   <time name="total">    9.20    9.25</time>
   <energy>
    <i name="e_fr_energy">   -223.90061571 </i>
    <i name="e_wo_entrp">   -223.90061571 </i>
    <i name="e_0_energy">   -223.90061571 </i>
   </energy>
  </scstep>
  <scstep>
   <time name="dav">    8.73    8.77</time>
   <time name="total">    9.06    9.11</time>
   <energy>
    <i name="e_fr_energy">   -223.90061677 </i>
    <i name="e_wo_entrp">   -223.90061677 </i>
    <i name="e_0_energy">   -223.90061677 </i>
   </energy>
  </scstep>
  <scstep>
   <time name="dav">    8.96    9.00</time>
   <time name="total">    9.29    9.34</time>
   <energy>
    <i name="e_fr_energy">   -223.90061728 </i>
    <i name="e_wo_entrp">   -223.90061728 </i>
    <i name="e_0_energy">   -223.90061728 </i>
   </energy>
  </scstep>
  <scstep>
   <time name="dav">    6.56    6.59</time>
   <time name="total">    6.89    6.93</time>
   <energy>
    <i name="e_fr_energy">   -223.90061734 </i>
    <i name="e_wo_entrp">   -223.90061734 </i>
    <i name="e_0_energy">   -223.90061734 </i>
   </energy>
  </scstep>
  <scstep>
   <time name="dav">    6.44    6.48</time>
   <time name="total">    6.78    6.81</time>
   <energy>
    <i name="e_fr_energy">   -223.90061741 </i>
    <i name="e_wo_entrp">   -223.90061741 </i>
    <i name="e_0_energy">   -223.90061741 </i>
   </energy>
  </scstep>
  <scstep>
   <time name="dav">    5.78    5.81</time>
   <time name="total">    6.12    6.15</time>
   <energy>
    <i name="e_fr_energy">   -223.90061737 </i>
    <i name="e_wo_entrp">   -223.90061737 </i>
    <i name="e_0_energy">   -223.90061737 </i>
   </energy>
  </scstep>
  <scstep>
   <time name="dav">    6.06    6.09</time>
   <time name="total">    6.39    6.42</time>
   <energy>
    <i name="e_fr_energy">   -223.90061733 </i>
    <i name="e_wo_entrp">   -223.90061733 </i>
    <i name="e_0_energy">   -223.90061733 </i>
   </energy>
  </scstep>
  <scstep>
   <time name="dav">    5.72    5.76</time>
   <time name="total">    6.06    6.09</time>
   <energy>
    <i name="e_fr_energy">   -223.90061730 </i>
    <i name="e_wo_entrp">   -223.90061730 </i>
    <i name="e_0_energy">   -223.90061730 </i>
   </energy>
  </scstep>
  <scstep>
   <time name="dav">    5.79    5.82</time>
   <time name="total">    5.85    5.89</time>
   <energy>
    <i name="alphaZ">    751.52672365 </i>
    <i name="ewald"> -22871.34213018 </i>
    <i name="hartreedc">  -9078.16020072 </i>
    <i name="XCdc">   1472.51343414 </i>
    <i name="pawpsdc">  29498.29417355 </i>
    <i name="pawaedc"> -32317.65886690 </i>
    <i name="eentropy">     -0.00000000 </i>
    <i name="bandstr">  -5211.25322077 </i>
    <i name="atom">  37532.17946992 </i>
    <i name="e_fr_energy">   -223.90061730 </i>
    <i name="e_wo_entrp">   -223.90061730 </i>
    <i name="e_0_energy">   -223.90061730 </i>
   </energy>
  </scstep>
  <structure>
   <crystal>
    <varray name="basis" >
     <v>      11.20400236       0.00000000       0.00000000 </v>
     <v>       0.00000000      11.20400236       0.00000000 </v>
     <v>       0.00000000       0.00000000      11.20400236 </v>
    </varray>
    <i name="volume">   1406.43470641 </i>
    <varray name="rec_basis" >
     <v>       0.08925382       0.00000000       0.00000000 </v>
     <v>       0.00000000       0.08925382       0.00000000 </v>
     <v>       0.00000000       0.00000000       0.08925382 </v>
    </varray>
   </crystal>
   <varray name="positions" >
    <v>       0.99732239       0.00000000       0.00000000 </v>
    <v>       0.25000000       0.25000000       0.00000000 </v>
    <v>       0.25000000       0.00000000       0.25000000 </v>
    <v>       0.00000000       0.25000000       0.25000000 </v>
    <v>       0.00000000       0.00000000       0.50000000 </v>
    <v>       0.25000000       0.25000000       0.50000000 </v>
    <v>       0.25000000       0.00000000       0.75000000 </v>
    <v>       0.00000000       0.25000000       0.75000000 </v>
    <v>       0.00000000       0.50000000       0.00000000 </v>
    <v>       0.25000000       0.75000000       0.00000000 </v>
    <v>       0.25000000       0.50000000       0.25000000 </v>
    <v>       0.00000000       0.75000000       0.25000000 </v>
    <v>       0.00000000       0.50000000       0.50000000 </v>
    <v>       0.25000000       0.75000000       0.50000000 </v>
    <v>       0.25000000       0.50000000       0.75000000 </v>
    <v>       0.00000000       0.75000000       0.75000000 </v>
    <v>       0.50000000       0.00000000       0.00000000 </v>
    <v>       0.75000000       0.25000000       0.00000000 </v>
    <v>       0.75000000       0.00000000       0.25000000 </v>
    <v>       0.50000000       0.25000000       0.25000000 </v>
    <v>       0.50000000       0.00000000       0.50000000 </v>
    <v>       0.75000000       0.25000000       0.50000000 </v>
    <v>       0.75000000       0.00000000       0.75000000 </v>
    <v>       0.50000000       0.25000000       0.75000000 </v>
    <v>       0.50000000       0.50000000       0.00000000 </v>
    <v>       0.75000000       0.75000000       0.00000000 </v>
    <v>       0.75000000       0.50000000       0.25000000 </v>
    <v>       0.50000000       0.75000000       0.25000000 </v>
    <v>       0.50000000       0.50000000       0.50000000 </v>
    <v>       0.75000000       0.75000000       0.50000000 </v>
    <v>       0.75000000       0.50000000       0.75000000 </v>
    <v>       0.50000000       0.75000000       0.75000000 </v>
    <v>       0.24732239       0.25000000       0.25000000 </v>
    <v>       0.00000000       0.00000000       0.25000000 </v>
    <v>       0.00000000       0.25000000       0.00000000 </v>
    <v>       0.25000000       0.00000000       0.00000000 </v>
    <v>       0.25000000       0.25000000       0.75000000 </v>
    <v>       0.00000000       0.00000000       0.75000000 </v>
    <v>       0.00000000       0.25000000       0.50000000 </v>
    <v>       0.25000000       0.00000000       0.50000000 </v>
    <v>       0.25000000       0.75000000       0.25000000 </v>
    <v>       0.00000000       0.50000000       0.25000000 </v>
    <v>       0.00000000       0.75000000       0.00000000 </v>
    <v>       0.25000000       0.50000000       0.00000000 </v>
    <v>       0.25000000       0.75000000       0.75000000 </v>
    <v>       0.00000000       0.50000000       0.75000000 </v>
    <v>       0.00000000       0.75000000       0.50000000 </v>
    <v>       0.25000000       0.50000000       0.50000000 </v>
    <v>       0.75000000       0.25000000       0.25000000 </v>
    <v>       0.50000000       0.00000000       0.25000000 </v>
    <v>       0.50000000       0.25000000       0.00000000 </v>
    <v>       0.75000000       0.00000000       0.00000000 </v>
    <v>       0.75000000       0.25000000       0.75000000 </v>
    <v>       0.50000000       0.00000000       0.75000000 </v>
    <v>       0.50000000       0.25000000       0.50000000 </v>
    <v>       0.75000000       0.00000000       0.50000000 </v>
    <v>       0.75000000       0.75000000       0.25000000 </v>
    <v>       0.50000000       0.50000000       0.25000000 </v>
    <v>       0.50000000       0.75000000       0.00000000 </v>
    <v>       0.75000000       0.50000000       0.00000000 </v>
    <v>       0.75000000       0.75000000       0.75000000 </v>
    <v>       0.50000000       0.50000000       0.75000000 </v>
    <v>       0.50000000       0.75000000       0.50000000 </v>
    <v>       0.75000000       0.50000000       0.50000000 </v>
   </varray>
  </structure>
  <varray name="forces" >
   <v>       0.06305175       0.00129062       0.00129062 </v>
   <v>      -0.00651811      -0.00580025       0.00009232 </v>
   <v>      -0.00651811       0.00009232      -0.00580025 </v>
   <v>      -0.01860907      -0.00001679      -0.00001679 </v>
   <v>       0.00026539       0.00129964      -0.00129805 </v>
   <v>      -0.00499612       0.00007363      -0.00009375 </v>
   <v>      -0.00211568       0.00000209       0.00580023 </v>
   <v>       0.00149669      -0.00001953       0.00001784 </v>
   <v>       0.00026539      -0.00129805       0.00129964 </v>
   <v>      -0.00211568       0.00580023       0.00000209 </v>
   <v>      -0.00499612      -0.00009375       0.00007363 </v>
   <v>       0.00149669       0.00001784      -0.00001953 </v>
   <v>       0.00066824      -0.00129975      -0.00129975 </v>
   <v>      -0.00058695      -0.00007338      -0.00000194 </v>
   <v>      -0.00058695      -0.00000194      -0.00007338 </v>
   <v>       0.00165904       0.00001942       0.00001942 </v>
   <v>      -0.00867949      -0.00129299      -0.00129299 </v>
   <v>       0.00132049       0.00592600       0.00000283 </v>
   <v>       0.00132049       0.00000283       0.00592600 </v>
   <v>      -0.01736841       0.00000166       0.00000166 </v>
   <v>      -0.00007452      -0.00129105       0.00129014 </v>
   <v>       0.00287002      -0.00007742      -0.00000276 </v>
   <v>      -0.00084316       0.00000283      -0.00592587 </v>
   <v>      -0.00131574       0.00000458      -0.00000364 </v>
   <v>      -0.00007452       0.00129014      -0.00129105 </v>
   <v>      -0.00084316      -0.00592587       0.00000283 </v>
   <v>       0.00287002      -0.00000276      -0.00007742 </v>
   <v>      -0.00131574      -0.00000364       0.00000458 </v>
   <v>      -0.00020662       0.00129106       0.00129106 </v>
   <v>       0.00070380       0.00007746      -0.00000294 </v>
   <v>       0.00070380      -0.00000294       0.00007746 </v>
   <v>      -0.00116031      -0.00000458      -0.00000458 </v>
   <v>       0.07626646       0.00129032       0.00129032 </v>
   <v>      -0.00891880      -0.00587492      -0.00013040 </v>
   <v>      -0.00891880      -0.00013040      -0.00587492 </v>
   <v>      -0.01383726       0.00003583       0.00003583 </v>
   <v>       0.00178987       0.00128252      -0.00128215 </v>
   <v>      -0.00494737      -0.00057558       0.00012357 </v>
   <v>      -0.00451811       0.00000908       0.00588563 </v>
   <v>       0.00219836       0.00002976      -0.00002931 </v>
   <v>       0.00178987      -0.00128215       0.00128252 </v>
   <v>      -0.00451811       0.00588563       0.00000908 </v>
   <v>      -0.00494737       0.00012357      -0.00057558 </v>
   <v>       0.00219836      -0.00002931       0.00002976 </v>
   <v>       0.00075999      -0.00128249      -0.00128249 </v>
   <v>      -0.00054414       0.00057584      -0.00000906 </v>
   <v>      -0.00054414      -0.00000906       0.00057584 </v>
   <v>       0.00235019      -0.00003017      -0.00003017 </v>
   <v>      -0.00362497      -0.00130636      -0.00130636 </v>
   <v>      -0.00102376       0.00573215      -0.00001018 </v>
   <v>      -0.00102376      -0.00001018       0.00573215 </v>
   <v>      -0.02177168      -0.00000584      -0.00000584 </v>
   <v>      -0.00174061      -0.00130533       0.00130567 </v>
   <v>       0.00287407       0.00056785       0.00001175 </v>
   <v>      -0.00318952      -0.00000013      -0.00573683 </v>
   <v>      -0.00171768      -0.00000419       0.00000300 </v>
   <v>      -0.00174061       0.00130567      -0.00130533 </v>
   <v>      -0.00318952      -0.00573683      -0.00000013 </v>
   <v>       0.00287407       0.00001175       0.00056785 </v>
   <v>      -0.00171768       0.00000300      -0.00000419 </v>
   <v>      -0.00030855       0.00130538       0.00130538 </v>
   <v>       0.00071053      -0.00056837       0.00000118 </v>
   <v>       0.00071053       0.00000118      -0.00056837 </v>
   <v>      -0.00154725       0.00000414       0.00000414 </v>
  </varray>
  <varray name="stress" >
   <v>      -0.35575473      -0.00014549      -0.00014549 </v>
   <v>      -0.00014542      -0.37860756      -0.00007559 </v>
   <v>      -0.00014542      -0.00007559      -0.37860756 </v>
  </varray>
  <energy>
   <i name="e_fr_energy">   -223.90061730 </i>
   <i name="e_wo_entrp">   -223.90061730 </i>
   <i name="e_0_energy">   -223.90061730 </i>
  </energy>
  <time name="totalsc">  196.66  197.73</time>
  <eigenvalues>
   <array>
    <dimension dim="1">band</dimension>
    <dimension dim="2">kpoint</dimension>
    <dimension dim="3">spin</dimension>
    <field>eigene</field>
    <field>occ</field>
    <set>
     <set comment="spin 1">
      <set comment="kpoint 1">
       <r>  -21.3091    1.0000 </r>
       <r>  -21.3091    1.0000 </r>
       <r>  -21.3087    1.0000 </r>
       <r>  -21.3047    1.0000 </r>
       <r>  -21.3013    1.0000 </r>
       <r>  -21.3002    1.0000 </r>
       <r>  -21.3001    1.0000 </r>
       <r>  -21.2949    1.0000 </r>
       <r>  -21.2946    1.0000 </r>
       <r>  -21.2943    1.0000 </r>
       <r>  -21.2940    1.0000 </r>
       <r>  -21.2940    1.0000 </r>
       <r>  -21.2939    1.0000 </r>
       <r>  -21.2932    1.0000 </r>
       <r>  -21.2931    1.0000 </r>
       <r>  -21.2928    1.0000 </r>
       <r>  -21.2919    1.0000 </r>
       <r>  -21.2916    1.0000 </r>
       <r>  -21.2914    1.0000 </r>
       <r>  -21.2905    1.0000 </r>
       <r>  -21.2904    1.0000 </r>
       <r>  -21.2886    1.0000 </r>
       <r>  -21.2878    1.0000 </r>
       <r>  -21.2877    1.0000 </r>
       <r>  -21.2866    1.0000 </r>
       <r>  -21.2865    1.0000 </r>
       <r>  -21.2863    1.0000 </r>
       <r>  -21.2861    1.0000 </r>
       <r>  -21.2857    1.0000 </r>
       <r>  -21.2851    1.0000 </r>
       <r>  -21.2850    1.0000 </r>
       <r>  -21.2840    1.0000 </r>
       <r>  -21.2838    1.0000 </r>
       <r>  -21.2836    1.0000 </r>
       <r>  -21.2834    1.0000 </r>
       <r>  -21.2834    1.0000 </r>
       <r>  -21.2830    1.0000 </r>
       <r>  -21.2830    1.0000 </r>
       <r>  -21.2828    1.0000 </r>
       <r>  -21.2827    1.0000 </r>
       <r>  -21.2820    1.0000 </r>
       <r>  -21.2820    1.0000 </r>
       <r>  -21.2820    1.0000 </r>
       <r>  -21.2814    1.0000 </r>
       <r>  -21.2814    1.0000 </r>
       <r>  -21.2812    1.0000 </r>
       <r>  -21.2810    1.0000 </r>
       <r>  -21.2803    1.0000 </r>
       <r>  -21.2803    1.0000 </r>
       <r>  -21.2802    1.0000 </r>
       <r>  -21.2800    1.0000 </r>
       <r>  -21.2800    1.0000 </r>
       <r>  -21.2799    1.0000 </r>
       <r>  -21.2789    1.0000 </r>
       <r>  -21.2788    1.0000 </r>
       <r>  -21.2780    1.0000 </r>
       <r>  -21.2777    1.0000 </r>
       <r>  -21.2769    1.0000 </r>
       <r>  -21.2766    1.0000 </r>
       <r>  -21.2765    1.0000 </r>
       <r>  -21.2762    1.0000 </r>
       <r>  -21.2759    1.0000 </r>
       <r>  -21.2758    1.0000 </r>
       <r>  -21.2756    1.0000 </r>
       <r>  -21.2753    1.0000 </r>
       <r>  -21.2753    1.0000 </r>
       <r>  -21.2751    1.0000 </r>
       <r>  -21.2751    1.0000 </r>
       <r>  -21.2748    1.0000 </r>
       <r>  -21.2745    1.0000 </r>
       <r>  -21.2744    1.0000 </r>
       <r>  -21.2735    1.0000 </r>
       <r>  -21.2732    1.0000 </r>
       <r>  -21.2725    1.0000 </r>
       <r>  -21.2725    1.0000 </r>
       <r>  -21.2716    1.0000 </r>
       <r>  -21.2715    1.0000 </r>
       <r>  -21.2714    1.0000 </r>
       <r>  -21.2713    1.0000 </r>
       <r>  -21.2712    1.0000 </r>
       <r>  -21.2710    1.0000 </r>
       <r>  -21.2707    1.0000 </r>
       <r>  -21.2705    1.0000 </r>
       <r>  -21.2704    1.0000 </r>
       <r>  -21.2701    1.0000 </r>
       <r>  -21.2699    1.0000 </r>
       <r>  -21.2697    1.0000 </r>
       <r>  -21.2694    1.0000 </r>
       <r>  -21.2686    1.0000 </r>
       <r>  -21.2679    1.0000 </r>
       <r>  -21.2676    1.0000 </r>
       <r>  -21.2676    1.0000 </r>
       <r>  -21.2674    1.0000 </r>
       <r>  -21.2556    1.0000 </r>
       <r>  -21.2555    1.0000 </r>
       <r>  -21.2553    1.0000 </r>
       <r>  -13.3581    1.0000 </r>
       <r>  -13.1426    1.0000 </r>
       <r>  -13.1387    1.0000 </r>
       <r>  -13.1374    1.0000 </r>
       <r>  -13.1374    1.0000 </r>
       <r>  -13.1361    1.0000 </r>
       <r>  -13.1335    1.0000 </r>
       <r>  -13.0215    1.0000 </r>
       <r>  -13.0145    1.0000 </r>
       <r>  -13.0145    1.0000 </r>
       <r>  -13.0126    1.0000 </r>
       <r>  -13.0114    1.0000 </r>
       <r>  -13.0114    1.0000 </r>
       <r>  -13.0112    1.0000 </r>
       <r>  -13.0111    1.0000 </r>
       <r>  -13.0100    1.0000 </r>
       <r>  -13.0087    1.0000 </r>
       <r>  -13.0087    1.0000 </r>
       <r>  -13.0044    1.0000 </r>
       <r>  -12.9896    1.0000 </r>
       <r>  -12.9892    1.0000 </r>
       <r>  -12.9891    1.0000 </r>
       <r>  -12.9885    1.0000 </r>
       <r>  -12.9416    1.0000 </r>
       <r>  -12.9412    1.0000 </r>
       <r>  -12.9402    1.0000 </r>
       <r>  -12.9244    1.0000 </r>
       <r>  -12.9230    1.0000 </r>
       <r>  -12.9213    1.0000 </r>
       <r>  -12.9212    1.0000 </r>
       <r>  -12.9188    1.0000 </r>
       <r>  -12.9151    1.0000 </r>
       <r>   -2.7000    1.0000 </r>
       <r>   -2.7000    1.0000 </r>
       <r>   -2.7000    1.0000 </r>
       <r>   -2.6999    1.0000 </r>
       <r>   -2.4240    1.0000 </r>
       <r>   -2.4240    1.0000 </r>
       <r>   -2.4240    1.0000 </r>
       <r>   -2.2075    1.0000 </r>
       <r>   -2.2074    1.0000 </r>
       <r>   -2.2051    1.0000 </r>
       <r>   -2.2051    1.0000 </r>
       <r>   -2.2047    1.0000 </r>
       <r>   -2.2045    1.0000 </r>
       <r>   -2.2042    1.0000 </r>
       <r>   -2.2038    1.0000 </r>
       <r>   -2.2034    1.0000 </r>
       <r>   -2.2033    1.0000 </r>
       <r>   -2.2013    1.0000 </r>
       <r>   -2.2011    1.0000 </r>
       <r>   -1.9282    1.0000 </r>
       <r>   -1.9281    1.0000 </r>
       <r>   -1.9259    1.0000 </r>
       <r>   -1.9259    1.0000 </r>
       <r>   -1.9253    1.0000 </r>
       <r>   -1.9253    1.0000 </r>
       <r>   -1.9240    1.0000 </r>
       <r>   -1.9239    1.0000 </r>
       <r>   -1.9235    1.0000 </r>
       <r>   -1.9235    1.0000 </r>
       <r>   -1.9213    1.0000 </r>
       <r>   -1.9213    1.0000 </r>
       <r>   -1.7977    1.0000 </r>
       <r>   -1.7967    1.0000 </r>
       <r>   -1.7966    1.0000 </r>
       <r>   -1.7966    1.0000 </r>
       <r>   -1.7965    1.0000 </r>
       <r>   -1.7956    1.0000 </r>
       <r>   -1.5086    1.0000 </r>
       <r>   -1.5085    1.0000 </r>
       <r>   -1.5062    1.0000 </r>
       <r>   -1.5060    1.0000 </r>
       <r>   -1.5059    1.0000 </r>
       <r>   -1.5056    1.0000 </r>
       <r>   -1.5056    1.0000 </r>
       <r>   -1.5053    1.0000 </r>
       <r>   -1.5046    1.0000 </r>
       <r>   -1.5046    1.0000 </r>
       <r>   -1.5022    1.0000 </r>
       <r>   -1.5021    1.0000 </r>
       <r>   -1.4643    1.0000 </r>
       <r>   -1.4636    1.0000 </r>
       <r>   -1.4627    1.0000 </r>
       <r>   -1.4626    1.0000 </r>
       <r>   -1.4621    1.0000 </r>
       <r>   -1.4606    1.0000 </r>
       <r>   -1.2948    1.0000 </r>
       <r>   -1.2948    1.0000 </r>
       <r>   -1.2946    1.0000 </r>
       <r>   -1.2946    1.0000 </r>
       <r>   -1.2946    1.0000 </r>
       <r>   -1.2946    1.0000 </r>
       <r>   -1.0043    1.0000 </r>
       <r>   -1.0042    1.0000 </r>
       <r>   -1.0035    1.0000 </r>
       <r>   -1.0031    1.0000 </r>
       <r>   -1.0024    1.0000 </r>
       <r>   -1.0010    1.0000 </r>
       <r>   -1.0009    1.0000 </r>
       <r>   -1.0006    1.0000 </r>
       <r>   -0.9985    1.0000 </r>
       <r>   -0.9985    1.0000 </r>
       <r>   -0.9976    1.0000 </r>
       <r>   -0.9975    1.0000 </r>
       <r>   -0.9528    1.0000 </r>
       <r>   -0.9526    1.0000 </r>
       <r>   -0.9523    1.0000 </r>
       <r>   -0.9512    1.0000 </r>
       <r>   -0.9493    1.0000 </r>
       <r>   -0.9482    1.0000 </r>
       <r>   -0.9479    1.0000 </r>
       <r>   -0.9475    1.0000 </r>
       <r>   -0.9474    1.0000 </r>
       <r>   -0.9473    1.0000 </r>
       <r>   -0.9469    1.0000 </r>
       <r>   -0.9467    1.0000 </r>
       <r>   -0.9457    1.0000 </r>
       <r>   -0.9456    1.0000 </r>
       <r>   -0.9445    1.0000 </r>
       <r>   -0.9439    1.0000 </r>
       <r>   -0.9422    1.0000 </r>
       <r>   -0.9416    1.0000 </r>
       <r>   -0.9409    1.0000 </r>
       <r>   -0.9408    1.0000 </r>
       <r>   -0.6649    1.0000 </r>
       <r>   -0.6648    1.0000 </r>
       <r>   -0.6648    1.0000 </r>
       <r>    4.3403    0.0000 </r>
       <r>    6.3609    0.0000 </r>
       <r>    6.3656    0.0000 </r>
       <r>    6.3680    0.0000 </r>
       <r>    6.3682    0.0000 </r>
       <r>    6.3705    0.0000 </r>
       <r>    6.3749    0.0000 </r>
       <r>    6.4446    0.0000 </r>
       <r>    6.4446    0.0000 </r>
       <r>    6.4448    0.0000 </r>
       <r>    6.4449    0.0000 </r>
       <r>    6.8279    0.0000 </r>
       <r>    6.8280    0.0000 </r>
       <r>    6.8281    0.0000 </r>
       <r>    7.2067    0.0000 </r>
       <r>    7.2068    0.0000 </r>
       <r>    7.2069    0.0000 </r>
       <r>    7.4534    0.0000 </r>
       <r>    7.4582    0.0000 </r>
       <r>    7.4590    0.0000 </r>
       <r>    7.4621    0.0000 </r>
       <r>    7.4630    0.0000 </r>
       <r>    7.4642    0.0000 </r>
       <r>    7.4642    0.0000 </r>
       <r>    7.4654    0.0000 </r>
       <r>    7.4663    0.0000 </r>
       <r>    7.4694    0.0000 </r>
       <r>    7.4702    0.0000 </r>
       <r>    7.4744    0.0000 </r>
       <r>    8.1629    0.0000 </r>
       <r>    8.1665    0.0000 </r>
       <r>    8.1681    0.0000 </r>
       <r>    8.1684    0.0000 </r>
       <r>    8.1701    0.0000 </r>
       <r>    8.1740    0.0000 </r>
       <r>    8.2773    0.0000 </r>
       <r>    8.2781    0.0000 </r>
       <r>    8.2795    0.0000 </r>
       <r>    8.2797    0.0000 </r>
       <r>    8.2810    0.0000 </r>
       <r>    8.2818    0.0000 </r>
       <r>    8.8899    0.0000 </r>
       <r>    8.8908    0.0000 </r>
       <r>    8.8975    0.0000 </r>
       <r>    8.8982    0.0000 </r>
       <r>    8.9001    0.0000 </r>
       <r>    8.9005    0.0000 </r>
       <r>    8.9009    0.0000 </r>
       <r>    8.9017    0.0000 </r>
       <r>    8.9021    0.0000 </r>
       <r>    8.9026    0.0000 </r>
       <r>    8.9041    0.0000 </r>
       <r>    8.9061    0.0000 </r>
       <r>    8.9106    0.0000 </r>
       <r>    8.9122    0.0000 </r>
       <r>    8.9150    0.0000 </r>
       <r>    8.9154    0.0000 </r>
       <r>    8.9158    0.0000 </r>
       <r>    8.9166    0.0000 </r>
       <r>    8.9184    0.0000 </r>
       <r>    8.9193    0.0000 </r>
       <r>    8.9205    0.0000 </r>
       <r>    8.9282    0.0000 </r>
       <r>    8.9308    0.0000 </r>
      </set>
      <set comment="kpoint 2">
       <r>  -21.3085    1.0000 </r>
       <r>  -21.3084    1.0000 </r>
       <r>  -21.3080    1.0000 </r>
       <r>  -21.3025    1.0000 </r>
       <r>  -21.3003    1.0000 </r>
       <r>  -21.2982    1.0000 </r>
       <r>  -21.2981    1.0000 </r>
       <r>  -21.2969    1.0000 </r>
       <r>  -21.2963    1.0000 </r>
       <r>  -21.2963    1.0000 </r>
       <r>  -21.2960    1.0000 </r>
       <r>  -21.2936    1.0000 </r>
       <r>  -21.2935    1.0000 </r>
       <r>  -21.2929    1.0000 </r>
       <r>  -21.2927    1.0000 </r>
       <r>  -21.2926    1.0000 </r>
       <r>  -21.2925    1.0000 </r>
       <r>  -21.2920    1.0000 </r>
       <r>  -21.2916    1.0000 </r>
       <r>  -21.2909    1.0000 </r>
       <r>  -21.2909    1.0000 </r>
       <r>  -21.2894    1.0000 </r>
       <r>  -21.2888    1.0000 </r>
       <r>  -21.2887    1.0000 </r>
       <r>  -21.2882    1.0000 </r>
       <r>  -21.2879    1.0000 </r>
       <r>  -21.2878    1.0000 </r>
       <r>  -21.2876    1.0000 </r>
       <r>  -21.2869    1.0000 </r>
       <r>  -21.2869    1.0000 </r>
       <r>  -21.2866    1.0000 </r>
       <r>  -21.2866    1.0000 </r>
       <r>  -21.2861    1.0000 </r>
       <r>  -21.2854    1.0000 </r>
       <r>  -21.2844    1.0000 </r>
       <r>  -21.2843    1.0000 </r>
       <r>  -21.2840    1.0000 </r>
       <r>  -21.2833    1.0000 </r>
       <r>  -21.2831    1.0000 </r>
       <r>  -21.2829    1.0000 </r>
       <r>  -21.2815    1.0000 </r>
       <r>  -21.2815    1.0000 </r>
       <r>  -21.2805    1.0000 </r>
       <r>  -21.2805    1.0000 </r>
       <r>  -21.2800    1.0000 </r>
       <r>  -21.2792    1.0000 </r>
       <r>  -21.2786    1.0000 </r>
       <r>  -21.2783    1.0000 </r>
       <r>  -21.2782    1.0000 </r>
       <r>  -21.2779    1.0000 </r>
       <r>  -21.2777    1.0000 </r>
       <r>  -21.2776    1.0000 </r>
       <r>  -21.2774    1.0000 </r>
       <r>  -21.2771    1.0000 </r>
       <r>  -21.2770    1.0000 </r>
       <r>  -21.2769    1.0000 </r>
       <r>  -21.2769    1.0000 </r>
       <r>  -21.2766    1.0000 </r>
       <r>  -21.2766    1.0000 </r>
       <r>  -21.2762    1.0000 </r>
       <r>  -21.2759    1.0000 </r>
       <r>  -21.2758    1.0000 </r>
       <r>  -21.2755    1.0000 </r>
       <r>  -21.2754    1.0000 </r>
       <r>  -21.2753    1.0000 </r>
       <r>  -21.2752    1.0000 </r>
       <r>  -21.2749    1.0000 </r>
       <r>  -21.2748    1.0000 </r>
       <r>  -21.2745    1.0000 </r>
       <r>  -21.2744    1.0000 </r>
       <r>  -21.2743    1.0000 </r>
       <r>  -21.2734    1.0000 </r>
       <r>  -21.2733    1.0000 </r>
       <r>  -21.2733    1.0000 </r>
       <r>  -21.2732    1.0000 </r>
       <r>  -21.2727    1.0000 </r>
       <r>  -21.2724    1.0000 </r>
       <r>  -21.2723    1.0000 </r>
       <r>  -21.2723    1.0000 </r>
       <r>  -21.2720    1.0000 </r>
       <r>  -21.2717    1.0000 </r>
       <r>  -21.2712    1.0000 </r>
       <r>  -21.2710    1.0000 </r>
       <r>  -21.2704    1.0000 </r>
       <r>  -21.2703    1.0000 </r>
       <r>  -21.2700    1.0000 </r>
       <r>  -21.2699    1.0000 </r>
       <r>  -21.2698    1.0000 </r>
       <r>  -21.2696    1.0000 </r>
       <r>  -21.2679    1.0000 </r>
       <r>  -21.2679    1.0000 </r>
       <r>  -21.2678    1.0000 </r>
       <r>  -21.2675    1.0000 </r>
       <r>  -21.2557    1.0000 </r>
       <r>  -21.2555    1.0000 </r>
       <r>  -21.2554    1.0000 </r>
       <r>  -13.2944    1.0000 </r>
       <r>  -13.2882    1.0000 </r>
       <r>  -13.1050    1.0000 </r>
       <r>  -13.0995    1.0000 </r>
       <r>  -13.0992    1.0000 </r>
       <r>  -13.0988    1.0000 </r>
       <r>  -13.0950    1.0000 </r>
       <r>  -13.0946    1.0000 </r>
       <r>  -13.0943    1.0000 </r>
       <r>  -13.0907    1.0000 </r>
       <r>  -13.0093    1.0000 </r>
       <r>  -13.0051    1.0000 </r>
       <r>  -13.0051    1.0000 </r>
       <r>  -13.0033    1.0000 </r>
       <r>  -12.9990    1.0000 </r>
       <r>  -12.9976    1.0000 </r>
       <r>  -12.9961    1.0000 </r>
       <r>  -12.9961    1.0000 </r>
       <r>  -12.9953    1.0000 </r>
       <r>  -12.9902    1.0000 </r>
       <r>  -12.9506    1.0000 </r>
       <r>  -12.9468    1.0000 </r>
       <r>  -12.9467    1.0000 </r>
       <r>  -12.9459    1.0000 </r>
       <r>  -12.9414    1.0000 </r>
       <r>  -12.9413    1.0000 </r>
       <r>  -12.9403    1.0000 </r>
       <r>  -12.9377    1.0000 </r>
       <r>  -12.9352    1.0000 </r>
       <r>  -12.9347    1.0000 </r>
       <r>  -12.9263    1.0000 </r>
       <r>  -12.9236    1.0000 </r>
       <r>   -2.5081    1.0000 </r>
       <r>   -2.5081    1.0000 </r>
       <r>   -2.5081    1.0000 </r>
       <r>   -2.5068    1.0000 </r>
       <r>   -2.5018    1.0000 </r>
       <r>   -2.5007    1.0000 </r>
       <r>   -2.5007    1.0000 </r>
       <r>   -2.5006    1.0000 </r>
       <r>   -2.2905    1.0000 </r>
       <r>   -2.2905    1.0000 </r>
       <r>   -2.2848    1.0000 </r>
       <r>   -2.2848    1.0000 </r>
       <r>   -2.2776    1.0000 </r>
       <r>   -2.2708    1.0000 </r>
       <r>   -2.1417    1.0000 </r>
       <r>   -2.1391    1.0000 </r>
       <r>   -2.1372    1.0000 </r>
       <r>   -2.1370    1.0000 </r>
       <r>   -2.1358    1.0000 </r>
       <r>   -2.1357    1.0000 </r>
       <r>   -2.1337    1.0000 </r>
       <r>   -2.1314    1.0000 </r>
       <r>   -1.9881    1.0000 </r>
       <r>   -1.9880    1.0000 </r>
       <r>   -1.9867    1.0000 </r>
       <r>   -1.9865    1.0000 </r>
       <r>   -1.9842    1.0000 </r>
       <r>   -1.9842    1.0000 </r>
       <r>   -1.9829    1.0000 </r>
       <r>   -1.9828    1.0000 </r>
       <r>   -1.8128    1.0000 </r>
       <r>   -1.8128    1.0000 </r>
       <r>   -1.8108    1.0000 </r>
       <r>   -1.8104    1.0000 </r>
       <r>   -1.8072    1.0000 </r>
       <r>   -1.8068    1.0000 </r>
       <r>   -1.8048    1.0000 </r>
       <r>   -1.8047    1.0000 </r>
       <r>   -1.5017    1.0000 </r>
       <r>   -1.5017    1.0000 </r>
       <r>   -1.4937    1.0000 </r>
       <r>   -1.4937    1.0000 </r>
       <r>   -1.3859    1.0000 </r>
       <r>   -1.3845    1.0000 </r>
       <r>   -1.3763    1.0000 </r>
       <r>   -1.3753    1.0000 </r>
       <r>   -1.2155    1.0000 </r>
       <r>   -1.2155    1.0000 </r>
       <r>   -1.2096    1.0000 </r>
       <r>   -1.2095    1.0000 </r>
       <r>   -1.1954    1.0000 </r>
       <r>   -1.1934    1.0000 </r>
       <r>   -1.1932    1.0000 </r>
       <r>   -1.1914    1.0000 </r>
       <r>   -1.1910    1.0000 </r>
       <r>   -1.1906    1.0000 </r>
       <r>   -1.1890    1.0000 </r>
       <r>   -1.1883    1.0000 </r>
       <r>   -1.1800    1.0000 </r>
       <r>   -1.1783    1.0000 </r>
       <r>   -1.1781    1.0000 </r>
       <r>   -1.1768    1.0000 </r>
       <r>   -1.1704    1.0000 </r>
       <r>   -1.1703    1.0000 </r>
       <r>   -1.1700    1.0000 </r>
       <r>   -1.1677    1.0000 </r>
       <r>   -1.1639    1.0000 </r>
       <r>   -1.1638    1.0000 </r>
       <r>   -1.1630    1.0000 </r>
       <r>   -1.1630    1.0000 </r>
       <r>   -1.1555    1.0000 </r>
       <r>   -1.1553    1.0000 </r>
       <r>   -1.1548    1.0000 </r>
       <r>   -1.1548    1.0000 </r>
       <r>   -1.0867    1.0000 </r>
       <r>   -1.0796    1.0000 </r>
       <r>   -0.9518    1.0000 </r>
       <r>   -0.9517    1.0000 </r>
       <r>   -0.9516    1.0000 </r>
       <r>   -0.9511    1.0000 </r>
       <r>   -0.9426    1.0000 </r>
       <r>   -0.9424    1.0000 </r>
       <r>   -0.9422    1.0000 </r>
       <r>   -0.9421    1.0000 </r>
       <r>   -0.9385    1.0000 </r>
       <r>   -0.9341    1.0000 </r>
       <r>   -0.9340    1.0000 </r>
       <r>   -0.9331    1.0000 </r>
       <r>   -0.9313    1.0000 </r>
       <r>   -0.9306    1.0000 </r>
       <r>   -0.9303    1.0000 </r>
       <r>   -0.9256    1.0000 </r>
       <r>   -0.7720    1.0000 </r>
       <r>   -0.7720    1.0000 </r>
       <r>   -0.7645    1.0000 </r>
       <r>   -0.7645    1.0000 </r>
       <r>    5.0183    0.0000 </r>
       <r>    5.0263    0.0000 </r>
       <r>    6.7096    0.0000 </r>
       <r>    6.7137    0.0000 </r>
       <r>    6.7144    0.0000 </r>
       <r>    6.7161    0.0000 </r>
       <r>    6.7206    0.0000 </r>
       <r>    6.7219    0.0000 </r>
       <r>    6.7226    0.0000 </r>
       <r>    6.7262    0.0000 </r>
       <r>    6.8383    0.0000 </r>
       <r>    6.8383    0.0000 </r>
       <r>    6.8390    0.0000 </r>
       <r>    6.8403    0.0000 </r>
       <r>    6.8462    0.0000 </r>
       <r>    6.8471    0.0000 </r>
       <r>    6.8484    0.0000 </r>
       <r>    6.8484    0.0000 </r>
       <r>    6.9680    0.0000 </r>
       <r>    6.9745    0.0000 </r>
       <r>    7.3562    0.0000 </r>
       <r>    7.3591    0.0000 </r>
       <r>    7.3660    0.0000 </r>
       <r>    7.3689    0.0000 </r>
       <r>    7.4771    0.0000 </r>
       <r>    7.4834    0.0000 </r>
       <r>    7.7099    0.0000 </r>
       <r>    7.7099    0.0000 </r>
       <r>    7.7193    0.0000 </r>
       <r>    7.7193    0.0000 </r>
       <r>    8.2556    0.0000 </r>
       <r>    8.2624    0.0000 </r>
       <r>    8.2635    0.0000 </r>
       <r>    8.2637    0.0000 </r>
       <r>    8.2680    0.0000 </r>
       <r>    8.2683    0.0000 </r>
       <r>    8.2691    0.0000 </r>
       <r>    8.2752    0.0000 </r>
       <r>    8.5293    0.0000 </r>
       <r>    8.5294    0.0000 </r>
       <r>    8.5311    0.0000 </r>
       <r>    8.5348    0.0000 </r>
       <r>    8.5350    0.0000 </r>
       <r>    8.5358    0.0000 </r>
       <r>    8.5363    0.0000 </r>
       <r>    8.5364    0.0000 </r>
       <r>    8.5384    0.0000 </r>
       <r>    8.5390    0.0000 </r>
       <r>    8.5406    0.0000 </r>
       <r>    8.5423    0.0000 </r>
       <r>    8.5429    0.0000 </r>
       <r>    8.5464    0.0000 </r>
       <r>    8.5494    0.0000 </r>
       <r>    8.5497    0.0000 </r>
       <r>    8.9443    0.0000 </r>
       <r>    8.9466    0.0000 </r>
       <r>    8.9479    0.0000 </r>
       <r>    8.9485    0.0000 </r>
       <r>    8.9534    0.0000 </r>
       <r>    8.9539    0.0000 </r>
       <r>    8.9555    0.0000 </r>
       <r>    8.9579    0.0000 </r>
       <r>    9.4879    0.0000 </r>
       <r>    9.5024    0.0000 </r>
      </set>
      <set comment="kpoint 3">
       <r>  -21.3082    1.0000 </r>
       <r>  -21.3080    1.0000 </r>
       <r>  -21.3078    1.0000 </r>
       <r>  -21.3010    1.0000 </r>
       <r>  -21.3002    1.0000 </r>
       <r>  -21.2999    1.0000 </r>
       <r>  -21.2999    1.0000 </r>
       <r>  -21.2998    1.0000 </r>
       <r>  -21.2971    1.0000 </r>
       <r>  -21.2968    1.0000 </r>
       <r>  -21.2949    1.0000 </r>
       <r>  -21.2938    1.0000 </r>
       <r>  -21.2930    1.0000 </r>
       <r>  -21.2925    1.0000 </r>
       <r>  -21.2923    1.0000 </r>
       <r>  -21.2920    1.0000 </r>
       <r>  -21.2911    1.0000 </r>
       <r>  -21.2908    1.0000 </r>
       <r>  -21.2906    1.0000 </r>
       <r>  -21.2905    1.0000 </r>
       <r>  -21.2904    1.0000 </r>
       <r>  -21.2897    1.0000 </r>
       <r>  -21.2896    1.0000 </r>
       <r>  -21.2887    1.0000 </r>
       <r>  -21.2886    1.0000 </r>
       <r>  -21.2884    1.0000 </r>
       <r>  -21.2881    1.0000 </r>
       <r>  -21.2877    1.0000 </r>
       <r>  -21.2871    1.0000 </r>
       <r>  -21.2865    1.0000 </r>
       <r>  -21.2862    1.0000 </r>
       <r>  -21.2850    1.0000 </r>
       <r>  -21.2843    1.0000 </r>
       <r>  -21.2842    1.0000 </r>
       <r>  -21.2841    1.0000 </r>
       <r>  -21.2840    1.0000 </r>
       <r>  -21.2838    1.0000 </r>
       <r>  -21.2837    1.0000 </r>
       <r>  -21.2827    1.0000 </r>
       <r>  -21.2825    1.0000 </r>
       <r>  -21.2823    1.0000 </r>
       <r>  -21.2812    1.0000 </r>
       <r>  -21.2811    1.0000 </r>
       <r>  -21.2809    1.0000 </r>
       <r>  -21.2806    1.0000 </r>
       <r>  -21.2804    1.0000 </r>
       <r>  -21.2801    1.0000 </r>
       <r>  -21.2795    1.0000 </r>
       <r>  -21.2793    1.0000 </r>
       <r>  -21.2791    1.0000 </r>
       <r>  -21.2782    1.0000 </r>
       <r>  -21.2779    1.0000 </r>
       <r>  -21.2777    1.0000 </r>
       <r>  -21.2777    1.0000 </r>
       <r>  -21.2772    1.0000 </r>
       <r>  -21.2770    1.0000 </r>
       <r>  -21.2770    1.0000 </r>
       <r>  -21.2767    1.0000 </r>
       <r>  -21.2766    1.0000 </r>
       <r>  -21.2765    1.0000 </r>
       <r>  -21.2764    1.0000 </r>
       <r>  -21.2762    1.0000 </r>
       <r>  -21.2758    1.0000 </r>
       <r>  -21.2756    1.0000 </r>
       <r>  -21.2755    1.0000 </r>
       <r>  -21.2752    1.0000 </r>
       <r>  -21.2748    1.0000 </r>
       <r>  -21.2745    1.0000 </r>
       <r>  -21.2745    1.0000 </r>
       <r>  -21.2736    1.0000 </r>
       <r>  -21.2735    1.0000 </r>
       <r>  -21.2731    1.0000 </r>
       <r>  -21.2729    1.0000 </r>
       <r>  -21.2727    1.0000 </r>
       <r>  -21.2725    1.0000 </r>
       <r>  -21.2723    1.0000 </r>
       <r>  -21.2721    1.0000 </r>
       <r>  -21.2717    1.0000 </r>
       <r>  -21.2715    1.0000 </r>
       <r>  -21.2713    1.0000 </r>
       <r>  -21.2710    1.0000 </r>
       <r>  -21.2708    1.0000 </r>
       <r>  -21.2707    1.0000 </r>
       <r>  -21.2706    1.0000 </r>
       <r>  -21.2702    1.0000 </r>
       <r>  -21.2700    1.0000 </r>
       <r>  -21.2699    1.0000 </r>
       <r>  -21.2694    1.0000 </r>
       <r>  -21.2689    1.0000 </r>
       <r>  -21.2689    1.0000 </r>
       <r>  -21.2687    1.0000 </r>
       <r>  -21.2683    1.0000 </r>
       <r>  -21.2681    1.0000 </r>
       <r>  -21.2557    1.0000 </r>
       <r>  -21.2556    1.0000 </r>
       <r>  -21.2553    1.0000 </r>
       <r>  -13.2916    1.0000 </r>
       <r>  -13.2912    1.0000 </r>
       <r>  -13.1042    1.0000 </r>
       <r>  -13.0984    1.0000 </r>
       <r>  -13.0978    1.0000 </r>
       <r>  -13.0970    1.0000 </r>
       <r>  -13.0969    1.0000 </r>
       <r>  -13.0961    1.0000 </r>
       <r>  -13.0954    1.0000 </r>
       <r>  -13.0914    1.0000 </r>
       <r>  -13.0063    1.0000 </r>
       <r>  -13.0016    1.0000 </r>
       <r>  -13.0011    1.0000 </r>
       <r>  -13.0007    1.0000 </r>
       <r>  -13.0006    1.0000 </r>
       <r>  -13.0006    1.0000 </r>
       <r>  -13.0005    1.0000 </r>
       <r>  -13.0002    1.0000 </r>
       <r>  -12.9952    1.0000 </r>
       <r>  -12.9920    1.0000 </r>
       <r>  -12.9497    1.0000 </r>
       <r>  -12.9455    1.0000 </r>
       <r>  -12.9452    1.0000 </r>
       <r>  -12.9439    1.0000 </r>
       <r>  -12.9435    1.0000 </r>
       <r>  -12.9426    1.0000 </r>
       <r>  -12.9423    1.0000 </r>
       <r>  -12.9387    1.0000 </r>
       <r>  -12.9310    1.0000 </r>
       <r>  -12.9308    1.0000 </r>
       <r>  -12.9297    1.0000 </r>
       <r>  -12.9257    1.0000 </r>
       <r>   -2.5052    1.0000 </r>
       <r>   -2.5050    1.0000 </r>
       <r>   -2.5048    1.0000 </r>
       <r>   -2.5046    1.0000 </r>
       <r>   -2.5043    1.0000 </r>
       <r>   -2.5038    1.0000 </r>
       <r>   -2.5038    1.0000 </r>
       <r>   -2.5037    1.0000 </r>
       <r>   -2.2878    1.0000 </r>
       <r>   -2.2877    1.0000 </r>
       <r>   -2.2876    1.0000 </r>
       <r>   -2.2876    1.0000 </r>
       <r>   -2.2743    1.0000 </r>
       <r>   -2.2741    1.0000 </r>
       <r>   -2.1408    1.0000 </r>
       <r>   -2.1376    1.0000 </r>
       <r>   -2.1364    1.0000 </r>
       <r>   -2.1364    1.0000 </r>
       <r>   -2.1364    1.0000 </r>
       <r>   -2.1363    1.0000 </r>
       <r>   -2.1352    1.0000 </r>
       <r>   -2.1320    1.0000 </r>
       <r>   -1.9868    1.0000 </r>
       <r>   -1.9867    1.0000 </r>
       <r>   -1.9860    1.0000 </r>
       <r>   -1.9859    1.0000 </r>
       <r>   -1.9852    1.0000 </r>
       <r>   -1.9850    1.0000 </r>
       <r>   -1.9841    1.0000 </r>
       <r>   -1.9840    1.0000 </r>
       <r>   -1.8122    1.0000 </r>
       <r>   -1.8096    1.0000 </r>
       <r>   -1.8088    1.0000 </r>
       <r>   -1.8088    1.0000 </r>
       <r>   -1.8087    1.0000 </r>
       <r>   -1.8085    1.0000 </r>
       <r>   -1.8078    1.0000 </r>
       <r>   -1.8054    1.0000 </r>
       <r>   -1.4979    1.0000 </r>
       <r>   -1.4978    1.0000 </r>
       <r>   -1.4978    1.0000 </r>
       <r>   -1.4977    1.0000 </r>
       <r>   -1.3808    1.0000 </r>
       <r>   -1.3804    1.0000 </r>
       <r>   -1.3804    1.0000 </r>
       <r>   -1.3803    1.0000 </r>
       <r>   -1.2142    1.0000 </r>
       <r>   -1.2127    1.0000 </r>
       <r>   -1.2126    1.0000 </r>
       <r>   -1.2123    1.0000 </r>
       <r>   -1.1935    1.0000 </r>
       <r>   -1.1929    1.0000 </r>
       <r>   -1.1923    1.0000 </r>
       <r>   -1.1915    1.0000 </r>
       <r>   -1.1912    1.0000 </r>
       <r>   -1.1906    1.0000 </r>
       <r>   -1.1897    1.0000 </r>
       <r>   -1.1893    1.0000 </r>
       <r>   -1.1769    1.0000 </r>
       <r>   -1.1751    1.0000 </r>
       <r>   -1.1746    1.0000 </r>
       <r>   -1.1743    1.0000 </r>
       <r>   -1.1740    1.0000 </r>
       <r>   -1.1735    1.0000 </r>
       <r>   -1.1726    1.0000 </r>
       <r>   -1.1716    1.0000 </r>
       <r>   -1.1618    1.0000 </r>
       <r>   -1.1602    1.0000 </r>
       <r>   -1.1597    1.0000 </r>
       <r>   -1.1594    1.0000 </r>
       <r>   -1.1593    1.0000 </r>
       <r>   -1.1584    1.0000 </r>
       <r>   -1.1580    1.0000 </r>
       <r>   -1.1566    1.0000 </r>
       <r>   -1.0833    1.0000 </r>
       <r>   -1.0831    1.0000 </r>
       <r>   -0.9486    1.0000 </r>
       <r>   -0.9471    1.0000 </r>
       <r>   -0.9469    1.0000 </r>
       <r>   -0.9469    1.0000 </r>
       <r>   -0.9468    1.0000 </r>
       <r>   -0.9467    1.0000 </r>
       <r>   -0.9464    1.0000 </r>
       <r>   -0.9455    1.0000 </r>
       <r>   -0.9368    1.0000 </r>
       <r>   -0.9345    1.0000 </r>
       <r>   -0.9337    1.0000 </r>
       <r>   -0.9323    1.0000 </r>
       <r>   -0.9322    1.0000 </r>
       <r>   -0.9305    1.0000 </r>
       <r>   -0.9298    1.0000 </r>
       <r>   -0.9275    1.0000 </r>
       <r>   -0.7683    1.0000 </r>
       <r>   -0.7683    1.0000 </r>
       <r>   -0.7681    1.0000 </r>
       <r>   -0.7679    1.0000 </r>
       <r>    5.0223    0.0000 </r>
       <r>    5.0224    0.0000 </r>
       <r>    6.7090    0.0000 </r>
       <r>    6.7148    0.0000 </r>
       <r>    6.7166    0.0000 </r>
       <r>    6.7178    0.0000 </r>
       <r>    6.7186    0.0000 </r>
       <r>    6.7199    0.0000 </r>
       <r>    6.7215    0.0000 </r>
       <r>    6.7264    0.0000 </r>
       <r>    6.8392    0.0000 </r>
       <r>    6.8399    0.0000 </r>
       <r>    6.8420    0.0000 </r>
       <r>    6.8431    0.0000 </r>
       <r>    6.8434    0.0000 </r>
       <r>    6.8445    0.0000 </r>
       <r>    6.8471    0.0000 </r>
       <r>    6.8474    0.0000 </r>
       <r>    6.9711    0.0000 </r>
       <r>    6.9712    0.0000 </r>
       <r>    7.3625    0.0000 </r>
       <r>    7.3625    0.0000 </r>
       <r>    7.3626    0.0000 </r>
       <r>    7.3627    0.0000 </r>
       <r>    7.4802    0.0000 </r>
       <r>    7.4803    0.0000 </r>
       <r>    7.7145    0.0000 </r>
       <r>    7.7146    0.0000 </r>
       <r>    7.7146    0.0000 </r>
       <r>    7.7146    0.0000 </r>
       <r>    8.2581    0.0000 </r>
       <r>    8.2628    0.0000 </r>
       <r>    8.2649    0.0000 </r>
       <r>    8.2657    0.0000 </r>
       <r>    8.2661    0.0000 </r>
       <r>    8.2669    0.0000 </r>
       <r>    8.2689    0.0000 </r>
       <r>    8.2735    0.0000 </r>
       <r>    8.5281    0.0000 </r>
       <r>    8.5313    0.0000 </r>
       <r>    8.5335    0.0000 </r>
       <r>    8.5363    0.0000 </r>
       <r>    8.5365    0.0000 </r>
       <r>    8.5372    0.0000 </r>
       <r>    8.5379    0.0000 </r>
       <r>    8.5382    0.0000 </r>
       <r>    8.5386    0.0000 </r>
       <r>    8.5389    0.0000 </r>
       <r>    8.5400    0.0000 </r>
       <r>    8.5403    0.0000 </r>
       <r>    8.5412    0.0000 </r>
       <r>    8.5433    0.0000 </r>
       <r>    8.5460    0.0000 </r>
       <r>    8.5487    0.0000 </r>
       <r>    8.9400    0.0000 </r>
       <r>    8.9465    0.0000 </r>
       <r>    8.9505    0.0000 </r>
       <r>    8.9505    0.0000 </r>
       <r>    8.9513    0.0000 </r>
       <r>    8.9513    0.0000 </r>
       <r>    8.9553    0.0000 </r>
       <r>    8.9620    0.0000 </r>
       <r>    9.4890    0.0000 </r>
       <r>    9.4927    0.0000 </r>
      </set>
      <set comment="kpoint 4">
       <r>  -21.3079    1.0000 </r>
       <r>  -21.3077    1.0000 </r>
       <r>  -21.3075    1.0000 </r>
       <r>  -21.2998    1.0000 </r>
       <r>  -21.2987    1.0000 </r>
       <r>  -21.2981    1.0000 </r>
       <r>  -21.2980    1.0000 </r>
       <r>  -21.2978    1.0000 </r>
       <r>  -21.2965    1.0000 </r>
       <r>  -21.2957    1.0000 </r>
       <r>  -21.2949    1.0000 </r>
       <r>  -21.2941    1.0000 </r>
       <r>  -21.2937    1.0000 </r>
       <r>  -21.2935    1.0000 </r>
       <r>  -21.2934    1.0000 </r>
       <r>  -21.2933    1.0000 </r>
       <r>  -21.2930    1.0000 </r>
       <r>  -21.2925    1.0000 </r>
       <r>  -21.2924    1.0000 </r>
       <r>  -21.2919    1.0000 </r>
       <r>  -21.2916    1.0000 </r>
       <r>  -21.2914    1.0000 </r>
       <r>  -21.2911    1.0000 </r>
       <r>  -21.2905    1.0000 </r>
       <r>  -21.2904    1.0000 </r>
       <r>  -21.2898    1.0000 </r>
       <r>  -21.2882    1.0000 </r>
       <r>  -21.2879    1.0000 </r>
       <r>  -21.2873    1.0000 </r>
       <r>  -21.2869    1.0000 </r>
       <r>  -21.2864    1.0000 </r>
       <r>  -21.2858    1.0000 </r>
       <r>  -21.2845    1.0000 </r>
       <r>  -21.2841    1.0000 </r>
       <r>  -21.2837    1.0000 </r>
       <r>  -21.2822    1.0000 </r>
       <r>  -21.2818    1.0000 </r>
[...]
      </set>
     </set>
    </set>
   </array>
  </eigenvalues>
  <separator name="orbital magnetization" >
   <v name="MAGDIPOLOUT">      0.00000000      0.00000000      0.00000000</v>
  </separator>
  <dos>
   <i name="efermi">     -0.56524569 </i>
   <total>
    <array>
     <dimension dim="1">gridpoints</dimension>
     <dimension dim="2">spin</dimension>
     <field>energy</field>
     <field>total</field>
     <field>integrated</field>
     <set>
      <set comment="spin 1">
       <r>   -22.8497     0.0000     0.0000 </r>
       <r>   -22.7367     0.0000     0.0000 </r>
       <r>   -22.6238     0.0000     0.0000 </r>
       <r>   -22.5108     0.0000     0.0000 </r>
       <r>   -22.3978     0.0000     0.0000 </r>
       <r>   -22.2848     0.0000     0.0000 </r>
       <r>   -22.1719     0.0000     0.0000 </r>
       <r>   -22.0589     0.0000     0.0000 </r>
       <r>   -21.9459     0.0000     0.0000 </r>
       <r>   -21.8329     0.0000     0.0000 </r>
       <r>   -21.7200     0.0000     0.0000 </r>
       <r>   -21.6070     0.0000     0.0000 </r>
       <r>   -21.4940     0.0000     0.0000 </r>
       <r>   -21.3810     0.0000     0.0000 </r>
       <r>   -21.2681  1304.6732   147.3965 </r>
       <r>   -21.1551   394.8062   192.0000 </r>
       <r>   -21.0421     0.0000   192.0000 </r>
       <r>   -20.9291     0.0000   192.0000 </r>
       <r>   -20.8162     0.0000   192.0000 </r>
       <r>   -20.7032     0.0000   192.0000 </r>
       <r>   -20.5902     0.0000   192.0000 </r>
       <r>   -20.4772     0.0000   192.0000 </r>
       <r>   -20.3642     0.0000   192.0000 </r>
       <r>   -20.2513     0.0000   192.0000 </r>
       <r>   -20.1383     0.0000   192.0000 </r>
       <r>   -20.0253     0.0000   192.0000 </r>
       <r>   -19.9123     0.0000   192.0000 </r>
       <r>   -19.7994     0.0000   192.0000 </r>
       <r>   -19.6864     0.0000   192.0000 </r>
       <r>   -19.5734     0.0000   192.0000 </r>
       <r>   -19.4604     0.0000   192.0000 </r>
       <r>   -19.3475     0.0000   192.0000 </r>
       <r>   -19.2345     0.0000   192.0000 </r>
       <r>   -19.1215     0.0000   192.0000 </r>
       <r>   -19.0085     0.0000   192.0000 </r>
       <r>   -18.8956     0.0000   192.0000 </r>
       <r>   -18.7826     0.0000   192.0000 </r>
       <r>   -18.6696     0.0000   192.0000 </r>
       <r>   -18.5566     0.0000   192.0000 </r>
       <r>   -18.4437     0.0000   192.0000 </r>
       <r>   -18.3307     0.0000   192.0000 </r>
       <r>   -18.2177     0.0000   192.0000 </r>
       <r>   -18.1047     0.0000   192.0000 </r>
       <r>   -17.9918     0.0000   192.0000 </r>
       <r>   -17.8788     0.0000   192.0000 </r>
       <r>   -17.7658     0.0000   192.0000 </r>
       <r>   -17.6528     0.0000   192.0000 </r>
       <r>   -17.5399     0.0000   192.0000 </r>
       <r>   -17.4269     0.0000   192.0000 </r>
       <r>   -17.3139     0.0000   192.0000 </r>
       <r>   -17.2009     0.0000   192.0000 </r>
       <r>   -17.0880     0.0000   192.0000 </r>
       <r>   -16.9750     0.0000   192.0000 </r>
       <r>   -16.8620     0.0000   192.0000 </r>
       <r>   -16.7490     0.0000   192.0000 </r>
       <r>   -16.6360     0.0000   192.0000 </r>
       <r>   -16.5231     0.0000   192.0000 </r>
       <r>   -16.4101     0.0000   192.0000 </r>
       <r>   -16.2971     0.0000   192.0000 </r>
       <r>   -16.1841     0.0000   192.0000 </r>
       <r>   -16.0712     0.0000   192.0000 </r>
       <r>   -15.9582     0.0000   192.0000 </r>
       <r>   -15.8452     0.0000   192.0000 </r>
       <r>   -15.7322     0.0000   192.0000 </r>
       <r>   -15.6193     0.0000   192.0000 </r>
       <r>   -15.5063     0.0000   192.0000 </r>
       <r>   -15.3933     0.0000   192.0000 </r>
       <r>   -15.2803     0.0000   192.0000 </r>
       <r>   -15.1674     0.0000   192.0000 </r>
       <r>   -15.0544     0.0000   192.0000 </r>
       <r>   -14.9414     0.0000   192.0000 </r>
       <r>   -14.8284     0.0000   192.0000 </r>
       <r>   -14.7155     0.0000   192.0000 </r>
       <r>   -14.6025     0.0000   192.0000 </r>
       <r>   -14.4895     0.0000   192.0000 </r>
       <r>   -14.3765     0.0000   192.0000 </r>
       <r>   -14.2636     0.0000   192.0000 </r>
       <r>   -14.1506     0.0000   192.0000 </r>
       <r>   -14.0376     0.0000   192.0000 </r>
       <r>   -13.9246     0.0000   192.0000 </r>
       <r>   -13.8117     0.0000   192.0000 </r>
       <r>   -13.6987     0.0000   192.0000 </r>
       <r>   -13.5857     0.0000   192.0000 </r>
       <r>   -13.4727     0.0000   192.0000 </r>
       <r>   -13.3598     1.0027   192.1133 </r>
       <r>   -13.2468    18.4614   194.1990 </r>
       <r>   -13.1338    48.6106   199.6909 </r>
       <r>   -13.0208   123.5254   213.6465 </r>
       <r>   -12.9078   368.3547   255.2618 </r>
       <r>   -12.7949     6.5257   256.0000 </r>
       <r>   -12.6819     0.0000   256.0000 </r>
       <r>   -12.5689     0.0000   256.0000 </r>
       <r>   -12.4559     0.0000   256.0000 </r>
       <r>   -12.3430     0.0000   256.0000 </r>
       <r>   -12.2300     0.0000   256.0000 </r>
       <r>   -12.1170     0.0000   256.0000 </r>
       <r>   -12.0040     0.0000   256.0000 </r>
       <r>   -11.8911     0.0000   256.0000 </r>
       <r>   -11.7781     0.0000   256.0000 </r>
       <r>   -11.6651     0.0000   256.0000 </r>
       <r>   -11.5521     0.0000   256.0000 </r>
       <r>   -11.4392     0.0000   256.0000 </r>
       <r>   -11.3262     0.0000   256.0000 </r>
       <r>   -11.2132     0.0000   256.0000 </r>
       <r>   -11.1002     0.0000   256.0000 </r>
       <r>   -10.9873     0.0000   256.0000 </r>
       <r>   -10.8743     0.0000   256.0000 </r>
       <r>   -10.7613     0.0000   256.0000 </r>
       <r>   -10.6483     0.0000   256.0000 </r>
       <r>   -10.5354     0.0000   256.0000 </r>
       <r>   -10.4224     0.0000   256.0000 </r>
       <r>   -10.3094     0.0000   256.0000 </r>
       <r>   -10.1964     0.0000   256.0000 </r>
       <r>   -10.0835     0.0000   256.0000 </r>
       <r>    -9.9705     0.0000   256.0000 </r>
       <r>    -9.8575     0.0000   256.0000 </r>
       <r>    -9.7445     0.0000   256.0000 </r>
       <r>    -9.6316     0.0000   256.0000 </r>
       <r>    -9.5186     0.0000   256.0000 </r>
       <r>    -9.4056     0.0000   256.0000 </r>
       <r>    -9.2926     0.0000   256.0000 </r>
       <r>    -9.1796     0.0000   256.0000 </r>
       <r>    -9.0667     0.0000   256.0000 </r>
       <r>    -8.9537     0.0000   256.0000 </r>
       <r>    -8.8407     0.0000   256.0000 </r>
       <r>    -8.7277     0.0000   256.0000 </r>
       <r>    -8.6148     0.0000   256.0000 </r>
       <r>    -8.5018     0.0000   256.0000 </r>
       <r>    -8.3888     0.0000   256.0000 </r>
       <r>    -8.2758     0.0000   256.0000 </r>
       <r>    -8.1629     0.0000   256.0000 </r>
       <r>    -8.0499     0.0000   256.0000 </r>
       <r>    -7.9369     0.0000   256.0000 </r>
       <r>    -7.8239     0.0000   256.0000 </r>
       <r>    -7.7110     0.0000   256.0000 </r>
       <r>    -7.5980     0.0000   256.0000 </r>
       <r>    -7.4850     0.0000   256.0000 </r>
       <r>    -7.3720     0.0000   256.0000 </r>
       <r>    -7.2591     0.0000   256.0000 </r>
       <r>    -7.1461     0.0000   256.0000 </r>
       <r>    -7.0331     0.0000   256.0000 </r>
       <r>    -6.9201     0.0000   256.0000 </r>
       <r>    -6.8072     0.0000   256.0000 </r>
       <r>    -6.6942     0.0000   256.0000 </r>
       <r>    -6.5812     0.0000   256.0000 </r>
       <r>    -6.4682     0.0000   256.0000 </r>
       <r>    -6.3553     0.0000   256.0000 </r>
       <r>    -6.2423     0.0000   256.0000 </r>
       <r>    -6.1293     0.0000   256.0000 </r>
       <r>    -6.0163     0.0000   256.0000 </r>
       <r>    -5.9034     0.0000   256.0000 </r>
       <r>    -5.7904     0.0000   256.0000 </r>
       <r>    -5.6774     0.0000   256.0000 </r>
       <r>    -5.5644     0.0000   256.0000 </r>
       <r>    -5.4514     0.0000   256.0000 </r>
       <r>    -5.3385     0.0000   256.0000 </r>
       <r>    -5.2255     0.0000   256.0000 </r>
       <r>    -5.1125     0.0000   256.0000 </r>
       <r>    -4.9995     0.0000   256.0000 </r>
       <r>    -4.8866     0.0000   256.0000 </r>
       <r>    -4.7736     0.0000   256.0000 </r>
       <r>    -4.6606     0.0000   256.0000 </r>
       <r>    -4.5476     0.0000   256.0000 </r>
       <r>    -4.4347     0.0000   256.0000 </r>
       <r>    -4.3217     0.0000   256.0000 </r>
       <r>    -4.2087     0.0000   256.0000 </r>
       <r>    -4.0957     0.0000   256.0000 </r>
       <r>    -3.9828     0.0000   256.0000 </r>
       <r>    -3.8698     0.0000   256.0000 </r>
       <r>    -3.7568     0.0000   256.0000 </r>
       <r>    -3.6438     0.0000   256.0000 </r>
       <r>    -3.5309     0.0000   256.0000 </r>
       <r>    -3.4179     0.0000   256.0000 </r>
       <r>    -3.3049     0.0000   256.0000 </r>
       <r>    -3.1919     0.0000   256.0000 </r>
       <r>    -3.0790     0.0000   256.0000 </r>
       <r>    -2.9660     0.0000   256.0000 </r>
       <r>    -2.8530     0.0000   256.0000 </r>
       <r>    -2.7400     0.0206   256.0023 </r>
       <r>    -2.6271     8.8308   257.0000 </r>
       <r>    -2.5141    13.2121   258.4926 </r>
       <r>    -2.4011    88.5723   268.4992 </r>
       <r>    -2.2881    79.3791   277.4671 </r>
       <r>    -2.1752   159.5652   295.4943 </r>
       <r>    -2.0622    77.5009   304.2500 </r>
       <r>    -1.9492    53.9709   310.3474 </r>
       <r>    -1.8362    53.1254   316.3493 </r>
       <r>    -1.7232    83.2100   325.7500 </r>
       <r>    -1.6103     0.0000   325.7500 </r>
       <r>    -1.4973    43.2801   330.6396 </r>
       <r>    -1.3843   214.3379   354.8546 </r>
       <r>    -1.2713    33.8752   358.6817 </r>
       <r>    -1.1584   233.3745   385.0473 </r>
       <r>    -1.0454   153.7198   402.4142 </r>
       <r>    -0.9324   239.2449   429.4433 </r>
       <r>    -0.8194    78.2163   438.2798 </r>
       <r>    -0.7065    79.1065   447.2169 </r>
       <r>    -0.5935     6.9310   448.0000 </r>
       <r>    -0.4805     0.0000   448.0000 </r>
       <r>    -0.3675     0.0000   448.0000 </r>
       <r>    -0.2546     0.0000   448.0000 </r>
       <r>    -0.1416     0.0000   448.0000 </r>
       <r>    -0.0286     0.0000   448.0000 </r>
       <r>     0.0844     0.0000   448.0000 </r>
       <r>     0.1973     0.0000   448.0000 </r>
       <r>     0.3103     0.0000   448.0000 </r>
       <r>     0.4233     0.0000   448.0000 </r>
       <r>     0.5363     0.0000   448.0000 </r>
       <r>     0.6492     0.0000   448.0000 </r>
       <r>     0.7622     0.0000   448.0000 </r>
       <r>     0.8752     0.0000   448.0000 </r>
       <r>     0.9882     0.0000   448.0000 </r>
       <r>     1.1011     0.0000   448.0000 </r>
       <r>     1.2141     0.0000   448.0000 </r>
       <r>     1.3271     0.0000   448.0000 </r>
       <r>     1.4401     0.0000   448.0000 </r>
       <r>     1.5530     0.0000   448.0000 </r>
       <r>     1.6660     0.0000   448.0000 </r>
       <r>     1.7790     0.0000   448.0000 </r>
       <r>     1.8920     0.0000   448.0000 </r>
       <r>     2.0050     0.0000   448.0000 </r>
       <r>     2.1179     0.0000   448.0000 </r>
       <r>     2.2309     0.0000   448.0000 </r>
       <r>     2.3439     0.0000   448.0000 </r>
       <r>     2.4569     0.0000   448.0000 </r>
       <r>     2.5698     0.0000   448.0000 </r>
       <r>     2.6828     0.0000   448.0000 </r>
       <r>     2.7958     0.0000   448.0000 </r>
       <r>     2.9088     0.0000   448.0000 </r>
       <r>     3.0217     0.0000   448.0000 </r>
       <r>     3.1347     0.0000   448.0000 </r>
       <r>     3.2477     0.0000   448.0000 </r>
       <r>     3.3607     0.0000   448.0000 </r>
       <r>     3.4736     0.0000   448.0000 </r>
       <r>     3.5866     0.0000   448.0000 </r>
       <r>     3.6996     0.0000   448.0000 </r>
       <r>     3.8126     0.0000   448.0000 </r>
       <r>     3.9255     0.0000   448.0000 </r>
       <r>     4.0385     0.0000   448.0000 </r>
       <r>     4.1515     0.0000   448.0000 </r>
       <r>     4.2645     0.0000   448.0000 </r>
       <r>     4.3774     2.2034   448.2489 </r>
       <r>     4.4904     0.0095   448.2500 </r>
       <r>     4.6034     0.0000   448.2500 </r>
       <r>     4.7164     0.0000   448.2500 </r>
       <r>     4.8293     0.0000   448.2500 </r>
       <r>     4.9423     0.0000   448.2500 </r>
       <r>     5.0553    13.1354   449.7340 </r>
       <r>     5.1683     0.1418   449.7500 </r>
       <r>     5.2813     0.0000   449.7500 </r>
       <r>     5.3942     0.0000   449.7500 </r>
       <r>     5.5072     0.3716   449.7920 </r>
       <r>     5.6202    26.1828   452.7500 </r>
       <r>     5.7332     0.0000   452.7500 </r>
       <r>     5.8461    14.7890   454.4208 </r>
       <r>     5.9591     2.9139   454.7500 </r>
       <r>     6.0721     0.0000   454.7500 </r>
       <r>     6.1851     0.0000   454.7500 </r>
       <r>     6.2980     0.0000   454.7500 </r>
       <r>     6.4110    13.3292   456.2559 </r>
       <r>     6.5240     8.7990   457.2500 </r>
       <r>     6.6370    23.5331   459.9087 </r>
       <r>     6.7499    81.8060   469.1508 </r>
       <r>     6.8629    55.8694   475.4627 </r>
       <r>     6.9759    13.1149   476.9443 </r>
       <r>     7.0889     4.9184   477.5000 </r>
       <r>     7.2018     2.4074   477.7720 </r>
       <r>     7.3148     4.2439   478.2514 </r>
       <r>     7.4278    78.3235   487.1001 </r>
       <r>     7.5408   159.8247   505.1564 </r>
       <r>     7.6537    14.1034   506.7500 </r>
       <r>     7.7667    26.5501   509.7496 </r>
       <r>     7.8797     0.0060   509.7507 </r>
       <r>     7.9927    53.1000   515.7497 </r>
       <r>     8.1056     0.0001   515.7500 </r>
       <r>     8.2186    13.3144   517.2542 </r>
       <r>     8.3316    92.6384   527.7203 </r>
       <r>     8.4446     0.2607   527.7500 </r>
       <r>     8.5575   121.8880   541.5204 </r>
       <r>     8.6705    37.4382   545.7500 </r>
       <r>     8.7835     0.0000   545.7500 </r>
       <r>     8.8965    60.7819   552.6169 </r>
       <r>     9.0095   131.0926   567.4272 </r>
       <r>     9.1224    18.3446   569.5000 </r>
       <r>     9.2354     9.9064   570.6192 </r>
       <r>     9.3484    34.3509   574.5000 </r>
       <r>     9.4614     0.2411   574.5272 </r>
       <r>     9.5743    13.0361   576.0000 </r>
       <r>     9.6873     0.0000   576.0000 </r>
       <r>     9.8003     0.0000   576.0000 </r>
       <r>     9.9133     0.0000   576.0000 </r>
       <r>    10.0262     0.0000   576.0000 </r>
       <r>    10.1392     0.0000   576.0000 </r>
       <r>    10.2522     0.0000   576.0000 </r>
       <r>    10.3652     0.0000   576.0000 </r>
       <r>    10.4781     0.0000   576.0000 </r>
       <r>    10.5911     0.0000   576.0000 </r>
       <r>    10.7041     0.0000   576.0000 </r>
       <r>    10.8171     0.0000   576.0000 </r>
       <r>    10.9300     0.0000   576.0000 </r>
       <r>    11.0430     0.0000   576.0000 </r>
      </set>
     </set>
    </array>
   </total>
  </dos>
 </calculation>
 <structure name="finalpos" >
  <crystal>
   <varray name="basis" >
    <v>      11.20400236       0.00000000       0.00000000 </v>
    <v>       0.00000000      11.20400236       0.00000000 </v>
    <v>       0.00000000       0.00000000      11.20400236 </v>
   </varray>
   <i name="volume">   1406.43470641 </i>
   <varray name="rec_basis" >
    <v>       0.08925382       0.00000000       0.00000000 </v>
    <v>       0.00000000       0.08925382       0.00000000 </v>
    <v>       0.00000000       0.00000000       0.08925382 </v>
   </varray>
  </crystal>
  <varray name="positions" >
   <v>       0.99732239       0.00000000       0.00000000 </v>
   <v>       0.25000000       0.25000000       0.00000000 </v>
   <v>       0.25000000       0.00000000       0.25000000 </v>
   <v>       0.00000000       0.25000000       0.25000000 </v>
   <v>       0.00000000       0.00000000       0.50000000 </v>
   <v>       0.25000000       0.25000000       0.50000000 </v>
   <v>       0.25000000       0.00000000       0.75000000 </v>
   <v>       0.00000000       0.25000000       0.75000000 </v>
   <v>       0.00000000       0.50000000       0.00000000 </v>
   <v>       0.25000000       0.75000000       0.00000000 </v>
   <v>       0.25000000       0.50000000       0.25000000 </v>
   <v>       0.00000000       0.75000000       0.25000000 </v>
   <v>       0.00000000       0.50000000       0.50000000 </v>
   <v>       0.25000000       0.75000000       0.50000000 </v>
   <v>       0.25000000       0.50000000       0.75000000 </v>
   <v>       0.00000000       0.75000000       0.75000000 </v>
   <v>       0.50000000       0.00000000       0.00000000 </v>
   <v>       0.75000000       0.25000000       0.00000000 </v>
   <v>       0.75000000       0.00000000       0.25000000 </v>
   <v>       0.50000000       0.25000000       0.25000000 </v>
   <v>       0.50000000       0.00000000       0.50000000 </v>
   <v>       0.75000000       0.25000000       0.50000000 </v>
   <v>       0.75000000       0.00000000       0.75000000 </v>
   <v>       0.50000000       0.25000000       0.75000000 </v>
   <v>       0.50000000       0.50000000       0.00000000 </v>
   <v>       0.75000000       0.75000000       0.00000000 </v>
   <v>       0.75000000       0.50000000       0.25000000 </v>
   <v>       0.50000000       0.75000000       0.25000000 </v>
   <v>       0.50000000       0.50000000       0.50000000 </v>
   <v>       0.75000000       0.75000000       0.50000000 </v>
   <v>       0.75000000       0.50000000       0.75000000 </v>
   <v>       0.50000000       0.75000000       0.75000000 </v>
   <v>       0.24732239       0.25000000       0.25000000 </v>
   <v>       0.00000000       0.00000000       0.25000000 </v>
   <v>       0.00000000       0.25000000       0.00000000 </v>
   <v>       0.25000000       0.00000000       0.00000000 </v>
   <v>       0.25000000       0.25000000       0.75000000 </v>
   <v>       0.00000000       0.00000000       0.75000000 </v>
   <v>       0.00000000       0.25000000       0.50000000 </v>
   <v>       0.25000000       0.00000000       0.50000000 </v>
   <v>       0.25000000       0.75000000       0.25000000 </v>
   <v>       0.00000000       0.50000000       0.25000000 </v>
   <v>       0.00000000       0.75000000       0.00000000 </v>
   <v>       0.25000000       0.50000000       0.00000000 </v>
   <v>       0.25000000       0.75000000       0.75000000 </v>
   <v>       0.00000000       0.50000000       0.75000000 </v>
   <v>       0.00000000       0.75000000       0.50000000 </v>
   <v>       0.25000000       0.50000000       0.50000000 </v>
   <v>       0.75000000       0.25000000       0.25000000 </v>
   <v>       0.50000000       0.00000000       0.25000000 </v>
   <v>       0.50000000       0.25000000       0.00000000 </v>
   <v>       0.75000000       0.00000000       0.00000000 </v>
   <v>       0.75000000       0.25000000       0.75000000 </v>
   <v>       0.50000000       0.00000000       0.75000000 </v>
   <v>       0.50000000       0.25000000       0.50000000 </v>
   <v>       0.75000000       0.00000000       0.50000000 </v>
   <v>       0.75000000       0.75000000       0.25000000 </v>
   <v>       0.50000000       0.50000000       0.25000000 </v>
   <v>       0.50000000       0.75000000       0.00000000 </v>
   <v>       0.75000000       0.50000000       0.00000000 </v>
   <v>       0.75000000       0.75000000       0.75000000 </v>
   <v>       0.50000000       0.50000000       0.75000000 </v>
   <v>       0.50000000       0.75000000       0.50000000 </v>
   <v>       0.75000000       0.50000000       0.50000000 </v>
  </varray>
 </structure>
</modeling>
