  64  64   0   0
  0.2006348E+02  0.1086915E-08  0.1086915E-08  0.1086915E-08  0.5000000E-15
  1.000000000000000E-004
  CAR 
 unknown system                          
     10.10164778     -6.98204724  301      5.89478788      1.00000000
     -6.982  0.0000E+00  0.0000E+00
     -6.925  0.0000E+00  0.0000E+00
     -6.868  0.0000E+00  0.0000E+00
     -6.811  0.0000E+00  0.0000E+00
     -6.754  0.0000E+00  0.0000E+00
     -6.697  0.0000E+00  0.0000E+00
     -6.640  0.0000E+00  0.0000E+00
     -6.583  0.0000E+00  0.0000E+00
     -6.526  0.0000E+00  0.0000E+00
     -6.470  0.0000E+00  0.0000E+00
     -6.413  0.0000E+00  0.0000E+00
     -6.356  0.0000E+00  0.0000E+00
     -6.299  0.9714E-10  0.5532E-11
     -6.242  0.2282E-01  0.1299E-02
     -6.185  0.4053E+01  0.2321E+00
     -6.128  0.3142E+00  0.2500E+00
     -6.071  0.8778E-07  0.2500E+00
     -6.014  0.9273E-07  0.2500E+00
     -5.957  0.1018E+01  0.3080E+00
     -5.900  0.2501E+02  0.1732E+01
     -5.843  0.3162E+00  0.1750E+01
     -5.786  0.4444E-08  0.1750E+01
     -5.729  0.1073E-03  0.1750E+01
     -5.672  0.1461E+02  0.2582E+01
     -5.615  0.3806E+02  0.4749E+01
     -5.558  0.1617E-01  0.4750E+01
     -5.501  0.1198E-09  0.4750E+01
     -5.445  0.7365E-01  0.4754E+01
     -5.388  0.3055E+02  0.6494E+01
     -5.331  0.4500E+01  0.6750E+01
     -5.274  0.4982E-05  0.6750E+01
     -5.217  0.2326E-09  0.6750E+01
     -5.160  0.8788E-01  0.6755E+01
     -5.103  0.2369E+02  0.8104E+01
     -5.046  0.2560E+01  0.8250E+01
     -4.989  0.1452E-05  0.8250E+01
     -4.932  0.1667E-02  0.8250E+01
     -4.875  0.4586E+02  0.1086E+02
     -4.818  0.5950E+02  0.1425E+02
     -4.761  0.6609E-02  0.1425E+02
     -4.704  0.1255E-02  0.1425E+02
     -4.647  0.4348E+02  0.1673E+02
     -4.590  0.6187E+02  0.2025E+02
     -4.533  0.8118E-02  0.2025E+02
     -4.476  0.0000E+00  0.2025E+02
     -4.419  0.0000E+00  0.2025E+02
     -4.363  0.0000E+00  0.2025E+02
     -4.306  0.0000E+00  0.2025E+02
     -4.249  0.1521E-08  0.2025E+02
     -4.192  0.2720E+00  0.2027E+02
     -4.135  0.4830E+02  0.2302E+02
     -4.078  0.4115E+01  0.2325E+02
     -4.021  0.5809E+02  0.2656E+02
     -3.964  0.4726E+02  0.2925E+02
     -3.907  0.1120E-01  0.2925E+02
     -3.850  0.1359E+02  0.3002E+02
     -3.793  0.2536E+02  0.3147E+02
     -3.736  0.4943E+01  0.3175E+02
     -3.679  0.2439E-04  0.3175E+02
     -3.622  0.1246E+02  0.3246E+02
     -3.565  0.9264E+02  0.3774E+02
     -3.508  0.2135E+01  0.3786E+02
     -3.451  0.9981E+02  0.4354E+02
     -3.394  0.3684E+01  0.4375E+02
     -3.338  0.1392E+02  0.4454E+02
     -3.281  0.9123E+02  0.4974E+02
     -3.224  0.2093E+00  0.4975E+02
     -3.167  0.1341E-07  0.4975E+02
     -3.110  0.1023E+01  0.4981E+02
     -3.053  0.9917E+02  0.5546E+02
     -2.996  0.5171E+01  0.5575E+02
     -2.939  0.8728E-06  0.5575E+02
     -2.882  0.0000E+00  0.5575E+02
     -2.825  0.0000E+00  0.5575E+02
     -2.768  0.0000E+00  0.5575E+02
     -2.711  0.0000E+00  0.5575E+02
     -2.654  0.0000E+00  0.5575E+02
     -2.597  0.0000E+00  0.5575E+02
     -2.540  0.4001E-06  0.5575E+02
     -2.483  0.2568E+01  0.5590E+02
     -2.426  0.4961E+02  0.5872E+02
     -2.369  0.5012E+00  0.5875E+02
     -2.313  0.5780E-08  0.5875E+02
     -2.256  0.0000E+00  0.5875E+02
     -2.199  0.0000E+00  0.5875E+02
     -2.142  0.4176E-08  0.5875E+02
     -2.085  0.2848E+00  0.5877E+02
     -2.028  0.2488E+02  0.6018E+02
     -1.971  0.5574E+02  0.6336E+02
     -1.914  0.5160E+02  0.6630E+02
     -1.857  0.4996E+02  0.6914E+02
     -1.800  0.1934E+01  0.6925E+02
     -1.743  0.2414E-06  0.6925E+02
     -1.686  0.0000E+00  0.6925E+02
     -1.629  0.0000E+00  0.6925E+02
     -1.572  0.3480E-12  0.6925E+02
     -1.515  0.5721E-02  0.6925E+02
     -1.458  0.3267E+02  0.7111E+02
     -1.401  0.2000E+02  0.7225E+02
     -1.344  0.4287E-03  0.7225E+02
     -1.287  0.1801E-02  0.7225E+02
     -1.231  0.1080E+02  0.7286E+02
     -1.174  0.6762E+01  0.7325E+02
     -1.117  0.1541E-03  0.7325E+02
     -1.060  0.7143E+01  0.7366E+02
     -1.003  0.9754E+02  0.7921E+02
     -0.946  0.6792E+00  0.7925E+02
     -0.889  0.1060E-06  0.7925E+02
     -0.832  0.2282E+01  0.7938E+02
     -0.775  0.1005E+03  0.8510E+02
     -0.718  0.2625E+01  0.8525E+02
     -0.661  0.3683E+01  0.8546E+02
     -0.604  0.1966E+03  0.9666E+02
     -0.547  0.1043E+02  0.9725E+02
     -0.490  0.7240E-05  0.9725E+02
     -0.433  0.0000E+00  0.9725E+02
     -0.376  0.0000E+00  0.9725E+02
     -0.319  0.0000E+00  0.9725E+02
     -0.262  0.1326E-03  0.9725E+02
     -0.206  0.2488E+02  0.9867E+02
     -0.149  0.8042E+02  0.1032E+03
     -0.092  0.5697E-01  0.1032E+03
     -0.035  0.5629E-03  0.1033E+03
      0.022  0.1245E+02  0.1040E+03
      0.079  0.1389E+02  0.1047E+03
      0.136  0.1010E-02  0.1048E+03
      0.193  0.1572E-07  0.1048E+03
      0.250  0.6930E+00  0.1048E+03
      0.307  0.4985E+02  0.1076E+03
      0.364  0.2136E+01  0.1077E+03
      0.421  0.1042E+00  0.1078E+03
      0.478  0.8591E+02  0.1126E+03
      0.535  0.1935E+02  0.1137E+03
      0.592  0.5126E-04  0.1138E+03
      0.649  0.0000E+00  0.1138E+03
      0.706  0.0000E+00  0.1138E+03
      0.763  0.0000E+00  0.1138E+03
      0.820  0.0000E+00  0.1138E+03
      0.876  0.0000E+00  0.1138E+03
      0.933  0.0000E+00  0.1138E+03
      0.990  0.0000E+00  0.1138E+03
      1.047  0.0000E+00  0.1138E+03
      1.104  0.0000E+00  0.1138E+03
      1.161  0.0000E+00  0.1138E+03
      1.218  0.0000E+00  0.1138E+03
      1.275  0.0000E+00  0.1138E+03
      1.332  0.5128E-07  0.1138E+03
      1.389  0.1254E+01  0.1138E+03
      1.446  0.5288E+02  0.1168E+03
      1.503  0.1804E+03  0.1271E+03
      1.560  0.2891E+02  0.1287E+03
      1.617  0.1504E-03  0.1288E+03
      1.674  0.0000E+00  0.1288E+03
      1.731  0.1905E-08  0.1288E+03
      1.788  0.2438E+00  0.1288E+03
      1.845  0.3428E+02  0.1307E+03
      1.901  0.5240E+02  0.1337E+03
      1.958  0.8643E+01  0.1342E+03
      2.015  0.4483E+02  0.1367E+03
      2.072  0.8174E-01  0.1367E+03
      2.129  0.7835E-04  0.1368E+03
      2.186  0.2088E+02  0.1379E+03
      2.243  0.9188E+02  0.1432E+03
      2.300  0.1158E+03  0.1498E+03
      2.357  0.1286E+03  0.1571E+03
      2.414  0.9051E+02  0.1622E+03
      2.471  0.1680E+00  0.1622E+03
      2.528  0.1698E-09  0.1622E+03
      2.585  0.0000E+00  0.1622E+03
      2.642  0.0000E+00  0.1622E+03
      2.699  0.0000E+00  0.1622E+03
      2.756  0.0000E+00  0.1622E+03
      2.813  0.4120E-08  0.1623E+03
      2.870  0.3045E+00  0.1623E+03
      2.926  0.2498E+02  0.1637E+03
      2.983  0.5465E+02  0.1668E+03
      3.040  0.1431E+03  0.1749E+03
      3.097  0.6288E+02  0.1785E+03
      3.154  0.7753E+02  0.1829E+03
      3.211  0.8437E+02  0.1877E+03
      3.268  0.1134E+02  0.1884E+03
      3.325  0.1111E+03  0.1947E+03
      3.382  0.3564E+02  0.1967E+03
      3.439  0.9375E-02  0.1967E+03
      3.496  0.4408E-02  0.1968E+03
      3.553  0.5432E+02  0.1998E+03
      3.610  0.1465E+03  0.2082E+03
      3.667  0.9887E+01  0.2087E+03
      3.724  0.5369E-05  0.2088E+03
      3.781  0.4226E-07  0.2088E+03
      3.838  0.1094E+01  0.2088E+03
      3.895  0.5538E+02  0.2120E+03
      3.952  0.1005E+03  0.2177E+03
      4.008  0.1026E+01  0.2177E+03
      4.065  0.4716E-02  0.2178E+03
      4.122  0.3212E+02  0.2196E+03
      4.179  0.8811E+02  0.2246E+03
      4.236  0.3781E+02  0.2267E+03
      4.293  0.3589E+00  0.2268E+03
      4.350  0.9454E+02  0.2322E+03
      4.407  0.1231E+02  0.2329E+03
      4.464  0.7578E+02  0.2372E+03
      4.521  0.9837E+02  0.2428E+03
      4.578  0.3347E+02  0.2447E+03
      4.635  0.1005E+02  0.2452E+03
      4.692  0.9059E-04  0.2452E+03
      4.749  0.0000E+00  0.2452E+03
      4.806  0.0000E+00  0.2452E+03
      4.863  0.2121E-08  0.2453E+03
      4.920  0.3244E+00  0.2453E+03
      4.977  0.4998E+02  0.2481E+03
      5.033  0.6995E+02  0.2521E+03
      5.090  0.2677E+01  0.2522E+03
      5.147  0.6286E-06  0.2522E+03
      5.204  0.0000E+00  0.2522E+03
      5.261  0.0000E+00  0.2522E+03
      5.318  0.0000E+00  0.2522E+03
      5.375  0.5540E-11  0.2523E+03
      5.432  0.1999E-01  0.2523E+03
      5.489  0.3850E+02  0.2544E+03
      5.546  0.1416E+02  0.2552E+03
      5.603  0.1123E-03  0.2552E+03
      5.660  0.3314E-13  0.2552E+03
      5.717  0.7988E-03  0.2553E+03
      5.774  0.7247E+01  0.2557E+03
      5.831  0.5922E+01  0.2560E+03
      5.888  0.2757E-03  0.2560E+03
      5.945  0.0000E+00  0.2560E+03
      6.002  0.0000E+00  0.2560E+03
      6.059  0.0000E+00  0.2560E+03
      6.115  0.0000E+00  0.2560E+03
      6.172  0.4460E-12  0.2560E+03
      6.229  0.4898E-02  0.2560E+03
      6.286  0.1787E+02  0.2570E+03
      6.343  0.9937E+01  0.2576E+03
      6.400  0.2467E+02  0.2590E+03
      6.457  0.1999E+00  0.2590E+03
      6.514  0.1513E-08  0.2590E+03
      6.571  0.0000E+00  0.2590E+03
      6.628  0.0000E+00  0.2590E+03
      6.685  0.0000E+00  0.2590E+03
      6.742  0.4183E-04  0.2590E+03
      6.799  0.6778E+01  0.2594E+03
      6.856  0.3216E+02  0.2612E+03
      6.913  0.4006E+02  0.2635E+03
      6.970  0.2516E-01  0.2635E+03
      7.027  0.1931E-11  0.2635E+03
      7.084  0.1690E-10  0.2635E+03
      7.140  0.4516E-01  0.2635E+03
      7.197  0.9235E+02  0.2688E+03
      7.254  0.5587E+02  0.2719E+03
      7.311  0.9984E+00  0.2720E+03
      7.368  0.1806E-06  0.2720E+03
      7.425  0.0000E+00  0.2720E+03
      7.482  0.0000E+00  0.2720E+03
      7.539  0.3916E-08  0.2720E+03
      7.596  0.6732E+00  0.2720E+03
      7.653  0.1706E+03  0.2818E+03
      7.710  0.5393E+02  0.2848E+03
      7.767  0.4689E+02  0.2875E+03
      7.824  0.7574E-01  0.2875E+03
      7.881  0.1604E-02  0.2875E+03
      7.938  0.4595E+02  0.2901E+03
      7.995  0.5940E+02  0.2935E+03
      8.052  0.2996E+02  0.2952E+03
      8.109  0.7690E+02  0.2996E+03
      8.165  0.1466E+03  0.3079E+03
      8.222  0.9967E+01  0.3085E+03
      8.279  0.3911E+01  0.3087E+03
      8.336  0.1075E+03  0.3148E+03
      8.393  0.7135E+01  0.3152E+03
      8.450  0.1858E-05  0.3153E+03
      8.507  0.6994E-01  0.3153E+03
      8.564  0.8286E+02  0.3200E+03
      8.621  0.2243E+02  0.3212E+03
      8.678  0.8237E-04  0.3213E+03
      8.735  0.8571E+00  0.3213E+03
      8.792  0.1239E+03  0.3284E+03
      8.849  0.5955E+02  0.3317E+03
      8.906  0.1136E+00  0.3317E+03
      8.963  0.4355E-08  0.3318E+03
      9.020  0.1898E+00  0.3318E+03
      9.077  0.1254E+02  0.3325E+03
      9.134  0.4418E+00  0.3325E+03
      9.191  0.9441E-01  0.3325E+03
      9.247  0.3096E+02  0.3343E+03
      9.304  0.6844E+01  0.3347E+03
      9.361  0.2348E+02  0.3360E+03
      9.418  0.8245E-01  0.3360E+03
      9.475  0.2335E-09  0.3360E+03
      9.532  0.0000E+00  0.3360E+03
      9.589  0.0000E+00  0.3360E+03
      9.646  0.0000E+00  0.3360E+03
      9.703  0.0000E+00  0.3360E+03
      9.760  0.0000E+00  0.3360E+03
      9.817  0.0000E+00  0.3360E+03
      9.874  0.0000E+00  0.3360E+03
      9.931  0.0000E+00  0.3360E+03
      9.988  0.0000E+00  0.3360E+03
     10.045  0.0000E+00  0.3360E+03
     10.102  0.0000E+00  0.3360E+03
