       N       E                     dE             d eps       ncg     rms          rms(c)
DAV:   1     0.451009870521E+03    0.45101E+03   -0.72608E+04  2688   0.852E+02
DAV:   2    -0.322069781793E+03   -0.77308E+03   -0.73078E+03  3232   0.155E+02
DAV:   3    -0.373414363901E+03   -0.51345E+02   -0.50483E+02  3304   0.365E+01
DAV:   4    -0.374600098091E+03   -0.11857E+01   -0.11777E+01  3240   0.671E+00
DAV:   5    -0.374640627492E+03   -0.40529E-01   -0.40481E-01  3192   0.110E+00    0.285E+01
DAV:   6    -0.369721627020E+03    0.49190E+01   -0.25917E+00  3064   0.242E+00    0.172E+01
DAV:   7    -0.367490401127E+03    0.22312E+01   -0.52399E+00  3064   0.349E+00    0.996E-01
DAV:   8    -0.367497511567E+03   -0.71104E-02   -0.28322E-01  3064   0.970E-01    0.352E-01
DAV:   9    -0.367498993213E+03   -0.14816E-02   -0.72588E-03  3296   0.163E-01    0.310E-01
DAV:  10    -0.367499847879E+03   -0.85467E-03   -0.20909E-03  3000   0.833E-02    0.229E-01
DAV:  11    -0.367499886931E+03   -0.39052E-04   -0.88656E-05  3080   0.190E-02    0.874E-03
DAV:  12    -0.367499889163E+03   -0.22322E-05   -0.31995E-06  3248   0.353E-03    0.817E-03
DAV:  13    -0.367499888196E+03    0.96637E-06   -0.88269E-07  2968   0.198E-03    0.189E-03
DAV:  14    -0.367499888051E+03    0.14570E-06   -0.24903E-08  2456   0.371E-04    0.491E-04
DAV:  15    -0.367499888045E+03    0.59754E-08   -0.13008E-08  1856   0.223E-04
   1 F= -.36749989E+03 E0= -.36749989E+03  d E =-.431427E-18
