 vasp.6.3.2 27Jun22 (build Oct 14 2022 12:13:54) complex                        
  
 executed on             LinuxIFC date 2023.04.03  14:44:23
 running on   32 total cores
 distrk:  each k-point on   32 cores,    1 groups
 distr:  one band on NCORE=   4 cores,    8 groups


--------------------------------------------------------------------------------------------------------


 INCAR:
   ADDGRID = True
   EDIFF = 1e-08
   ENCUT = 318
   GGA = Ps
   IALGO = 38
   IBRION = -1
   ISMEAR = 0
   LCHARG = False
   LREAL = False
   LWAVE = False
   NELMIN = 5
   NPAR = 8
   PREC = Accurate
   SIGMA = 0.02

 POTCAR:    PAW_PBE Si 05Jan2001                  
 POTCAR:    PAW_PBE Si 05Jan2001                  
   SHA256 =  79d9987ad8750f624c4d6acb2a16d13abf6a777132adc04dc6c8399be72b42bb Si/POTCAR             
   COPYR  = (c) Copyright 05Jan2001 Georg Kresse                                                    
   COPYR  = This file is part of the software VASP. Any use, copying, and all other rights are regul
   COPYR  = If you do not have a valid VASP license, you may not use, copy or distribute this file. 
   VRHFIN =Si: s2p2                                                                                 
   LEXCH  = PE                                                                                      
   EATOM  =   103.0669 eV,    7.5752 Ry                                                             
                                                                                                    
   TITEL  = PAW_PBE Si 05Jan2001                                                                    
   LULTRA =        F    use ultrasoft PP ?                                                          
   IUNSCR =        1    unscreen: 0-lin 1-nonlin 2-no                                               
   RPACOR =    1.500    partial core radius                                                         
   POMASS =   28.085; ZVAL   =    4.000    mass and valenz                                          
   RCORE  =    1.900    outmost cutoff radius                                                       
   RWIGS  =    2.480; RWIGS  =    1.312    wigner-seitz radius (au A)                               
   ENMAX  =  245.345; ENMIN  =  184.009 eV                                                          
   ICORE  =        2    local potential                                                             
   LCOR   =        T    correct aug charges                                                         
   LPAW   =        T    paw PP                                                                      
   EAUG   =  322.069                                                                                
   DEXC   =    0.000                                                                                
   RMAX   =    1.950    core radius for proj-oper                                                   
   RAUG   =    1.300    factor for augmentation sphere                                              
   RDEP   =    1.993    radius for radial grids                                                     
   RDEPT  =    1.837    core radius for aug-charge                                                  
                                                                                                    
   Atomic configuration                                                                             
    6 entries                                                                                       
     n  l   j            E        occ.                                                              
     1  0  0.50     -1785.8828   2.0000                                                             
     2  0  0.50      -139.4969   2.0000                                                             
     2  1  1.50       -95.5546   6.0000                                                             
     3  0  0.50       -10.8127   2.0000                                                             
     3  1  0.50        -4.0811   2.0000                                                             
     3  2  1.50        -4.0817   0.0000                                                             
   Description                                                                                      
     l       E           TYP  RCUT    TYP  RCUT                                                     
     0    -10.8127223     23  1.900                                                                 
     0     -7.6451159     23  1.900                                                                 
     1     -4.0811372     23  1.900                                                                 
     1      2.4879257     23  1.900                                                                 
     2     -4.0817478      7  1.900                                                                 
  local pseudopotential read in
  partial core-charges read in
  partial kinetic energy density read in
  atomic valenz-charges read in
  non local Contribution for L=           0  read in
    real space projection operators read in
  non local Contribution for L=           0  read in
    real space projection operators read in
  non local Contribution for L=           1  read in
    real space projection operators read in
  non local Contribution for L=           1  read in
    real space projection operators read in
    PAW grid and wavefunctions read in
 
   number of l-projection  operators is LMAX  =           4
   number of lm-projection operators is LMMAX =           8
 
 -----------------------------------------------------------------------------
|                                                                             |
|               ----> ADVICE to this user running VASP <----                  |
|                                                                             |
|     You have a (more or less) 'large supercell' and for larger cells it     |
|     might be more efficient to use real-space projection operators.         |
|     Therefore, try LREAL= Auto in the INCAR file.                           |
|     Mind: For very accurate calculation, you might also keep the            |
|     reciprocal projection scheme (i.e. LREAL=.FALSE.).                      |
|                                                                             |
 -----------------------------------------------------------------------------

 -----------------------------------------------------------------------------
|                                                                             |
|               ----> ADVICE to this user running VASP <----                  |
|                                                                             |
|     You enforced a specific xc type in the INCAR file but a different       |
|     type was found in the POTCAR file.                                      |
|     I HOPE YOU KNOW WHAT YOU ARE DOING!                                     |
|                                                                             |
 -----------------------------------------------------------------------------

  PAW_PBE Si 05Jan2001                  :
 energy of atom  1       EATOM= -103.0669
 kinetic energy error for atom=    0.0016 (will be added to EATOM!!)
 
 
 POSCAR: Si
  positions in cartesian coordinates
  No initial velocities read in
 exchange correlation table for  LEXCH =       14
   RHO(1)=    0.500       N(1)  =     2000
   RHO(2)=  100.500       N(2)  =     4000
 


--------------------------------------------------------------------------------------------------------


 ion  position               nearest neighbor table
   1  0.251  0.250  0.250-  33 2.35  41 2.35  49 2.36  57 2.36
   2  0.750  0.250  0.250-  34 2.35  42 2.35  50 2.35  58 2.35
   3  0.250  0.750  0.250-  35 2.35  43 2.35  51 2.35  59 2.35
   4  0.750  0.750  0.250-  36 2.35  44 2.35  52 2.35  60 2.35
   5  0.250  0.250  0.750-  37 2.35  45 2.35  53 2.35  61 2.35
   6  0.750  0.250  0.750-  38 2.35  46 2.35  54 2.35  62 2.35
   7  0.250  0.750  0.750-  39 2.35  47 2.35  55 2.35  63 2.35
   8  0.750  0.750  0.750-  40 2.35  48 2.35  56 2.35  64 2.35
   9  0.250  0.000  0.000-  39 2.35  41 2.35  51 2.35  61 2.35
  10  0.750  0.000  0.000-  40 2.35  42 2.35  52 2.35  62 2.35
  11  0.250  0.500  0.000-  37 2.35  43 2.35  49 2.35  63 2.35
  12  0.750  0.500  0.000-  38 2.35  44 2.35  50 2.35  64 2.35
  13  0.250  0.000  0.500-  35 2.35  45 2.35  55 2.35  57 2.35
  14  0.750  0.000  0.500-  36 2.35  46 2.35  56 2.35  58 2.35
  15  0.250  0.500  0.500-  33 2.35  47 2.35  53 2.35  59 2.35
  16  0.750  0.500  0.500-  34 2.35  48 2.35  54 2.35  60 2.35
  17  0.001  0.250  0.000-  49 2.35  61 2.35  38 2.36  42 2.36
  18  0.500  0.250  0.000-  37 2.35  41 2.35  50 2.35  62 2.35
  19  0.000  0.750  0.000-  40 2.35  44 2.35  51 2.35  63 2.35
  20  0.500  0.750  0.000-  39 2.35  43 2.35  52 2.35  64 2.35
  21  0.000  0.250  0.500-  34 2.35  46 2.35  53 2.35  57 2.35
  22  0.500  0.250  0.500-  33 2.35  45 2.35  54 2.35  58 2.35
  23  0.000  0.750  0.500-  36 2.35  48 2.35  55 2.35  59 2.35
  24  0.500  0.750  0.500-  35 2.35  47 2.35  56 2.35  60 2.35
  25  0.000  0.000  0.250-  36 2.35  42 2.35  51 2.35  57 2.35
  26  0.500  0.000  0.250-  35 2.35  41 2.35  52 2.35  58 2.35
  27  0.000  0.500  0.250-  34 2.35  44 2.35  49 2.35  59 2.35
  28  0.500  0.500  0.250-  33 2.35  43 2.35  50 2.35  60 2.35
  29  0.000  0.000  0.750-  40 2.35  46 2.35  55 2.35  61 2.35
  30  0.500  0.000  0.750-  39 2.35  45 2.35  56 2.35  62 2.35
  31  0.000  0.500  0.750-  38 2.35  48 2.35  53 2.35  63 2.35
  32  0.500  0.500  0.750-  37 2.35  47 2.35  54 2.35  64 2.35
  33  0.375  0.375  0.375-   1 2.35  15 2.35  22 2.35  28 2.35
  34  0.875  0.375  0.375-   2 2.35  16 2.35  21 2.35  27 2.35
  35  0.375  0.875  0.375-   3 2.35  13 2.35  24 2.35  26 2.35
  36  0.875  0.875  0.375-   4 2.35  14 2.35  23 2.35  25 2.35
  37  0.375  0.375  0.875-   5 2.35  11 2.35  18 2.35  32 2.35
  38  0.875  0.375  0.875-   6 2.35  12 2.35  31 2.35  17 2.36
  39  0.375  0.875  0.875-   7 2.35   9 2.35  20 2.35  30 2.35
  40  0.875  0.875  0.875-   8 2.35  10 2.35  19 2.35  29 2.35
  41  0.375  0.125  0.125-   1 2.35   9 2.35  18 2.35  26 2.35
  42  0.875  0.125  0.125-   2 2.35  10 2.35  25 2.35  17 2.36
  43  0.375  0.625  0.125-   3 2.35  11 2.35  20 2.35  28 2.35
  44  0.875  0.625  0.125-   4 2.35  12 2.35  19 2.35  27 2.35
  45  0.375  0.125  0.625-   5 2.35  13 2.35  22 2.35  30 2.35
  46  0.875  0.125  0.625-   6 2.35  14 2.35  21 2.35  29 2.35
  47  0.375  0.625  0.625-   7 2.35  15 2.35  24 2.35  32 2.35
  48  0.875  0.625  0.625-   8 2.35  16 2.35  23 2.35  31 2.35
  49  0.125  0.375  0.125-  17 2.35  11 2.35  27 2.35   1 2.36
  50  0.625  0.375  0.125-   2 2.35  12 2.35  18 2.35  28 2.35
  51  0.125  0.875  0.125-   3 2.35   9 2.35  19 2.35  25 2.35
  52  0.625  0.875  0.125-   4 2.35  10 2.35  20 2.35  26 2.35
  53  0.125  0.375  0.625-   5 2.35  15 2.35  21 2.35  31 2.35
  54  0.625  0.375  0.625-   6 2.35  16 2.35  22 2.35  32 2.35
  55  0.125  0.875  0.625-   7 2.35  13 2.35  23 2.35  29 2.35
  56  0.625  0.875  0.625-   8 2.35  14 2.35  24 2.35  30 2.35
  57  0.125  0.125  0.375-  13 2.35  21 2.35  25 2.35   1 2.36
  58  0.625  0.125  0.375-   2 2.35  14 2.35  22 2.35  26 2.35
  59  0.125  0.625  0.375-   3 2.35  15 2.35  23 2.35  27 2.35
  60  0.625  0.625  0.375-   4 2.35  16 2.35  24 2.35  28 2.35
  61  0.125  0.125  0.875-  17 2.35   9 2.35   5 2.35  29 2.35
  62  0.625  0.125  0.875-   6 2.35  10 2.35  18 2.35  30 2.35
  63  0.125  0.625  0.875-   7 2.35  11 2.35  19 2.35  31 2.35
  64  0.625  0.625  0.875-   8 2.35  12 2.35  20 2.35  32 2.35
 
  LATTYP: Found a simple cubic cell.
 ALAT       =    10.8691451200
  
  Lattice vectors:
  
 A1 = (  10.8691451200,  -0.0000000000,  -0.0000000000)
 A2 = (  -0.0000000000,  10.8691451200,   0.0000000000)
 A3 = (   0.0000000000,   0.0000000000,  10.8691451200)


Analysis of symmetry for initial positions (statically):
=====================================================================
 Subroutine PRICEL returns:
 Original cell was already a primitive cell.
 

 Routine SETGRP: Setting up the symmetry group for a 
 simple cubic supercell.


 Subroutine GETGRP returns: Found  1 space group operations
 (whereof  1 operations were pure point group operations)
 out of a pool of 48 trial point group operations.


The static configuration has the point symmetry C_1 .


Analysis of symmetry for dynamics (positions and initial velocities):
=====================================================================
 Subroutine PRICEL returns:
 Original cell was already a primitive cell.
 

 Routine SETGRP: Setting up the symmetry group for a 
 simple cubic supercell.


 Subroutine GETGRP returns: Found  1 space group operations
 (whereof  1 operations were pure point group operations)
 out of a pool of 48 trial point group operations.


The dynamic configuration has the point symmetry C_1 .


 Subroutine INISYM returns: Found  1 space group operations
 (whereof  1 operations are pure point group operations),
 and found     1 'primitive' translations


----------------------------------------------------------------------------------------

                                     Primitive cell                                     

  volume of cell :    1284.0625

  direct lattice vectors                    reciprocal lattice vectors
    10.869145120 -0.000000000 -0.000000000     0.092003556  0.000000000 -0.000000000
    -0.000000000 10.869145120  0.000000000     0.000000000  0.092003556 -0.000000000
     0.000000000  0.000000000 10.869145120     0.000000000 -0.000000000  0.092003556

  length of vectors
    10.869145120 10.869145120 10.869145120     0.092003556  0.092003556  0.092003556

  position of ions in fractional coordinates (direct lattice)
     0.250920036  0.250000000  0.250000000
     0.750000000  0.250000000  0.250000000
     0.250000000  0.750000000  0.250000000
     0.750000000  0.750000000  0.250000000
     0.250000000  0.250000000  0.750000000
     0.750000000  0.250000000  0.750000000
     0.250000000  0.750000000  0.750000000
     0.750000000  0.750000000  0.750000000
     0.250000000  1.000000000  1.000000000
     0.750000000  1.000000000  1.000000000
     0.250000000  0.500000000  0.000000000
     0.750000000  0.500000000  1.000000000
     0.250000000  0.000000000  0.500000000
     0.750000000  1.000000000  0.500000000
     0.250000000  0.500000000  0.500000000
     0.750000000  0.500000000  0.500000000
     0.000920036  0.250000000  0.000000000
     0.500000000  0.250000000  1.000000000
     1.000000000  0.750000000  0.000000000
     0.500000000  0.750000000  0.000000000
     0.000000000  0.250000000  0.500000000
     0.500000000  0.250000000  0.500000000
     1.000000000  0.750000000  0.500000000
     0.500000000  0.750000000  0.500000000
     0.000000000  0.000000000  0.250000000
     0.500000000  1.000000000  0.250000000
     1.000000000  0.500000000  0.250000000
     0.500000000  0.500000000  0.250000000
     0.000000000  0.000000000  0.750000000
     0.500000000  0.000000000  0.750000000
     0.000000000  0.500000000  0.750000000
     0.500000000  0.500000000  0.750000000
     0.375000000  0.375000000  0.375000000
     0.875000000  0.375000000  0.375000000
     0.375000000  0.875000000  0.375000000
     0.875000000  0.875000000  0.375000000
     0.375000000  0.375000000  0.875000000
     0.875000000  0.375000000  0.875000000
     0.375000000  0.875000000  0.875000000
     0.875000000  0.875000000  0.875000000
     0.375000000  0.125000000  0.125000000
     0.875000000  0.125000000  0.125000000
     0.375000000  0.625000000  0.125000000
     0.875000000  0.625000000  0.125000000
     0.375000000  0.125000000  0.625000000
     0.875000000  0.125000000  0.625000000
     0.375000000  0.625000000  0.625000000
     0.875000000  0.625000000  0.625000000
     0.125000000  0.375000000  0.125000000
     0.625000000  0.375000000  0.125000000
     0.125000000  0.875000000  0.125000000
     0.625000000  0.875000000  0.125000000
     0.125000000  0.375000000  0.625000000
     0.625000000  0.375000000  0.625000000
     0.125000000  0.875000000  0.625000000
     0.625000000  0.875000000  0.625000000
     0.125000000  0.125000000  0.375000000
     0.625000000  0.125000000  0.375000000
     0.125000000  0.625000000  0.375000000
     0.625000000  0.625000000  0.375000000
     0.125000000  0.125000000  0.875000000
     0.625000000  0.125000000  0.875000000
     0.125000000  0.625000000  0.875000000
     0.625000000  0.625000000  0.875000000

  ion indices of the primitive-cell ions
   primitive index   ion index
                 1           1
                 2           2
                 3           3
                 4           4
                 5           5
                 6           6
                 7           7
                 8           8
                 9           9
                10          10
                11          11
                12          12
                13          13
                14          14
                15          15
                16          16
                17          17
                18          18
                19          19
                20          20
                21          21
                22          22
                23          23
                24          24
                25          25
                26          26
                27          27
                28          28
                29          29
                30          30
                31          31
                32          32
                33          33
                34          34
                35          35
                36          36
                37          37
                38          38
                39          39
                40          40
                41          41
                42          42
                43          43
                44          44
                45          45
                46          46
                47          47
                48          48
                49          49
                50          50
                51          51
                52          52
                53          53
                54          54
                55          55
                56          56
                57          57
                58          58
                59          59
                60          60
                61          61
                62          62
                63          63
                64          64

----------------------------------------------------------------------------------------

 
 
 KPOINTS: KPOINTS created by Atomic Simulation Env

Automatic generation of k-mesh.
 Grid dimensions read from file:
 generate k-points for:    2    2    2

 Generating k-lattice:

  Cartesian coordinates                     Fractional coordinates (reciprocal lattice)
     0.046001778  0.000000000 -0.000000000     0.500000000 -0.000000000  0.000000000
     0.000000000  0.046001778 -0.000000000    -0.000000000  0.500000000  0.000000000
     0.000000000 -0.000000000  0.046001778    -0.000000000  0.000000000  0.500000000

  Length of vectors
     0.046001778  0.046001778  0.046001778

  Shift w.r.t. Gamma in fractional coordinates (k-lattice)
     0.000000000  0.000000000  0.000000000

 
 Subroutine IBZKPT returns following result:
 ===========================================
 
 Found      8 irreducible k-points:
 
 Following reciprocal coordinates:
            Coordinates               Weight
  0.000000  0.000000  0.000000      1.000000
  0.500000  0.000000  0.000000      1.000000
 -0.000000  0.500000  0.000000      1.000000
  0.000000 -0.000000  0.500000      1.000000
  0.500000  0.500000  0.000000      1.000000
  0.000000  0.500000  0.500000      1.000000
  0.500000 -0.000000  0.500000      1.000000
  0.500000  0.500000  0.500000      1.000000
 
 Following cartesian coordinates:
            Coordinates               Weight
  0.000000  0.000000  0.000000      1.000000
  0.046002  0.000000  0.000000      1.000000
  0.000000  0.046002  0.000000      1.000000
  0.000000 -0.000000  0.046002      1.000000
  0.046002  0.046002  0.000000      1.000000
  0.000000  0.046002  0.046002      1.000000
  0.046002  0.000000  0.046002      1.000000
  0.046002  0.046002  0.046002      1.000000
 


--------------------------------------------------------------------------------------------------------




 Dimension of arrays:
   k-points           NKPTS =      8   k-points in BZ     NKDIM =      8   number of bands    NBANDS=    168
   number of dos      NEDOS =    301   number of ions     NIONS =     64
   non local maximal  LDIM  =      4   non local SUM 2l+1 LMDIM =      8
   total plane-waves  NPLWV = 262144
   max r-space proj   IRMAX =      1   max aug-charges    IRDMAX=  54800
   dimension x,y,z NGX =    64 NGY =   64 NGZ =   64
   dimension x,y,z NGXF=   128 NGYF=  128 NGZF=  128
   support grid    NGXF=   256 NGYF=  256 NGZF=  256
   ions per type =              64
   NGX,Y,Z   is equivalent  to a cutoff of   9.79,  9.79,  9.79 a.u.
   NGXF,Y,Z  is equivalent  to a cutoff of  19.58, 19.58, 19.58 a.u.

 SYSTEM =  unknown system                          
 POSCAR =  Si                                      

 Startparameter for this run:
   NWRITE =      2    write-flag & timer
   PREC   = accura    normal or accurate (medium, high low for compatibility)
   ISTART =      0    job   : 0-new  1-cont  2-samecut
   ICHARG =      2    charge: 1-file 2-atom 10-const
   ISPIN  =      1    spin polarized calculation?
   LNONCOLLINEAR =      F non collinear calculations
   LSORBIT =      F    spin-orbit coupling
   INIWAV =      1    electr: 0-lowe 1-rand  2-diag
   LASPH  =      F    aspherical Exc in radial PAW
 Electronic Relaxation 1
   ENCUT  =  318.0 eV  23.37 Ry    4.83 a.u.  15.80 15.80 15.80*2*pi/ulx,y,z
   ENINI  =  318.0     initial cutoff
   ENAUG  =  322.1 eV  augmentation charge cutoff
   NELM   =     60;   NELMIN=  5; NELMDL= -5     # of ELM steps 
   EDIFF  = 0.1E-07   stopping-criterion for ELM
   LREAL  =      F    real-space projection
   NLSPLINE    = F    spline interpolate recip. space projectors
   LCOMPAT=      F    compatible to vasp.4.4
   GGA_COMPAT  = T    GGA compatible to vasp.4.4-vasp.4.6
   LMAXPAW     = -100 max onsite density
   LMAXMIX     =    2 max onsite mixed and CHGCAR
   VOSKOWN=      0    Vosko Wilk Nusair interpolation
   ROPT   =    0.00000
 Ionic relaxation
   EDIFFG = 0.1E-06   stopping-criterion for IOM
   NSW    =      0    number of steps for IOM
   NBLOCK =      1;   KBLOCK =      1    inner block; outer block 
   IBRION =     -1    ionic relax: 0-MD 1-quasi-New 2-CG
   NFREE  =      0    steps in history (QN), initial steepest desc. (CG)
   ISIF   =      2    stress and relaxation
   IWAVPR =     10    prediction:  0-non 1-charg 2-wave 3-comb
   ISYM   =      2    0-nonsym 1-usesym 2-fastsym
   LCORR  =      T    Harris-Foulkes like correction to forces

   POTIM  = 0.5000    time-step for ionic-motion
   TEIN   =    0.0    initial temperature
   TEBEG  =    0.0;   TEEND  =   0.0 temperature during run
   SMASS  =  -3.00    Nose mass-parameter (am)
   estimated Nose-frequenzy (Omega)   =  0.10E-29 period in steps = 0.13E+47 mass=  -0.270E-26a.u.
   SCALEE = 1.0000    scale energy and forces
   NPACO  =    256;   APACO  = 10.0  distance and # of slots for P.C.
   PSTRESS=    0.0 pullay stress

  Mass of Ions in am
   POMASS =  28.09
  Ionic Valenz
   ZVAL   =   4.00
  Atomic Wigner-Seitz radii
   RWIGS  =  -1.00
  virtual crystal weights 
   VCA    =   1.00
   NELECT =     256.0000    total number of electrons
   NUPDOWN=      -1.0000    fix difference up-down

 DOS related values:
   EMIN   =  10.00;   EMAX   =-10.00  energy-range for DOS
   EFERMI =   0.00
   ISMEAR =     0;   SIGMA  =   0.02  broadening in eV -4-tet -1-fermi 0-gaus

 Electronic relaxation 2 (details)
   IALGO  =     38    algorithm
   LDIAG  =      T    sub-space diagonalisation (order eigenvalues)
   LSUBROT=      F    optimize rotation matrix (better conditioning)
   TURBO    =      0    0=normal 1=particle mesh
   IRESTART =      0    0=no restart 2=restart with 2 vectors
   NREBOOT  =      0    no. of reboots
   NMIN     =      0    reboot dimension
   EREF     =   0.00    reference energy to select bands
   IMIX   =      4    mixing-type and parameters
     AMIX     =   0.40;   BMIX     =  1.00
     AMIX_MAG =   1.60;   BMIX_MAG =  1.00
     AMIN     =   0.10
     WC   =   100.;   INIMIX=   1;  MIXPRE=   1;  MAXMIX= -45

 Intra band minimization:
   WEIMIN = 0.0000     energy-eigenvalue tresh-hold
   EBREAK =  0.15E-10  absolut break condition
   DEPER  =   0.30     relativ break condition  

   TIME   =   0.40     timestep for ELM

  volume/ion in A,a.u.               =      20.06       135.40
  Fermi-wavevector in a.u.,A,eV,Ry     =   0.956370  1.807278 12.444490  0.914644
  Thomas-Fermi vector in A             =   2.085292
 
 Write flags
   LWAVE        =      F    write WAVECAR
   LDOWNSAMPLE  =      F    k-point downsampling of WAVECAR
   LCHARG       =      F    write CHGCAR
   LVTOT        =      F    write LOCPOT, total local potential
   LVHAR        =      F    write LOCPOT, Hartree potential only
   LELF         =      F    write electronic localiz. function (ELF)
   LORBIT       =      0    0 simple, 1 ext, 2 COOP (PROOUT), +10 PAW based schemes


 Dipole corrections
   LMONO  =      F    monopole corrections only (constant potential shift)
   LDIPOL =      F    correct potential (dipole corrections)
   IDIPOL =      0    1-x, 2-y, 3-z, 4-all directions 
   EPSILON=  1.0000000 bulk dielectric constant

 Exchange correlation treatment:
   GGA     =    PS    GGA type
   LEXCH   =    14    internal setting for exchange type
   LIBXC   =     F    Libxc                    
   VOSKOWN =     0    Vosko Wilk Nusair interpolation
   LHFCALC =     F    Hartree Fock is set to
   LHFONE  =     F    Hartree Fock one center treatment
   AEXX    =    0.0000 exact exchange contribution

 Linear response parameters
   LEPSILON=     F    determine dielectric tensor
   LRPA    =     F    only Hartree local field effects (RPA)
   LNABLA  =     F    use nabla operator in PAW spheres
   LVEL    =     F    velocity operator in full k-point grid
   CSHIFT  =0.1000    complex shift for real part using Kramers Kronig
   OMEGAMAX=  -1.0    maximum frequency
   DEG_THRESHOLD= 0.2000000E-02 threshold for treating states as degnerate
   RTIME   =   -0.100 relaxation time in fs
  (WPLASMAI=    0.000 imaginary part of plasma frequency in eV, 0.658/RTIME)
   DFIELD  = 0.0000000 0.0000000 0.0000000 field for delta impulse in time
 
  Optional k-point grid parameters
   LKPOINTS_OPT  =     F    use optional k-point grid
   KPOINTS_OPT_MODE=     1    mode for optional k-point grid
 
 Orbital magnetization related:
   ORBITALMAG=     F  switch on orbital magnetization
   LCHIMAG   =     F  perturbation theory with respect to B field
   DQ        =  0.001000  dq finite difference perturbation B field
   LLRAUG    =     F  two centre corrections for induced B field



--------------------------------------------------------------------------------------------------------


 Static calculation
 charge density and potential will be updated during run
 non-spin polarized calculation
 Variant of blocked Davidson
 Davidson routine will perform the subspace rotation
 perform sub-space diagonalisation
    after iterative eigenvector-optimisation
 modified Broyden-mixing scheme, WC =      100.0
 initial mixing is a Kerker type mixing with AMIX =  0.4000 and BMIX =      1.0000
 Hartree-type preconditioning will be used
 using additional bands           40
 reciprocal scheme for non local part
 use partial core corrections
 calculate Harris-corrections to forces 
   (improved forces if not selfconsistent)
 use gradient corrections 
 use of overlap-Matrix (Vanderbilt PP)
 Gauss-broadening in eV      SIGMA  =   0.02


--------------------------------------------------------------------------------------------------------


  energy-cutoff  :      318.00
  volume of cell :     1284.06
      direct lattice vectors                 reciprocal lattice vectors
    10.869145120 -0.000000000 -0.000000000     0.092003556  0.000000000 -0.000000000
    -0.000000000 10.869145120  0.000000000     0.000000000  0.092003556 -0.000000000
     0.000000000  0.000000000 10.869145120     0.000000000 -0.000000000  0.092003556

  length of vectors
    10.869145120 10.869145120 10.869145120     0.092003556  0.092003556  0.092003556


 
 k-points in units of 2pi/SCALE and weight: KPOINTS created by Atomic Simulation Env
   0.00000000  0.00000000  0.00000000       0.125
   0.04600178  0.00000000  0.00000000       0.125
   0.00000000  0.04600178  0.00000000       0.125
   0.00000000 -0.00000000  0.04600178       0.125
   0.04600178  0.04600178  0.00000000       0.125
   0.00000000  0.04600178  0.04600178       0.125
   0.04600178  0.00000000  0.04600178       0.125
   0.04600178  0.04600178  0.04600178       0.125
 
 k-points in reciprocal lattice and weights: KPOINTS created by Atomic Simulation Env
   0.00000000  0.00000000  0.00000000       0.125
   0.50000000  0.00000000  0.00000000       0.125
  -0.00000000  0.50000000  0.00000000       0.125
   0.00000000 -0.00000000  0.50000000       0.125
   0.50000000  0.50000000  0.00000000       0.125
   0.00000000  0.50000000  0.50000000       0.125
   0.50000000 -0.00000000  0.50000000       0.125
   0.50000000  0.50000000  0.50000000       0.125
 
 position of ions in fractional coordinates (direct lattice) 
   0.25092004  0.25000000  0.25000000
   0.75000000  0.25000000  0.25000000
   0.25000000  0.75000000  0.25000000
   0.75000000  0.75000000  0.25000000
   0.25000000  0.25000000  0.75000000
   0.75000000  0.25000000  0.75000000
   0.25000000  0.75000000  0.75000000
   0.75000000  0.75000000  0.75000000
   0.25000000  0.00000000  0.00000000
   0.75000000  0.00000000  0.00000000
   0.25000000  0.50000000  0.00000000
   0.75000000  0.50000000  0.00000000
   0.25000000  0.00000000  0.50000000
   0.75000000  0.00000000  0.50000000
   0.25000000  0.50000000  0.50000000
   0.75000000  0.50000000  0.50000000
   0.00092004  0.25000000  0.00000000
   0.50000000  0.25000000  0.00000000
   0.00000000  0.75000000  0.00000000
   0.50000000  0.75000000  0.00000000
   0.00000000  0.25000000  0.50000000
   0.50000000  0.25000000  0.50000000
   0.00000000  0.75000000  0.50000000
   0.50000000  0.75000000  0.50000000
   0.00000000  0.00000000  0.25000000
   0.50000000  0.00000000  0.25000000
   0.00000000  0.50000000  0.25000000
   0.50000000  0.50000000  0.25000000
   0.00000000  0.00000000  0.75000000
   0.50000000  0.00000000  0.75000000
   0.00000000  0.50000000  0.75000000
   0.50000000  0.50000000  0.75000000
   0.37500000  0.37500000  0.37500000
   0.87500000  0.37500000  0.37500000
   0.37500000  0.87500000  0.37500000
   0.87500000  0.87500000  0.37500000
   0.37500000  0.37500000  0.87500000
   0.87500000  0.37500000  0.87500000
   0.37500000  0.87500000  0.87500000
   0.87500000  0.87500000  0.87500000
   0.37500000  0.12500000  0.12500000
   0.87500000  0.12500000  0.12500000
   0.37500000  0.62500000  0.12500000
   0.87500000  0.62500000  0.12500000
   0.37500000  0.12500000  0.62500000
   0.87500000  0.12500000  0.62500000
   0.37500000  0.62500000  0.62500000
   0.87500000  0.62500000  0.62500000
   0.12500000  0.37500000  0.12500000
   0.62500000  0.37500000  0.12500000
   0.12500000  0.87500000  0.12500000
   0.62500000  0.87500000  0.12500000
   0.12500000  0.37500000  0.62500000
   0.62500000  0.37500000  0.62500000
   0.12500000  0.87500000  0.62500000
   0.62500000  0.87500000  0.62500000
   0.12500000  0.12500000  0.37500000
   0.62500000  0.12500000  0.37500000
   0.12500000  0.62500000  0.37500000
   0.62500000  0.62500000  0.37500000
   0.12500000  0.12500000  0.87500000
   0.62500000  0.12500000  0.87500000
   0.12500000  0.62500000  0.87500000
   0.62500000  0.62500000  0.87500000
 
 position of ions in cartesian coordinates  (Angst):
   2.72728628  2.71728628  2.71728628
   8.15185884  2.71728628  2.71728628
   2.71728628  8.15185884  2.71728628
   8.15185884  8.15185884  2.71728628
   2.71728628  2.71728628  8.15185884
   8.15185884  2.71728628  8.15185884
   2.71728628  8.15185884  8.15185884
   8.15185884  8.15185884  8.15185884
   2.71728628 -0.00000000 -0.00000000
   8.15185884 -0.00000000 -0.00000000
   2.71728628  5.43457256  0.00000000
   8.15185884  5.43457256 -0.00000000
   2.71728628  0.00000000  5.43457256
   8.15185884 -0.00000000  5.43457256
   2.71728628  5.43457256  5.43457256
   8.15185884  5.43457256  5.43457256
   0.01000000  2.71728628  0.00000000
   5.43457256  2.71728628 -0.00000000
  -0.00000000  8.15185884  0.00000000
   5.43457256  8.15185884  0.00000000
   0.00000000  2.71728628  5.43457256
   5.43457256  2.71728628  5.43457256
  -0.00000000  8.15185884  5.43457256
   5.43457256  8.15185884  5.43457256
   0.00000000  0.00000000  2.71728628
   5.43457256 -0.00000000  2.71728628
  -0.00000000  5.43457256  2.71728628
   5.43457256  5.43457256  2.71728628
   0.00000000  0.00000000  8.15185884
   5.43457256  0.00000000  8.15185884
   0.00000000  5.43457256  8.15185884
   5.43457256  5.43457256  8.15185884
   4.07592942  4.07592942  4.07592942
   9.51050198  4.07592942  4.07592942
   4.07592942  9.51050198  4.07592942
   9.51050198  9.51050198  4.07592942
   4.07592942  4.07592942  9.51050198
   9.51050198  4.07592942  9.51050198
   4.07592942  9.51050198  9.51050198
   9.51050198  9.51050198  9.51050198
   4.07592942  1.35864314  1.35864314
   9.51050198  1.35864314  1.35864314
   4.07592942  6.79321570  1.35864314
   9.51050198  6.79321570  1.35864314
   4.07592942  1.35864314  6.79321570
   9.51050198  1.35864314  6.79321570
   4.07592942  6.79321570  6.79321570
   9.51050198  6.79321570  6.79321570
   1.35864314  4.07592942  1.35864314
   6.79321570  4.07592942  1.35864314
   1.35864314  9.51050198  1.35864314
   6.79321570  9.51050198  1.35864314
   1.35864314  4.07592942  6.79321570
   6.79321570  4.07592942  6.79321570
   1.35864314  9.51050198  6.79321570
   6.79321570  9.51050198  6.79321570
   1.35864314  1.35864314  4.07592942
   6.79321570  1.35864314  4.07592942
   1.35864314  6.79321570  4.07592942
   6.79321570  6.79321570  4.07592942
   1.35864314  1.35864314  9.51050198
   6.79321570  1.35864314  9.51050198
   1.35864314  6.79321570  9.51050198
   6.79321570  6.79321570  9.51050198
 


--------------------------------------------------------------------------------------------------------


 k-point   1 :   0.0000 0.0000 0.0000  plane waves:   16519
 k-point   2 :   0.5000 0.0000 0.0000  plane waves:   16488
 k-point   3 :  -0.0000 0.5000 0.0000  plane waves:   16488
 k-point   4 :   0.0000-0.0000 0.5000  plane waves:   16488
 k-point   5 :   0.5000 0.5000 0.0000  plane waves:   16588
 k-point   6 :   0.0000 0.5000 0.5000  plane waves:   16588
 k-point   7 :   0.5000-0.0000 0.5000  plane waves:   16588
 k-point   8 :   0.5000 0.5000 0.5000  plane waves:   16560

 maximum and minimum number of plane-waves per node :      4165     4106

 maximum number of plane-waves:     16588
 maximum index in each direction: 
   IXMAX=   15   IYMAX=   15   IZMAX=   15
   IXMIN=  -16   IYMIN=  -16   IZMIN=  -16


 parallel 3D FFT for wavefunctions:
    minimum data exchange during FFTs selected (reduces bandwidth)
 parallel 3D FFT for charge:
    minimum data exchange during FFTs selected (reduces bandwidth)


 total amount of memory used by VASP MPI-rank0    65387. kBytes
=======================================================================

   base      :      30000. kBytes
   nonl-proj :       6402. kBytes
   fftplans  :      11573. kBytes
   grid      :       5816. kBytes
   one-center:         49. kBytes
   wavefun   :      11547. kBytes
 
     INWAV:  cpu time      0.0000: real time      0.0000
 Broyden mixing: mesh for mixing (old mesh)
   NGX = 31   NGY = 31   NGZ = 31
  (NGX  =128   NGY  =128   NGZ  =128)
  gives a total of  29791 points

 initial charge density was supplied:
 charge density of overlapping atoms calculated
 number of electron     256.0000000 magnetization 
 keeping initial charge density in first step


--------------------------------------------------------------------------------------------------------


 Maximum index for augmentation-charges         1701 (set IRDMAX)


--------------------------------------------------------------------------------------------------------


 First call to EWALD:  gamma=   0.163
 Maximum number of real-space cells 3x 3x 3
 Maximum number of reciprocal cells 3x 3x 3

    FEWALD:  cpu time      0.0018: real time      0.0018


--------------------------------------- Iteration      1(   1)  ---------------------------------------


    POTLOK:  cpu time      0.0224: real time      0.0227
    SETDIJ:  cpu time      0.0235: real time      0.0236
     EDDAV:  cpu time      2.3004: real time      2.3130
       DOS:  cpu time      0.0008: real time      0.0008
    --------------------------------------------
      LOOP:  cpu time      2.3470: real time      2.3601

 eigenvalue-minimisations  :  2688
 total energy-change (2. order) : 0.4510099E+03  (-0.7260792E+04)
 number of electron     256.0000000 magnetization 
 augmentation part      256.0000000 magnetization 

 Free energy of the ion-electron system (eV)
  ---------------------------------------------------
  alpha Z        PSCENC =       107.38120932
  Ewald energy   TEWEN  =     -7307.87566434
  -Hartree energ DENC   =      -353.25066896
  -exchange      EXHF   =         0.00000000
  -V(xc)+E(xc)   XCENC  =      -558.85371220
  PAW double counting   =      5598.62625415    -4492.17844134
  entropy T*S    EENTRO =        -0.00329409
  eigenvalues    EBANDS =       892.39716380
  atomic energy  EATOM  =      6564.76702419
  Solvation  Ediel_sol  =         0.00000000
  ---------------------------------------------------
  free energy    TOTEN  =       451.00987052 eV

  energy without entropy =      451.01316462  energy(sigma->0) =      451.01151757


--------------------------------------------------------------------------------------------------------




--------------------------------------- Iteration      1(   2)  ---------------------------------------


     EDDAV:  cpu time      2.6286: real time      2.6441
       DOS:  cpu time      0.0003: real time      0.0003
    --------------------------------------------
      LOOP:  cpu time      2.6289: real time      2.6443

 eigenvalue-minimisations  :  3232
 total energy-change (2. order) :-0.7730797E+03  (-0.7307797E+03)
 number of electron     256.0000000 magnetization 
 augmentation part      256.0000000 magnetization 

 Free energy of the ion-electron system (eV)
  ---------------------------------------------------
  alpha Z        PSCENC =       107.38120932
  Ewald energy   TEWEN  =     -7307.87566434
  -Hartree energ DENC   =      -353.25066896
  -exchange      EXHF   =         0.00000000
  -V(xc)+E(xc)   XCENC  =      -558.85371220
  PAW double counting   =      5598.62625415    -4492.17844134
  entropy T*S    EENTRO =        -0.00000000
  eigenvalues    EBANDS =       119.31421739
  atomic energy  EATOM  =      6564.76702419
  Solvation  Ediel_sol  =         0.00000000
  ---------------------------------------------------
  free energy    TOTEN  =      -322.06978179 eV

  energy without entropy =     -322.06978179  energy(sigma->0) =     -322.06978179


--------------------------------------------------------------------------------------------------------




--------------------------------------- Iteration      1(   3)  ---------------------------------------


     EDDAV:  cpu time      2.6798: real time      2.6951
       DOS:  cpu time      0.0002: real time      0.0002
    --------------------------------------------
      LOOP:  cpu time      2.6800: real time      2.6954

 eigenvalue-minimisations  :  3304
 total energy-change (2. order) :-0.5134458E+02  (-0.5048291E+02)
 number of electron     256.0000000 magnetization 
 augmentation part      256.0000000 magnetization 

 Free energy of the ion-electron system (eV)
  ---------------------------------------------------
  alpha Z        PSCENC =       107.38120932
  Ewald energy   TEWEN  =     -7307.87566434
  -Hartree energ DENC   =      -353.25066896
  -exchange      EXHF   =         0.00000000
  -V(xc)+E(xc)   XCENC  =      -558.85371220
  PAW double counting   =      5598.62625415    -4492.17844134
  entropy T*S    EENTRO =        -0.00000000
  eigenvalues    EBANDS =        67.96963528
  atomic energy  EATOM  =      6564.76702419
  Solvation  Ediel_sol  =         0.00000000
  ---------------------------------------------------
  free energy    TOTEN  =      -373.41436390 eV

  energy without entropy =     -373.41436390  energy(sigma->0) =     -373.41436390


--------------------------------------------------------------------------------------------------------




--------------------------------------- Iteration      1(   4)  ---------------------------------------


     EDDAV:  cpu time      2.6393: real time      2.6538
       DOS:  cpu time      0.0003: real time      0.0003
    --------------------------------------------
      LOOP:  cpu time      2.6395: real time      2.6540

 eigenvalue-minimisations  :  3240
 total energy-change (2. order) :-0.1185734E+01  (-0.1177653E+01)
 number of electron     256.0000000 magnetization 
 augmentation part      256.0000000 magnetization 

 Free energy of the ion-electron system (eV)
  ---------------------------------------------------
  alpha Z        PSCENC =       107.38120932
  Ewald energy   TEWEN  =     -7307.87566434
  -Hartree energ DENC   =      -353.25066896
  -exchange      EXHF   =         0.00000000
  -V(xc)+E(xc)   XCENC  =      -558.85371220
  PAW double counting   =      5598.62625415    -4492.17844134
  entropy T*S    EENTRO =        -0.00000000
  eigenvalues    EBANDS =        66.78390109
  atomic energy  EATOM  =      6564.76702419
  Solvation  Ediel_sol  =         0.00000000
  ---------------------------------------------------
  free energy    TOTEN  =      -374.60009809 eV

  energy without entropy =     -374.60009809  energy(sigma->0) =     -374.60009809


--------------------------------------------------------------------------------------------------------




--------------------------------------- Iteration      1(   5)  ---------------------------------------


     EDDAV:  cpu time      2.6175: real time      2.6325
       DOS:  cpu time      0.0003: real time      0.0002
    CHARGE:  cpu time      0.0785: real time      0.0789
    MIXING:  cpu time      0.0023: real time      0.0023
    --------------------------------------------
      LOOP:  cpu time      2.6986: real time      2.7140

 eigenvalue-minimisations  :  3192
 total energy-change (2. order) :-0.4052940E-01  (-0.4048127E-01)
 number of electron     255.9999994 magnetization 
 augmentation part      -14.9589783 magnetization 

 Broyden mixing:
  rms(total) = 0.28465E+01    rms(broyden)= 0.28464E+01
  rms(prec ) = 0.31321E+01
  weight for this iteration     100.00

 Free energy of the ion-electron system (eV)
  ---------------------------------------------------
  alpha Z        PSCENC =       107.38120932
  Ewald energy   TEWEN  =     -7307.87566434
  -Hartree energ DENC   =      -353.25066896
  -exchange      EXHF   =         0.00000000
  -V(xc)+E(xc)   XCENC  =      -558.85371220
  PAW double counting   =      5598.62625415    -4492.17844134
  entropy T*S    EENTRO =        -0.00000000
  eigenvalues    EBANDS =        66.74337169
  atomic energy  EATOM  =      6564.76702419
  Solvation  Ediel_sol  =         0.00000000
  ---------------------------------------------------
  free energy    TOTEN  =      -374.64062749 eV

  energy without entropy =     -374.64062749  energy(sigma->0) =     -374.64062749


--------------------------------------------------------------------------------------------------------




--------------------------------------- Iteration      1(   6)  ---------------------------------------


    POTLOK:  cpu time      0.0220: real time      0.0222
    SETDIJ:  cpu time      0.0221: real time      0.0223
     EDDAV:  cpu time      2.5287: real time      2.5433
       DOS:  cpu time      0.0002: real time      0.0002
    CHARGE:  cpu time      0.0780: real time      0.0784
    MIXING:  cpu time      0.0022: real time      0.0022
    --------------------------------------------
      LOOP:  cpu time      2.6533: real time      2.6687

 eigenvalue-minimisations  :  3064
 total energy-change (2. order) : 0.4919000E+01  (-0.2591733E+00)
 number of electron     255.9999994 magnetization 
 augmentation part      -14.7996952 magnetization 

 Broyden mixing:
  rms(total) = 0.17163E+01    rms(broyden)= 0.17163E+01
  rms(prec ) = 0.18755E+01
  weight for this iteration     100.00

 eigenvalues of (default mixing * dielectric matrix)
  average eigenvalue GAMMA=   2.5113
  2.5113

 Free energy of the ion-electron system (eV)
  ---------------------------------------------------
  alpha Z        PSCENC =       107.38120932
  Ewald energy   TEWEN  =     -7307.87566434
  -Hartree energ DENC   =      -399.23489442
  -exchange      EXHF   =         0.00000000
  -V(xc)+E(xc)   XCENC  =      -551.57561647
  PAW double counting   =     12482.45302542   -11379.25080538
  entropy T*S    EENTRO =        -0.00000000
  eigenvalues    EBANDS =       113.61409467
  atomic energy  EATOM  =      6564.76702419
  Solvation  Ediel_sol  =         0.00000000
  ---------------------------------------------------
  free energy    TOTEN  =      -369.72162702 eV

  energy without entropy =     -369.72162702  energy(sigma->0) =     -369.72162702


--------------------------------------------------------------------------------------------------------




--------------------------------------- Iteration      1(   7)  ---------------------------------------


    POTLOK:  cpu time      0.0214: real time      0.0215
    SETDIJ:  cpu time      0.0218: real time      0.0219
     EDDAV:  cpu time      2.5235: real time      2.5374
       DOS:  cpu time      0.0003: real time      0.0003
    CHARGE:  cpu time      0.0782: real time      0.0785
    MIXING:  cpu time      0.0023: real time      0.0023
    --------------------------------------------
      LOOP:  cpu time      2.6474: real time      2.6621

 eigenvalue-minimisations  :  3064
 total energy-change (2. order) : 0.2231226E+01  (-0.5239866E+00)
 number of electron     255.9999994 magnetization 
 augmentation part      -14.5985403 magnetization 

 Broyden mixing:
  rms(total) = 0.99630E-01    rms(broyden)= 0.99629E-01
  rms(prec ) = 0.12390E+00
  weight for this iteration     100.00

 eigenvalues of (default mixing * dielectric matrix)
  average eigenvalue GAMMA=   2.2508
  2.2508  2.2508

 Free energy of the ion-electron system (eV)
  ---------------------------------------------------
  alpha Z        PSCENC =       107.38120932
  Ewald energy   TEWEN  =     -7307.87566434
  -Hartree energ DENC   =      -473.65747230
  -exchange      EXHF   =         0.00000000
  -V(xc)+E(xc)   XCENC  =      -539.13611471
  PAW double counting   =     29123.69300979   -28024.86294183
  entropy T*S    EENTRO =        -0.00000000
  eigenvalues    EBANDS =       182.20054876
  atomic energy  EATOM  =      6564.76702419
  Solvation  Ediel_sol  =         0.00000000
  ---------------------------------------------------
  free energy    TOTEN  =      -367.49040113 eV

  energy without entropy =     -367.49040113  energy(sigma->0) =     -367.49040113


--------------------------------------------------------------------------------------------------------




--------------------------------------- Iteration      1(   8)  ---------------------------------------


    POTLOK:  cpu time      0.0212: real time      0.0213
    SETDIJ:  cpu time      0.0220: real time      0.0221
     EDDAV:  cpu time      2.5323: real time      2.5467
       DOS:  cpu time      0.0003: real time      0.0003
    CHARGE:  cpu time      0.0780: real time      0.0785
    MIXING:  cpu time      0.0024: real time      0.0024
    --------------------------------------------
      LOOP:  cpu time      2.6562: real time      2.6713

 eigenvalue-minimisations  :  3064
 total energy-change (2. order) :-0.7110441E-02  (-0.2832200E-01)
 number of electron     255.9999994 magnetization 
 augmentation part      -14.6403280 magnetization 

 Broyden mixing:
  rms(total) = 0.35215E-01    rms(broyden)= 0.35213E-01
  rms(prec ) = 0.40571E-01
  weight for this iteration     100.00

 eigenvalues of (default mixing * dielectric matrix)
  average eigenvalue GAMMA=   2.4271
  2.8170  2.2321  2.2321

 Free energy of the ion-electron system (eV)
  ---------------------------------------------------
  alpha Z        PSCENC =       107.38120932
  Ewald energy   TEWEN  =     -7307.87566434
  -Hartree energ DENC   =      -466.68413312
  -exchange      EXHF   =         0.00000000
  -V(xc)+E(xc)   XCENC  =      -539.74382142
  PAW double counting   =     28621.66604817   -27522.03493684
  entropy T*S    EENTRO =        -0.00000000
  eigenvalues    EBANDS =       175.02676247
  atomic energy  EATOM  =      6564.76702419
  Solvation  Ediel_sol  =         0.00000000
  ---------------------------------------------------
  free energy    TOTEN  =      -367.49751157 eV

  energy without entropy =     -367.49751157  energy(sigma->0) =     -367.49751157


--------------------------------------------------------------------------------------------------------




--------------------------------------- Iteration      1(   9)  ---------------------------------------


    POTLOK:  cpu time      0.0218: real time      0.0220
    SETDIJ:  cpu time      0.0220: real time      0.0222
     EDDAV:  cpu time      2.6731: real time      2.6885
       DOS:  cpu time      0.0002: real time      0.0003
    CHARGE:  cpu time      0.0786: real time      0.0790
    MIXING:  cpu time      0.0024: real time      0.0024
    --------------------------------------------
      LOOP:  cpu time      2.7983: real time      2.8144

 eigenvalue-minimisations  :  3296
 total energy-change (2. order) :-0.1481646E-02  (-0.7258789E-03)
 number of electron     255.9999994 magnetization 
 augmentation part      -14.6409793 magnetization 

 Broyden mixing:
  rms(total) = 0.31008E-01    rms(broyden)= 0.31008E-01
  rms(prec ) = 0.32111E-01
  weight for this iteration     100.00

 eigenvalues of (default mixing * dielectric matrix)
  average eigenvalue GAMMA=   2.3728
  3.8669  2.3819  2.3819  0.8608

 Free energy of the ion-electron system (eV)
  ---------------------------------------------------
  alpha Z        PSCENC =       107.38120932
  Ewald energy   TEWEN  =     -7307.87566434
  -Hartree energ DENC   =      -468.63944812
  -exchange      EXHF   =         0.00000000
  -V(xc)+E(xc)   XCENC  =      -539.41450233
  PAW double counting   =     28768.33359149   -27668.80670964
  entropy T*S    EENTRO =        -0.00000000
  eigenvalues    EBANDS =       176.75550621
  atomic energy  EATOM  =      6564.76702419
  Solvation  Ediel_sol  =         0.00000000
  ---------------------------------------------------
  free energy    TOTEN  =      -367.49899321 eV

  energy without entropy =     -367.49899321  energy(sigma->0) =     -367.49899321


--------------------------------------------------------------------------------------------------------




--------------------------------------- Iteration      1(  10)  ---------------------------------------


    POTLOK:  cpu time      0.0210: real time      0.0213
    SETDIJ:  cpu time      0.0220: real time      0.0221
     EDDAV:  cpu time      2.4872: real time      2.5012
       DOS:  cpu time      0.0003: real time      0.0003
    CHARGE:  cpu time      0.0781: real time      0.0785
    MIXING:  cpu time      0.0021: real time      0.0021
    --------------------------------------------
      LOOP:  cpu time      2.6107: real time      2.6254

 eigenvalue-minimisations  :  3000
 total energy-change (2. order) :-0.8546651E-03  (-0.2090874E-03)
 number of electron     255.9999994 magnetization 
 augmentation part      -14.6429496 magnetization 

 Broyden mixing:
  rms(total) = 0.22947E-01    rms(broyden)= 0.22947E-01
  rms(prec ) = 0.23066E-01
  weight for this iteration     100.00

 eigenvalues of (default mixing * dielectric matrix)
  average eigenvalue GAMMA=   1.8667
  2.8620  2.2486  2.2486  0.9873  0.9873

 Free energy of the ion-electron system (eV)
  ---------------------------------------------------
  alpha Z        PSCENC =       107.38120932
  Ewald energy   TEWEN  =     -7307.87566434
  -Hartree energ DENC   =      -468.87760174
  -exchange      EXHF   =         0.00000000
  -V(xc)+E(xc)   XCENC  =      -539.34052471
  PAW double counting   =     28252.93948654   -27153.38143944
  entropy T*S    EENTRO =        -0.00000000
  eigenvalues    EBANDS =       176.88766229
  atomic energy  EATOM  =      6564.76702419
  Solvation  Ediel_sol  =         0.00000000
  ---------------------------------------------------
  free energy    TOTEN  =      -367.49984788 eV

  energy without entropy =     -367.49984788  energy(sigma->0) =     -367.49984788


--------------------------------------------------------------------------------------------------------




--------------------------------------- Iteration      1(  11)  ---------------------------------------


    POTLOK:  cpu time      0.0210: real time      0.0212
    SETDIJ:  cpu time      0.0216: real time      0.0220
     EDDAV:  cpu time      2.5247: real time      2.5387
       DOS:  cpu time      0.0003: real time      0.0003
    CHARGE:  cpu time      0.0787: real time      0.0791
    MIXING:  cpu time      0.0021: real time      0.0021
    --------------------------------------------
      LOOP:  cpu time      2.6484: real time      2.6634

 eigenvalue-minimisations  :  3080
 total energy-change (2. order) :-0.3905209E-04  (-0.8865593E-05)
 number of electron     255.9999994 magnetization 
 augmentation part      -14.6438059 magnetization 

 Broyden mixing:
  rms(total) = 0.87401E-03    rms(broyden)= 0.87400E-03
  rms(prec ) = 0.97025E-03
  weight for this iteration     100.00

 eigenvalues of (default mixing * dielectric matrix)
  average eigenvalue GAMMA=   1.7469
  2.8869  2.2518  2.2518  1.1680  1.1680  0.7549

 Free energy of the ion-electron system (eV)
  ---------------------------------------------------
  alpha Z        PSCENC =       107.38120932
  Ewald energy   TEWEN  =     -7307.87566434
  -Hartree energ DENC   =      -468.75112112
  -exchange      EXHF   =         0.00000000
  -V(xc)+E(xc)   XCENC  =      -539.35262585
  PAW double counting   =     28479.67584112   -27380.10602883
  entropy T*S    EENTRO =        -0.00000000
  eigenvalues    EBANDS =       176.76147858
  atomic energy  EATOM  =      6564.76702419
  Solvation  Ediel_sol  =         0.00000000
  ---------------------------------------------------
  free energy    TOTEN  =      -367.49988693 eV

  energy without entropy =     -367.49988693  energy(sigma->0) =     -367.49988693


--------------------------------------------------------------------------------------------------------




--------------------------------------- Iteration      1(  12)  ---------------------------------------


    POTLOK:  cpu time      0.0215: real time      0.0217
    SETDIJ:  cpu time      0.0219: real time      0.0221
     EDDAV:  cpu time      2.6345: real time      2.6493
       DOS:  cpu time      0.0003: real time      0.0003
    CHARGE:  cpu time      0.0770: real time      0.0774
    MIXING:  cpu time      0.0024: real time      0.0024
    --------------------------------------------
      LOOP:  cpu time      2.7576: real time      2.7731

 eigenvalue-minimisations  :  3248
 total energy-change (2. order) :-0.2232247E-05  (-0.3199454E-06)
 number of electron     255.9999994 magnetization 
 augmentation part      -14.6436983 magnetization 

 Broyden mixing:
  rms(total) = 0.81655E-03    rms(broyden)= 0.81655E-03
  rms(prec ) = 0.84703E-03
  weight for this iteration     100.00

 eigenvalues of (default mixing * dielectric matrix)
  average eigenvalue GAMMA=   1.8555
  3.0132  2.4979  2.4979  2.1983  0.9843  0.8984  0.8984

 Free energy of the ion-electron system (eV)
  ---------------------------------------------------
  alpha Z        PSCENC =       107.38120932
  Ewald energy   TEWEN  =     -7307.87566434
  -Hartree energ DENC   =      -468.78225673
  -exchange      EXHF   =         0.00000000
  -V(xc)+E(xc)   XCENC  =      -539.35107446
  PAW double counting   =     28481.69552475   -27382.12487753
  entropy T*S    EENTRO =        -0.00000000
  eigenvalues    EBANDS =       176.79022564
  atomic energy  EATOM  =      6564.76702419
  Solvation  Ediel_sol  =         0.00000000
  ---------------------------------------------------
  free energy    TOTEN  =      -367.49988916 eV

  energy without entropy =     -367.49988916  energy(sigma->0) =     -367.49988916


--------------------------------------------------------------------------------------------------------




--------------------------------------- Iteration      1(  13)  ---------------------------------------


    POTLOK:  cpu time      0.0215: real time      0.0217
    SETDIJ:  cpu time      0.0216: real time      0.0217
     EDDAV:  cpu time      2.4577: real time      2.4714
       DOS:  cpu time      0.0003: real time      0.0003
    CHARGE:  cpu time      0.0782: real time      0.0788
    MIXING:  cpu time      0.0025: real time      0.0025
    --------------------------------------------
      LOOP:  cpu time      2.5817: real time      2.5963

 eigenvalue-minimisations  :  2968
 total energy-change (2. order) : 0.9663681E-06  (-0.8826935E-07)
 number of electron     255.9999994 magnetization 
 augmentation part      -14.6436550 magnetization 

 Broyden mixing:
  rms(total) = 0.18863E-03    rms(broyden)= 0.18863E-03
  rms(prec ) = 0.19526E-03
  weight for this iteration     100.00

 eigenvalues of (default mixing * dielectric matrix)
  average eigenvalue GAMMA=   1.7763
  3.0644  2.6115  2.3760  2.2091  0.9611  0.9611  1.0137  1.0137

 Free energy of the ion-electron system (eV)
  ---------------------------------------------------
  alpha Z        PSCENC =       107.38120932
  Ewald energy   TEWEN  =     -7307.87566434
  -Hartree energ DENC   =      -468.78656246
  -exchange      EXHF   =         0.00000000
  -V(xc)+E(xc)   XCENC  =      -539.35331012
  PAW double counting   =     28476.48538949   -27376.91228948
  entropy T*S    EENTRO =        -0.00000000
  eigenvalues    EBANDS =       176.79431521
  atomic energy  EATOM  =      6564.76702419
  Solvation  Ediel_sol  =         0.00000000
  ---------------------------------------------------
  free energy    TOTEN  =      -367.49988820 eV

  energy without entropy =     -367.49988820  energy(sigma->0) =     -367.49988820


--------------------------------------------------------------------------------------------------------




--------------------------------------- Iteration      1(  14)  ---------------------------------------


    POTLOK:  cpu time      0.0214: real time      0.0216
    SETDIJ:  cpu time      0.0221: real time      0.0222
     EDDAV:  cpu time      2.1484: real time      2.1605
       DOS:  cpu time      0.0003: real time      0.0003
    CHARGE:  cpu time      0.0788: real time      0.0792
    MIXING:  cpu time      0.0018: real time      0.0018
    --------------------------------------------
      LOOP:  cpu time      2.2728: real time      2.2856

 eigenvalue-minimisations  :  2456
 total energy-change (2. order) : 0.1457011E-06  (-0.2490262E-08)
 number of electron     255.9999994 magnetization 
 augmentation part      -14.6436500 magnetization 

 Broyden mixing:
  rms(total) = 0.49136E-04    rms(broyden)= 0.49136E-04
  rms(prec ) = 0.52098E-04
  weight for this iteration     100.00

 eigenvalues of (default mixing * dielectric matrix)
  average eigenvalue GAMMA=   1.8031
  3.0676  2.5258  2.5258  2.0643  2.0643  1.1543  0.9998  0.9129  0.9129

 Free energy of the ion-electron system (eV)
  ---------------------------------------------------
  alpha Z        PSCENC =       107.38120932
  Ewald energy   TEWEN  =     -7307.87566434
  -Hartree energ DENC   =      -468.78633570
  -exchange      EXHF   =         0.00000000
  -V(xc)+E(xc)   XCENC  =      -539.35373405
  PAW double counting   =     28475.01139377   -27375.43810659
  entropy T*S    EENTRO =        -0.00000000
  eigenvalues    EBANDS =       176.79432535
  atomic energy  EATOM  =      6564.76702419
  Solvation  Ediel_sol  =         0.00000000
  ---------------------------------------------------
  free energy    TOTEN  =      -367.49988805 eV

  energy without entropy =     -367.49988805  energy(sigma->0) =     -367.49988805


--------------------------------------------------------------------------------------------------------




--------------------------------------- Iteration      1(  15)  ---------------------------------------


    POTLOK:  cpu time      0.0210: real time      0.0212
    SETDIJ:  cpu time      0.0219: real time      0.0220
     EDDAV:  cpu time      1.7829: real time      1.7929
       DOS:  cpu time      0.0003: real time      0.0003
    --------------------------------------------
      LOOP:  cpu time      1.8260: real time      1.8364

 eigenvalue-minimisations  :  1856
 total energy-change (2. order) : 0.5975380E-08  (-0.1300769E-08)
 number of electron     255.9999994 magnetization 
 augmentation part      -14.6436500 magnetization 

 Free energy of the ion-electron system (eV)
  ---------------------------------------------------
  alpha Z        PSCENC =       107.38120932
  Ewald energy   TEWEN  =     -7307.87566434
  -Hartree energ DENC   =      -468.78585396
  -exchange      EXHF   =         0.00000000
  -V(xc)+E(xc)   XCENC  =      -539.35379345
  PAW double counting   =     28474.92905477   -27375.35581510
  entropy T*S    EENTRO =        -0.00000000
  eigenvalues    EBANDS =       176.79395053
  atomic energy  EATOM  =      6564.76702419
  Solvation  Ediel_sol  =         0.00000000
  ---------------------------------------------------
  free energy    TOTEN  =      -367.49988804 eV

  energy without entropy =     -367.49988804  energy(sigma->0) =     -367.49988804


--------------------------------------------------------------------------------------------------------




 average (electrostatic) potential at core
  the test charge radii are     0.9892
  (the norm of the test charge is              1.0000)
       1 -83.0573       2 -83.0574       3 -83.0574       4 -83.0572       5 -83.0572
       6 -83.0574       7 -83.0574       8 -83.0572       9 -83.0594      10 -83.0571
      11 -83.0551      12 -83.0577      13 -83.0553      14 -83.0575      15 -83.0595
      16 -83.0569      17 -83.0574      18 -83.0572      19 -83.0572      20 -83.0574
      21 -83.0574      22 -83.0572      23 -83.0572      24 -83.0574      25 -83.0553
      26 -83.0575      27 -83.0595      28 -83.0569      29 -83.0593      30 -83.0571
      31 -83.0551      32 -83.0577      33 -83.0568      34 -83.0572      35 -83.0572
      36 -83.0562      37 -83.0574      38 -83.0578      39 -83.0584      40 -83.0574
      41 -83.0574      42 -83.0572      43 -83.0568      44 -83.0578      45 -83.0569
      46 -83.0578      47 -83.0588      48 -83.0558      49 -83.0573      50 -83.0573
      51 -83.0573      52 -83.0573      53 -83.0573      54 -83.0573      55 -83.0573
      56 -83.0573      57 -83.0573      58 -83.0579      59 -83.0588      60 -83.0569
      61 -83.0573      62 -83.0567      63 -83.0558      64 -83.0577
 
 
 
 E-fermi :   5.8948     XC(G=0):  -9.5445     alpha+bet :-11.9543

 Fermi energy:         5.8947878821

 k-point     1 :       0.0000    0.0000    0.0000
  band No.  band energies     occupation 
      1      -6.2055      2.00000
      2      -5.1231      2.00000
      3      -5.1225      2.00000
      4      -5.1213      2.00000
      5      -5.1213      2.00000
      6      -5.1200      2.00000
      7      -5.1195      2.00000
      8      -4.1587      2.00000
      9      -4.1584      2.00000
     10      -4.1561      2.00000
     11      -4.1553      2.00000
     12      -4.1552      2.00000
     13      -4.1551      2.00000
     14      -4.1550      2.00000
     15      -4.1549      2.00000
     16      -4.1547      2.00000
     17      -4.1539      2.00000
     18      -4.1517      2.00000
     19      -4.1514      2.00000
     20      -3.8614      2.00000
     21      -3.8613      2.00000
     22      -3.8599      2.00000
     23      -3.8599      2.00000
     24      -2.0552      2.00000
     25      -2.0520      2.00000
     26      -2.0520      2.00000
     27      -2.0519      2.00000
     28      -2.0519      2.00000
     29      -2.0489      2.00000
     30      -1.8881      2.00000
     31      -1.8858      2.00000
     32      -1.8841      2.00000
     33      -1.8832      2.00000
     34      -1.8827      2.00000
     35      -1.8827      2.00000
     36      -1.8827      2.00000
     37      -1.8827      2.00000
     38      -1.8823      2.00000
     39      -1.8813      2.00000
     40      -1.8796      2.00000
     41      -1.8772      2.00000
     42      -1.2362      2.00000
     43      -1.2362      2.00000
     44      -1.2332      2.00000
     45      -1.2332      2.00000
     46       0.2773      2.00000
     47       0.2791      2.00000
     48       0.2794      2.00000
     49       0.2814      2.00000
     50       0.2818      2.00000
     51       0.2818      2.00000
     52       0.2820      2.00000
     53       0.2821      2.00000
     54       0.2825      2.00000
     55       0.2845      2.00000
     56       0.2848      2.00000
     57       0.2866      2.00000
     58       1.8679      2.00000
     59       1.8695      2.00000
     60       1.8705      2.00000
     61       1.8708      2.00000
     62       1.8709      2.00000
     63       1.8711      2.00000
     64       1.8712      2.00000
     65       1.8715      2.00000
     66       1.8716      2.00000
     67       1.8718      2.00000
     68       1.8728      2.00000
     69       1.8743      2.00000
     70       1.9710      2.00000
     71       1.9712      2.00000
     72       1.9720      2.00000
     73       1.9722      2.00000
     74       1.9726      2.00000
     75       1.9732      2.00000
     76       1.9734      2.00000
     77       1.9740      2.00000
     78       1.9744      2.00000
     79       1.9746      2.00000
     80       1.9754      2.00000
     81       1.9757      2.00000
     82       2.2486      2.00000
     83       2.2503      2.00000
     84       2.2514      2.00000
     85       2.2514      2.00000
     86       2.2525      2.00000
     87       2.2542      2.00000
     88       2.9004      2.00000
     89       2.9017      2.00000
     90       2.9017      2.00000
     91       2.9017      2.00000
     92       2.9017      2.00000
     93       2.9030      2.00000
     94       3.8630      2.00000
     95       3.8645      2.00000
     96       3.8662      2.00000
     97       3.8664      2.00000
     98       3.8667      2.00000
     99       3.8667      2.00000
    100       3.8667      2.00000
    101       3.8667      2.00000
    102       3.8670      2.00000
    103       3.8671      2.00000
    104       3.8688      2.00000
    105       3.8703      2.00000
    106       4.4335      2.00000
    107       4.4337      2.00000
    108       4.4358      2.00000
    109       4.4360      2.00000
    110       4.4368      2.00000
    111       4.4370      2.00000
    112       4.4370      2.00000
    113       4.4372      2.00000
    114       4.4380      2.00000
    115       4.4382      2.00000
    116       4.4403      2.00000
    117       4.4404      2.00000
    118       4.5674      2.00000
    119       4.5674      2.00000
    120       4.5692      2.00000
    121       4.5692      2.00000
    122       4.5705      2.00000
    123       4.5705      2.00000
    124       4.5724      2.00000
    125       4.5725      2.00000
    126       5.7690      2.00000
    127       5.7720      2.00000
    128       5.7750      2.00000
    129       6.3641      0.00000
    130       6.3658      0.00000
    131       6.3658      0.00000
    132       6.3658      0.00000
    133       6.3658      0.00000
    134       6.3674      0.00000
    135       6.8060      0.00000
    136       6.8068      0.00000
    137       6.8081      0.00000
    138       6.8081      0.00000
    139       6.8093      0.00000
    140       6.8102      0.00000
    141       7.2316      0.00000
    142       7.2316      0.00000
    143       7.2324      0.00000
    144       7.2324      0.00000
    145       8.1346      0.00000
    146       8.1356      0.00000
    147       8.1358      0.00000
    148       8.1368      0.00000
    149       8.1378      0.00000
    150       8.1378      0.00000
    151       8.1381      0.00000
    152       8.1381      0.00000
    153       8.1390      0.00000
    154       8.1400      0.00000
    155       8.1402      0.00000
    156       8.1412      0.00000
    157       8.2872      0.00000
    158       8.2889      0.00000
    159       8.2907      0.00000
    160       8.7963      0.00000
    161       8.7979      0.00000
    162       8.7979      0.00000
    163       8.7979      0.00000
    164       8.7980      0.00000
    165       8.7996      0.00000
    166       9.0497      0.00000
    167       9.0503      0.00000
    168       9.0520      0.00000

 k-point     2 :       0.5000    0.0000    0.0000
  band No.  band energies     occupation 
      1      -5.9330      2.00000
      2      -5.9311      2.00000
      3      -4.8754      2.00000
      4      -4.8745      2.00000
      5      -4.8733      2.00000
      6      -4.8728      2.00000
      7      -4.8726      2.00000
      8      -4.8722      2.00000
      9      -4.8710      2.00000
     10      -4.8701      2.00000
     11      -4.0249      2.00000
     12      -4.0240      2.00000
     13      -4.0235      2.00000
     14      -4.0228      2.00000
     15      -4.0226      2.00000
     16      -4.0219      2.00000
     17      -4.0214      2.00000
     18      -4.0205      2.00000
     19      -3.8072      2.00000
     20      -3.8040      2.00000
     21      -3.0809      2.00000
     22      -3.0790      2.00000
     23      -3.0767      2.00000
     24      -3.0765      2.00000
     25      -3.0763      2.00000
     26      -3.0761      2.00000
     27      -3.0738      2.00000
     28      -3.0719      2.00000
     29      -1.9737      2.00000
     30      -1.9718      2.00000
     31      -1.9718      2.00000
     32      -1.9715      2.00000
     33      -1.9714      2.00000
     34      -1.9712      2.00000
     35      -1.9712      2.00000
     36      -1.9693      2.00000
     37      -0.8062      2.00000
     38      -0.8048      2.00000
     39      -0.8042      2.00000
     40      -0.8030      2.00000
     41      -0.8030      2.00000
     42      -0.8018      2.00000
     43      -0.8012      2.00000
     44      -0.7999      2.00000
     45      -0.6375      2.00000
     46      -0.6359      2.00000
     47      -0.6352      2.00000
     48      -0.6344      2.00000
     49      -0.6335      2.00000
     50      -0.6328      2.00000
     51      -0.6320      2.00000
     52      -0.6303      2.00000
     53       0.0223      2.00000
     54       0.0243      2.00000
     55       1.4704      2.00000
     56       1.4725      2.00000
     57       1.4730      2.00000
     58       1.4742      2.00000
     59       1.4744      2.00000
     60       1.4754      2.00000
     61       1.4759      2.00000
     62       1.4778      2.00000
     63       1.4910      2.00000
     64       1.4920      2.00000
     65       1.4929      2.00000
     66       1.4932      2.00000
     67       1.4935      2.00000
     68       1.4938      2.00000
     69       1.4948      2.00000
     70       1.4958      2.00000
     71       2.3171      2.00000
     72       2.3175      2.00000
     73       2.3176      2.00000
     74       2.3176      2.00000
     75       2.3185      2.00000
     76       2.3185      2.00000
     77       2.3186      2.00000
     78       2.3190      2.00000
     79       3.0217      2.00000
     80       3.0232      2.00000
     81       3.0242      2.00000
     82       3.0246      2.00000
     83       3.0250      2.00000
     84       3.0254      2.00000
     85       3.0264      2.00000
     86       3.0279      2.00000
     87       3.1455      2.00000
     88       3.1479      2.00000
     89       3.1483      2.00000
     90       3.1502      2.00000
     91       3.1568      2.00000
     92       3.1577      2.00000
     93       3.1586      2.00000
     94       3.1590      2.00000
     95       3.1595      2.00000
     96       3.1598      2.00000
     97       3.1608      2.00000
     98       3.1619      2.00000
     99       3.2842      2.00000
    100       3.2844      2.00000
    101       3.2854      2.00000
    102       3.2856      2.00000
    103       3.2859      2.00000
    104       3.2861      2.00000
    105       3.2872      2.00000
    106       3.2874      2.00000
    107       4.3303      2.00000
    108       4.3308      2.00000
    109       4.3313      2.00000
    110       4.3317      2.00000
    111       4.3319      2.00000
    112       4.3324      2.00000
    113       4.3328      2.00000
    114       4.3333      2.00000
    115       4.4329      2.00000
    116       4.4330      2.00000
    117       4.4965      2.00000
    118       4.4973      2.00000
    119       4.5002      2.00000
    120       4.5008      2.00000
    121       4.5009      2.00000
    122       4.5016      2.00000
    123       4.5045      2.00000
    124       4.5052      2.00000
    125       4.9513      2.00000
    126       4.9551      2.00000
    127       4.9553      2.00000
    128       4.9592      2.00000
    129       6.2787      0.00000
    130       6.2807      0.00000
    131       7.1931      0.00000
    132       7.1948      0.00000
    133       7.6442      0.00000
    134       7.6445      0.00000
    135       7.6449      0.00000
    136       7.6449      0.00000
    137       7.6468      0.00000
    138       7.6468      0.00000
    139       7.6472      0.00000
    140       7.6475      0.00000
    141       7.7137      0.00000
    142       7.7145      0.00000
    143       8.0571      0.00000
    144       8.0578      0.00000
    145       8.0591      0.00000
    146       8.0596      0.00000
    147       8.0599      0.00000
    148       8.0604      0.00000
    149       8.0615      0.00000
    150       8.0623      0.00000
    151       8.1429      0.00000
    152       8.1444      0.00000
    153       8.1452      0.00000
    154       8.1456      0.00000
    155       8.1457      0.00000
    156       8.1461      0.00000
    157       8.1469      0.00000
    158       8.1483      0.00000
    159       8.5502      0.00000
    160       8.5512      0.00000
    161       8.5520      0.00000
    162       8.5524      0.00000
    163       8.5532      0.00000
    164       8.5536      0.00000
    165       8.5544      0.00000
    166       8.5554      0.00000
    167       9.3199      0.00000
    168       9.3251      0.00000

 k-point     3 :      -0.0000    0.5000    0.0000
  band No.  band energies     occupation 
      1      -5.9320      2.00000
      2      -5.9320      2.00000
      3      -4.8750      2.00000
      4      -4.8750      2.00000
      5      -4.8729      2.00000
      6      -4.8729      2.00000
      7      -4.8725      2.00000
      8      -4.8725      2.00000
      9      -4.8705      2.00000
     10      -4.8705      2.00000
     11      -4.0246      2.00000
     12      -4.0246      2.00000
     13      -4.0227      2.00000
     14      -4.0227      2.00000
     15      -4.0227      2.00000
     16      -4.0227      2.00000
     17      -4.0208      2.00000
     18      -4.0208      2.00000
     19      -3.8057      2.00000
     20      -3.8057      2.00000
     21      -3.0782      2.00000
     22      -3.0782      2.00000
     23      -3.0766      2.00000
     24      -3.0766      2.00000
     25      -3.0762      2.00000
     26      -3.0762      2.00000
     27      -3.0746      2.00000
     28      -3.0746      2.00000
     29      -1.9776      2.00000
     30      -1.9716      2.00000
     31      -1.9715      2.00000
     32      -1.9715      2.00000
     33      -1.9715      2.00000
     34      -1.9714      2.00000
     35      -1.9714      2.00000
     36      -1.9653      2.00000
     37      -0.8060      2.00000
     38      -0.8060      2.00000
     39      -0.8031      2.00000
     40      -0.8031      2.00000
     41      -0.8030      2.00000
     42      -0.8029      2.00000
     43      -0.8001      2.00000
     44      -0.8000      2.00000
     45      -0.6369      2.00000
     46      -0.6368      2.00000
     47      -0.6343      2.00000
     48      -0.6343      2.00000
     49      -0.6337      2.00000
     50      -0.6337      2.00000
     51      -0.6310      2.00000
     52      -0.6310      2.00000
     53       0.0232      2.00000
     54       0.0232      2.00000
     55       1.4716      2.00000
     56       1.4716      2.00000
     57       1.4742      2.00000
     58       1.4742      2.00000
     59       1.4744      2.00000
     60       1.4744      2.00000
     61       1.4768      2.00000
     62       1.4768      2.00000
     63       1.4920      2.00000
     64       1.4920      2.00000
     65       1.4933      2.00000
     66       1.4933      2.00000
     67       1.4934      2.00000
     68       1.4934      2.00000
     69       1.4947      2.00000
     70       1.4947      2.00000
     71       2.3158      2.00000
     72       2.3163      2.00000
     73       2.3179      2.00000
     74       2.3180      2.00000
     75       2.3181      2.00000
     76       2.3182      2.00000
     77       2.3198      2.00000
     78       2.3203      2.00000
     79       3.0238      2.00000
     80       3.0238      2.00000
     81       3.0244      2.00000
     82       3.0244      2.00000
     83       3.0253      2.00000
     84       3.0253      2.00000
     85       3.0258      2.00000
     86       3.0258      2.00000
     87       3.1478      2.00000
     88       3.1480      2.00000
     89       3.1481      2.00000
     90       3.1481      2.00000
     91       3.1573      2.00000
     92       3.1574      2.00000
     93       3.1589      2.00000
     94       3.1589      2.00000
     95       3.1595      2.00000
     96       3.1595      2.00000
     97       3.1611      2.00000
     98       3.1611      2.00000
     99       3.2840      2.00000
    100       3.2841      2.00000
    101       3.2849      2.00000
    102       3.2849      2.00000
    103       3.2866      2.00000
    104       3.2866      2.00000
    105       3.2875      2.00000
    106       3.2875      2.00000
    107       4.3288      2.00000
    108       4.3289      2.00000
    109       4.3312      2.00000
    110       4.3312      2.00000
    111       4.3324      2.00000
    112       4.3324      2.00000
    113       4.3347      2.00000
    114       4.3348      2.00000
    115       4.4328      2.00000
    116       4.4330      2.00000
    117       4.4996      2.00000
[...]
         0         1         2         3         4         5         6         7         8         9
 total charge-density along one line
 
 pseudopotential strength for first ion, spin component:           1
 18.404  25.676  -0.000  -0.000   0.000  -0.000  -0.000   0.000
 25.676  35.825  -0.000  -0.000   0.000  -0.000  -0.000   0.001
 -0.000  -0.000   4.177   0.000  -0.000   7.782   0.000  -0.000
 -0.000  -0.000   0.000   4.177   0.000   0.000   7.782   0.000
  0.000   0.000  -0.000   0.000   4.177  -0.000   0.000   7.782
 -0.000  -0.000   7.782   0.000  -0.000  14.509   0.000  -0.000
 -0.000  -0.000   0.000   7.782   0.000   0.000  14.509   0.000
  0.000   0.001  -0.000   0.000   7.782  -0.000   0.000  14.509
 total augmentation occupancy for first ion, spin component:           1
  5.948  -2.288  -0.000  -0.000   0.019   0.000   0.000  -0.006
 -2.288   0.989   0.000  -0.000  -0.009  -0.000  -0.000   0.003
 -0.000   0.000   3.001   0.022  -0.000  -0.682  -0.006  -0.000
 -0.000  -0.000   0.022   3.001  -0.000  -0.006  -0.681   0.000
  0.019  -0.009  -0.000  -0.000   3.000   0.000   0.000  -0.681
  0.000  -0.000  -0.682  -0.006   0.000   0.164   0.002  -0.000
  0.000  -0.000  -0.006  -0.681   0.000   0.002   0.164  -0.000
 -0.006   0.003  -0.000   0.000  -0.681  -0.000  -0.000   0.164


------------------------ aborting loop because EDIFF is reached ----------------------------------------


    CHARGE:  cpu time      0.0783: real time      0.0787
    FORLOC:  cpu time      0.0093: real time      0.0093
    FORNL :  cpu time      1.0591: real time      1.0642
    STRESS:  cpu time      2.1521: real time      2.1633
    FORCOR:  cpu time      0.0299: real time      0.0300
    FORHAR:  cpu time      0.0116: real time      0.0116
    MIXING:  cpu time      0.0009: real time      0.0009
    OFIELD:  cpu time      0.0000: real time      0.0000

  FORCE on cell =-STRESS in cart. coord.  units (eV):
  Direction    XX          YY          ZZ          XY          YZ          ZX
  --------------------------------------------------------------------------------------
  Alpha Z   107.38121   107.38121   107.38121
  Ewald   -2435.98592 -2435.96733 -2435.96829    -0.00000     1.56916     0.00029
  Hartree   156.25986   156.26305   156.26265    -0.00000     0.17388     0.00038
  E(xc)    -817.39768  -817.39794  -817.39794    -0.00000    -0.02030    -0.00000
  Local    -931.44671  -931.46758  -931.46621     0.00000    -1.63654    -0.00070
  n-local  2483.02229  2483.02634  2483.02631     0.00000     0.32552     0.00001
  augment  -368.16885  -368.16907  -368.16906    -0.00000    -0.01436    -0.00000
  Kinetic  1806.30915  1806.30829  1806.30831     0.00000    -0.19977     0.00001
  Fock        0.00000     0.00000     0.00000     0.00000     0.00000     0.00000
  -------------------------------------------------------------------------------------
  Total      -0.02665    -0.02303    -0.02304     0.00000     0.19760    -0.00002
  in kB      -0.03325    -0.02874    -0.02874     0.00000     0.24655    -0.00002
  external pressure =       -0.03 kB  Pullay stress =        0.00 kB


 VOLUME and BASIS-vectors are now :
 -----------------------------------------------------------------------------
  energy-cutoff  :      318.00
  volume of cell :     1284.06
      direct lattice vectors                 reciprocal lattice vectors
    10.869145120 -0.000000000 -0.000000000     0.092003556  0.000000000 -0.000000000
    -0.000000000 10.869145120  0.000000000     0.000000000  0.092003556 -0.000000000
     0.000000000  0.000000000 10.869145120     0.000000000 -0.000000000  0.092003556

  length of vectors
    10.869145120 10.869145120 10.869145120     0.092003556  0.092003556  0.092003556


 FORCES acting on ions
    electron-ion (+dipol)            ewald-force                    non-local-force                 convergence-correction
 -----------------------------------------------------------------------------------------------
   0.491E+00 0.171E-02 -.557E-01   -.444E+00 -.118E-13 0.564E-01   -.177E+00 -.738E-03 0.118E-02   0.136E-04 -.633E-05 -.119E-04
   -.909E-01 0.165E-02 0.557E-01   0.912E-01 -.102E-13 -.564E-01   0.174E-02 -.711E-03 -.118E-02   0.939E-05 -.166E-05 0.142E-04
   0.202E-01 0.504E-03 -.606E-02   -.186E-01 -.355E-14 0.467E-02   -.838E-03 -.429E-03 0.799E-03   -.922E-05 0.152E-05 -.331E-05
   -.169E-01 0.502E-03 0.605E-02   0.163E-01 -.107E-13 -.466E-02   0.975E-03 -.438E-03 -.807E-03   0.204E-04 0.121E-04 0.188E-04
   -.911E-02 -.170E-02 0.560E-01   0.101E-01 -.622E-14 -.567E-01   0.140E-02 0.768E-03 -.119E-02   -.224E-04 -.197E-04 0.591E-05
   -.463E-01 -.165E-02 -.557E-01   0.450E-01 -.622E-14 0.564E-01   0.319E-02 0.714E-03 0.118E-02   -.570E-05 -.100E-04 -.966E-05
   -.309E-02 -.506E-03 0.607E-02   -.713E-02 -.622E-14 -.467E-02   0.665E-02 0.429E-03 -.801E-03   -.330E-04 0.463E-06 0.139E-05
   -.769E-02 -.515E-03 -.605E-02   0.850E-02 -.142E-13 0.466E-02   -.277E-03 0.427E-03 0.811E-03   0.233E-04 0.118E-04 -.250E-04
   -.339E-02 0.511E-01 -.669E-02   -.716E-02 -.566E-01 0.106E-03   0.818E-02 0.463E-02 0.655E-02   -.205E-04 0.800E-05 0.340E-04
   -.502E-01 -.556E-01 -.155E-02   0.504E-01 0.563E-01 -.318E-04   0.165E-02 0.118E-02 0.703E-03   -.151E-05 -.253E-04 0.179E-04
   -.334E-02 -.607E-01 0.637E-02   -.716E-02 0.566E-01 0.106E-03   0.814E-02 0.690E-02 -.650E-02   -.341E-04 0.199E-04 0.377E-04
   -.502E-01 0.557E-01 0.159E-02   0.504E-01 -.563E-01 -.318E-04   0.164E-02 -.119E-02 -.719E-03   0.204E-05 0.209E-04 0.310E-04
   0.260E-01 0.108E-01 -.518E-02   -.358E-01 -.456E-02 -.106E-03   0.593E-02 -.654E-02 0.618E-02   -.155E-04 -.161E-04 -.302E-04
   -.208E-01 -.609E-02 -.442E-03   0.216E-01 0.463E-02 0.318E-04   -.564E-03 0.818E-03 0.439E-03   0.474E-05 -.354E-04 -.301E-04
   0.259E-01 -.111E-02 0.550E-02   -.358E-01 0.456E-02 -.106E-03   0.595E-02 -.502E-02 -.622E-02   -.127E-04 0.125E-04 -.425E-04
   -.208E-01 0.594E-02 0.414E-03   0.216E-01 -.463E-02 0.318E-04   -.565E-03 -.811E-03 -.424E-03   0.235E-04 0.308E-04 -.235E-04
   0.491E+00 -.166E-02 -.561E-01   -.444E+00 -.444E-15 0.567E-01   -.177E+00 0.731E-03 0.119E-02   0.103E-04 -.715E-05 0.221E-04
   -.908E-01 -.171E-02 0.560E-01   0.911E-01 0.000E+00 -.567E-01   0.175E-02 0.770E-03 -.120E-02   0.267E-04 -.132E-04 0.421E-04
   0.201E-01 -.504E-03 -.608E-02   -.185E-01 -.577E-14 0.466E-02   -.825E-03 0.435E-03 0.798E-03   -.123E-04 -.679E-05 0.208E-04
   -.168E-01 -.504E-03 0.604E-02   0.162E-01 -.355E-14 -.467E-02   0.962E-03 0.427E-03 -.815E-03   0.277E-04 0.232E-06 0.413E-04
   -.925E-02 0.165E-02 0.557E-01   0.102E-01 -.755E-14 -.564E-01   0.139E-02 -.708E-03 -.117E-02   -.328E-04 -.369E-05 -.295E-04
   -.462E-01 0.173E-02 -.560E-01   0.449E-01 -.400E-14 0.567E-01   0.319E-02 -.755E-03 0.120E-02   0.274E-04 -.197E-04 -.348E-04
   -.316E-02 0.504E-03 0.608E-02   -.706E-02 -.131E-13 -.466E-02   0.666E-02 -.437E-03 -.793E-03   -.446E-04 0.102E-04 -.262E-04
   -.763E-02 0.496E-03 -.605E-02   0.843E-02 0.311E-14 0.467E-02   -.296E-03 -.433E-03 0.807E-03   0.504E-04 0.153E-04 -.286E-04
   -.350E-02 -.510E-01 -.636E-02   -.702E-02 0.565E-01 -.106E-03   0.815E-02 -.455E-02 0.645E-02   -.332E-04 -.336E-04 0.210E-04
   -.501E-01 0.560E-01 -.168E-02   0.502E-01 -.568E-01 0.318E-04   0.165E-02 -.119E-02 0.757E-03   0.213E-04 -.126E-05 0.982E-05
   -.355E-02 0.607E-01 0.663E-02   -.702E-02 -.565E-01 -.106E-03   0.820E-02 -.701E-02 -.654E-02   -.331E-04 0.226E-04 0.407E-05
   -.501E-01 -.562E-01 0.161E-02   0.502E-01 0.568E-01 0.318E-04   0.165E-02 0.118E-02 -.759E-03   0.161E-04 0.117E-04 -.113E-05
   0.259E-01 -.110E-01 -.547E-02   -.357E-01 0.477E-02 0.106E-03   0.596E-02 0.662E-02 0.624E-02   -.225E-04 -.234E-04 -.293E-05
   -.207E-01 0.618E-02 -.385E-03   0.216E-01 -.470E-02 -.318E-04   -.583E-03 -.797E-03 0.430E-03   0.459E-04 -.109E-04 -.146E-04
   0.259E-01 0.135E-02 0.521E-02   -.357E-01 -.477E-02 0.106E-03   0.594E-02 0.493E-02 -.618E-02   -.323E-04 0.383E-04 -.136E-05
   -.207E-01 -.603E-02 0.457E-03   0.216E-01 0.470E-02 -.318E-04   -.581E-03 0.788E-03 -.419E-03   0.381E-04 0.162E-04 -.610E-05
   -.240E-01 -.206E+00 -.211E+00   0.216E-01 0.180E+00 0.184E+00   0.351E-01 0.492E-01 0.503E-01   -.382E-07 -.647E-05 -.277E-04
   -.387E-01 0.225E-01 0.352E-01   0.374E-01 -.234E-01 -.335E-01   0.689E-03 0.771E-03 -.105E-02   -.125E-04 0.148E-04 -.163E-04
   0.554E-02 0.200E-01 -.737E-02   -.743E-02 -.194E-01 0.930E-02   0.119E-02 -.583E-03 -.123E-02   0.140E-04 -.548E-05 -.205E-04
   -.179E-02 -.960E-02 0.457E-02   0.757E-02 0.117E-01 -.723E-02   -.346E-02 -.209E-02 0.316E-02   -.244E-04 -.221E-04 -.706E-06
   -.387E-01 -.227E-01 0.353E-01   0.374E-01 0.235E-01 -.336E-01   0.684E-03 -.774E-03 -.106E-02   0.872E-05 -.342E-05 0.393E-04
   -.261E-01 0.205E+00 -.210E+00   0.234E-01 -.179E+00 0.183E+00   0.351E-01 -.485E-01 0.495E-01   -.754E-05 0.230E-04 0.603E-05
   -.172E-02 0.969E-02 0.461E-02   0.747E-02 -.117E-01 -.724E-02   -.345E-02 0.208E-02 0.312E-02   0.109E-04 -.872E-05 0.239E-04
   0.537E-02 -.200E-01 -.739E-02   -.725E-02 0.194E-01 0.931E-02   0.119E-02 0.601E-03 -.124E-02   -.254E-05 -.213E-04 0.187E-05
   -.604E-01 0.220E+00 0.185E+00   0.590E-01 -.193E+00 -.159E+00   0.338E-01 -.496E-01 -.491E-01   0.756E-05 0.671E-05 0.279E-04
   -.623E-01 -.219E+00 0.184E+00   0.606E-01 0.192E+00 -.159E+00   0.338E-01 0.489E-01 -.483E-01   -.126E-04 -.112E-04 0.320E-04
   -.230E-02 -.267E-01 0.142E-02   0.757E-04 0.248E-01 -.304E-02   0.193E-02 0.170E-02 0.946E-03   -.116E-05 0.206E-04 0.205E-04
   -.249E-02 0.267E-01 0.150E-02   0.270E-03 -.248E-01 -.309E-02   0.193E-02 -.172E-02 0.908E-03   -.423E-05 0.280E-04 0.296E-04
   -.231E-02 0.900E-02 -.898E-02   0.757E-04 -.103E-01 0.862E-02   0.193E-02 0.116E-02 -.159E-03   0.170E-04 -.129E-04 -.342E-04
   -.248E-02 -.894E-02 -.912E-02   0.270E-03 0.103E-01 0.874E-02   0.194E-02 -.118E-02 -.142E-03   -.176E-04 -.324E-04 -.299E-04
   0.613E-02 -.303E-02 0.135E-02   -.391E-04 0.623E-02 0.984E-03   -.419E-02 -.321E-02 -.283E-02   0.148E-04 0.185E-04 -.303E-04
   0.606E-02 0.298E-02 0.132E-02   0.493E-04 -.623E-02 0.102E-02   -.420E-02 0.321E-02 -.284E-02   -.111E-04 0.279E-04 -.269E-04
   -.192E-01 -.992E-03 -.404E+00   0.150E-01 0.875E-03 0.352E+00   0.688E-01 0.711E-03 0.979E-01   -.372E-05 0.951E-05 0.104E-04
   -.104E+00 -.174E-03 0.347E-01   0.105E+00 0.175E-03 -.335E-01   -.118E-02 0.248E-05 -.554E-03   0.141E-04 -.249E-05 0.654E-05
   0.262E-01 -.432E-04 -.105E-01   -.297E-01 0.587E-04 0.134E-01   0.256E-02 0.176E-04 -.211E-02   -.256E-04 -.271E-04 0.111E-04
   -.310E-01 0.858E-04 0.748E-02   0.301E-01 -.626E-04 -.724E-02   0.131E-02 -.693E-05 0.227E-03   0.302E-04 -.192E-04 0.325E-04
   0.262E-01 0.212E-04 0.358E-01   -.297E-01 -.254E-04 -.335E-01   0.256E-02 -.740E-05 -.154E-02   -.325E-04 0.924E-05 -.240E-04
   -.310E-01 -.644E-04 -.176E-01   0.301E-01 0.267E-04 0.162E-01   0.131E-02 0.301E-04 0.188E-02   0.335E-04 0.163E-05 -.258E-04
   0.275E-01 -.126E-05 0.171E-02   -.150E-01 0.174E-04 -.724E-02   -.822E-02 -.589E-05 0.606E-02   -.469E-04 -.945E-05 -.314E-04
   -.153E-01 0.270E-04 -.430E-02   0.150E-01 -.175E-04 0.523E-02   -.177E-03 0.877E-07 -.355E-03   0.463E-04 -.831E-05 -.379E-04
   0.254E-02 -.196E+00 0.184E+00   -.655E-02 0.169E+00 -.159E+00   0.357E-01 0.497E-01 -.478E-01   -.121E-04 -.155E-04 -.132E-04
   -.673E-01 0.138E-01 -.869E-02   0.674E-01 -.132E-01 0.880E-02   0.626E-04 -.403E-03 -.653E-03   0.209E-04 -.283E-04 -.263E-05
   0.268E-01 0.170E-01 0.440E-02   -.223E-01 -.132E-01 -.309E-02   -.282E-02 -.381E-02 -.197E-02   -.359E-04 0.241E-04 -.120E-04
   -.231E-01 -.671E-02 -.162E-02   0.225E-01 0.550E-02 0.102E-02   0.566E-03 0.111E-02 0.808E-04   0.433E-04 0.355E-04 -.812E-05
   0.445E-02 0.197E+00 0.185E+00   -.815E-02 -.170E+00 -.159E+00   0.357E-01 -.504E-01 -.486E-01   -.228E-04 -.157E-04 0.236E-04
   -.672E-01 -.135E-01 -.846E-02   0.672E-01 0.130E-01 0.856E-02   0.683E-04 0.380E-03 -.672E-03   0.157E-04 -.391E-05 0.189E-04
   0.269E-01 -.170E-01 0.434E-02   -.224E-01 0.131E-01 -.305E-02   -.284E-02 0.379E-02 -.199E-02   -.404E-04 0.162E-04 0.371E-04
   -.231E-01 0.659E-02 -.156E-02   0.226E-01 -.542E-02 0.979E-03   0.562E-03 -.112E-02 0.434E-04   0.355E-04 0.184E-04 0.182E-04
 -----------------------------------------------------------------------------------------------
   0.853E-05 0.270E-04 -.140E-05   -.278E-13 0.224E-13 0.544E-13   0.128E-04 -.246E-04 0.466E-05   -.586E-05 -.179E-05 -.159E-05
 
 
 POSITION                                       TOTAL-FORCE (eV/Angst)
 -----------------------------------------------------------------------------------
      2.72729      2.71729      2.71729        -0.130277      0.000962      0.001846
      8.15186      2.71729      2.71729         0.002037      0.000940     -0.001852
      2.71729      8.15186      2.71729         0.000806      0.000077     -0.000601
      8.15186      8.15186      2.71729         0.000375      0.000077      0.000604
      2.71729      2.71729      8.15186         0.002359     -0.000953     -0.001866
      8.15186      2.71729      8.15186         0.001910     -0.000943      0.001852
      2.71729      8.15186      8.15186        -0.003602     -0.000077      0.000602
      8.15186      8.15186      8.15186         0.000553     -0.000077     -0.000604
      2.71729     -0.00000     -0.00000        -0.002401     -0.000914      0.000002
      8.15186     -0.00000     -0.00000         0.001821      0.001929     -0.000864
      2.71729      5.43457      0.00000        -0.002391      0.002803      0.000013
      8.15186      5.43457     -0.00000         0.001827     -0.001774      0.000868
      2.71729      0.00000      5.43457        -0.003939     -0.000339      0.000864
      8.15186     -0.00000      5.43457         0.000291     -0.000681     -0.000001
      2.71729      5.43457      5.43457        -0.003952     -0.001555     -0.000877
      8.15186      5.43457      5.43457         0.000288      0.000528     -0.000001
      0.01000      2.71729      0.00000        -0.130261     -0.000933      0.001874
      5.43457      2.71729     -0.00000         0.002056     -0.000956     -0.001865
     -0.00000      8.15186      0.00000         0.000804     -0.000076     -0.000603
      5.43457      8.15186      0.00000         0.000375     -0.000077      0.000603
      0.00000      2.71729      5.43457         0.002339      0.000941     -0.001853
      5.43457      2.71729      5.43457         0.001925      0.000955      0.001864
     -0.00000      8.15186      5.43457        -0.003603      0.000077      0.000603
      5.43457      8.15186      5.43457         0.000552      0.000078     -0.000603
      0.00000      0.00000      2.71729        -0.002405      0.000911     -0.000003
      5.43457     -0.00000      2.71729         0.001841     -0.001945     -0.000878
     -0.00000      5.43457      2.71729        -0.002413     -0.002811     -0.000011
      5.43457      5.43457      2.71729         0.001838      0.001791      0.000877
      0.00000      0.00000      8.15186        -0.003952      0.000350      0.000876
      5.43457      0.00000      8.15186         0.000288      0.000678     -0.000001
      0.00000      5.43457      8.15186        -0.003939      0.001546     -0.000866
      5.43457      5.43457      8.15186         0.000291     -0.000525      0.000000
      4.07593      4.07593      4.07593         0.032718      0.022747      0.023217
      9.51050      4.07593      4.07593        -0.000600     -0.000068      0.000681
      4.07593      9.51050      4.07593        -0.000693      0.000074      0.000676
      9.51050      9.51050      4.07593         0.002298     -0.000039      0.000504
      4.07593      4.07593      9.51050        -0.000604      0.000067      0.000684
      9.51050      4.07593      9.51050         0.032397     -0.022152      0.022617
      4.07593      9.51050      9.51050         0.002312      0.000039      0.000509
      9.51050      9.51050      9.51050        -0.000689     -0.000068      0.000682
      4.07593      1.35864      1.35864         0.032403     -0.022666     -0.023341
      9.51050      1.35864      1.35864         0.032093      0.022056     -0.022744
      4.07593      6.79322      1.35864        -0.000292     -0.000129     -0.000661
      9.51050      6.79322      1.35864        -0.000292      0.000126     -0.000661
      4.07593      1.35864      6.79322        -0.000291     -0.000152     -0.000559
      9.51050      1.35864      6.79322        -0.000293      0.000159     -0.000551
      4.07593      6.79322      6.79322         0.001911      0.000016     -0.000524
      9.51050      6.79322      6.79322         0.001901     -0.000018     -0.000524
      1.35864      4.07593      1.35864         0.064668      0.000603      0.045407
      6.79322      4.07593      1.35864        -0.000175      0.000001      0.000684
      1.35864      9.51050      1.35864        -0.001027      0.000006      0.000818
      6.79322      9.51050      1.35864         0.000442     -0.000003      0.000508
      1.35864      4.07593      6.79322        -0.001028     -0.000002      0.000681
      6.79322      4.07593      6.79322         0.000444     -0.000006      0.000427
      1.35864      9.51050      6.79322         0.004167      0.000001      0.000506
      6.79322      9.51050      6.79322        -0.000354      0.000001      0.000539
      1.35864      1.35864      4.07593         0.031665      0.021993     -0.022744
      6.79322      1.35864      4.07593         0.000133      0.000090     -0.000553
      1.35864      6.79322      4.07593         0.001576      0.000085     -0.000666
      6.79322      6.79322      4.07593         0.000048     -0.000054     -0.000528
      1.35864      1.35864      9.51050         0.031977     -0.022596     -0.023342
      6.79322      1.35864      9.51050         0.000137     -0.000087     -0.000557
      1.35864      6.79322      9.51050         0.001563     -0.000091     -0.000659
      6.79322      6.79322      9.51050         0.000042      0.000059     -0.000520
 -----------------------------------------------------------------------------------
    total drift:                                0.000015      0.000001      0.000002


--------------------------------------------------------------------------------------------------------



  FREE ENERGIE OF THE ION-ELECTRON SYSTEM (eV)
  ---------------------------------------------------
  free  energy   TOTEN  =      -367.49988804 eV

  energy  without entropy=     -367.49988804  energy(sigma->0) =     -367.49988804
 


--------------------------------------------------------------------------------------------------------


    POTLOK:  cpu time      0.0422: real time      0.0424


--------------------------------------------------------------------------------------------------------


     LOOP+:  cpu time     41.8576: real time     42.0998
    4ORBIT:  cpu time      0.0000: real time      0.0000

 total amount of memory used by VASP MPI-rank0    65387. kBytes
=======================================================================

   base      :      30000. kBytes
   nonl-proj :       6402. kBytes
   fftplans  :      11573. kBytes
   grid      :       5816. kBytes
   one-center:         49. kBytes
   wavefun   :      11547. kBytes
 
  
  
 General timing and accounting informations for this job:
 ========================================================
  
                  Total CPU time used (sec):       43.867
                            User time (sec):       42.775
                          System time (sec):        1.092
                         Elapsed time (sec):       44.282
  
                   Maximum memory used (kb):      227252.
                   Average memory used (kb):          N/A
  
                          Minor page faults:        81310
                          Major page faults:            0
                 Voluntary context switches:          742
