<?xml version="1.0" encoding="ISO-8859-1"?>
<modeling>
 <generator>
  <i name="program" type="string">vasp </i>
  <i name="version" type="string">6.3.2  </i>
  <i name="subversion" type="string">27Jun22 (build Oct 14 2022 12:13:54) complex                          parallel </i>
  <i name="platform" type="string">LinuxIFC </i>
  <i name="date" type="string">2023 04 03 </i>
  <i name="time" type="string">14:44:23 </i>
 </generator>
 <incar>
  <i type="string" name="PREC">Accurate</i>
  <i type="int" name="IALGO">    38</i>
  <i type="logical" name="ADDGRID"> T  </i>
  <i type="int" name="NELMIN">     5</i>
  <i type="int" name="IBRION">    -1</i>
  <i name="EDIFF">      0.00000001</i>
  <i name="ENCUT">    318.00000000</i>
  <i type="logical" name="LREAL"> F  </i>
  <i type="int" name="ISMEAR">     0</i>
  <i name="SIGMA">      0.02000000</i>
  <i type="logical" name="LWAVE"> F  </i>
  <i type="logical" name="LCHARG"> F  </i>
  <i type="string" name="GGA">Ps</i>
 </incar>
 <primitive_cell>
  <structure name="primitive_cell" >
   <crystal>
    <varray name="basis" >
     <v>      10.86914512      -0.00000000      -0.00000000 </v>
     <v>      -0.00000000      10.86914512       0.00000000 </v>
     <v>       0.00000000       0.00000000      10.86914512 </v>
    </varray>
    <i name="volume">   1284.06249692 </i>
    <varray name="rec_basis" >
     <v>       0.09200356       0.00000000      -0.00000000 </v>
     <v>       0.00000000       0.09200356      -0.00000000 </v>
     <v>       0.00000000      -0.00000000       0.09200356 </v>
    </varray>
   </crystal>
   <varray name="positions" >
    <v>       0.25092004       0.25000000       0.25000000 </v>
    <v>       0.75000000       0.25000000       0.25000000 </v>
    <v>       0.25000000       0.75000000       0.25000000 </v>
    <v>       0.75000000       0.75000000       0.25000000 </v>
    <v>       0.25000000       0.25000000       0.75000000 </v>
    <v>       0.75000000       0.25000000       0.75000000 </v>
    <v>       0.25000000       0.75000000       0.75000000 </v>
    <v>       0.75000000       0.75000000       0.75000000 </v>
    <v>       0.25000000       1.00000000       1.00000000 </v>
    <v>       0.75000000       1.00000000       1.00000000 </v>
    <v>       0.25000000       0.50000000       0.00000000 </v>
    <v>       0.75000000       0.50000000       1.00000000 </v>
    <v>       0.25000000       0.00000000       0.50000000 </v>
    <v>       0.75000000       1.00000000       0.50000000 </v>
    <v>       0.25000000       0.50000000       0.50000000 </v>
    <v>       0.75000000       0.50000000       0.50000000 </v>
    <v>       0.00092004       0.25000000       0.00000000 </v>
    <v>       0.50000000       0.25000000       1.00000000 </v>
    <v>       1.00000000       0.75000000       0.00000000 </v>
    <v>       0.50000000       0.75000000       0.00000000 </v>
    <v>       0.00000000       0.25000000       0.50000000 </v>
    <v>       0.50000000       0.25000000       0.50000000 </v>
    <v>       1.00000000       0.75000000       0.50000000 </v>
    <v>       0.50000000       0.75000000       0.50000000 </v>
    <v>       0.00000000       0.00000000       0.25000000 </v>
    <v>       0.50000000       1.00000000       0.25000000 </v>
    <v>       1.00000000       0.50000000       0.25000000 </v>
    <v>       0.50000000       0.50000000       0.25000000 </v>
    <v>       0.00000000       0.00000000       0.75000000 </v>
    <v>       0.50000000       0.00000000       0.75000000 </v>
    <v>       0.00000000       0.50000000       0.75000000 </v>
    <v>       0.50000000       0.50000000       0.75000000 </v>
    <v>       0.37500000       0.37500000       0.37500000 </v>
    <v>       0.87500000       0.37500000       0.37500000 </v>
    <v>       0.37500000       0.87500000       0.37500000 </v>
    <v>       0.87500000       0.87500000       0.37500000 </v>
    <v>       0.37500000       0.37500000       0.87500000 </v>
    <v>       0.87500000       0.37500000       0.87500000 </v>
    <v>       0.37500000       0.87500000       0.87500000 </v>
    <v>       0.87500000       0.87500000       0.87500000 </v>
    <v>       0.37500000       0.12500000       0.12500000 </v>
    <v>       0.87500000       0.12500000       0.12500000 </v>
    <v>       0.37500000       0.62500000       0.12500000 </v>
    <v>       0.87500000       0.62500000       0.12500000 </v>
    <v>       0.37500000       0.12500000       0.62500000 </v>
    <v>       0.87500000       0.12500000       0.62500000 </v>
    <v>       0.37500000       0.62500000       0.62500000 </v>
    <v>       0.87500000       0.62500000       0.62500000 </v>
    <v>       0.12500000       0.37500000       0.12500000 </v>
    <v>       0.62500000       0.37500000       0.12500000 </v>
    <v>       0.12500000       0.87500000       0.12500000 </v>
    <v>       0.62500000       0.87500000       0.12500000 </v>
    <v>       0.12500000       0.37500000       0.62500000 </v>
    <v>       0.62500000       0.37500000       0.62500000 </v>
    <v>       0.12500000       0.87500000       0.62500000 </v>
    <v>       0.62500000       0.87500000       0.62500000 </v>
    <v>       0.12500000       0.12500000       0.37500000 </v>
    <v>       0.62500000       0.12500000       0.37500000 </v>
    <v>       0.12500000       0.62500000       0.37500000 </v>
    <v>       0.62500000       0.62500000       0.37500000 </v>
    <v>       0.12500000       0.12500000       0.87500000 </v>
    <v>       0.62500000       0.12500000       0.87500000 </v>
    <v>       0.12500000       0.62500000       0.87500000 </v>
    <v>       0.62500000       0.62500000       0.87500000 </v>
   </varray>
  </structure>
  <varray name="primitive_index" >
   <v type="int" >        1 </v>
   <v type="int" >        2 </v>
   <v type="int" >        3 </v>
   <v type="int" >        4 </v>
   <v type="int" >        5 </v>
   <v type="int" >        6 </v>
   <v type="int" >        7 </v>
   <v type="int" >        8 </v>
   <v type="int" >        9 </v>
   <v type="int" >       10 </v>
   <v type="int" >       11 </v>
   <v type="int" >       12 </v>
   <v type="int" >       13 </v>
   <v type="int" >       14 </v>
   <v type="int" >       15 </v>
   <v type="int" >       16 </v>
   <v type="int" >       17 </v>
   <v type="int" >       18 </v>
   <v type="int" >       19 </v>
   <v type="int" >       20 </v>
   <v type="int" >       21 </v>
   <v type="int" >       22 </v>
   <v type="int" >       23 </v>
   <v type="int" >       24 </v>
   <v type="int" >       25 </v>
   <v type="int" >       26 </v>
   <v type="int" >       27 </v>
   <v type="int" >       28 </v>
   <v type="int" >       29 </v>
   <v type="int" >       30 </v>
   <v type="int" >       31 </v>
   <v type="int" >       32 </v>
   <v type="int" >       33 </v>
   <v type="int" >       34 </v>
   <v type="int" >       35 </v>
   <v type="int" >       36 </v>
   <v type="int" >       37 </v>
   <v type="int" >       38 </v>
   <v type="int" >       39 </v>
   <v type="int" >       40 </v>
   <v type="int" >       41 </v>
   <v type="int" >       42 </v>
   <v type="int" >       43 </v>
   <v type="int" >       44 </v>
   <v type="int" >       45 </v>
   <v type="int" >       46 </v>
   <v type="int" >       47 </v>
   <v type="int" >       48 </v>
   <v type="int" >       49 </v>
   <v type="int" >       50 </v>
   <v type="int" >       51 </v>
   <v type="int" >       52 </v>
   <v type="int" >       53 </v>
   <v type="int" >       54 </v>
   <v type="int" >       55 </v>
   <v type="int" >       56 </v>
   <v type="int" >       57 </v>
   <v type="int" >       58 </v>
   <v type="int" >       59 </v>
   <v type="int" >       60 </v>
   <v type="int" >       61 </v>
   <v type="int" >       62 </v>
   <v type="int" >       63 </v>
   <v type="int" >       64 </v>
  </varray>
 </primitive_cell>
 <kpoints>
  <generation param="Gamma">
   <v type="int" name="divisions">       2        2        2 </v>
   <v name="usershift">      0.00000000       0.00000000       0.00000000 </v>
   <v name="genvec1">      0.50000000      -0.00000000       0.00000000 </v>
   <v name="genvec2">     -0.00000000       0.50000000       0.00000000 </v>
   <v name="genvec3">     -0.00000000       0.00000000       0.50000000 </v>
   <v name="shift">      0.00000000       0.00000000       0.00000000 </v>
  </generation>
  <varray name="kpointlist" >
   <v>       0.00000000       0.00000000       0.00000000 </v>
   <v>       0.50000000       0.00000000       0.00000000 </v>
   <v>      -0.00000000       0.50000000       0.00000000 </v>
   <v>       0.00000000      -0.00000000       0.50000000 </v>
   <v>       0.50000000       0.50000000       0.00000000 </v>
   <v>       0.00000000       0.50000000       0.50000000 </v>
   <v>       0.50000000      -0.00000000       0.50000000 </v>
   <v>       0.50000000       0.50000000       0.50000000 </v>
  </varray>
  <varray name="weights" >
   <v>       0.12500000 </v>
   <v>       0.12500000 </v>
   <v>       0.12500000 </v>
   <v>       0.12500000 </v>
   <v>       0.12500000 </v>
   <v>       0.12500000 </v>
   <v>       0.12500000 </v>
   <v>       0.12500000 </v>
  </varray>
 </kpoints>
 <parameters>
  <separator name="general" >
   <i type="string" name="SYSTEM">unknown system</i>
   <i type="logical" name="LCOMPAT"> F  </i>
  </separator>
  <separator name="electronic" >
   <i type="string" name="PREC">accura</i>
   <i name="ENMAX">    318.00000000</i>
   <i name="ENAUG">    322.06900000</i>
   <i name="EDIFF">      0.00000001</i>
   <i type="int" name="IALGO">    38</i>
   <i type="int" name="IWAVPR">    10</i>
   <i type="int" name="NBANDS">   168</i>
   <i type="int" name="NBANDSLOW">    -1</i>
   <i type="int" name="NBANDSHIGH">    -1</i>
   <i name="NELECT">    256.00000000</i>
   <i type="int" name="TURBO">     0</i>
   <i type="int" name="IRESTART">     0</i>
   <i type="int" name="NREBOOT">     0</i>
   <i type="int" name="NMIN">     0</i>
   <i name="EREF">      0.00000000</i>
   <separator name="electronic smearing" >
    <i type="int" name="ISMEAR">     0</i>
    <i name="SIGMA">      0.02000000</i>
    <i name="KSPACING">      0.50000000</i>
    <i type="logical" name="KGAMMA"> T  </i>
    <i type="logical" name="KBLOWUP"> T  </i>
   </separator>
   <separator name="electronic projectors" >
    <i type="logical" name="LREAL"> F  </i>
    <v name="ROPT">      0.00000000</v>
    <i type="int" name="LMAXPAW">  -100</i>
    <i type="int" name="LMAXMIX">     2</i>
    <i type="logical" name="NLSPLINE"> F  </i>
   </separator>
   <separator name="electronic startup" >
    <i type="int" name="ISTART">     0</i>
    <i type="int" name="ICHARG">     2</i>
    <i type="int" name="INIWAV">     1</i>
   </separator>
   <separator name="electronic spin" >
    <i type="int" name="ISPIN">     1</i>
    <i type="logical" name="LNONCOLLINEAR"> F  </i>
    <v name="MAGMOM">      1.00000000      1.00000000      1.00000000      1.00000000      1.00000000      1.00000000      1.00000000      1.00000000      1.00000000      1.00000000      1.00000000      1.00000000      1.00000000      1.00000000      1.00000000      1.00000000      1.00000000      1.00000000      1.00000000      1.00000000
      1.00000000      1.00000000      1.00000000      1.00000000      1.00000000      1.00000000      1.00000000      1.00000000      1.00000000      1.00000000      1.00000000      1.00000000      1.00000000      1.00000000      1.00000000      1.00000000      1.00000000      1.00000000      1.00000000      1.00000000
      1.00000000      1.00000000      1.00000000      1.00000000      1.00000000      1.00000000      1.00000000      1.00000000      1.00000000      1.00000000      1.00000000      1.00000000      1.00000000      1.00000000      1.00000000      1.00000000      1.00000000      1.00000000      1.00000000      1.00000000
      1.00000000      1.00000000      1.00000000      1.00000000</v>
    <i name="NUPDOWN">     -1.00000000</i>
    <i type="logical" name="LSORBIT"> F  </i>
    <v name="SAXIS">      0.00000000      0.00000000      1.00000000</v>
    <i type="logical" name="LSPIRAL"> F  </i>
    <v name="QSPIRAL">      0.00000000      0.00000000      0.00000000</v>
    <i type="logical" name="LZEROZ"> F  </i>
   </separator>
   <separator name="electronic exchange-correlation" >
    <i type="logical" name="LASPH"> F  </i>
    <i type="logical" name="LMETAGGA"> F  </i>
   </separator>
   <separator name="electronic convergence" >
    <i type="int" name="NELM">    60</i>
    <i type="int" name="NELMDL">    -5</i>
    <i type="int" name="NELMIN">     5</i>
    <i name="ENINI">    318.00000000</i>
    <separator name="electronic convergence detail" >
     <i type="logical" name="LDIAG"> T  </i>
     <i type="logical" name="LSUBROT"> F  </i>
     <i name="WEIMIN">      0.00000000</i>
     <i name="EBREAK">      0.00000000</i>
     <i name="DEPER">      0.30000000</i>
     <i type="int" name="NRMM">     4</i>
     <i name="TIME">      0.40000000</i>
    </separator>
   </separator>
   <separator name="electronic mixer" >
    <i name="AMIX">      0.40000000</i>
    <i name="BMIX">      1.00000000</i>
    <i name="AMIN">      0.10000000</i>
    <i name="AMIX_MAG">      1.60000000</i>
    <i name="BMIX_MAG">      1.00000000</i>
    <separator name="electronic mixer details" >
     <i type="int" name="IMIX">     4</i>
     <i type="logical" name="MIXFIRST"> F  </i>
     <i type="int" name="MAXMIX">   -45</i>
     <i name="WC">    100.00000000</i>
     <i type="int" name="INIMIX">     1</i>
     <i type="int" name="MIXPRE">     1</i>
     <i type="int" name="MREMOVE">     5</i>
    </separator>
   </separator>
   <separator name="electronic dipolcorrection" >
    <i type="logical" name="LDIPOL"> F  </i>
    <i type="logical" name="LMONO"> F  </i>
    <i type="int" name="IDIPOL">     0</i>
    <i name="EPSILON">      1.00000000</i>
    <v name="DIPOL">   -100.00000000   -100.00000000   -100.00000000</v>
    <i name="EFIELD">      0.00000000</i>
   </separator>
  </separator>
  <separator name="grids" >
   <i type="int" name="NGX">    64</i>
   <i type="int" name="NGY">    64</i>
   <i type="int" name="NGZ">    64</i>
   <i type="int" name="NGXF">   128</i>
   <i type="int" name="NGYF">   128</i>
   <i type="int" name="NGZF">   128</i>
   <i type="logical" name="ADDGRID"> T  </i>
  </separator>
  <separator name="ionic" >
   <i type="int" name="NSW">     0</i>
   <i type="int" name="IBRION">    -1</i>
   <i type="int" name="MDALGO">     0</i>
   <i type="int" name="ISIF">     2</i>
   <i name="PSTRESS">      0.00000000</i>
   <i name="EDIFFG">      0.00000010</i>
   <i type="int" name="NFREE">     0</i>
   <i name="POTIM">      0.50000000</i>
   <i name="SMASS">     -3.00000000</i>
   <i name="SCALEE">      1.00000000</i>
  </separator>
  <separator name="ionic md" >
   <i name="TEBEG">      0.00010000</i>
   <i name="TEEND">      0.00010000</i>
   <i type="int" name="NBLOCK">     1</i>
   <i type="int" name="KBLOCK">     1</i>
   <i type="int" name="NPACO">   256</i>
   <i name="APACO">     10.00000000</i>
  </separator>
  <separator name="symmetry" >
   <i type="int" name="ISYM">     2</i>
   <i name="SYMPREC">      0.00001000</i>
  </separator>
  <separator name="dos" >
   <i type="int" name="LORBIT">     0</i>
   <v name="RWIGS">     -1.00000000</v>
   <i type="int" name="NEDOS">   301</i>
   <i name="EMIN">     10.00000000</i>
   <i name="EMAX">    -10.00000000</i>
   <i name="EFERMI">      0.00000000</i>
  </separator>
  <separator name="writing" >
   <i type="int" name="NWRITE">     2</i>
   <i type="logical" name="LWAVE"> F  </i>
   <i type="logical" name="LDOWNSAMPLE"> F  </i>
   <i type="logical" name="LCHARG"> F  </i>
   <i type="logical" name="LPARD"> F  </i>
   <i type="logical" name="LVTOT"> F  </i>
   <i type="logical" name="LVHAR"> F  </i>
   <i type="logical" name="LELF"> F  </i>
   <i type="logical" name="LOPTICS"> F  </i>
   <v name="STM">      0.00000000      0.00000000      0.00000000      0.00000000      0.00000000      0.00000000      0.00000000</v>
  </separator>
  <separator name="performance" >
   <i type="int" name="NPAR">     8</i>
   <i type="int" name="NSIM">     4</i>
   <i type="int" name="NBLK">    -1</i>
   <i type="logical" name="LPLANE"> T  </i>
   <i type="logical" name="LSCALAPACK"> T  </i>
   <i type="logical" name="LSCAAWARE"> F  </i>
   <i type="logical" name="LSCALU"> F  </i>
   <i type="logical" name="LASYNC"> F  </i>
   <i type="logical" name="LORBITALREAL"> F  </i>
  </separator>
  <separator name="miscellaneous" >
   <i type="int" name="IDIOT">     3</i>
   <i type="int" name="PHON_NSTRUCT">    -1</i>
   <i type="logical" name="LMUSIC"> F  </i>
   <v name="POMASS">     28.08500000</v>
   <v name="DARWINR">      0.00000000</v>
   <v name="DARWINV">      1.00000000</v>
   <i type="logical" name="LCORR"> T  </i>
  </separator>
  <i type="logical" name="GGA_COMPAT"> T  </i>
  <i type="logical" name="LBERRY"> F  </i>
  <i type="int" name="ICORELEVEL">     0</i>
  <i type="logical" name="LDAU"> F  </i>
  <i type="int" name="I_CONSTRAINED_M">     0</i>
  <separator name="electronic exchange-correlation" >
   <i type="string" name="GGA">PS</i>
   <i type="int" name="VOSKOWN">     0</i>
   <i type="logical" name="LHFCALC"> F  </i>
   <i type="string" name="PRECFOCK"></i>
   <i type="logical" name="LSYMGRAD"> F  </i>
   <i type="logical" name="LHFONE"> F  </i>
   <i type="logical" name="LRHFCALC"> F  </i>
   <i type="logical" name="LTHOMAS"> F  </i>
   <i type="logical" name="LMODELHF"> F  </i>
   <i type="logical" name="LFOCKACE"> F  </i>
   <i name="ENCUT4O">     -1.00000000</i>
   <i type="int" name="EXXOEP">     0</i>
   <i type="int" name="FOURORBIT">     0</i>
   <i name="AEXX">      0.00000000</i>
   <i name="HFALPHA">      0.00000000</i>
   <i name="MCALPHA">      0.00000000</i>
   <i name="ALDAX">      1.00000000</i>
   <i name="AGGAX">      1.00000000</i>
   <i name="ALDAC">      1.00000000</i>
   <i name="AGGAC">      1.00000000</i>
   <i type="int" name="NKREDX">     1</i>
   <i type="int" name="NKREDY">     1</i>
   <i type="int" name="NKREDZ">     1</i>
   <i type="logical" name="SHIFTRED"> F  </i>
   <i type="logical" name="ODDONLY"> F  </i>
   <i type="logical" name="EVENONLY"> F  </i>
   <i type="int" name="LMAXFOCK">     0</i>
   <i type="int" name="NMAXFOCKAE">     0</i>
   <i type="logical" name="LFOCKAEDFT"> F  </i>
   <i name="HFSCREEN">      0.00000000</i>
   <i name="HFSCREENC">      0.00000000</i>
   <i type="int" name="NBANDSGWLOW">     0</i>
  </separator>
  <separator name="vdW DFT" >
   <i type="logical" name="LUSE_VDW"> F  </i>
   <i name="Zab_VDW">     -0.84910000</i>
   <i name="PARAM1">      0.12340000</i>
   <i name="PARAM2">      1.00000000</i>
   <i name="PARAM3">      0.00000000</i>
  </separator>
  <separator name="model GW" >
   <i type="int" name="MODEL_GW">     0</i>
   <i name="MODEL_EPS0">     12.03808591</i>
   <i name="MODEL_ALPHA">      1.00000000</i>
  </separator>
  <separator name="linear response parameters" >
   <i type="logical" name="LEPSILON"> F  </i>
   <i type="logical" name="LRPA"> F  </i>
   <i type="logical" name="LNABLA"> F  </i>
   <i type="logical" name="LVEL"> F  </i>
   <i name="CSHIFT">      0.10000000</i>
   <i name="OMEGAMAX">     -1.00000000</i>
   <i name="DEG_THRESHOLD">      0.00200000</i>
   <i name="RTIME">     -0.10000000</i>
   <i name="WPLASMAI">      0.00000000</i>
   <v name="DFIELD">      0.00000000      0.00000000      0.00000000</v>
   <v name="WPLASMA">      0.00000000      0.00000000      0.00000000      0.00000000      0.00000000      0.00000000      0.00000000      0.00000000      0.00000000</v>
  </separator>
  <separator name="orbital magnetization" >
   <i type="logical" name="NUCIND"> F  </i>
   <v name="MAGPOS">      0.00000000      0.00000000      0.00000000</v>
   <i type="logical" name="LNICSALL"> T  </i>
   <i type="logical" name="ORBITALMAG"> F  </i>
   <i type="logical" name="LMAGBLOCH"> F  </i>
   <i type="logical" name="LCHIMAG"> F  </i>
   <i type="logical" name="LGAUGE"> T  </i>
   <i type="int" name="MAGATOM">     0</i>
   <v name="MAGDIPOL">      0.00000000      0.00000000      0.00000000</v>
   <v name="AVECCONST">      0.00000000      0.00000000      0.00000000</v>
  </separator>
  <separator name="response functions" >
   <i type="logical" name="LFINITE_TEMPERATURE"> F  </i>
   <i type="logical" name="LADDER"> F  </i>
   <i type="logical" name="LRPAFORCE"> F  </i>
   <i type="logical" name="LFXC"> F  </i>
   <i type="logical" name="LHARTREE"> T  </i>
   <i type="int" name="IBSE">     0</i>
   <v type="int" name="KPOINT">    -1     0     0     0</v>
   <i type="logical" name="LTCTC"> F  </i>
   <i type="logical" name="LTCTE"> F  </i>
   <i type="logical" name="LTETE"> F  </i>
   <i type="logical" name="LTRIPLET"> F  </i>
   <i type="logical" name="LFXCEPS"> F  </i>
   <i type="logical" name="LFXHEG"> F  </i>
   <i type="int" name="NATURALO">     2</i>
   <i type="logical" name="LHOLEGF"> F  </i>
   <i type="logical" name="L2ORDER"> F  </i>
   <i type="logical" name="LDMP1"> F  </i>
   <i type="logical" name="LMP2LT"> F  </i>
   <i type="logical" name="LSMP2LT"> F  </i>
   <i type="logical" name="LGWLF"> F  </i>
   <i name="ENCUTGW">     -2.00000000</i>
   <i name="ENCUTGWSOFT">     -2.00000000</i>
   <i name="ENCUTLF">     -1.00000000</i>
   <i type="logical" name="LESF_SPLINES"> F  </i>
   <i type="int" name="LMAXMP2">    -1</i>
   <i name="SCISSOR">      0.00000000</i>
   <i type="int" name="NOMEGA">     0</i>
   <i type="int" name="NOMEGAR">     0</i>
   <i type="int" name="NBANDSGW">    -1</i>
   <i type="int" name="NBANDSO">    -1</i>
   <i type="int" name="NBANDSV">    -1</i>
   <i type="int" name="NELMGW">     1</i>
   <i type="int" name="NELMHF">     1</i>
   <i type="int" name="DIM">     3</i>
   <i type="int" name="IESPILON">     4</i>
   <i type="int" name="ANTIRES">     0</i>
   <i name="OMEGAMAX">    -30.00000000</i>
   <i name="OMEGAMIN">    -30.00000000</i>
   <i name="OMEGATL">   -200.00000000</i>
   <i type="int" name="OMEGAGRID">     0</i>
   <i name="CSHIFT">     -0.10000000</i>
   <i type="logical" name="LSELFENERGY"> F  </i>
   <i type="logical" name="LSPECTRAL"> F  </i>
   <i type="logical" name="LSPECTRALGW"> F  </i>
   <i type="logical" name="LSINGLES"> F  </i>
   <i type="logical" name="LFERMIGW"> F  </i>
   <i type="logical" name="ODDONLYGW"> F  </i>
   <i type="logical" name="EVENONLYGW"> F  </i>
   <i type="int" name="NKREDLFX">     1</i>
   <i type="int" name="NKREDLFY">     1</i>
   <i type="int" name="NKREDLFZ">     1</i>
   <i type="int" name="MAXMEM">  2800</i>
   <i type="int" name="TELESCOPE">     0</i>
   <i type="int" name="NTAUPAR">    -1</i>
   <i type="int" name="NOMEGAPAR">    -1</i>
   <i name="DAMP_NEWTON">      0.80000001</i>
   <i name="LAMBDA">      1.00000000</i>
  </separator>
  <separator name="External order field" >
   <i name="OFIELD_KAPPA">      0.00000000</i>
   <v name="OFIELD_K">      0.00000000      0.00000000      0.00000000</v>
   <i name="OFIELD_Q6_NEAR">      0.00000000</i>
   <i name="OFIELD_Q6_FAR">      0.00000000</i>
   <i name="OFIELD_A">      0.00000000</i>
  </separator>
  <separator name="optional k-points parameters" >
   <i type="int" name="KPOINTS_OPT_MODE">     1</i>
   <i type="logical" name="LKPOINTS_OPT"> F  </i>
  </separator>
 </parameters>
 <atominfo>
  <atoms>      64 </atoms>
  <types>       1 </types>
  <array name="atoms" >
   <dimension dim="1">ion</dimension>
   <field type="string">element</field>
   <field type="int">atomtype</field>
   <set>
    <rc><c>Si</c><c>   1</c></rc>
    <rc><c>Si</c><c>   1</c></rc>
    <rc><c>Si</c><c>   1</c></rc>
    <rc><c>Si</c><c>   1</c></rc>
    <rc><c>Si</c><c>   1</c></rc>
    <rc><c>Si</c><c>   1</c></rc>
    <rc><c>Si</c><c>   1</c></rc>
    <rc><c>Si</c><c>   1</c></rc>
    <rc><c>Si</c><c>   1</c></rc>
    <rc><c>Si</c><c>   1</c></rc>
    <rc><c>Si</c><c>   1</c></rc>
    <rc><c>Si</c><c>   1</c></rc>
    <rc><c>Si</c><c>   1</c></rc>
    <rc><c>Si</c><c>   1</c></rc>
    <rc><c>Si</c><c>   1</c></rc>
    <rc><c>Si</c><c>   1</c></rc>
    <rc><c>Si</c><c>   1</c></rc>
    <rc><c>Si</c><c>   1</c></rc>
    <rc><c>Si</c><c>   1</c></rc>
    <rc><c>Si</c><c>   1</c></rc>
    <rc><c>Si</c><c>   1</c></rc>
    <rc><c>Si</c><c>   1</c></rc>
    <rc><c>Si</c><c>   1</c></rc>
    <rc><c>Si</c><c>   1</c></rc>
    <rc><c>Si</c><c>   1</c></rc>
    <rc><c>Si</c><c>   1</c></rc>
    <rc><c>Si</c><c>   1</c></rc>
    <rc><c>Si</c><c>   1</c></rc>
    <rc><c>Si</c><c>   1</c></rc>
    <rc><c>Si</c><c>   1</c></rc>
    <rc><c>Si</c><c>   1</c></rc>
    <rc><c>Si</c><c>   1</c></rc>
    <rc><c>Si</c><c>   1</c></rc>
    <rc><c>Si</c><c>   1</c></rc>
    <rc><c>Si</c><c>   1</c></rc>
    <rc><c>Si</c><c>   1</c></rc>
    <rc><c>Si</c><c>   1</c></rc>
    <rc><c>Si</c><c>   1</c></rc>
    <rc><c>Si</c><c>   1</c></rc>
    <rc><c>Si</c><c>   1</c></rc>
    <rc><c>Si</c><c>   1</c></rc>
    <rc><c>Si</c><c>   1</c></rc>
    <rc><c>Si</c><c>   1</c></rc>
    <rc><c>Si</c><c>   1</c></rc>
    <rc><c>Si</c><c>   1</c></rc>
    <rc><c>Si</c><c>   1</c></rc>
    <rc><c>Si</c><c>   1</c></rc>
    <rc><c>Si</c><c>   1</c></rc>
    <rc><c>Si</c><c>   1</c></rc>
    <rc><c>Si</c><c>   1</c></rc>
    <rc><c>Si</c><c>   1</c></rc>
    <rc><c>Si</c><c>   1</c></rc>
    <rc><c>Si</c><c>   1</c></rc>
    <rc><c>Si</c><c>   1</c></rc>
    <rc><c>Si</c><c>   1</c></rc>
    <rc><c>Si</c><c>   1</c></rc>
    <rc><c>Si</c><c>   1</c></rc>
    <rc><c>Si</c><c>   1</c></rc>
    <rc><c>Si</c><c>   1</c></rc>
    <rc><c>Si</c><c>   1</c></rc>
    <rc><c>Si</c><c>   1</c></rc>
    <rc><c>Si</c><c>   1</c></rc>
    <rc><c>Si</c><c>   1</c></rc>
    <rc><c>Si</c><c>   1</c></rc>
   </set>
  </array>
  <array name="atomtypes" >
   <dimension dim="1">type</dimension>
   <field type="int">atomspertype</field>
   <field type="string">element</field>
   <field>mass</field>
   <field>valence</field>
   <field type="string">pseudopotential</field>
   <set>
    <rc><c>  64</c><c>Si</c><c>     28.08500000</c><c>      4.00000000</c><c>  PAW_PBE Si 05Jan2001                  </c></rc>
   </set>
  </array>
 </atominfo>
 <structure name="initialpos" >
  <crystal>
   <varray name="basis" >
    <v>      10.86914512      -0.00000000      -0.00000000 </v>
    <v>      -0.00000000      10.86914512       0.00000000 </v>
    <v>       0.00000000       0.00000000      10.86914512 </v>
   </varray>
   <i name="volume">   1284.06249692 </i>
   <varray name="rec_basis" >
    <v>       0.09200356       0.00000000      -0.00000000 </v>
    <v>       0.00000000       0.09200356      -0.00000000 </v>
    <v>       0.00000000      -0.00000000       0.09200356 </v>
   </varray>
  </crystal>
  <varray name="positions" >
   <v>       0.25092004       0.25000000       0.25000000 </v>
   <v>       0.75000000       0.25000000       0.25000000 </v>
   <v>       0.25000000       0.75000000       0.25000000 </v>
   <v>       0.75000000       0.75000000       0.25000000 </v>
   <v>       0.25000000       0.25000000       0.75000000 </v>
   <v>       0.75000000       0.25000000       0.75000000 </v>
   <v>       0.25000000       0.75000000       0.75000000 </v>
   <v>       0.75000000       0.75000000       0.75000000 </v>
   <v>       0.25000000       0.00000000       0.00000000 </v>
   <v>       0.75000000       0.00000000       0.00000000 </v>
   <v>       0.25000000       0.50000000       0.00000000 </v>
   <v>       0.75000000       0.50000000       0.00000000 </v>
   <v>       0.25000000       0.00000000       0.50000000 </v>
   <v>       0.75000000       0.00000000       0.50000000 </v>
   <v>       0.25000000       0.50000000       0.50000000 </v>
   <v>       0.75000000       0.50000000       0.50000000 </v>
   <v>       0.00092004       0.25000000       0.00000000 </v>
   <v>       0.50000000       0.25000000       0.00000000 </v>
   <v>       0.00000000       0.75000000       0.00000000 </v>
   <v>       0.50000000       0.75000000       0.00000000 </v>
   <v>       0.00000000       0.25000000       0.50000000 </v>
   <v>       0.50000000       0.25000000       0.50000000 </v>
   <v>       0.00000000       0.75000000       0.50000000 </v>
   <v>       0.50000000       0.75000000       0.50000000 </v>
   <v>       0.00000000       0.00000000       0.25000000 </v>
   <v>       0.50000000       0.00000000       0.25000000 </v>
   <v>       0.00000000       0.50000000       0.25000000 </v>
   <v>       0.50000000       0.50000000       0.25000000 </v>
   <v>       0.00000000       0.00000000       0.75000000 </v>
   <v>       0.50000000       0.00000000       0.75000000 </v>
   <v>       0.00000000       0.50000000       0.75000000 </v>
   <v>       0.50000000       0.50000000       0.75000000 </v>
   <v>       0.37500000       0.37500000       0.37500000 </v>
   <v>       0.87500000       0.37500000       0.37500000 </v>
   <v>       0.37500000       0.87500000       0.37500000 </v>
   <v>       0.87500000       0.87500000       0.37500000 </v>
   <v>       0.37500000       0.37500000       0.87500000 </v>
   <v>       0.87500000       0.37500000       0.87500000 </v>
   <v>       0.37500000       0.87500000       0.87500000 </v>
   <v>       0.87500000       0.87500000       0.87500000 </v>
   <v>       0.37500000       0.12500000       0.12500000 </v>
   <v>       0.87500000       0.12500000       0.12500000 </v>
   <v>       0.37500000       0.62500000       0.12500000 </v>
   <v>       0.87500000       0.62500000       0.12500000 </v>
   <v>       0.37500000       0.12500000       0.62500000 </v>
   <v>       0.87500000       0.12500000       0.62500000 </v>
   <v>       0.37500000       0.62500000       0.62500000 </v>
   <v>       0.87500000       0.62500000       0.62500000 </v>
   <v>       0.12500000       0.37500000       0.12500000 </v>
   <v>       0.62500000       0.37500000       0.12500000 </v>
   <v>       0.12500000       0.87500000       0.12500000 </v>
   <v>       0.62500000       0.87500000       0.12500000 </v>
   <v>       0.12500000       0.37500000       0.62500000 </v>
   <v>       0.62500000       0.37500000       0.62500000 </v>
   <v>       0.12500000       0.87500000       0.62500000 </v>
   <v>       0.62500000       0.87500000       0.62500000 </v>
   <v>       0.12500000       0.12500000       0.37500000 </v>
   <v>       0.62500000       0.12500000       0.37500000 </v>
   <v>       0.12500000       0.62500000       0.37500000 </v>
   <v>       0.62500000       0.62500000       0.37500000 </v>
   <v>       0.12500000       0.12500000       0.87500000 </v>
   <v>       0.62500000       0.12500000       0.87500000 </v>
   <v>       0.12500000       0.62500000       0.87500000 </v>
   <v>       0.62500000       0.62500000       0.87500000 </v>
  </varray>
 </structure>
 <calculation>
  <scstep>
   <time name="dav">    2.30    2.31</time>
   <time name="total">    2.35    2.36</time>
   <energy>
    <i name="alphaZ">    107.38120932 </i>
    <i name="ewald">  -7307.87566434 </i>
    <i name="hartreedc">   -353.25066896 </i>
    <i name="XCdc">   -558.85371220 </i>
    <i name="pawpsdc">   5598.62625415 </i>
    <i name="pawaedc">  -4492.17844134 </i>
    <i name="eentropy">     -0.00329409 </i>
    <i name="bandstr">    892.39716380 </i>
    <i name="atom">   6564.76702419 </i>
    <i name="e_fr_energy">    451.00987052 </i>
    <i name="e_wo_entrp">    451.01316462 </i>
    <i name="e_0_energy">    451.01151757 </i>
   </energy>
  </scstep>
  <scstep>
   <time name="dav">    2.63    2.64</time>
   <time name="total">    2.63    2.64</time>
   <energy>
    <i name="e_fr_energy">   -322.06978179 </i>
    <i name="e_wo_entrp">   -322.06978179 </i>
    <i name="e_0_energy">   -322.06978179 </i>
   </energy>
  </scstep>
  <scstep>
   <time name="dav">    2.68    2.70</time>
   <time name="total">    2.68    2.70</time>
   <energy>
    <i name="e_fr_energy">   -373.41436390 </i>
    <i name="e_wo_entrp">   -373.41436390 </i>
    <i name="e_0_energy">   -373.41436390 </i>
   </energy>
  </scstep>
  <scstep>
   <time name="dav">    2.64    2.65</time>
   <time name="total">    2.64    2.65</time>
   <energy>
    <i name="e_fr_energy">   -374.60009809 </i>
    <i name="e_wo_entrp">   -374.60009809 </i>
    <i name="e_0_energy">   -374.60009809 </i>
   </energy>
  </scstep>
  <scstep>
   <time name="dav">    2.62    2.63</time>
   <time name="total">    2.70    2.71</time>
   <energy>
    <i name="e_fr_energy">   -374.64062749 </i>
    <i name="e_wo_entrp">   -374.64062749 </i>
    <i name="e_0_energy">   -374.64062749 </i>
   </energy>
  </scstep>
  <scstep>
   <time name="dav">    2.53    2.54</time>
   <time name="total">    2.65    2.67</time>
   <energy>
    <i name="e_fr_energy">   -369.72162702 </i>
    <i name="e_wo_entrp">   -369.72162702 </i>
    <i name="e_0_energy">   -369.72162702 </i>
   </energy>
  </scstep>
  <scstep>
   <time name="dav">    2.52    2.54</time>
   <time name="total">    2.65    2.66</time>
   <energy>
    <i name="e_fr_energy">   -367.49040113 </i>
    <i name="e_wo_entrp">   -367.49040113 </i>
    <i name="e_0_energy">   -367.49040113 </i>
   </energy>
  </scstep>
  <scstep>
   <time name="dav">    2.53    2.55</time>
   <time name="total">    2.66    2.67</time>
   <energy>
    <i name="e_fr_energy">   -367.49751157 </i>
    <i name="e_wo_entrp">   -367.49751157 </i>
    <i name="e_0_energy">   -367.49751157 </i>
   </energy>
  </scstep>
  <scstep>
   <time name="dav">    2.67    2.69</time>
   <time name="total">    2.80    2.81</time>
   <energy>
    <i name="e_fr_energy">   -367.49899321 </i>
    <i name="e_wo_entrp">   -367.49899321 </i>
    <i name="e_0_energy">   -367.49899321 </i>
   </energy>
  </scstep>
  <scstep>
   <time name="dav">    2.49    2.50</time>
   <time name="total">    2.61    2.63</time>
   <energy>
    <i name="e_fr_energy">   -367.49984788 </i>
    <i name="e_wo_entrp">   -367.49984788 </i>
    <i name="e_0_energy">   -367.49984788 </i>
   </energy>
  </scstep>
  <scstep>
   <time name="dav">    2.52    2.54</time>
   <time name="total">    2.65    2.66</time>
   <energy>
    <i name="e_fr_energy">   -367.49988693 </i>
    <i name="e_wo_entrp">   -367.49988693 </i>
    <i name="e_0_energy">   -367.49988693 </i>
   </energy>
  </scstep>
  <scstep>
   <time name="dav">    2.63    2.65</time>
   <time name="total">    2.76    2.77</time>
   <energy>
    <i name="e_fr_energy">   -367.49988916 </i>
    <i name="e_wo_entrp">   -367.49988916 </i>
    <i name="e_0_energy">   -367.49988916 </i>
   </energy>
  </scstep>
  <scstep>
   <time name="dav">    2.46    2.47</time>
   <time name="total">    2.58    2.60</time>
   <energy>
    <i name="e_fr_energy">   -367.49988820 </i>
    <i name="e_wo_entrp">   -367.49988820 </i>
    <i name="e_0_energy">   -367.49988820 </i>
   </energy>
  </scstep>
  <scstep>
   <time name="dav">    2.15    2.16</time>
   <time name="total">    2.27    2.29</time>
   <energy>
    <i name="e_fr_energy">   -367.49988805 </i>
    <i name="e_wo_entrp">   -367.49988805 </i>
    <i name="e_0_energy">   -367.49988805 </i>
   </energy>
  </scstep>
  <scstep>
   <time name="dav">    1.78    1.79</time>
   <time name="total">    1.83    1.84</time>
   <energy>
    <i name="alphaZ">    107.38120932 </i>
    <i name="ewald">  -7307.87566434 </i>
    <i name="hartreedc">   -468.78585396 </i>
    <i name="XCdc">   -539.35379345 </i>
    <i name="pawpsdc">  28474.92905477 </i>
    <i name="pawaedc"> -27375.35581510 </i>
    <i name="eentropy">     -0.00000000 </i>
    <i name="bandstr">    176.79395053 </i>
    <i name="atom">   6564.76702419 </i>
    <i name="e_fr_energy">   -367.49988804 </i>
    <i name="e_wo_entrp">   -367.49988804 </i>
    <i name="e_0_energy">   -367.49988804 </i>
   </energy>
  </scstep>
  <structure>
   <crystal>
    <varray name="basis" >
     <v>      10.86914512      -0.00000000      -0.00000000 </v>
     <v>      -0.00000000      10.86914512       0.00000000 </v>
     <v>       0.00000000       0.00000000      10.86914512 </v>
    </varray>
    <i name="volume">   1284.06249692 </i>
    <varray name="rec_basis" >
     <v>       0.09200356       0.00000000      -0.00000000 </v>
     <v>       0.00000000       0.09200356      -0.00000000 </v>
     <v>       0.00000000      -0.00000000       0.09200356 </v>
    </varray>
   </crystal>
   <varray name="positions" >
    <v>       0.25092004       0.25000000       0.25000000 </v>
    <v>       0.75000000       0.25000000       0.25000000 </v>
    <v>       0.25000000       0.75000000       0.25000000 </v>
    <v>       0.75000000       0.75000000       0.25000000 </v>
    <v>       0.25000000       0.25000000       0.75000000 </v>
    <v>       0.75000000       0.25000000       0.75000000 </v>
    <v>       0.25000000       0.75000000       0.75000000 </v>
    <v>       0.75000000       0.75000000       0.75000000 </v>
    <v>       0.25000000       0.00000000       0.00000000 </v>
    <v>       0.75000000       0.00000000       0.00000000 </v>
    <v>       0.25000000       0.50000000       0.00000000 </v>
    <v>       0.75000000       0.50000000       0.00000000 </v>
    <v>       0.25000000       0.00000000       0.50000000 </v>
    <v>       0.75000000       0.00000000       0.50000000 </v>
    <v>       0.25000000       0.50000000       0.50000000 </v>
    <v>       0.75000000       0.50000000       0.50000000 </v>
    <v>       0.00092004       0.25000000       0.00000000 </v>
    <v>       0.50000000       0.25000000       0.00000000 </v>
    <v>       0.00000000       0.75000000       0.00000000 </v>
    <v>       0.50000000       0.75000000       0.00000000 </v>
    <v>       0.00000000       0.25000000       0.50000000 </v>
    <v>       0.50000000       0.25000000       0.50000000 </v>
    <v>       0.00000000       0.75000000       0.50000000 </v>
    <v>       0.50000000       0.75000000       0.50000000 </v>
    <v>       0.00000000       0.00000000       0.25000000 </v>
    <v>       0.50000000       0.00000000       0.25000000 </v>
    <v>       0.00000000       0.50000000       0.25000000 </v>
    <v>       0.50000000       0.50000000       0.25000000 </v>
    <v>       0.00000000       0.00000000       0.75000000 </v>
    <v>       0.50000000       0.00000000       0.75000000 </v>
    <v>       0.00000000       0.50000000       0.75000000 </v>
    <v>       0.50000000       0.50000000       0.75000000 </v>
    <v>       0.37500000       0.37500000       0.37500000 </v>
    <v>       0.87500000       0.37500000       0.37500000 </v>
    <v>       0.37500000       0.87500000       0.37500000 </v>
    <v>       0.87500000       0.87500000       0.37500000 </v>
    <v>       0.37500000       0.37500000       0.87500000 </v>
    <v>       0.87500000       0.37500000       0.87500000 </v>
    <v>       0.37500000       0.87500000       0.87500000 </v>
    <v>       0.87500000       0.87500000       0.87500000 </v>
    <v>       0.37500000       0.12500000       0.12500000 </v>
    <v>       0.87500000       0.12500000       0.12500000 </v>
    <v>       0.37500000       0.62500000       0.12500000 </v>
    <v>       0.87500000       0.62500000       0.12500000 </v>
    <v>       0.37500000       0.12500000       0.62500000 </v>
    <v>       0.87500000       0.12500000       0.62500000 </v>
    <v>       0.37500000       0.62500000       0.62500000 </v>
    <v>       0.87500000       0.62500000       0.62500000 </v>
    <v>       0.12500000       0.37500000       0.12500000 </v>
    <v>       0.62500000       0.37500000       0.12500000 </v>
    <v>       0.12500000       0.87500000       0.12500000 </v>
    <v>       0.62500000       0.87500000       0.12500000 </v>
    <v>       0.12500000       0.37500000       0.62500000 </v>
    <v>       0.62500000       0.37500000       0.62500000 </v>
    <v>       0.12500000       0.87500000       0.62500000 </v>
    <v>       0.62500000       0.87500000       0.62500000 </v>
    <v>       0.12500000       0.12500000       0.37500000 </v>
    <v>       0.62500000       0.12500000       0.37500000 </v>
    <v>       0.12500000       0.62500000       0.37500000 </v>
    <v>       0.62500000       0.62500000       0.37500000 </v>
    <v>       0.12500000       0.12500000       0.87500000 </v>
    <v>       0.62500000       0.12500000       0.87500000 </v>
    <v>       0.12500000       0.62500000       0.87500000 </v>
    <v>       0.62500000       0.62500000       0.87500000 </v>
   </varray>
  </structure>
  <varray name="forces" >
   <v>      -0.13027661       0.00096170       0.00184641 </v>
   <v>       0.00203749       0.00094039      -0.00185185 </v>
   <v>       0.00080602       0.00007702      -0.00060136 </v>
   <v>       0.00037542       0.00007650       0.00060435 </v>
   <v>       0.00235916      -0.00095348      -0.00186623 </v>
   <v>       0.00190957      -0.00094284       0.00185182 </v>
   <v>      -0.00360176      -0.00007653       0.00060169 </v>
   <v>       0.00055341      -0.00007701      -0.00060432 </v>
   <v>      -0.00240061      -0.00091403       0.00000226 </v>
   <v>       0.00182105       0.00192885      -0.00086375 </v>
   <v>      -0.00239105       0.00280328       0.00001268 </v>
   <v>       0.00182715      -0.00177444       0.00086755 </v>
   <v>      -0.00393916      -0.00033938       0.00086381 </v>
   <v>       0.00029093      -0.00068117      -0.00000102 </v>
   <v>      -0.00395176      -0.00155478      -0.00087701 </v>
   <v>       0.00028758       0.00052827      -0.00000092 </v>
   <v>      -0.13026108      -0.00093292       0.00187408 </v>
   <v>       0.00205574      -0.00095561      -0.00186484 </v>
   <v>       0.00080355      -0.00007648      -0.00060295 </v>
   <v>       0.00037489      -0.00007658       0.00060260 </v>
   <v>       0.00233886       0.00094128      -0.00185325 </v>
   <v>       0.00192480       0.00095514       0.00186426 </v>
   <v>      -0.00360328       0.00007671       0.00060317 </v>
   <v>       0.00055211       0.00007825      -0.00060349 </v>
   <v>      -0.00240544       0.00091084      -0.00000276 </v>
   <v>       0.00184141      -0.00194463      -0.00087801 </v>
   <v>      -0.00241314      -0.00281131      -0.00001127 </v>
   <v>       0.00183784       0.00179081       0.00087698 </v>
   <v>      -0.00395191       0.00035015       0.00087608 </v>
   <v>       0.00028819       0.00067785      -0.00000079 </v>
   <v>      -0.00393913       0.00154629      -0.00086566 </v>
   <v>       0.00029143      -0.00052479       0.00000013 </v>
   <v>       0.03271804       0.02274673       0.02321725 </v>
   <v>      -0.00059950      -0.00006791       0.00068051 </v>
   <v>      -0.00069256       0.00007412       0.00067568 </v>
   <v>       0.00229831      -0.00003946       0.00050358 </v>
   <v>      -0.00060363       0.00006705       0.00068376 </v>
   <v>       0.03239671      -0.02215168       0.02261650 </v>
   <v>       0.00231193       0.00003853       0.00050858 </v>
   <v>      -0.00068861      -0.00006809       0.00068194 </v>
   <v>       0.03240278      -0.02266614      -0.02334116 </v>
   <v>       0.03209283       0.02205592      -0.02274391 </v>
   <v>      -0.00029231      -0.00012882      -0.00066095 </v>
   <v>      -0.00029206       0.00012644      -0.00066089 </v>
   <v>      -0.00029122      -0.00015227      -0.00055886 </v>
   <v>      -0.00029320       0.00015946      -0.00055149 </v>
   <v>       0.00191114       0.00001645      -0.00052411 </v>
   <v>       0.00190143      -0.00001792      -0.00052431 </v>
   <v>       0.06466811       0.00060321       0.04540659 </v>
   <v>      -0.00017483       0.00000112       0.00068413 </v>
   <v>      -0.00102714       0.00000589       0.00081796 </v>
   <v>       0.00044240      -0.00000303       0.00050759 </v>
   <v>      -0.00102771      -0.00000236       0.00068097 </v>
   <v>       0.00044375      -0.00000592       0.00042727 </v>
   <v>       0.00416685       0.00000082       0.00050552 </v>
   <v>      -0.00035399       0.00000126       0.00053928 </v>
   <v>       0.03166505       0.02199294      -0.02274419 </v>
   <v>       0.00013266       0.00008994      -0.00055339 </v>
   <v>       0.00157583       0.00008519      -0.00066589 </v>
   <v>       0.00004763      -0.00005444      -0.00052765 </v>
   <v>       0.03197690      -0.02259643      -0.02334247 </v>
   <v>       0.00013700      -0.00008661      -0.00055737 </v>
   <v>       0.00156334      -0.00009073      -0.00065901 </v>
   <v>       0.00004239       0.00005935      -0.00051986 </v>
  </varray>
  <varray name="stress" >
   <v>      -0.03325059       0.00000393      -0.00002016 </v>
   <v>       0.00000393      -0.02873568       0.24654837 </v>
   <v>      -0.00002016       0.24654836      -0.02874171 </v>
  </varray>
  <energy>
   <i name="e_fr_energy">   -367.49988804 </i>
   <i name="e_wo_entrp">   -367.49988804 </i>
   <i name="e_0_energy">   -367.49988804 </i>
  </energy>
  <time name="totalsc">   41.86   42.10</time>
  <eigenvalues>
   <array>
    <dimension dim="1">band</dimension>
    <dimension dim="2">kpoint</dimension>
    <dimension dim="3">spin</dimension>
    <field>eigene</field>
    <field>occ</field>
    <set>
     <set comment="spin 1">
      <set comment="kpoint 1">
       <r>   -6.2055    1.0000 </r>
       <r>   -5.1231    1.0000 </r>
       <r>   -5.1225    1.0000 </r>
       <r>   -5.1213    1.0000 </r>
       <r>   -5.1213    1.0000 </r>
       <r>   -5.1200    1.0000 </r>
       <r>   -5.1195    1.0000 </r>
       <r>   -4.1587    1.0000 </r>
       <r>   -4.1584    1.0000 </r>
       <r>   -4.1561    1.0000 </r>
       <r>   -4.1553    1.0000 </r>
       <r>   -4.1552    1.0000 </r>
       <r>   -4.1551    1.0000 </r>
       <r>   -4.1550    1.0000 </r>
       <r>   -4.1549    1.0000 </r>
       <r>   -4.1547    1.0000 </r>
       <r>   -4.1539    1.0000 </r>
       <r>   -4.1517    1.0000 </r>
       <r>   -4.1514    1.0000 </r>
       <r>   -3.8614    1.0000 </r>
       <r>   -3.8613    1.0000 </r>
       <r>   -3.8599    1.0000 </r>
       <r>   -3.8599    1.0000 </r>
       <r>   -2.0552    1.0000 </r>
       <r>   -2.0520    1.0000 </r>
       <r>   -2.0520    1.0000 </r>
       <r>   -2.0519    1.0000 </r>
       <r>   -2.0519    1.0000 </r>
       <r>   -2.0489    1.0000 </r>
       <r>   -1.8881    1.0000 </r>
       <r>   -1.8858    1.0000 </r>
       <r>   -1.8841    1.0000 </r>
       <r>   -1.8832    1.0000 </r>
       <r>   -1.8827    1.0000 </r>
       <r>   -1.8827    1.0000 </r>
       <r>   -1.8827    1.0000 </r>
       <r>   -1.8827    1.0000 </r>
       <r>   -1.8823    1.0000 </r>
       <r>   -1.8813    1.0000 </r>
       <r>   -1.8796    1.0000 </r>
       <r>   -1.8772    1.0000 </r>
       <r>   -1.2362    1.0000 </r>
       <r>   -1.2362    1.0000 </r>
       <r>   -1.2332    1.0000 </r>
       <r>   -1.2332    1.0000 </r>
       <r>    0.2773    1.0000 </r>
       <r>    0.2791    1.0000 </r>
       <r>    0.2794    1.0000 </r>
       <r>    0.2814    1.0000 </r>
       <r>    0.2818    1.0000 </r>
       <r>    0.2818    1.0000 </r>
       <r>    0.2820    1.0000 </r>
       <r>    0.2821    1.0000 </r>
       <r>    0.2825    1.0000 </r>
       <r>    0.2845    1.0000 </r>
       <r>    0.2848    1.0000 </r>
       <r>    0.2866    1.0000 </r>
       <r>    1.8679    1.0000 </r>
       <r>    1.8695    1.0000 </r>
       <r>    1.8705    1.0000 </r>
       <r>    1.8708    1.0000 </r>
       <r>    1.8709    1.0000 </r>
       <r>    1.8711    1.0000 </r>
       <r>    1.8712    1.0000 </r>
       <r>    1.8715    1.0000 </r>
       <r>    1.8716    1.0000 </r>
       <r>    1.8718    1.0000 </r>
       <r>    1.8728    1.0000 </r>
       <r>    1.8743    1.0000 </r>
       <r>    1.9710    1.0000 </r>
       <r>    1.9712    1.0000 </r>
       <r>    1.9720    1.0000 </r>
       <r>    1.9722    1.0000 </r>
       <r>    1.9726    1.0000 </r>
       <r>    1.9732    1.0000 </r>
       <r>    1.9734    1.0000 </r>
       <r>    1.9740    1.0000 </r>
       <r>    1.9744    1.0000 </r>
       <r>    1.9746    1.0000 </r>
       <r>    1.9754    1.0000 </r>
       <r>    1.9757    1.0000 </r>
       <r>    2.2486    1.0000 </r>
       <r>    2.2503    1.0000 </r>
       <r>    2.2514    1.0000 </r>
       <r>    2.2514    1.0000 </r>
       <r>    2.2525    1.0000 </r>
       <r>    2.2542    1.0000 </r>
       <r>    2.9004    1.0000 </r>
       <r>    2.9017    1.0000 </r>
       <r>    2.9017    1.0000 </r>
       <r>    2.9017    1.0000 </r>
       <r>    2.9017    1.0000 </r>
       <r>    2.9030    1.0000 </r>
       <r>    3.8630    1.0000 </r>
       <r>    3.8645    1.0000 </r>
       <r>    3.8662    1.0000 </r>
       <r>    3.8664    1.0000 </r>
       <r>    3.8667    1.0000 </r>
       <r>    3.8667    1.0000 </r>
       <r>    3.8667    1.0000 </r>
       <r>    3.8667    1.0000 </r>
       <r>    3.8670    1.0000 </r>
       <r>    3.8671    1.0000 </r>
       <r>    3.8688    1.0000 </r>
       <r>    3.8703    1.0000 </r>
       <r>    4.4335    1.0000 </r>
       <r>    4.4337    1.0000 </r>
       <r>    4.4358    1.0000 </r>
       <r>    4.4360    1.0000 </r>
       <r>    4.4368    1.0000 </r>
       <r>    4.4370    1.0000 </r>
       <r>    4.4370    1.0000 </r>
       <r>    4.4372    1.0000 </r>
       <r>    4.4380    1.0000 </r>
       <r>    4.4382    1.0000 </r>
       <r>    4.4403    1.0000 </r>
       <r>    4.4404    1.0000 </r>
       <r>    4.5674    1.0000 </r>
       <r>    4.5674    1.0000 </r>
       <r>    4.5692    1.0000 </r>
       <r>    4.5692    1.0000 </r>
       <r>    4.5705    1.0000 </r>
       <r>    4.5705    1.0000 </r>
       <r>    4.5724    1.0000 </r>
       <r>    4.5725    1.0000 </r>
       <r>    5.7690    1.0000 </r>
       <r>    5.7720    1.0000 </r>
       <r>    5.7750    1.0000 </r>
       <r>    6.3641    0.0000 </r>
       <r>    6.3658    0.0000 </r>
       <r>    6.3658    0.0000 </r>
       <r>    6.3658    0.0000 </r>
       <r>    6.3658    0.0000 </r>
       <r>    6.3674    0.0000 </r>
       <r>    6.8060    0.0000 </r>
       <r>    6.8068    0.0000 </r>
       <r>    6.8081    0.0000 </r>
       <r>    6.8081    0.0000 </r>
       <r>    6.8093    0.0000 </r>
       <r>    6.8102    0.0000 </r>
       <r>    7.2316    0.0000 </r>
       <r>    7.2316    0.0000 </r>
       <r>    7.2324    0.0000 </r>
       <r>    7.2324    0.0000 </r>
       <r>    8.1346    0.0000 </r>
       <r>    8.1356    0.0000 </r>
       <r>    8.1358    0.0000 </r>
       <r>    8.1368    0.0000 </r>
       <r>    8.1378    0.0000 </r>
       <r>    8.1378    0.0000 </r>
       <r>    8.1381    0.0000 </r>
       <r>    8.1381    0.0000 </r>
       <r>    8.1390    0.0000 </r>
       <r>    8.1400    0.0000 </r>
       <r>    8.1402    0.0000 </r>
       <r>    8.1412    0.0000 </r>
       <r>    8.2872    0.0000 </r>
       <r>    8.2889    0.0000 </r>
       <r>    8.2907    0.0000 </r>
       <r>    8.7963    0.0000 </r>
       <r>    8.7979    0.0000 </r>
       <r>    8.7979    0.0000 </r>
       <r>    8.7979    0.0000 </r>
       <r>    8.7980    0.0000 </r>
       <r>    8.7996    0.0000 </r>
       <r>    9.0497    0.0000 </r>
       <r>    9.0503    0.0000 </r>
       <r>    9.0520    0.0000 </r>
      </set>
      <set comment="kpoint 2">
       <r>   -5.9330    1.0000 </r>
       <r>   -5.9311    1.0000 </r>
       <r>   -4.8754    1.0000 </r>
       <r>   -4.8745    1.0000 </r>
       <r>   -4.8733    1.0000 </r>
       <r>   -4.8728    1.0000 </r>
       <r>   -4.8726    1.0000 </r>
       <r>   -4.8722    1.0000 </r>
       <r>   -4.8710    1.0000 </r>
       <r>   -4.8701    1.0000 </r>
       <r>   -4.0249    1.0000 </r>
       <r>   -4.0240    1.0000 </r>
       <r>   -4.0235    1.0000 </r>
       <r>   -4.0228    1.0000 </r>
       <r>   -4.0226    1.0000 </r>
       <r>   -4.0219    1.0000 </r>
       <r>   -4.0214    1.0000 </r>
       <r>   -4.0205    1.0000 </r>
       <r>   -3.8072    1.0000 </r>
       <r>   -3.8040    1.0000 </r>
       <r>   -3.0809    1.0000 </r>
       <r>   -3.0790    1.0000 </r>
       <r>   -3.0767    1.0000 </r>
       <r>   -3.0765    1.0000 </r>
       <r>   -3.0763    1.0000 </r>
       <r>   -3.0761    1.0000 </r>
       <r>   -3.0738    1.0000 </r>
       <r>   -3.0719    1.0000 </r>
       <r>   -1.9737    1.0000 </r>
       <r>   -1.9718    1.0000 </r>
       <r>   -1.9718    1.0000 </r>
       <r>   -1.9715    1.0000 </r>
       <r>   -1.9714    1.0000 </r>
       <r>   -1.9712    1.0000 </r>
       <r>   -1.9712    1.0000 </r>
       <r>   -1.9693    1.0000 </r>
       <r>   -0.8062    1.0000 </r>
       <r>   -0.8048    1.0000 </r>
       <r>   -0.8042    1.0000 </r>
       <r>   -0.8030    1.0000 </r>
       <r>   -0.8030    1.0000 </r>
       <r>   -0.8018    1.0000 </r>
       <r>   -0.8012    1.0000 </r>
       <r>   -0.7999    1.0000 </r>
       <r>   -0.6375    1.0000 </r>
       <r>   -0.6359    1.0000 </r>
       <r>   -0.6352    1.0000 </r>
       <r>   -0.6344    1.0000 </r>
       <r>   -0.6335    1.0000 </r>
       <r>   -0.6328    1.0000 </r>
       <r>   -0.6320    1.0000 </r>
       <r>   -0.6303    1.0000 </r>
       <r>    0.0223    1.0000 </r>
       <r>    0.0243    1.0000 </r>
       <r>    1.4704    1.0000 </r>
       <r>    1.4725    1.0000 </r>
       <r>    1.4730    1.0000 </r>
       <r>    1.4742    1.0000 </r>
       <r>    1.4744    1.0000 </r>
       <r>    1.4754    1.0000 </r>
       <r>    1.4759    1.0000 </r>
       <r>    1.4778    1.0000 </r>
       <r>    1.4910    1.0000 </r>
       <r>    1.4920    1.0000 </r>
       <r>    1.4929    1.0000 </r>
       <r>    1.4932    1.0000 </r>
       <r>    1.4935    1.0000 </r>
       <r>    1.4938    1.0000 </r>
       <r>    1.4948    1.0000 </r>
       <r>    1.4958    1.0000 </r>
       <r>    2.3171    1.0000 </r>
       <r>    2.3175    1.0000 </r>
       <r>    2.3176    1.0000 </r>
       <r>    2.3176    1.0000 </r>
       <r>    2.3185    1.0000 </r>
       <r>    2.3185    1.0000 </r>
       <r>    2.3186    1.0000 </r>
       <r>    2.3190    1.0000 </r>
       <r>    3.0217    1.0000 </r>
       <r>    3.0232    1.0000 </r>
       <r>    3.0242    1.0000 </r>
       <r>    3.0246    1.0000 </r>
       <r>    3.0250    1.0000 </r>
       <r>    3.0254    1.0000 </r>
       <r>    3.0264    1.0000 </r>
       <r>    3.0279    1.0000 </r>
       <r>    3.1455    1.0000 </r>
       <r>    3.1479    1.0000 </r>
       <r>    3.1483    1.0000 </r>
       <r>    3.1502    1.0000 </r>
       <r>    3.1568    1.0000 </r>
       <r>    3.1577    1.0000 </r>
       <r>    3.1586    1.0000 </r>
       <r>    3.1590    1.0000 </r>
       <r>    3.1595    1.0000 </r>
       <r>    3.1598    1.0000 </r>
       <r>    3.1608    1.0000 </r>
       <r>    3.1619    1.0000 </r>
       <r>    3.2842    1.0000 </r>
       <r>    3.2844    1.0000 </r>
       <r>    3.2854    1.0000 </r>
       <r>    3.2856    1.0000 </r>
       <r>    3.2859    1.0000 </r>
       <r>    3.2861    1.0000 </r>
       <r>    3.2872    1.0000 </r>
       <r>    3.2874    1.0000 </r>
       <r>    4.3303    1.0000 </r>
       <r>    4.3308    1.0000 </r>
       <r>    4.3313    1.0000 </r>
       <r>    4.3317    1.0000 </r>
       <r>    4.3319    1.0000 </r>
       <r>    4.3324    1.0000 </r>
       <r>    4.3328    1.0000 </r>
       <r>    4.3333    1.0000 </r>
       <r>    4.4329    1.0000 </r>
       <r>    4.4330    1.0000 </r>
       <r>    4.4965    1.0000 </r>
       <r>    4.4973    1.0000 </r>
       <r>    4.5002    1.0000 </r>
       <r>    4.5008    1.0000 </r>
       <r>    4.5009    1.0000 </r>
       <r>    4.5016    1.0000 </r>
       <r>    4.5045    1.0000 </r>
       <r>    4.5052    1.0000 </r>
       <r>    4.9513    1.0000 </r>
       <r>    4.9551    1.0000 </r>
       <r>    4.9553    1.0000 </r>
       <r>    4.9592    1.0000 </r>
       <r>    6.2787    0.0000 </r>
       <r>    6.2807    0.0000 </r>
       <r>    7.1931    0.0000 </r>
       <r>    7.1948    0.0000 </r>
       <r>    7.6442    0.0000 </r>
       <r>    7.6445    0.0000 </r>
       <r>    7.6449    0.0000 </r>
       <r>    7.6449    0.0000 </r>
       <r>    7.6468    0.0000 </r>
       <r>    7.6468    0.0000 </r>
       <r>    7.6472    0.0000 </r>
       <r>    7.6475    0.0000 </r>
       <r>    7.7137    0.0000 </r>
       <r>    7.7145    0.0000 </r>
       <r>    8.0571    0.0000 </r>
       <r>    8.0578    0.0000 </r>
       <r>    8.0591    0.0000 </r>
       <r>    8.0596    0.0000 </r>
       <r>    8.0599    0.0000 </r>
       <r>    8.0604    0.0000 </r>
       <r>    8.0615    0.0000 </r>
       <r>    8.0623    0.0000 </r>
       <r>    8.1429    0.0000 </r>
       <r>    8.1444    0.0000 </r>
       <r>    8.1452    0.0000 </r>
       <r>    8.1456    0.0000 </r>
       <r>    8.1457    0.0000 </r>
       <r>    8.1461    0.0000 </r>
       <r>    8.1469    0.0000 </r>
       <r>    8.1483    0.0000 </r>
       <r>    8.5502    0.0000 </r>
       <r>    8.5512    0.0000 </r>
       <r>    8.5520    0.0000 </r>
       <r>    8.5524    0.0000 </r>
       <r>    8.5532    0.0000 </r>
       <r>    8.5536    0.0000 </r>
       <r>    8.5544    0.0000 </r>
       <r>    8.5554    0.0000 </r>
       <r>    9.3199    0.0000 </r>
       <r>    9.3251    0.0000 </r>
      </set>
      <set comment="kpoint 3">
       <r>   -5.9320    1.0000 </r>
       <r>   -5.9320    1.0000 </r>
       <r>   -4.8750    1.0000 </r>
       <r>   -4.8750    1.0000 </r>
       <r>   -4.8729    1.0000 </r>
       <r>   -4.8729    1.0000 </r>
       <r>   -4.8725    1.0000 </r>
       <r>   -4.8725    1.0000 </r>
       <r>   -4.8705    1.0000 </r>
       <r>   -4.8705    1.0000 </r>
       <r>   -4.0246    1.0000 </r>
       <r>   -4.0246    1.0000 </r>
       <r>   -4.0227    1.0000 </r>
       <r>   -4.0227    1.0000 </r>
       <r>   -4.0227    1.0000 </r>
       <r>   -4.0227    1.0000 </r>
       <r>   -4.0208    1.0000 </r>
       <r>   -4.0208    1.0000 </r>
       <r>   -3.8057    1.0000 </r>
       <r>   -3.8057    1.0000 </r>
       <r>   -3.0782    1.0000 </r>
       <r>   -3.0782    1.0000 </r>
       <r>   -3.0766    1.0000 </r>
       <r>   -3.0766    1.0000 </r>
       <r>   -3.0762    1.0000 </r>
       <r>   -3.0762    1.0000 </r>
       <r>   -3.0746    1.0000 </r>
       <r>   -3.0746    1.0000 </r>
       <r>   -1.9776    1.0000 </r>
       <r>   -1.9716    1.0000 </r>
       <r>   -1.9715    1.0000 </r>
       <r>   -1.9715    1.0000 </r>
       <r>   -1.9715    1.0000 </r>
       <r>   -1.9714    1.0000 </r>
       <r>   -1.9714    1.0000 </r>
       <r>   -1.9653    1.0000 </r>
       <r>   -0.8060    1.0000 </r>
       <r>   -0.8060    1.0000 </r>
       <r>   -0.8031    1.0000 </r>
       <r>   -0.8031    1.0000 </r>
       <r>   -0.8030    1.0000 </r>
       <r>   -0.8029    1.0000 </r>
       <r>   -0.8001    1.0000 </r>
       <r>   -0.8000    1.0000 </r>
       <r>   -0.6369    1.0000 </r>
       <r>   -0.6368    1.0000 </r>
       <r>   -0.6343    1.0000 </r>
       <r>   -0.6343    1.0000 </r>
       <r>   -0.6337    1.0000 </r>
       <r>   -0.6337    1.0000 </r>
       <r>   -0.6310    1.0000 </r>
       <r>   -0.6310    1.0000 </r>
       <r>    0.0232    1.0000 </r>
       <r>    0.0232    1.0000 </r>
       <r>    1.4716    1.0000 </r>
       <r>    1.4716    1.0000 </r>
       <r>    1.4742    1.0000 </r>
       <r>    1.4742    1.0000 </r>
       <r>    1.4744    1.0000 </r>
       <r>    1.4744    1.0000 </r>
       <r>    1.4768    1.0000 </r>
       <r>    1.4768    1.0000 </r>
       <r>    1.4920    1.0000 </r>
       <r>    1.4920    1.0000 </r>
       <r>    1.4933    1.0000 </r>
       <r>    1.4933    1.0000 </r>
       <r>    1.4934    1.0000 </r>
       <r>    1.4934    1.0000 </r>
       <r>    1.4947    1.0000 </r>
       <r>    1.4947    1.0000 </r>
       <r>    2.3158    1.0000 </r>
       <r>    2.3163    1.0000 </r>
       <r>    2.3179    1.0000 </r>
       <r>    2.3180    1.0000 </r>
       <r>    2.3181    1.0000 </r>
       <r>    2.3182    1.0000 </r>
       <r>    2.3198    1.0000 </r>
       <r>    2.3203    1.0000 </r>
       <r>    3.0238    1.0000 </r>
       <r>    3.0238    1.0000 </r>
       <r>    3.0244    1.0000 </r>
       <r>    3.0244    1.0000 </r>
       <r>    3.0253    1.0000 </r>
       <r>    3.0253    1.0000 </r>
       <r>    3.0258    1.0000 </r>
       <r>    3.0258    1.0000 </r>
       <r>    3.1478    1.0000 </r>
       <r>    3.1480    1.0000 </r>
       <r>    3.1481    1.0000 </r>
       <r>    3.1481    1.0000 </r>
       <r>    3.1573    1.0000 </r>
       <r>    3.1574    1.0000 </r>
       <r>    3.1589    1.0000 </r>
       <r>    3.1589    1.0000 </r>
       <r>    3.1595    1.0000 </r>
       <r>    3.1595    1.0000 </r>
       <r>    3.1611    1.0000 </r>
       <r>    3.1611    1.0000 </r>
       <r>    3.2840    1.0000 </r>
       <r>    3.2841    1.0000 </r>
       <r>    3.2849    1.0000 </r>
       <r>    3.2849    1.0000 </r>
       <r>    3.2866    1.0000 </r>
       <r>    3.2866    1.0000 </r>
       <r>    3.2875    1.0000 </r>
       <r>    3.2875    1.0000 </r>
       <r>    4.3288    1.0000 </r>
       <r>    4.3289    1.0000 </r>
       <r>    4.3312    1.0000 </r>
       <r>    4.3312    1.0000 </r>
       <r>    4.3324    1.0000 </r>
       <r>    4.3324    1.0000 </r>
       <r>    4.3347    1.0000 </r>
       <r>    4.3348    1.0000 </r>
       <r>    4.4328    1.0000 </r>
       <r>    4.4330    1.0000 </r>
       <r>    4.4996    1.0000 </r>
       <r>    4.4997    1.0000 </r>
       <r>    4.5009    1.0000 </r>
       <r>    4.5009    1.0000 </r>
       <r>    4.5009    1.0000 </r>
       <r>    4.5009    1.0000 </r>
       <r>    4.5023    1.0000 </r>
       <r>    4.5024    1.0000 </r>
       <r>    4.9552    1.0000 </r>
       <r>    4.9552    1.0000 </r>
       <r>    4.9552    1.0000 </r>
       <r>    4.9553    1.0000 </r>
       <r>    6.2797    0.0000 </r>
       <r>    6.2797    0.0000 </r>
       <r>    7.1939    0.0000 </r>
       <r>    7.1939    0.0000 </r>
       <r>    7.6431    0.0000 </r>
       <r>    7.6431    0.0000 </r>
       <r>    7.6456    0.0000 </r>
       <r>    7.6458    0.0000 </r>
       <r>    7.6459    0.0000 </r>
       <r>    7.6462    0.0000 </r>
       <r>    7.6486    0.0000 </r>
       <r>    7.6486    0.0000 </r>
       <r>    7.7141    0.0000 </r>
       <r>    7.7141    0.0000 </r>
       <r>    8.0591    0.0000 </r>
       <r>    8.0591    0.0000 </r>
       <r>    8.0594    0.0000 </r>
       <r>    8.0594    0.0000 </r>
       <r>    8.0599    0.0000 </r>
       <r>    8.0599    0.0000 </r>
       <r>    8.0603    0.0000 </r>
       <r>    8.0603    0.0000 </r>
       <r>    8.1440    0.0000 </r>
       <r>    8.1440    0.0000 </r>
       <r>    8.1454    0.0000 </r>
       <r>    8.1454    0.0000 </r>
       <r>    8.1459    0.0000 </r>
       <r>    8.1459    0.0000 </r>
       <r>    8.1473    0.0000 </r>
       <r>    8.1474    0.0000 </r>
       <r>    8.5509    0.0000 </r>
       <r>    8.5510    0.0000 </r>
       <r>    8.5527    0.0000 </r>
       <r>    8.5527    0.0000 </r>
       <r>    8.5529    0.0000 </r>
       <r>    8.5530    0.0000 </r>
       <r>    8.5546    0.0000 </r>
       <r>    8.5546    0.0000 </r>
       <r>    9.3205    0.0000 </r>
       <r>    9.3232    0.0000 </r>
      </set>
      <set comment="kpoint 4">
       <r>   -5.9320    1.0000 </r>
       <r>   -5.9320    1.0000 </r>
       <r>   -4.8759    1.0000 </r>
       <r>   -4.8745    1.0000 </r>
       <r>   -4.8733    1.0000 </r>
       <r>   -4.8727    1.0000 </r>
       <r>   -4.8727    1.0000 </r>
       <r>   -4.8721    1.0000 </r>
       <r>   -4.8710    1.0000 </r>
       <r>   -4.8695    1.0000 </r>
       <r>   -4.0247    1.0000 </r>
       <r>   -4.0246    1.0000 </r>
       <r>   -4.0229    1.0000 </r>
       <r>   -4.0229    1.0000 </r>
       <r>   -4.0225    1.0000 </r>
       <r>   -4.0225    1.0000 </r>
       <r>   -4.0208    1.0000 </r>
       <r>   -4.0208    1.0000 </r>
       <r>   -3.8057    1.0000 </r>
       <r>   -3.8057    1.0000 </r>
       <r>   -3.0790    1.0000 </r>
       <r>   -3.0776    1.0000 </r>
       <r>   -3.0772    1.0000 </r>
       <r>   -3.0766    1.0000 </r>
       <r>   -3.0762    1.0000 </r>
       <r>   -3.0756    1.0000 </r>
       <r>   -3.0752    1.0000 </r>
       <r>   -3.0738    1.0000 </r>
       <r>   -1.9750    1.0000 </r>
       <r>   -1.9736    1.0000 </r>
       <r>   -1.9715    1.0000 </r>
       <r>   -1.9715    1.0000 </r>
       <r>   -1.9714    1.0000 </r>
       <r>   -1.9714    1.0000 </r>
       <r>   -1.9693    1.0000 </r>
       <r>   -1.9679    1.0000 </r>
       <r>   -0.8071    1.0000 </r>
       <r>   -0.8048    1.0000 </r>
       <r>   -0.8046    1.0000 </r>
       <r>   -0.8031    1.0000 </r>
       <r>   -0.8029    1.0000 </r>
       <r>   -0.8015    1.0000 </r>
       <r>   -0.8012    1.0000 </r>
       <r>   -0.7990    1.0000 </r>
       <r>   -0.6361    1.0000 </r>
       <r>   -0.6361    1.0000 </r>
       <r>   -0.6342    1.0000 </r>
       <r>   -0.6342    1.0000 </r>
       <r>   -0.6338    1.0000 </r>
       <r>   -0.6338    1.0000 </r>
       <r>   -0.6317    1.0000 </r>
       <r>   -0.6317    1.0000 </r>
       <r>    0.0232    1.0000 </r>
       <r>    0.0232    1.0000 </r>
       <r>    1.4710    1.0000 </r>
       <r>    1.4722    1.0000 </r>
       <r>    1.4731    1.0000 </r>
       <r>    1.4742    1.0000 </r>
       <r>    1.4743    1.0000 </r>
       <r>    1.4753    1.0000 </r>
       <r>    1.4762    1.0000 </r>
       <r>    1.4774    1.0000 </r>
       <r>    1.4914    1.0000 </r>
       <r>    1.4924    1.0000 </r>
       <r>    1.4927    1.0000 </r>
       <r>    1.4933    1.0000 </r>
       <r>    1.4934    1.0000 </r>
       <r>    1.4940    1.0000 </r>
       <r>    1.4943    1.0000 </r>
       <r>    1.4953    1.0000 </r>
       <r>    2.3165    1.0000 </r>
       <r>    2.3168    1.0000 </r>
       <r>    2.3176    1.0000 </r>
       <r>    2.3178    1.0000 </r>
       <r>    2.3183    1.0000 </r>
       <r>    2.3185    1.0000 </r>
       <r>    2.3192    1.0000 </r>
       <r>    2.3196    1.0000 </r>
       <r>    3.0234    1.0000 </r>
       <r>    3.0240    1.0000 </r>
       <r>    3.0245    1.0000 </r>
       <r>    3.0247    1.0000 </r>
       <r>    3.0248    1.0000 </r>
       <r>    3.0251    1.0000 </r>
       <r>    3.0257    1.0000 </r>
       <r>    3.0263    1.0000 </r>
       <r>    3.1478    1.0000 </r>
       <r>    3.1480    1.0000 </r>
       <r>    3.1481    1.0000 </r>
       <r>    3.1481    1.0000 </r>
       <r>    3.1571    1.0000 </r>
       <r>    3.1578    1.0000 </r>
       <r>    3.1586    1.0000 </r>
       <r>    3.1589    1.0000 </r>
       <r>    3.1595    1.0000 </r>
       <r>    3.1598    1.0000 </r>
       <r>    3.1607    1.0000 </r>
       <r>    3.1616    1.0000 </r>
       <r>    3.2840    1.0000 </r>
       <r>    3.2841    1.0000 </r>
       <r>    3.2856    1.0000 </r>
       <r>    3.2856    1.0000 </r>
       <r>    3.2859    1.0000 </r>
       <r>    3.2859    1.0000 </r>
       <r>    3.2875    1.0000 </r>
       <r>    3.2875    1.0000 </r>
       <r>    4.3276    1.0000 </r>
       <r>    4.3299    1.0000 </r>
       <r>    4.3316    1.0000 </r>
       <r>    4.3318    1.0000 </r>
       <r>    4.3319    1.0000 </r>
       <r>    4.3321    1.0000 </r>
       <r>    4.3337    1.0000 </r>
       <r>    4.3358    1.0000 </r>
       <r>    4.4329    1.0000 </r>
       <r>    4.4329    1.0000 </r>
       <r>    4.4997    1.0000 </r>
       <r>    4.4997    1.0000 </r>
       <r>    4.5009    1.0000 </r>
       <r>    4.5009    1.0000 </r>
       <r>    4.5010    1.0000 </r>
       <r>    4.5011    1.0000 </r>
       <r>    4.5021    1.0000 </r>
       <r>    4.5021    1.0000 </r>
       <r>    4.9552    1.0000 </r>
       <r>    4.9552    1.0000 </r>
       <r>    4.9552    1.0000 </r>
       <r>    4.9553    1.0000 </r>
       <r>    6.2797    0.0000 </r>
       <r>    6.2797    0.0000 </r>
       <r>    7.1939    0.0000 </r>
       <r>    7.1939    0.0000 </r>
       <r>    7.6438    0.0000 </r>
       <r>    7.6447    0.0000 </r>
       <r>    7.6451    0.0000 </r>
       <r>    7.6456    0.0000 </r>
       <r>    7.6461    0.0000 </r>
       <r>    7.6465    0.0000 </r>
       <r>    7.6470    0.0000 </r>
       <r>    7.6479    0.0000 </r>
       <r>    7.7141    0.0000 </r>
       <r>    7.7142    0.0000 </r>
       <r>    8.0589    0.0000 </r>
       <r>    8.0589    0.0000 </r>
       <r>    8.0595    0.0000 </r>
       <r>    8.0596    0.0000 </r>
       <r>    8.0598    0.0000 </r>
       <r>    8.0598    0.0000 </r>
       <r>    8.0604    0.0000 </r>
       <r>    8.0605    0.0000 </r>
       <r>    8.1437    0.0000 </r>
       <r>    8.1445    0.0000 </r>
       <r>    8.1446    0.0000 </r>
       <r>    8.1456    0.0000 </r>
       <r>    8.1457    0.0000 </r>
       <r>    8.1467    0.0000 </r>
       <r>    8.1468    0.0000 </r>
       <r>    8.1477    0.0000 </r>
       <r>    8.5505    0.0000 </r>
       <r>    8.5514    0.0000 </r>
       <r>    8.5525    0.0000 </r>
       <r>    8.5527    0.0000 </r>
       <r>    8.5529    0.0000 </r>
       <r>    8.5531    0.0000 </r>
       <r>    8.5542    0.0000 </r>
       <r>    8.5551    0.0000 </r>
       <r>    9.3206    0.0000 </r>
       <r>    9.3244    0.0000 </r>
      </set>
      <set comment="kpoint 5">
       <r>   -5.6656    1.0000 </r>
       <r>   -5.6641    1.0000 </r>
       <r>   -5.6637    1.0000 </r>
       <r>   -5.6622    1.0000 </r>
       <r>   -4.6461    1.0000 </r>
       <r>   -4.6459    1.0000 </r>
       <r>   -4.6444    1.0000 </r>
       <r>   -4.6443    1.0000 </r>
       <r>   -4.6440    1.0000 </r>
       <r>   -4.6438    1.0000 </r>
       <r>   -4.6424    1.0000 </r>
       <r>   -4.6422    1.0000 </r>
       <r>   -3.6090    1.0000 </r>
       <r>   -3.6062    1.0000 </r>
       <r>   -3.6057    1.0000 </r>
       <r>   -3.6055    1.0000 </r>
       <r>   -3.6053    1.0000 </r>
       <r>   -3.6051    1.0000 </r>
       <r>   -3.6045    1.0000 </r>
       <r>   -3.6018    1.0000 </r>
       <r>   -3.3245    1.0000 </r>
       <r>   -3.3239    1.0000 </r>
       <r>   -3.3222    1.0000 </r>
       <r>   -3.3217    1.0000 </r>
       <r>   -3.3216    1.0000 </r>
       <r>   -3.3211    1.0000 </r>
       <r>   -3.3193    1.0000 </r>
       <r>   -3.3187    1.0000 </r>
       <r>   -2.4610    1.0000 </r>
       <r>   -2.4606    1.0000 </r>
       <r>   -2.4590    1.0000 </r>
       <r>   -2.4585    1.0000 </r>
       <r>   -1.4638    1.0000 </r>
       <r>   -1.4636    1.0000 </r>
       <r>   -1.4617    1.0000 </r>
       <r>   -1.4615    1.0000 </r>
       <r>   -1.0416    1.0000 </r>
       <r>   -1.0410    1.0000 </r>
       <r>   -1.0390    1.0000 </r>
       <r>   -1.0384    1.0000 </r>
       <r>   -1.0383    1.0000 </r>
       <r>   -1.0376    1.0000 </r>
       <r>   -1.0357    1.0000 </r>
       <r>   -1.0351    1.0000 </r>
       <r>   -0.1977    1.0000 </r>
       <r>   -0.1967    1.0000 </r>
       <r>   -0.1953    1.0000 </r>
       <r>   -0.1953    1.0000 </r>
       <r>   -0.1952    1.0000 </r>
       <r>   -0.1951    1.0000 </r>
       <r>   -0.1938    1.0000 </r>
       <r>   -0.1927    1.0000 </r>
       <r>    0.4617    1.0000 </r>
       <r>    0.4631    1.0000 </r>
       <r>    0.4636    1.0000 </r>
       <r>    0.4649    1.0000 </r>
       <r>    0.4651    1.0000 </r>
       <r>    0.4664    1.0000 </r>
       <r>    0.4668    1.0000 </r>
       <r>    0.4683    1.0000 </r>
       <r>    1.4163    1.0000 </r>
       <r>    1.4169    1.0000 </r>
       <r>    1.4172    1.0000 </r>
       <r>    1.4177    1.0000 </r>
       <r>    2.2861    1.0000 </r>
       <r>    2.2862    1.0000 </r>
       <r>    2.2870    1.0000 </r>
       <r>    2.2871    1.0000 </r>
       <r>    2.2875    1.0000 </r>
       <r>    2.2875    1.0000 </r>
       <r>    2.2884    1.0000 </r>
       <r>    2.2884    1.0000 </r>
       <r>    2.3710    1.0000 </r>
       <r>    2.3710    1.0000 </r>
       <r>    2.3716    1.0000 </r>
       <r>    2.3722    1.0000 </r>
       <r>    2.3722    1.0000 </r>
       <r>    2.3728    1.0000 </r>
       <r>    2.3734    1.0000 </r>
       <r>    2.3734    1.0000 </r>
       <r>    2.9822    1.0000 </r>
       <r>    2.9824    1.0000 </r>
       <r>    2.9831    1.0000 </r>
       <r>    2.9832    1.0000 </r>
       <r>    2.9832    1.0000 </r>
       <r>    2.9833    1.0000 </r>
       <r>    2.9840    1.0000 </r>
       <r>    2.9842    1.0000 </r>
       <r>    3.0761    1.0000 </r>
       <r>    3.0762    1.0000 </r>
       <r>    3.0773    1.0000 </r>
       <r>    3.0773    1.0000 </r>
       <r>    3.3303    1.0000 </r>
       <r>    3.3314    1.0000 </r>
       <r>    3.3314    1.0000 </r>
       <r>    3.3325    1.0000 </r>
       <r>    3.5888    1.0000 </r>
       <r>    3.5891    1.0000 </r>
       <r>    3.5906    1.0000 </r>
       <r>    3.5909    1.0000 </r>
       <r>    3.5913    1.0000 </r>
       <r>    3.5916    1.0000 </r>
       <r>    3.5931    1.0000 </r>
       <r>    3.5935    1.0000 </r>
       <r>    3.9153    1.0000 </r>
       <r>    3.9160    1.0000 </r>
       <r>    3.9174    1.0000 </r>
       <r>    3.9180    1.0000 </r>
       <r>    3.9184    1.0000 </r>
       <r>    3.9191    1.0000 </r>
       <r>    3.9204    1.0000 </r>
       <r>    3.9211    1.0000 </r>
       <r>    4.1180    1.0000 </r>
       <r>    4.1182    1.0000 </r>
       <r>    4.1187    1.0000 </r>
       <r>    4.1188    1.0000 </r>
       <r>    4.1731    1.0000 </r>
       <r>    4.1733    1.0000 </r>
       <r>    4.1740    1.0000 </r>
       <r>    4.1742    1.0000 </r>
       <r>    4.1742    1.0000 </r>
       <r>    4.1743    1.0000 </r>
       <r>    4.1752    1.0000 </r>
       <r>    4.1752    1.0000 </r>
       <r>    5.4796    1.0000 </r>
       <r>    5.4800    1.0000 </r>
       <r>    5.4805    1.0000 </r>
       <r>    5.4809    1.0000 </r>
       <r>    6.8650    0.0000 </r>
       <r>    6.8656    0.0000 </r>
       <r>    6.8660    0.0000 </r>
       <r>    6.8666    0.0000 </r>
       <r>    7.6300    0.0000 </r>
       <r>    7.6308    0.0000 </r>
       <r>    7.6313    0.0000 </r>
       <r>    7.6316    0.0000 </r>
       <r>    7.6316    0.0000 </r>
       <r>    7.6318    0.0000 </r>
       <r>    7.6324    0.0000 </r>
       <r>    7.6332    0.0000 </r>
       <r>    7.9392    0.0000 </r>
       <r>    7.9393    0.0000 </r>
       <r>    7.9395    0.0000 </r>
       <r>    7.9396    0.0000 </r>
       <r>    7.9404    0.0000 </r>
       <r>    7.9405    0.0000 </r>
       <r>    7.9407    0.0000 </r>
       <r>    7.9407    0.0000 </r>
       <r>    8.3138    0.0000 </r>
       <r>    8.3144    0.0000 </r>
       <r>    8.3151    0.0000 </r>
       <r>    8.3151    0.0000 </r>
       <r>    8.3153    0.0000 </r>
       <r>    8.3153    0.0000 </r>
       <r>    8.3160    0.0000 </r>
       <r>    8.3165    0.0000 </r>
       <r>    8.7648    0.0000 </r>
       <r>    8.7666    0.0000 </r>
       <r>    8.7682    0.0000 </r>
       <r>    8.7695    0.0000 </r>
       <r>    8.7709    0.0000 </r>
       <r>    8.7717    0.0000 </r>
       <r>    8.7739    0.0000 </r>
       <r>    8.7794    0.0000 </r>
       <r>    8.7848    0.0000 </r>
       <r>    8.7929    0.0000 </r>
       <r>    8.8011    0.0000 </r>
       <r>    8.8144    0.0000 </r>
      </set>
      <set comment="kpoint 6">
       <r>   -5.6644    1.0000 </r>
       <r>   -5.6642    1.0000 </r>
       <r>   -5.6636    1.0000 </r>
       <r>   -5.6634    1.0000 </r>
       <r>   -4.6466    1.0000 </r>
       <r>   -4.6466    1.0000 </r>
       <r>   -4.6442    1.0000 </r>
       <r>   -4.6442    1.0000 </r>
       <r>   -4.6440    1.0000 </r>
       <r>   -4.6440    1.0000 </r>
       <r>   -4.6417    1.0000 </r>
       <r>   -4.6417    1.0000 </r>
       <r>   -3.6063    1.0000 </r>
       <r>   -3.6063    1.0000 </r>
       <r>   -3.6054    1.0000 </r>
       <r>   -3.6054    1.0000 </r>
       <r>   -3.6053    1.0000 </r>
       <r>   -3.6053    1.0000 </r>
       <r>   -3.6044    1.0000 </r>
       <r>   -3.6044    1.0000 </r>
       <r>   -3.3230    1.0000 </r>
       <r>   -3.3230    1.0000 </r>
       <r>   -3.3217    1.0000 </r>
       <r>   -3.3217    1.0000 </r>
       <r>   -3.3216    1.0000 </r>
       <r>   -3.3216    1.0000 </r>
       <r>   -3.3203    1.0000 </r>
       <r>   -3.3203    1.0000 </r>
       <r>   -2.4629    1.0000 </r>
       <r>   -2.4599    1.0000 </r>
       <r>   -2.4596    1.0000 </r>
       <r>   -2.4566    1.0000 </r>
       <r>   -1.4654    1.0000 </r>
       <r>   -1.4638    1.0000 </r>
       <r>   -1.4615    1.0000 </r>
       <r>   -1.4599    1.0000 </r>
       <r>   -1.0415    1.0000 </r>
       <r>   -1.0415    1.0000 </r>
       <r>   -1.0384    1.0000 </r>
       <r>   -1.0384    1.0000 </r>
       <r>   -1.0383    1.0000 </r>
       <r>   -1.0383    1.0000 </r>
       <r>   -1.0352    1.0000 </r>
       <r>   -1.0352    1.0000 </r>
       <r>   -0.1985    1.0000 </r>
       <r>   -0.1985    1.0000 </r>
       <r>   -0.1954    1.0000 </r>
       <r>   -0.1954    1.0000 </r>
       <r>   -0.1951    1.0000 </r>
       <r>   -0.1951    1.0000 </r>
       <r>   -0.1920    1.0000 </r>
       <r>   -0.1920    1.0000 </r>
       <r>    0.4633    1.0000 </r>
       <r>    0.4633    1.0000 </r>
       <r>    0.4647    1.0000 </r>
       <r>    0.4647    1.0000 </r>
       <r>    0.4652    1.0000 </r>
       <r>    0.4653    1.0000 </r>
       <r>    0.4667    1.0000 </r>
       <r>    0.4667    1.0000 </r>
       <r>    1.4156    1.0000 </r>
       <r>    1.4168    1.0000 </r>
       <r>    1.4172    1.0000 </r>
       <r>    1.4185    1.0000 </r>
       <r>    2.2853    1.0000 </r>
       <r>    2.2853    1.0000 </r>
       <r>    2.2860    1.0000 </r>
       <r>    2.2860    1.0000 </r>
       <r>    2.2886    1.0000 </r>
       <r>    2.2886    1.0000 </r>
       <r>    2.2893    1.0000 </r>
       <r>    2.2893    1.0000 </r>
       <r>    2.3713    1.0000 </r>
       <r>    2.3714    1.0000 </r>
       <r>    2.3718    1.0000 </r>
       <r>    2.3718    1.0000 </r>
       <r>    2.3726    1.0000 </r>
       <r>    2.3726    1.0000 </r>
       <r>    2.3730    1.0000 </r>
       <r>    2.3730    1.0000 </r>
       <r>    2.9818    1.0000 </r>
       <r>    2.9819    1.0000 </r>
       <r>    2.9820    1.0000 </r>
       <r>    2.9821    1.0000 </r>
       <r>    2.9843    1.0000 </r>
       <r>    2.9843    1.0000 </r>
       <r>    2.9845    1.0000 </r>
       <r>    2.9845    1.0000 </r>
       <r>    3.0739    1.0000 </r>
       <r>    3.0753    1.0000 </r>
       <r>    3.0782    1.0000 </r>
       <r>    3.0797    1.0000 </r>
       <r>    3.3291    1.0000 </r>
       <r>    3.3313    1.0000 </r>
       <r>    3.3315    1.0000 </r>
       <r>    3.3337    1.0000 </r>
       <r>    3.5896    1.0000 </r>
       <r>    3.5896    1.0000 </r>
       <r>    3.5909    1.0000 </r>
       <r>    3.5909    1.0000 </r>
       <r>    3.5913    1.0000 </r>
       <r>    3.5913    1.0000 </r>
       <r>    3.5927    1.0000 </r>
       <r>    3.5927    1.0000 </r>
       <r>    3.9165    1.0000 </r>
       <r>    3.9165    1.0000 </r>
       <r>    3.9180    1.0000 </r>
       <r>    3.9180    1.0000 </r>
       <r>    3.9185    1.0000 </r>
       <r>    3.9185    1.0000 </r>
       <r>    3.9200    1.0000 </r>
       <r>    3.9200    1.0000 </r>
       <r>    4.1177    1.0000 </r>
[...]
      </set>
     </set>
    </set>
   </array>
  </eigenvalues>
  <separator name="orbital magnetization" >
   <v name="MAGDIPOLOUT">      0.00000000      0.00000000      0.00000000</v>
  </separator>
  <dos>
   <i name="efermi">      5.89478788 </i>
   <total>
    <array>
     <dimension dim="1">gridpoints</dimension>
     <dimension dim="2">spin</dimension>
     <field>energy</field>
     <field>total</field>
     <field>integrated</field>
     <set>
      <set comment="spin 1">
       <r>    -6.9820     0.0000     0.0000 </r>
       <r>    -6.9251     0.0000     0.0000 </r>
       <r>    -6.8682     0.0000     0.0000 </r>
       <r>    -6.8112     0.0000     0.0000 </r>
       <r>    -6.7543     0.0000     0.0000 </r>
       <r>    -6.6973     0.0000     0.0000 </r>
       <r>    -6.6404     0.0000     0.0000 </r>
       <r>    -6.5834     0.0000     0.0000 </r>
       <r>    -6.5265     0.0000     0.0000 </r>
       <r>    -6.4695     0.0000     0.0000 </r>
       <r>    -6.4126     0.0000     0.0000 </r>
       <r>    -6.3556     0.0000     0.0000 </r>
       <r>    -6.2987     0.0000     0.0000 </r>
       <r>    -6.2418     0.0228     0.0013 </r>
       <r>    -6.1848     4.0532     0.2321 </r>
       <r>    -6.1279     0.3142     0.2500 </r>
       <r>    -6.0709     0.0000     0.2500 </r>
       <r>    -6.0140     0.0000     0.2500 </r>
       <r>    -5.9570     1.0183     0.3080 </r>
       <r>    -5.9001    25.0064     1.7320 </r>
       <r>    -5.8431     0.3162     1.7500 </r>
       <r>    -5.7862     0.0000     1.7500 </r>
       <r>    -5.7292     0.0001     1.7500 </r>
       <r>    -5.6723    14.6057     2.5817 </r>
       <r>    -5.6154    38.0598     4.7491 </r>
       <r>    -5.5584     0.0162     4.7500 </r>
       <r>    -5.5015     0.0000     4.7500 </r>
       <r>    -5.4445     0.0737     4.7542 </r>
       <r>    -5.3876    30.5479     6.4938 </r>
       <r>    -5.3306     4.4997     6.7500 </r>
       <r>    -5.2737     0.0000     6.7500 </r>
       <r>    -5.2167     0.0000     6.7500 </r>
       <r>    -5.1598     0.0879     6.7550 </r>
       <r>    -5.1028    23.6935     8.1042 </r>
       <r>    -5.0459     2.5596     8.2500 </r>
       <r>    -4.9889     0.0000     8.2500 </r>
       <r>    -4.9320     0.0017     8.2501 </r>
       <r>    -4.8751    45.8566    10.8614 </r>
       <r>    -4.8181    59.4988    14.2496 </r>
       <r>    -4.7612     0.0066    14.2500 </r>
       <r>    -4.7042     0.0013    14.2501 </r>
       <r>    -4.6473    43.4801    16.7261 </r>
       <r>    -4.5903    61.8742    20.2495 </r>
       <r>    -4.5334     0.0081    20.2500 </r>
       <r>    -4.4764     0.0000    20.2500 </r>
       <r>    -4.4195     0.0000    20.2500 </r>
       <r>    -4.3625     0.0000    20.2500 </r>
       <r>    -4.3056     0.0000    20.2500 </r>
       <r>    -4.2487     0.0000    20.2500 </r>
       <r>    -4.1917     0.2720    20.2655 </r>
       <r>    -4.1348    48.3006    23.0160 </r>
       <r>    -4.0778     4.1147    23.2503 </r>
       <r>    -4.0209    58.0924    26.5584 </r>
       <r>    -3.9639    47.2638    29.2499 </r>
       <r>    -3.9070     0.0112    29.2505 </r>
       <r>    -3.8500    13.5882    30.0243 </r>
       <r>    -3.7931    25.3609    31.4685 </r>
       <r>    -3.7361     4.9430    31.7500 </r>
       <r>    -3.6792     0.0000    31.7500 </r>
       <r>    -3.6223    12.4603    32.4596 </r>
       <r>    -3.5653    92.6421    37.7351 </r>
       <r>    -3.5084     2.1345    37.8567 </r>
       <r>    -3.4514    99.8060    43.5402 </r>
       <r>    -3.3945     3.6843    43.7500 </r>
       <r>    -3.3375    13.9227    44.5428 </r>
       <r>    -3.2806    91.2316    49.7381 </r>
       <r>    -3.2236     0.2093    49.7500 </r>
       <r>    -3.1667     0.0000    49.7500 </r>
       <r>    -3.1097     1.0227    49.8082 </r>
       <r>    -3.0528    99.1702    55.4556 </r>
       <r>    -2.9959     5.1707    55.7500 </r>
       <r>    -2.9389     0.0000    55.7500 </r>
       <r>    -2.8820     0.0000    55.7500 </r>
       <r>    -2.8250     0.0000    55.7500 </r>
       <r>    -2.7681     0.0000    55.7500 </r>
       <r>    -2.7111     0.0000    55.7500 </r>
       <r>    -2.6542     0.0000    55.7500 </r>
       <r>    -2.5972     0.0000    55.7500 </r>
       <r>    -2.5403     0.0000    55.7500 </r>
       <r>    -2.4833     2.5680    55.8962 </r>
       <r>    -2.4264    49.6127    58.7215 </r>
       <r>    -2.3694     0.5012    58.7500 </r>
       <r>    -2.3125     0.0000    58.7500 </r>
       <r>    -2.2556     0.0000    58.7500 </r>
       <r>    -2.1986     0.0000    58.7500 </r>
       <r>    -2.1417     0.0000    58.7500 </r>
       <r>    -2.0847     0.2848    58.7662 </r>
       <r>    -2.0278    24.8791    60.1830 </r>
       <r>    -1.9708    55.7357    63.3569 </r>
       <r>    -1.9139    51.5959    66.2950 </r>
       <r>    -1.8569    49.9572    69.1399 </r>
       <r>    -1.8000     1.9336    69.2500 </r>
       <r>    -1.7430     0.0000    69.2500 </r>
       <r>    -1.6861     0.0000    69.2500 </r>
       <r>    -1.6292     0.0000    69.2500 </r>
       <r>    -1.5722     0.0000    69.2500 </r>
       <r>    -1.5153     0.0057    69.2503 </r>
       <r>    -1.4583    32.6730    71.1109 </r>
       <r>    -1.4014    20.0026    72.2500 </r>
       <r>    -1.3444     0.0004    72.2500 </r>
       <r>    -1.2875     0.0018    72.2501 </r>
       <r>    -1.2305    10.7971    72.8650 </r>
       <r>    -1.1736     6.7615    73.2500 </r>
       <r>    -1.1166     0.0002    73.2500 </r>
       <r>    -1.0597     7.1433    73.6568 </r>
       <r>    -1.0028    97.5411    79.2113 </r>
       <r>    -0.9458     0.6792    79.2500 </r>
       <r>    -0.8889     0.0000    79.2500 </r>
       <r>    -0.8319     2.2825    79.3800 </r>
       <r>    -0.7750   100.4564    85.1005 </r>
       <r>    -0.7180     2.6248    85.2500 </r>
       <r>    -0.6611     3.6832    85.4597 </r>
       <r>    -0.6041   196.6094    96.6558 </r>
       <r>    -0.5472    10.4346    97.2500 </r>
       <r>    -0.4902     0.0000    97.2500 </r>
       <r>    -0.4333     0.0000    97.2500 </r>
       <r>    -0.3764     0.0000    97.2500 </r>
       <r>    -0.3194     0.0000    97.2500 </r>
       <r>    -0.2625     0.0001    97.2500 </r>
       <r>    -0.2055    24.8822    98.6669 </r>
       <r>    -0.1486    80.4243   103.2468 </r>
       <r>    -0.0916     0.0570   103.2500 </r>
       <r>    -0.0347     0.0006   103.2500 </r>
       <r>     0.0223    12.4475   103.9589 </r>
       <r>     0.0792    13.8918   104.7499 </r>
       <r>     0.1362     0.0010   104.7500 </r>
       <r>     0.1931     0.0000   104.7500 </r>
       <r>     0.2501     0.6930   104.7895 </r>
       <r>     0.3070    49.8531   107.6284 </r>
       <r>     0.3639     2.1357   107.7500 </r>
       <r>     0.4209     0.1042   107.7559 </r>
       <r>     0.4778    85.9091   112.6481 </r>
       <r>     0.5348    19.3503   113.7500 </r>
       <r>     0.5917     0.0001   113.7500 </r>
       <r>     0.6487     0.0000   113.7500 </r>
       <r>     0.7056     0.0000   113.7500 </r>
       <r>     0.7626     0.0000   113.7500 </r>
       <r>     0.8195     0.0000   113.7500 </r>
       <r>     0.8765     0.0000   113.7500 </r>
       <r>     0.9334     0.0000   113.7500 </r>
       <r>     0.9903     0.0000   113.7500 </r>
       <r>     1.0473     0.0000   113.7500 </r>
       <r>     1.1042     0.0000   113.7500 </r>
       <r>     1.1612     0.0000   113.7500 </r>
       <r>     1.2181     0.0000   113.7500 </r>
       <r>     1.2751     0.0000   113.7500 </r>
       <r>     1.3320     0.0000   113.7500 </r>
       <r>     1.3890     1.2543   113.8214 </r>
       <r>     1.4459    52.8810   116.8328 </r>
       <r>     1.5029   180.3587   127.1034 </r>
       <r>     1.5598    28.9148   128.7500 </r>
       <r>     1.6167     0.0002   128.7500 </r>
       <r>     1.6737     0.0000   128.7500 </r>
       <r>     1.7306     0.0000   128.7500 </r>
       <r>     1.7876     0.2438   128.7639 </r>
       <r>     1.8445    34.2814   130.7161 </r>
       <r>     1.9015    52.4046   133.7003 </r>
       <r>     1.9584     8.6428   134.1924 </r>
       <r>     2.0154    44.8305   136.7453 </r>
       <r>     2.0723     0.0817   136.7500 </r>
       <r>     2.1293     0.0001   136.7500 </r>
       <r>     2.1862    20.8828   137.9392 </r>
       <r>     2.2431    91.8796   143.1713 </r>
       <r>     2.3001   115.7933   149.7653 </r>
       <r>     2.3570   128.5639   157.0864 </r>
       <r>     2.4140    90.5076   162.2404 </r>
       <r>     2.4709     0.1680   162.2500 </r>
       <r>     2.5279     0.0000   162.2500 </r>
       <r>     2.5848     0.0000   162.2500 </r>
       <r>     2.6418     0.0000   162.2500 </r>
       <r>     2.6987     0.0000   162.2500 </r>
       <r>     2.7557     0.0000   162.2500 </r>
       <r>     2.8126     0.0000   162.2500 </r>
       <r>     2.8696     0.3045   162.2673 </r>
       <r>     2.9265    24.9834   163.6900 </r>
       <r>     2.9834    54.6508   166.8022 </r>
       <r>     3.0404   143.0644   174.9491 </r>
       <r>     3.0973    62.8787   178.5297 </r>
       <r>     3.1543    77.5331   182.9449 </r>
       <r>     3.2112    84.3668   187.7492 </r>
       <r>     3.2682    11.3445   188.3952 </r>
       <r>     3.3251   111.0663   194.7200 </r>
       <r>     3.3821    35.6390   196.7495 </r>
       <r>     3.4390     0.0094   196.7500 </r>
       <r>     3.4960     0.0044   196.7503 </r>
       <r>     3.5529    54.3168   199.8434 </r>
       <r>     3.6098   146.5186   208.1870 </r>
       <r>     3.6668     9.8875   208.7500 </r>
       <r>     3.7237     0.0000   208.7500 </r>
       <r>     3.7807     0.0000   208.7500 </r>
       <r>     3.8376     1.0942   208.8123 </r>
       <r>     3.8946    55.3754   211.9657 </r>
       <r>     3.9515   100.5499   217.6916 </r>
       <r>     4.0085     1.0259   217.7500 </r>
       <r>     4.0654     0.0047   217.7503 </r>
       <r>     4.1224    32.1226   219.5795 </r>
       <r>     4.1793    88.1051   224.5967 </r>
       <r>     4.2362    37.8124   226.7500 </r>
       <r>     4.2932     0.3589   226.7704 </r>
       <r>     4.3501    94.5370   232.1539 </r>
       <r>     4.4071    12.3144   232.8551 </r>
       <r>     4.4640    75.7753   237.1702 </r>
       <r>     4.5210    98.3673   242.7718 </r>
       <r>     4.5779    33.4713   244.6778 </r>
       <r>     4.6349    10.0475   245.2500 </r>
       <r>     4.6918     0.0001   245.2500 </r>
       <r>     4.7488     0.0000   245.2500 </r>
       <r>     4.8057     0.0000   245.2500 </r>
       <r>     4.8626     0.0000   245.2500 </r>
       <r>     4.9196     0.3244   245.2685 </r>
       <r>     4.9765    49.9777   248.1145 </r>
       <r>     5.0335    69.9452   252.0976 </r>
       <r>     5.0904     2.6770   252.2500 </r>
       <r>     5.1474     0.0000   252.2500 </r>
       <r>     5.2043     0.0000   252.2500 </r>
       <r>     5.2613     0.0000   252.2500 </r>
       <r>     5.3182     0.0000   252.2500 </r>
       <r>     5.3752     0.0000   252.2500 </r>
       <r>     5.4321     0.0200   252.2511 </r>
       <r>     5.4891    38.5040   254.4438 </r>
       <r>     5.5460    14.1577   255.2500 </r>
       <r>     5.6029     0.0001   255.2500 </r>
       <r>     5.6599     0.0000   255.2500 </r>
       <r>     5.7168     0.0008   255.2500 </r>
       <r>     5.7738     7.2473   255.6627 </r>
       <r>     5.8307     5.9221   256.0000 </r>
       <r>     5.8877     0.0003   256.0000 </r>
       <r>     5.9446     0.0000   256.0000 </r>
       <r>     6.0016     0.0000   256.0000 </r>
       <r>     6.0585     0.0000   256.0000 </r>
       <r>     6.1155     0.0000   256.0000 </r>
       <r>     6.1724     0.0000   256.0000 </r>
       <r>     6.2293     0.0049   256.0003 </r>
       <r>     6.2863    17.8729   257.0181 </r>
       <r>     6.3432     9.9371   257.5839 </r>
       <r>     6.4002    24.6671   258.9886 </r>
       <r>     6.4571     0.1999   259.0000 </r>
       <r>     6.5141     0.0000   259.0000 </r>
       <r>     6.5710     0.0000   259.0000 </r>
       <r>     6.6280     0.0000   259.0000 </r>
       <r>     6.6849     0.0000   259.0000 </r>
       <r>     6.7419     0.0000   259.0000 </r>
       <r>     6.7988     6.7778   259.3860 </r>
       <r>     6.8557    32.1617   261.2174 </r>
       <r>     6.9127    40.0580   263.4986 </r>
       <r>     6.9696     0.0252   263.5000 </r>
       <r>     7.0266     0.0000   263.5000 </r>
       <r>     7.0835     0.0000   263.5000 </r>
       <r>     7.1405     0.0452   263.5026 </r>
       <r>     7.1974    92.3538   268.7617 </r>
       <r>     7.2544    55.8677   271.9431 </r>
       <r>     7.3113     0.9984   272.0000 </r>
       <r>     7.3683     0.0000   272.0000 </r>
       <r>     7.4252     0.0000   272.0000 </r>
       <r>     7.4821     0.0000   272.0000 </r>
       <r>     7.5391     0.0000   272.0000 </r>
       <r>     7.5960     0.6732   272.0383 </r>
       <r>     7.6530   170.6253   281.7547 </r>
       <r>     7.7099    53.9262   284.8256 </r>
       <r>     7.7669    46.8888   287.4957 </r>
       <r>     7.8238     0.0757   287.5000 </r>
       <r>     7.8808     0.0016   287.5001 </r>
       <r>     7.9377    45.9512   290.1168 </r>
       <r>     7.9947    59.4048   293.4997 </r>
       <r>     8.0516    29.9620   295.2059 </r>
       <r>     8.1086    76.8951   299.5847 </r>
       <r>     8.1655   146.5913   307.9324 </r>
       <r>     8.2224     9.9667   308.5000 </r>
       <r>     8.2794     3.9115   308.7227 </r>
       <r>     8.3363   107.4876   314.8437 </r>
       <r>     8.3933     7.1350   315.2500 </r>
       <r>     8.4502     0.0000   315.2500 </r>
       <r>     8.5072     0.0699   315.2540 </r>
       <r>     8.5641    82.8601   319.9725 </r>
       <r>     8.6211    22.4335   321.2500 </r>
       <r>     8.6780     0.0001   321.2500 </r>
       <r>     8.7350     0.8571   321.2988 </r>
       <r>     8.7919   123.8647   328.3524 </r>
       <r>     8.8488    59.5509   331.7435 </r>
       <r>     8.9058     0.1136   331.7500 </r>
       <r>     8.9627     0.0000   331.7500 </r>
       <r>     9.0197     0.1898   331.7608 </r>
       <r>     9.0766    12.5388   332.4748 </r>
       <r>     9.1336     0.4418   332.5000 </r>
       <r>     9.1905     0.0944   332.5054 </r>
       <r>     9.2475    30.9592   334.2684 </r>
       <r>     9.3044     6.8437   334.6581 </r>
       <r>     9.3614    23.4823   335.9953 </r>
       <r>     9.4183     0.0824   336.0000 </r>
       <r>     9.4752     0.0000   336.0000 </r>
       <r>     9.5322     0.0000   336.0000 </r>
       <r>     9.5891     0.0000   336.0000 </r>
       <r>     9.6461     0.0000   336.0000 </r>
       <r>     9.7030     0.0000   336.0000 </r>
       <r>     9.7600     0.0000   336.0000 </r>
       <r>     9.8169     0.0000   336.0000 </r>
       <r>     9.8739     0.0000   336.0000 </r>
       <r>     9.9308     0.0000   336.0000 </r>
       <r>     9.9878     0.0000   336.0000 </r>
       <r>    10.0447     0.0000   336.0000 </r>
       <r>    10.1016     0.0000   336.0000 </r>
      </set>
     </set>
    </array>
   </total>
  </dos>
 </calculation>
 <structure name="finalpos" >
  <crystal>
   <varray name="basis" >
    <v>      10.86914512      -0.00000000      -0.00000000 </v>
    <v>      -0.00000000      10.86914512       0.00000000 </v>
    <v>       0.00000000       0.00000000      10.86914512 </v>
   </varray>
   <i name="volume">   1284.06249692 </i>
   <varray name="rec_basis" >
    <v>       0.09200356       0.00000000      -0.00000000 </v>
    <v>       0.00000000       0.09200356      -0.00000000 </v>
    <v>       0.00000000      -0.00000000       0.09200356 </v>
   </varray>
  </crystal>
  <varray name="positions" >
   <v>       0.25092004       0.25000000       0.25000000 </v>
   <v>       0.75000000       0.25000000       0.25000000 </v>
   <v>       0.25000000       0.75000000       0.25000000 </v>
   <v>       0.75000000       0.75000000       0.25000000 </v>
   <v>       0.25000000       0.25000000       0.75000000 </v>
   <v>       0.75000000       0.25000000       0.75000000 </v>
   <v>       0.25000000       0.75000000       0.75000000 </v>
   <v>       0.75000000       0.75000000       0.75000000 </v>
   <v>       0.25000000       0.00000000       0.00000000 </v>
   <v>       0.75000000       0.00000000       0.00000000 </v>
   <v>       0.25000000       0.50000000       0.00000000 </v>
   <v>       0.75000000       0.50000000       0.00000000 </v>
   <v>       0.25000000       0.00000000       0.50000000 </v>
   <v>       0.75000000       0.00000000       0.50000000 </v>
   <v>       0.25000000       0.50000000       0.50000000 </v>
   <v>       0.75000000       0.50000000       0.50000000 </v>
   <v>       0.00092004       0.25000000       0.00000000 </v>
   <v>       0.50000000       0.25000000       0.00000000 </v>
   <v>       0.00000000       0.75000000       0.00000000 </v>
   <v>       0.50000000       0.75000000       0.00000000 </v>
   <v>       0.00000000       0.25000000       0.50000000 </v>
   <v>       0.50000000       0.25000000       0.50000000 </v>
   <v>       0.00000000       0.75000000       0.50000000 </v>
   <v>       0.50000000       0.75000000       0.50000000 </v>
   <v>       0.00000000       0.00000000       0.25000000 </v>
   <v>       0.50000000       0.00000000       0.25000000 </v>
   <v>       0.00000000       0.50000000       0.25000000 </v>
   <v>       0.50000000       0.50000000       0.25000000 </v>
   <v>       0.00000000       0.00000000       0.75000000 </v>
   <v>       0.50000000       0.00000000       0.75000000 </v>
   <v>       0.00000000       0.50000000       0.75000000 </v>
   <v>       0.50000000       0.50000000       0.75000000 </v>
   <v>       0.37500000       0.37500000       0.37500000 </v>
   <v>       0.87500000       0.37500000       0.37500000 </v>
   <v>       0.37500000       0.87500000       0.37500000 </v>
   <v>       0.87500000       0.87500000       0.37500000 </v>
   <v>       0.37500000       0.37500000       0.87500000 </v>
   <v>       0.87500000       0.37500000       0.87500000 </v>
   <v>       0.37500000       0.87500000       0.87500000 </v>
   <v>       0.87500000       0.87500000       0.87500000 </v>
   <v>       0.37500000       0.12500000       0.12500000 </v>
   <v>       0.87500000       0.12500000       0.12500000 </v>
   <v>       0.37500000       0.62500000       0.12500000 </v>
   <v>       0.87500000       0.62500000       0.12500000 </v>
   <v>       0.37500000       0.12500000       0.62500000 </v>
   <v>       0.87500000       0.12500000       0.62500000 </v>
   <v>       0.37500000       0.62500000       0.62500000 </v>
   <v>       0.87500000       0.62500000       0.62500000 </v>
   <v>       0.12500000       0.37500000       0.12500000 </v>
   <v>       0.62500000       0.37500000       0.12500000 </v>
   <v>       0.12500000       0.87500000       0.12500000 </v>
   <v>       0.62500000       0.87500000       0.12500000 </v>
   <v>       0.12500000       0.37500000       0.62500000 </v>
   <v>       0.62500000       0.37500000       0.62500000 </v>
   <v>       0.12500000       0.87500000       0.62500000 </v>
   <v>       0.62500000       0.87500000       0.62500000 </v>
   <v>       0.12500000       0.12500000       0.37500000 </v>
   <v>       0.62500000       0.12500000       0.37500000 </v>
   <v>       0.12500000       0.62500000       0.37500000 </v>
   <v>       0.62500000       0.62500000       0.37500000 </v>
   <v>       0.12500000       0.12500000       0.87500000 </v>
   <v>       0.62500000       0.12500000       0.87500000 </v>
   <v>       0.12500000       0.62500000       0.87500000 </v>
   <v>       0.62500000       0.62500000       0.87500000 </v>
  </varray>
 </structure>
</modeling>
