  64  64   0   0
  0.2006348E+02  0.1086915E-08  0.1086915E-08  0.1086915E-08  0.5000000E-15
  1.000000000000000E-004
  CAR 
 unknown system                          
     10.09933504     -6.98193639  301      5.89307195      1.00000000
     -6.982  0.0000E+00  0.0000E+00
     -6.925  0.0000E+00  0.0000E+00
     -6.868  0.0000E+00  0.0000E+00
     -6.811  0.0000E+00  0.0000E+00
     -6.754  0.0000E+00  0.0000E+00
     -6.697  0.0000E+00  0.0000E+00
     -6.640  0.0000E+00  0.0000E+00
     -6.583  0.0000E+00  0.0000E+00
     -6.526  0.0000E+00  0.0000E+00
     -6.469  0.0000E+00  0.0000E+00
     -6.413  0.0000E+00  0.0000E+00
     -6.356  0.0000E+00  0.0000E+00
     -6.299  0.9777E-10  0.5567E-11
     -6.242  0.2284E-01  0.1301E-02
     -6.185  0.4054E+01  0.2321E+00
     -6.128  0.3143E+00  0.2500E+00
     -6.071  0.8818E-07  0.2500E+00
     -6.014  0.9166E-07  0.2500E+00
     -5.957  0.1013E+01  0.3077E+00
     -5.900  0.2501E+02  0.1732E+01
     -5.843  0.3187E+00  0.1750E+01
     -5.786  0.4548E-08  0.1750E+01
     -5.729  0.1039E-03  0.1750E+01
     -5.672  0.1451E+02  0.2576E+01
     -5.615  0.3816E+02  0.4749E+01
     -5.558  0.1644E-01  0.4750E+01
     -5.502  0.9840E-10  0.4750E+01
     -5.445  0.6995E-01  0.4754E+01
     -5.388  0.3052E+02  0.6492E+01
     -5.331  0.4534E+01  0.6750E+01
     -5.274  0.4802E-05  0.6750E+01
     -5.217  0.2183E-09  0.6750E+01
     -5.160  0.8523E-01  0.6755E+01
     -5.103  0.2365E+02  0.8101E+01
     -5.046  0.2611E+01  0.8250E+01
     -4.989  0.1553E-05  0.8250E+01
     -4.932  0.1523E-02  0.8250E+01
     -4.875  0.4530E+02  0.1083E+02
     -4.818  0.6007E+02  0.1425E+02
     -4.761  0.6781E-02  0.1425E+02
     -4.704  0.1238E-02  0.1425E+02
     -4.647  0.4288E+02  0.1669E+02
     -4.591  0.6249E+02  0.2025E+02
     -4.534  0.9009E-02  0.2025E+02
     -4.477  0.0000E+00  0.2025E+02
     -4.420  0.0000E+00  0.2025E+02
     -4.363  0.0000E+00  0.2025E+02
     -4.306  0.0000E+00  0.2025E+02
     -4.249  0.1464E-08  0.2025E+02
     -4.192  0.2599E+00  0.2026E+02
     -4.135  0.4814E+02  0.2301E+02
     -4.078  0.4290E+01  0.2325E+02
     -4.021  0.5716E+02  0.2651E+02
     -3.964  0.4821E+02  0.2925E+02
     -3.907  0.1111E-01  0.2925E+02
     -3.850  0.1345E+02  0.3002E+02
     -3.793  0.2534E+02  0.3146E+02
     -3.736  0.5109E+01  0.3175E+02
     -3.680  0.2467E-04  0.3175E+02
     -3.623  0.1196E+02  0.3243E+02
     -3.566  0.9313E+02  0.3773E+02
     -3.509  0.2014E+01  0.3785E+02
     -3.452  0.9979E+02  0.4353E+02
     -3.395  0.3863E+01  0.4375E+02
     -3.338  0.1331E+02  0.4451E+02
     -3.281  0.9184E+02  0.4974E+02
     -3.224  0.2301E+00  0.4975E+02
     -3.167  0.1130E-07  0.4975E+02
     -3.110  0.9437E+00  0.4980E+02
     -3.053  0.9891E+02  0.5544E+02
     -2.996  0.5520E+01  0.5575E+02
     -2.939  0.1059E-05  0.5575E+02
     -2.882  0.0000E+00  0.5575E+02
     -2.825  0.0000E+00  0.5575E+02
     -2.769  0.0000E+00  0.5575E+02
     -2.712  0.0000E+00  0.5575E+02
     -2.655  0.0000E+00  0.5575E+02
     -2.598  0.0000E+00  0.5575E+02
     -2.541  0.3111E-06  0.5575E+02
     -2.484  0.2368E+01  0.5588E+02
     -2.427  0.4977E+02  0.5872E+02
     -2.370  0.5506E+00  0.5875E+02
     -2.313  0.7045E-08  0.5875E+02
     -2.256  0.0000E+00  0.5875E+02
     -2.199  0.0000E+00  0.5875E+02
     -2.142  0.3139E-08  0.5875E+02
     -2.085  0.2553E+00  0.5876E+02
     -2.028  0.2480E+02  0.6018E+02
     -1.971  0.5409E+02  0.6326E+02
     -1.914  0.5327E+02  0.6629E+02
     -1.858  0.4988E+02  0.6913E+02
     -1.801  0.2106E+01  0.6925E+02
     -1.744  0.2847E-06  0.6925E+02
     -1.687  0.0000E+00  0.6925E+02
     -1.630  0.0000E+00  0.6925E+02
     -1.573  0.2113E-12  0.6925E+02
     -1.516  0.4590E-02  0.6925E+02
     -1.459  0.3174E+02  0.7106E+02
     -1.402  0.2094E+02  0.7225E+02
     -1.345  0.5067E-03  0.7225E+02
     -1.288  0.1456E-02  0.7225E+02
     -1.231  0.1046E+02  0.7285E+02
     -1.174  0.7098E+01  0.7325E+02
     -1.117  0.1881E-03  0.7325E+02
     -1.060  0.6443E+01  0.7362E+02
     -1.003  0.9816E+02  0.7921E+02
     -0.947  0.7788E+00  0.7925E+02
     -0.890  0.8198E-07  0.7925E+02
     -0.833  0.2017E+01  0.7936E+02
     -0.776  0.1004E+03  0.8508E+02
     -0.719  0.2985E+01  0.8525E+02
     -0.662  0.3216E+01  0.8543E+02
     -0.605  0.1960E+03  0.9659E+02
     -0.548  0.1157E+02  0.9725E+02
     -0.491  0.9764E-05  0.9725E+02
     -0.434  0.0000E+00  0.9725E+02
     -0.377  0.0000E+00  0.9725E+02
     -0.320  0.0000E+00  0.9725E+02
     -0.263  0.1002E-03  0.9725E+02
     -0.206  0.2301E+02  0.9856E+02
     -0.149  0.8230E+02  0.1032E+03
     -0.092  0.7071E-01  0.1032E+03
     -0.036  0.4309E-03  0.1033E+03
      0.021  0.1180E+02  0.1039E+03
      0.078  0.1454E+02  0.1047E+03
      0.135  0.1311E-02  0.1048E+03
      0.192  0.1031E-07  0.1048E+03
      0.249  0.5854E+00  0.1048E+03
      0.306  0.4966E+02  0.1076E+03
      0.363  0.2443E+01  0.1077E+03
      0.420  0.8267E-01  0.1078E+03
      0.477  0.8405E+02  0.1125E+03
      0.534  0.2125E+02  0.1137E+03
      0.591  0.7070E-04  0.1138E+03
      0.648  0.0000E+00  0.1138E+03
      0.705  0.0000E+00  0.1138E+03
      0.762  0.0000E+00  0.1138E+03
      0.819  0.0000E+00  0.1138E+03
      0.875  0.0000E+00  0.1138E+03
      0.932  0.0000E+00  0.1138E+03
      0.989  0.0000E+00  0.1138E+03
      1.046  0.0000E+00  0.1138E+03
      1.103  0.0000E+00  0.1138E+03
      1.160  0.0000E+00  0.1138E+03
      1.217  0.0000E+00  0.1138E+03
      1.274  0.0000E+00  0.1138E+03
      1.331  0.3162E-07  0.1138E+03
      1.388  0.1044E+01  0.1138E+03
      1.445  0.5244E+02  0.1168E+03
      1.502  0.1779E+03  0.1269E+03
      1.559  0.3202E+02  0.1287E+03
      1.616  0.2145E-03  0.1288E+03
      1.673  0.0000E+00  0.1288E+03
      1.730  0.1013E-08  0.1288E+03
      1.786  0.1912E+00  0.1288E+03
      1.843  0.3371E+02  0.1307E+03
      1.900  0.5286E+02  0.1337E+03
      1.957  0.7899E+01  0.1341E+03
      2.014  0.4574E+02  0.1367E+03
      2.071  0.1074E+00  0.1367E+03
      2.128  0.4969E-04  0.1368E+03
      2.185  0.1850E+02  0.1378E+03
      2.242  0.9349E+02  0.1431E+03
      2.299  0.1126E+03  0.1495E+03
      2.356  0.1306E+03  0.1570E+03
      2.413  0.9249E+02  0.1622E+03
      2.470  0.2209E+00  0.1622E+03
      2.527  0.3120E-09  0.1622E+03
      2.584  0.0000E+00  0.1622E+03
      2.641  0.0000E+00  0.1622E+03
      2.697  0.0000E+00  0.1622E+03
      2.754  0.0000E+00  0.1622E+03
      2.811  0.2284E-08  0.1623E+03
      2.868  0.2391E+00  0.1623E+03
      2.925  0.2483E+02  0.1637E+03
      2.982  0.5098E+02  0.1666E+03
      3.039  0.1447E+03  0.1748E+03
      3.096  0.6449E+02  0.1785E+03
      3.153  0.7279E+02  0.1826E+03
      3.210  0.8983E+02  0.1877E+03
      3.267  0.9661E+01  0.1883E+03
      3.324  0.1109E+03  0.1946E+03
      3.381  0.3753E+02  0.1967E+03
      3.438  0.1333E-01  0.1967E+03
      3.495  0.2771E-02  0.1968E+03
      3.552  0.5017E+02  0.1996E+03
      3.608  0.1489E+03  0.2081E+03
      3.665  0.1170E+02  0.2087E+03
      3.722  0.8934E-05  0.2088E+03
      3.779  0.2329E-07  0.2088E+03
      3.836  0.8605E+00  0.2088E+03
      3.893  0.5426E+02  0.2119E+03
      3.950  0.1016E+03  0.2177E+03
      4.007  0.1326E+01  0.2177E+03
      4.064  0.3112E-02  0.2178E+03
      4.121  0.3001E+02  0.2195E+03
      4.178  0.8609E+02  0.2244E+03
      4.235  0.4197E+02  0.2267E+03
      4.292  0.2584E+00  0.2268E+03
      4.349  0.9262E+02  0.2320E+03
      4.406  0.1395E+02  0.2328E+03
      4.463  0.7552E+02  0.2371E+03
      4.519  0.9719E+02  0.2427E+03
      4.576  0.3401E+02  0.2446E+03
      4.633  0.1137E+02  0.2452E+03
      4.690  0.1527E-03  0.2452E+03
      4.747  0.0000E+00  0.2452E+03
      4.804  0.0000E+00  0.2452E+03
      4.861  0.9207E-09  0.2453E+03
      4.918  0.2333E+00  0.2453E+03
      4.975  0.4896E+02  0.2481E+03
      5.032  0.7042E+02  0.2521E+03
      5.089  0.3328E+01  0.2522E+03
      5.146  0.9068E-06  0.2522E+03
      5.203  0.0000E+00  0.2522E+03
      5.260  0.0000E+00  0.2522E+03
      5.317  0.0000E+00  0.2522E+03
      5.374  0.1793E-11  0.2523E+03
      5.430  0.1253E-01  0.2523E+03
      5.487  0.3646E+02  0.2543E+03
      5.544  0.1622E+02  0.2552E+03
      5.601  0.1804E-03  0.2552E+03
      5.658  0.8775E-14  0.2552E+03
      5.715  0.4375E-03  0.2553E+03
      5.772  0.6629E+01  0.2556E+03
      5.829  0.6542E+01  0.2560E+03
      5.886  0.4081E-03  0.2560E+03
      5.943  0.0000E+00  0.2560E+03
      6.000  0.0000E+00  0.2560E+03
      6.057  0.0000E+00  0.2560E+03
      6.114  0.0000E+00  0.2560E+03
      6.171  0.1701E-12  0.2560E+03
      6.228  0.3025E-02  0.2560E+03
      6.285  0.1666E+02  0.2569E+03
      6.341  0.1083E+02  0.2576E+03
      6.398  0.2491E+02  0.2590E+03
      6.455  0.2853E+00  0.2590E+03
      6.512  0.3821E-08  0.2590E+03
      6.569  0.0000E+00  0.2590E+03
      6.626  0.0000E+00  0.2590E+03
      6.683  0.0000E+00  0.2590E+03
      6.740  0.2193E-04  0.2590E+03
      6.797  0.5720E+01  0.2593E+03
      6.854  0.3117E+02  0.2611E+03
      6.911  0.4210E+02  0.2635E+03
      6.968  0.3933E-01  0.2635E+03
      7.025  0.1576E-10  0.2635E+03
      7.082  0.5946E-11  0.2635E+03
      7.139  0.2737E-01  0.2635E+03
      7.196  0.8619E+02  0.2684E+03
      7.252  0.6177E+02  0.2719E+03
      7.309  0.1298E+01  0.2720E+03
      7.366  0.3892E-06  0.2720E+03
      7.423  0.0000E+00  0.2720E+03
      7.480  0.0000E+00  0.2720E+03
      7.537  0.1593E-08  0.2720E+03
      7.594  0.4519E+00  0.2720E+03
      7.651  0.1635E+03  0.2813E+03
      7.708  0.5897E+02  0.2847E+03
      7.765  0.4919E+02  0.2875E+03
      7.822  0.1149E+00  0.2875E+03
      7.879  0.8707E-03  0.2875E+03
      7.936  0.4019E+02  0.2898E+03
      7.993  0.6517E+02  0.2935E+03
      8.050  0.2511E+02  0.2949E+03
      8.107  0.8127E+02  0.2996E+03
      8.163  0.1440E+03  0.3078E+03
      8.220  0.1304E+02  0.3085E+03
      8.277  0.3122E+01  0.3087E+03
      8.334  0.1060E+03  0.3147E+03
      8.391  0.9413E+01  0.3152E+03
      8.448  0.4439E-05  0.3153E+03
      8.505  0.4053E-01  0.3153E+03
      8.562  0.7818E+02  0.3197E+03
      8.619  0.2716E+02  0.3212E+03
      8.676  0.1629E-03  0.3213E+03
      8.733  0.5864E+00  0.3213E+03
      8.790  0.1214E+03  0.3282E+03
      8.847  0.6231E+02  0.3317E+03
      8.904  0.1403E+00  0.3317E+03
      8.961  0.3096E-08  0.3318E+03
      9.018  0.1278E+00  0.3318E+03
      9.074  0.1239E+02  0.3325E+03
      9.131  0.6593E+00  0.3325E+03
      9.188  0.5153E-01  0.3325E+03
      9.245  0.2964E+02  0.3342E+03
      9.302  0.7743E+01  0.3346E+03
      9.359  0.2394E+02  0.3360E+03
      9.416  0.1047E+00  0.3360E+03
      9.473  0.3456E-09  0.3360E+03
      9.530  0.0000E+00  0.3360E+03
      9.587  0.0000E+00  0.3360E+03
      9.644  0.0000E+00  0.3360E+03
      9.701  0.0000E+00  0.3360E+03
      9.758  0.0000E+00  0.3360E+03
      9.815  0.0000E+00  0.3360E+03
      9.872  0.0000E+00  0.3360E+03
      9.929  0.0000E+00  0.3360E+03
      9.985  0.0000E+00  0.3360E+03
     10.042  0.0000E+00  0.3360E+03
     10.099  0.0000E+00  0.3360E+03
