       N       E                     dE             d eps       ncg     rms          rms(c)
DAV:   1     0.451011565867E+03    0.45101E+03   -0.72608E+04  2688   0.852E+02
DAV:   2    -0.322072094780E+03   -0.77308E+03   -0.73080E+03  3232   0.155E+02
DAV:   3    -0.373414535858E+03   -0.51342E+02   -0.50481E+02  3304   0.365E+01
DAV:   4    -0.374598541660E+03   -0.11840E+01   -0.11756E+01  3224   0.671E+00
DAV:   5    -0.374640781060E+03   -0.42239E-01   -0.42191E-01  3208   0.111E+00    0.285E+01
DAV:   6    -0.369721512420E+03    0.49193E+01   -0.25921E+00  3040   0.242E+00    0.172E+01
DAV:   7    -0.367490360964E+03    0.22312E+01   -0.52384E+00  3056   0.349E+00    0.996E-01
DAV:   8    -0.367497501523E+03   -0.71406E-02   -0.28285E-01  3072   0.969E-01    0.352E-01
DAV:   9    -0.367498994870E+03   -0.14933E-02   -0.72043E-03  3312   0.163E-01    0.309E-01
DAV:  10    -0.367499846655E+03   -0.85179E-03   -0.20914E-03  2976   0.833E-02    0.230E-01
DAV:  11    -0.367499886954E+03   -0.40299E-04   -0.88939E-05  3144   0.190E-02    0.839E-03
DAV:  12    -0.367499889128E+03   -0.21744E-05   -0.31825E-06  3216   0.351E-03    0.850E-03
DAV:  13    -0.367499888083E+03    0.10453E-05   -0.87823E-07  3032   0.196E-03    0.180E-03
DAV:  14    -0.367499887967E+03    0.11595E-06   -0.22551E-08  2416   0.352E-04    0.516E-04
DAV:  15    -0.367499887949E+03    0.17683E-07   -0.13421E-08  1856   0.218E-04    0.133E-04
DAV:  16    -0.367499887939E+03    0.99817E-08   -0.24806E-09  1736   0.121E-04
   1 F= -.36749989E+03 E0= -.36749989E+03  d E =-.811861E-18
