 vasp.6.3.2 27Jun22 (build Oct 14 2022 12:13:54) complex                        
  
 executed on             LinuxIFC date 2023.04.03  14:53:05
 running on   32 total cores
 distrk:  each k-point on   32 cores,    1 groups
 distr:  one band on NCORE=   4 cores,    8 groups


--------------------------------------------------------------------------------------------------------


 INCAR:
   ADDGRID = True
   EDIFF = 1e-08
   ENCUT = 318
   GGA = Ps
   IALGO = 38
   IBRION = -1
   ISMEAR = 0
   LCHARG = False
   LREAL = False
   LWAVE = False
   NELMIN = 5
   NPAR = 8
   PREC = Accurate
   SIGMA = 0.02

 POTCAR:    PAW_PBE Si 05Jan2001                  
 POTCAR:    PAW_PBE Si 05Jan2001                  
   SHA256 =  79d9987ad8750f624c4d6acb2a16d13abf6a777132adc04dc6c8399be72b42bb Si/POTCAR             
   COPYR  = (c) Copyright 05Jan2001 Georg Kresse                                                    
   COPYR  = This file is part of the software VASP. Any use, copying, and all other rights are regul
   COPYR  = If you do not have a valid VASP license, you may not use, copy or distribute this file. 
   VRHFIN =Si: s2p2                                                                                 
   LEXCH  = PE                                                                                      
   EATOM  =   103.0669 eV,    7.5752 Ry                                                             
                                                                                                    
   TITEL  = PAW_PBE Si 05Jan2001                                                                    
   LULTRA =        F    use ultrasoft PP ?                                                          
   IUNSCR =        1    unscreen: 0-lin 1-nonlin 2-no                                               
   RPACOR =    1.500    partial core radius                                                         
   POMASS =   28.085; ZVAL   =    4.000    mass and valenz                                          
   RCORE  =    1.900    outmost cutoff radius                                                       
   RWIGS  =    2.480; RWIGS  =    1.312    wigner-seitz radius (au A)                               
   ENMAX  =  245.345; ENMIN  =  184.009 eV                                                          
   ICORE  =        2    local potential                                                             
   LCOR   =        T    correct aug charges                                                         
   LPAW   =        T    paw PP                                                                      
   EAUG   =  322.069                                                                                
   DEXC   =    0.000                                                                                
   RMAX   =    1.950    core radius for proj-oper                                                   
   RAUG   =    1.300    factor for augmentation sphere                                              
   RDEP   =    1.993    radius for radial grids                                                     
   RDEPT  =    1.837    core radius for aug-charge                                                  
                                                                                                    
   Atomic configuration                                                                             
    6 entries                                                                                       
     n  l   j            E        occ.                                                              
     1  0  0.50     -1785.8828   2.0000                                                             
     2  0  0.50      -139.4969   2.0000                                                             
     2  1  1.50       -95.5546   6.0000                                                             
     3  0  0.50       -10.8127   2.0000                                                             
     3  1  0.50        -4.0811   2.0000                                                             
     3  2  1.50        -4.0817   0.0000                                                             
   Description                                                                                      
     l       E           TYP  RCUT    TYP  RCUT                                                     
     0    -10.8127223     23  1.900                                                                 
     0     -7.6451159     23  1.900                                                                 
     1     -4.0811372     23  1.900                                                                 
     1      2.4879257     23  1.900                                                                 
     2     -4.0817478      7  1.900                                                                 
  local pseudopotential read in
  partial core-charges read in
  partial kinetic energy density read in
  atomic valenz-charges read in
  non local Contribution for L=           0  read in
    real space projection operators read in
  non local Contribution for L=           0  read in
    real space projection operators read in
  non local Contribution for L=           1  read in
    real space projection operators read in
  non local Contribution for L=           1  read in
    real space projection operators read in
    PAW grid and wavefunctions read in
 
   number of l-projection  operators is LMAX  =           4
   number of lm-projection operators is LMMAX =           8
 
 -----------------------------------------------------------------------------
|                                                                             |
|               ----> ADVICE to this user running VASP <----                  |
|                                                                             |
|     You have a (more or less) 'large supercell' and for larger cells it     |
|     might be more efficient to use real-space projection operators.         |
|     Therefore, try LREAL= Auto in the INCAR file.                           |
|     Mind: For very accurate calculation, you might also keep the            |
|     reciprocal projection scheme (i.e. LREAL=.FALSE.).                      |
|                                                                             |
 -----------------------------------------------------------------------------

 -----------------------------------------------------------------------------
|                                                                             |
|               ----> ADVICE to this user running VASP <----                  |
|                                                                             |
|     You enforced a specific xc type in the INCAR file but a different       |
|     type was found in the POTCAR file.                                      |
|     I HOPE YOU KNOW WHAT YOU ARE DOING!                                     |
|                                                                             |
 -----------------------------------------------------------------------------

  PAW_PBE Si 05Jan2001                  :
 energy of atom  1       EATOM= -103.0669
 kinetic energy error for atom=    0.0016 (will be added to EATOM!!)
 
 
 POSCAR: Si
  positions in cartesian coordinates
  No initial velocities read in
 exchange correlation table for  LEXCH =       14
   RHO(1)=    0.500       N(1)  =     2000
   RHO(2)=  100.500       N(2)  =     4000
 


--------------------------------------------------------------------------------------------------------


 ion  position               nearest neighbor table
   1  0.249  0.250  0.250-  49 2.35  57 2.35  33 2.36  41 2.36
   2  0.750  0.250  0.250-  34 2.35  42 2.35  50 2.35  58 2.35
   3  0.250  0.750  0.250-  35 2.35  43 2.35  51 2.35  59 2.35
   4  0.750  0.750  0.250-  36 2.35  44 2.35  52 2.35  60 2.35
   5  0.250  0.250  0.750-  37 2.35  45 2.35  53 2.35  61 2.35
   6  0.750  0.250  0.750-  38 2.35  46 2.35  54 2.35  62 2.35
   7  0.250  0.750  0.750-  39 2.35  47 2.35  55 2.35  63 2.35
   8  0.750  0.750  0.750-  40 2.35  48 2.35  56 2.35  64 2.35
   9  0.250  0.000  0.000-  39 2.35  41 2.35  51 2.35  61 2.35
  10  0.750  0.000  0.000-  40 2.35  42 2.35  52 2.35  62 2.35
  11  0.250  0.500  0.000-  37 2.35  43 2.35  49 2.35  63 2.35
  12  0.750  0.500  0.000-  38 2.35  44 2.35  50 2.35  64 2.35
  13  0.250  0.000  0.500-  35 2.35  45 2.35  55 2.35  57 2.35
  14  0.750  0.000  0.500-  36 2.35  46 2.35  56 2.35  58 2.35
  15  0.250  0.500  0.500-  33 2.35  47 2.35  53 2.35  59 2.35
  16  0.750  0.500  0.500-  34 2.35  48 2.35  54 2.35  60 2.35
  17  0.000  0.250  0.999-  38 2.35  61 2.35  49 2.36  42 2.36
  18  0.500  0.250  0.000-  37 2.35  41 2.35  50 2.35  62 2.35
  19  0.000  0.750  0.000-  40 2.35  44 2.35  51 2.35  63 2.35
  20  0.500  0.750  0.000-  39 2.35  43 2.35  52 2.35  64 2.35
  21  0.000  0.250  0.500-  34 2.35  46 2.35  53 2.35  57 2.35
  22  0.500  0.250  0.500-  33 2.35  45 2.35  54 2.35  58 2.35
  23  0.000  0.750  0.500-  36 2.35  48 2.35  55 2.35  59 2.35
  24  0.500  0.750  0.500-  35 2.35  47 2.35  56 2.35  60 2.35
  25  0.000  0.000  0.250-  36 2.35  42 2.35  51 2.35  57 2.35
  26  0.500  0.000  0.250-  35 2.35  41 2.35  52 2.35  58 2.35
  27  0.000  0.500  0.250-  34 2.35  44 2.35  49 2.35  59 2.35
  28  0.500  0.500  0.250-  33 2.35  43 2.35  50 2.35  60 2.35
  29  0.000  0.000  0.750-  40 2.35  46 2.35  55 2.35  61 2.35
  30  0.500  0.000  0.750-  39 2.35  45 2.35  56 2.35  62 2.35
  31  0.000  0.500  0.750-  38 2.35  48 2.35  53 2.35  63 2.35
  32  0.500  0.500  0.750-  37 2.35  47 2.35  54 2.35  64 2.35
  33  0.375  0.375  0.375-  15 2.35  22 2.35  28 2.35   1 2.36
  34  0.875  0.375  0.375-   2 2.35  16 2.35  21 2.35  27 2.35
  35  0.375  0.875  0.375-   3 2.35  13 2.35  24 2.35  26 2.35
  36  0.875  0.875  0.375-   4 2.35  14 2.35  23 2.35  25 2.35
  37  0.375  0.375  0.875-   5 2.35  11 2.35  18 2.35  32 2.35
  38  0.875  0.375  0.875-  17 2.35  12 2.35   6 2.35  31 2.35
  39  0.375  0.875  0.875-   7 2.35   9 2.35  20 2.35  30 2.35
  40  0.875  0.875  0.875-   8 2.35  10 2.35  19 2.35  29 2.35
  41  0.375  0.125  0.125-   9 2.35  18 2.35  26 2.35   1 2.36
  42  0.875  0.125  0.125-   2 2.35  10 2.35  25 2.35  17 2.36
  43  0.375  0.625  0.125-   3 2.35  11 2.35  20 2.35  28 2.35
  44  0.875  0.625  0.125-   4 2.35  12 2.35  19 2.35  27 2.35
  45  0.375  0.125  0.625-   5 2.35  13 2.35  22 2.35  30 2.35
  46  0.875  0.125  0.625-   6 2.35  14 2.35  21 2.35  29 2.35
  47  0.375  0.625  0.625-   7 2.35  15 2.35  24 2.35  32 2.35
  48  0.875  0.625  0.625-   8 2.35  16 2.35  23 2.35  31 2.35
  49  0.125  0.375  0.125-   1 2.35  11 2.35  27 2.35  17 2.36
  50  0.625  0.375  0.125-   2 2.35  12 2.35  18 2.35  28 2.35
  51  0.125  0.875  0.125-   3 2.35   9 2.35  19 2.35  25 2.35
  52  0.625  0.875  0.125-   4 2.35  10 2.35  20 2.35  26 2.35
  53  0.125  0.375  0.625-   5 2.35  15 2.35  21 2.35  31 2.35
  54  0.625  0.375  0.625-   6 2.35  16 2.35  22 2.35  32 2.35
  55  0.125  0.875  0.625-   7 2.35  13 2.35  23 2.35  29 2.35
  56  0.625  0.875  0.625-   8 2.35  14 2.35  24 2.35  30 2.35
  57  0.125  0.125  0.375-   1 2.35  13 2.35  21 2.35  25 2.35
  58  0.625  0.125  0.375-   2 2.35  14 2.35  22 2.35  26 2.35
  59  0.125  0.625  0.375-   3 2.35  15 2.35  23 2.35  27 2.35
  60  0.625  0.625  0.375-   4 2.35  16 2.35  24 2.35  28 2.35
  61  0.125  0.125  0.875-  17 2.35   9 2.35   5 2.35  29 2.35
  62  0.625  0.125  0.875-   6 2.35  10 2.35  18 2.35  30 2.35
  63  0.125  0.625  0.875-   7 2.35  11 2.35  19 2.35  31 2.35
  64  0.625  0.625  0.875-   8 2.35  12 2.35  20 2.35  32 2.35
 
  LATTYP: Found a simple cubic cell.
 ALAT       =    10.8691451200
  
  Lattice vectors:
  
 A1 = (  10.8691451200,  -0.0000000000,  -0.0000000000)
 A2 = (  -0.0000000000,  10.8691451200,   0.0000000000)
 A3 = (   0.0000000000,   0.0000000000,  10.8691451200)


Analysis of symmetry for initial positions (statically):
=====================================================================
 Subroutine PRICEL returns:
 Original cell was already a primitive cell.
 

 Routine SETGRP: Setting up the symmetry group for a 
 simple cubic supercell.


 Subroutine GETGRP returns: Found  1 space group operations
 (whereof  1 operations were pure point group operations)
 out of a pool of 48 trial point group operations.


The static configuration has the point symmetry C_1 .


Analysis of symmetry for dynamics (positions and initial velocities):
=====================================================================
 Subroutine PRICEL returns:
 Original cell was already a primitive cell.
 

 Routine SETGRP: Setting up the symmetry group for a 
 simple cubic supercell.


 Subroutine GETGRP returns: Found  1 space group operations
 (whereof  1 operations were pure point group operations)
 out of a pool of 48 trial point group operations.


The dynamic configuration has the point symmetry C_1 .


 Subroutine INISYM returns: Found  1 space group operations
 (whereof  1 operations are pure point group operations),
 and found     1 'primitive' translations


----------------------------------------------------------------------------------------

                                     Primitive cell                                     

  volume of cell :    1284.0625

  direct lattice vectors                    reciprocal lattice vectors
    10.869145120 -0.000000000 -0.000000000     0.092003556  0.000000000 -0.000000000
    -0.000000000 10.869145120  0.000000000     0.000000000  0.092003556 -0.000000000
     0.000000000  0.000000000 10.869145120     0.000000000 -0.000000000  0.092003556

  length of vectors
    10.869145120 10.869145120 10.869145120     0.092003556  0.092003556  0.092003556

  position of ions in fractional coordinates (direct lattice)
     0.249079964  0.250000000  0.250000000
     0.750000000  0.250000000  0.250000000
     0.250000000  0.750000000  0.250000000
     0.750000000  0.750000000  0.250000000
     0.250000000  0.250000000  0.750000000
     0.750000000  0.250000000  0.750000000
     0.250000000  0.750000000  0.750000000
     0.750000000  0.750000000  0.750000000
     0.250000000  1.000000000  1.000000000
     0.750000000  1.000000000  1.000000000
     0.250000000  0.500000000  0.000000000
     0.750000000  0.500000000  1.000000000
     0.250000000  0.000000000  0.500000000
     0.750000000  1.000000000  0.500000000
     0.250000000  0.500000000  0.500000000
     0.750000000  0.500000000  0.500000000
     0.000000000  0.250000000  0.999079964
     0.500000000  0.250000000  1.000000000
     1.000000000  0.750000000  0.000000000
     0.500000000  0.750000000  0.000000000
     0.000000000  0.250000000  0.500000000
     0.500000000  0.250000000  0.500000000
     1.000000000  0.750000000  0.500000000
     0.500000000  0.750000000  0.500000000
     0.000000000  0.000000000  0.250000000
     0.500000000  1.000000000  0.250000000
     1.000000000  0.500000000  0.250000000
     0.500000000  0.500000000  0.250000000
     0.000000000  0.000000000  0.750000000
     0.500000000  0.000000000  0.750000000
     0.000000000  0.500000000  0.750000000
     0.500000000  0.500000000  0.750000000
     0.375000000  0.375000000  0.375000000
     0.875000000  0.375000000  0.375000000
     0.375000000  0.875000000  0.375000000
     0.875000000  0.875000000  0.375000000
     0.375000000  0.375000000  0.875000000
     0.875000000  0.375000000  0.875000000
     0.375000000  0.875000000  0.875000000
     0.875000000  0.875000000  0.875000000
     0.375000000  0.125000000  0.125000000
     0.875000000  0.125000000  0.125000000
     0.375000000  0.625000000  0.125000000
     0.875000000  0.625000000  0.125000000
     0.375000000  0.125000000  0.625000000
     0.875000000  0.125000000  0.625000000
     0.375000000  0.625000000  0.625000000
     0.875000000  0.625000000  0.625000000
     0.125000000  0.375000000  0.125000000
     0.625000000  0.375000000  0.125000000
     0.125000000  0.875000000  0.125000000
     0.625000000  0.875000000  0.125000000
     0.125000000  0.375000000  0.625000000
     0.625000000  0.375000000  0.625000000
     0.125000000  0.875000000  0.625000000
     0.625000000  0.875000000  0.625000000
     0.125000000  0.125000000  0.375000000
     0.625000000  0.125000000  0.375000000
     0.125000000  0.625000000  0.375000000
     0.625000000  0.625000000  0.375000000
     0.125000000  0.125000000  0.875000000
     0.625000000  0.125000000  0.875000000
     0.125000000  0.625000000  0.875000000
     0.625000000  0.625000000  0.875000000

  ion indices of the primitive-cell ions
   primitive index   ion index
                 1           1
                 2           2
                 3           3
                 4           4
                 5           5
                 6           6
                 7           7
                 8           8
                 9           9
                10          10
                11          11
                12          12
                13          13
                14          14
                15          15
                16          16
                17          17
                18          18
                19          19
                20          20
                21          21
                22          22
                23          23
                24          24
                25          25
                26          26
                27          27
                28          28
                29          29
                30          30
                31          31
                32          32
                33          33
                34          34
                35          35
                36          36
                37          37
                38          38
                39          39
                40          40
                41          41
                42          42
                43          43
                44          44
                45          45
                46          46
                47          47
                48          48
                49          49
                50          50
                51          51
                52          52
                53          53
                54          54
                55          55
                56          56
                57          57
                58          58
                59          59
                60          60
                61          61
                62          62
                63          63
                64          64

----------------------------------------------------------------------------------------

 
 
 KPOINTS: KPOINTS created by Atomic Simulation Env

Automatic generation of k-mesh.
 Grid dimensions read from file:
 generate k-points for:    2    2    2

 Generating k-lattice:

  Cartesian coordinates                     Fractional coordinates (reciprocal lattice)
     0.046001778  0.000000000 -0.000000000     0.500000000 -0.000000000  0.000000000
     0.000000000  0.046001778 -0.000000000    -0.000000000  0.500000000  0.000000000
     0.000000000 -0.000000000  0.046001778    -0.000000000  0.000000000  0.500000000

  Length of vectors
     0.046001778  0.046001778  0.046001778

  Shift w.r.t. Gamma in fractional coordinates (k-lattice)
     0.000000000  0.000000000  0.000000000

 
 Subroutine IBZKPT returns following result:
 ===========================================
 
 Found      8 irreducible k-points:
 
 Following reciprocal coordinates:
            Coordinates               Weight
  0.000000  0.000000  0.000000      1.000000
  0.500000  0.000000  0.000000      1.000000
 -0.000000  0.500000  0.000000      1.000000
  0.000000 -0.000000  0.500000      1.000000
  0.500000  0.500000  0.000000      1.000000
  0.000000  0.500000  0.500000      1.000000
  0.500000 -0.000000  0.500000      1.000000
  0.500000  0.500000  0.500000      1.000000
 
 Following cartesian coordinates:
            Coordinates               Weight
  0.000000  0.000000  0.000000      1.000000
  0.046002  0.000000  0.000000      1.000000
  0.000000  0.046002  0.000000      1.000000
  0.000000 -0.000000  0.046002      1.000000
  0.046002  0.046002  0.000000      1.000000
  0.000000  0.046002  0.046002      1.000000
  0.046002  0.000000  0.046002      1.000000
  0.046002  0.046002  0.046002      1.000000
 


--------------------------------------------------------------------------------------------------------




 Dimension of arrays:
   k-points           NKPTS =      8   k-points in BZ     NKDIM =      8   number of bands    NBANDS=    168
   number of dos      NEDOS =    301   number of ions     NIONS =     64
   non local maximal  LDIM  =      4   non local SUM 2l+1 LMDIM =      8
   total plane-waves  NPLWV = 262144
   max r-space proj   IRMAX =      1   max aug-charges    IRDMAX=  54800
   dimension x,y,z NGX =    64 NGY =   64 NGZ =   64
   dimension x,y,z NGXF=   128 NGYF=  128 NGZF=  128
   support grid    NGXF=   256 NGYF=  256 NGZF=  256
   ions per type =              64
   NGX,Y,Z   is equivalent  to a cutoff of   9.79,  9.79,  9.79 a.u.
   NGXF,Y,Z  is equivalent  to a cutoff of  19.58, 19.58, 19.58 a.u.

 SYSTEM =  unknown system                          
 POSCAR =  Si                                      

 Startparameter for this run:
   NWRITE =      2    write-flag & timer
   PREC   = accura    normal or accurate (medium, high low for compatibility)
   ISTART =      0    job   : 0-new  1-cont  2-samecut
   ICHARG =      2    charge: 1-file 2-atom 10-const
   ISPIN  =      1    spin polarized calculation?
   LNONCOLLINEAR =      F non collinear calculations
   LSORBIT =      F    spin-orbit coupling
   INIWAV =      1    electr: 0-lowe 1-rand  2-diag
   LASPH  =      F    aspherical Exc in radial PAW
 Electronic Relaxation 1
   ENCUT  =  318.0 eV  23.37 Ry    4.83 a.u.  15.80 15.80 15.80*2*pi/ulx,y,z
   ENINI  =  318.0     initial cutoff
   ENAUG  =  322.1 eV  augmentation charge cutoff
   NELM   =     60;   NELMIN=  5; NELMDL= -5     # of ELM steps 
   EDIFF  = 0.1E-07   stopping-criterion for ELM
   LREAL  =      F    real-space projection
   NLSPLINE    = F    spline interpolate recip. space projectors
   LCOMPAT=      F    compatible to vasp.4.4
   GGA_COMPAT  = T    GGA compatible to vasp.4.4-vasp.4.6
   LMAXPAW     = -100 max onsite density
   LMAXMIX     =    2 max onsite mixed and CHGCAR
   VOSKOWN=      0    Vosko Wilk Nusair interpolation
   ROPT   =    0.00000
 Ionic relaxation
   EDIFFG = 0.1E-06   stopping-criterion for IOM
   NSW    =      0    number of steps for IOM
   NBLOCK =      1;   KBLOCK =      1    inner block; outer block 
   IBRION =     -1    ionic relax: 0-MD 1-quasi-New 2-CG
   NFREE  =      0    steps in history (QN), initial steepest desc. (CG)
   ISIF   =      2    stress and relaxation
   IWAVPR =     10    prediction:  0-non 1-charg 2-wave 3-comb
   ISYM   =      2    0-nonsym 1-usesym 2-fastsym
   LCORR  =      T    Harris-Foulkes like correction to forces

   POTIM  = 0.5000    time-step for ionic-motion
   TEIN   =    0.0    initial temperature
   TEBEG  =    0.0;   TEEND  =   0.0 temperature during run
   SMASS  =  -3.00    Nose mass-parameter (am)
   estimated Nose-frequenzy (Omega)   =  0.10E-29 period in steps = 0.13E+47 mass=  -0.270E-26a.u.
   SCALEE = 1.0000    scale energy and forces
   NPACO  =    256;   APACO  = 10.0  distance and # of slots for P.C.
   PSTRESS=    0.0 pullay stress

  Mass of Ions in am
   POMASS =  28.09
  Ionic Valenz
   ZVAL   =   4.00
  Atomic Wigner-Seitz radii
   RWIGS  =  -1.00
  virtual crystal weights 
   VCA    =   1.00
   NELECT =     256.0000    total number of electrons
   NUPDOWN=      -1.0000    fix difference up-down

 DOS related values:
   EMIN   =  10.00;   EMAX   =-10.00  energy-range for DOS
   EFERMI =   0.00
   ISMEAR =     0;   SIGMA  =   0.02  broadening in eV -4-tet -1-fermi 0-gaus

 Electronic relaxation 2 (details)
   IALGO  =     38    algorithm
   LDIAG  =      T    sub-space diagonalisation (order eigenvalues)
   LSUBROT=      F    optimize rotation matrix (better conditioning)
   TURBO    =      0    0=normal 1=particle mesh
   IRESTART =      0    0=no restart 2=restart with 2 vectors
   NREBOOT  =      0    no. of reboots
   NMIN     =      0    reboot dimension
   EREF     =   0.00    reference energy to select bands
   IMIX   =      4    mixing-type and parameters
     AMIX     =   0.40;   BMIX     =  1.00
     AMIX_MAG =   1.60;   BMIX_MAG =  1.00
     AMIN     =   0.10
     WC   =   100.;   INIMIX=   1;  MIXPRE=   1;  MAXMIX= -45

 Intra band minimization:
   WEIMIN = 0.0000     energy-eigenvalue tresh-hold
   EBREAK =  0.15E-10  absolut break condition
   DEPER  =   0.30     relativ break condition  

   TIME   =   0.40     timestep for ELM

  volume/ion in A,a.u.               =      20.06       135.40
  Fermi-wavevector in a.u.,A,eV,Ry     =   0.956370  1.807278 12.444490  0.914644
  Thomas-Fermi vector in A             =   2.085292
 
 Write flags
   LWAVE        =      F    write WAVECAR
   LDOWNSAMPLE  =      F    k-point downsampling of WAVECAR
   LCHARG       =      F    write CHGCAR
   LVTOT        =      F    write LOCPOT, total local potential
   LVHAR        =      F    write LOCPOT, Hartree potential only
   LELF         =      F    write electronic localiz. function (ELF)
   LORBIT       =      0    0 simple, 1 ext, 2 COOP (PROOUT), +10 PAW based schemes


 Dipole corrections
   LMONO  =      F    monopole corrections only (constant potential shift)
   LDIPOL =      F    correct potential (dipole corrections)
   IDIPOL =      0    1-x, 2-y, 3-z, 4-all directions 
   EPSILON=  1.0000000 bulk dielectric constant

 Exchange correlation treatment:
   GGA     =    PS    GGA type
   LEXCH   =    14    internal setting for exchange type
   LIBXC   =     F    Libxc                    
   VOSKOWN =     0    Vosko Wilk Nusair interpolation
   LHFCALC =     F    Hartree Fock is set to
   LHFONE  =     F    Hartree Fock one center treatment
   AEXX    =    0.0000 exact exchange contribution

 Linear response parameters
   LEPSILON=     F    determine dielectric tensor
   LRPA    =     F    only Hartree local field effects (RPA)
   LNABLA  =     F    use nabla operator in PAW spheres
   LVEL    =     F    velocity operator in full k-point grid
   CSHIFT  =0.1000    complex shift for real part using Kramers Kronig
   OMEGAMAX=  -1.0    maximum frequency
   DEG_THRESHOLD= 0.2000000E-02 threshold for treating states as degnerate
   RTIME   =   -0.100 relaxation time in fs
  (WPLASMAI=    0.000 imaginary part of plasma frequency in eV, 0.658/RTIME)
   DFIELD  = 0.0000000 0.0000000 0.0000000 field for delta impulse in time
 
  Optional k-point grid parameters
   LKPOINTS_OPT  =     F    use optional k-point grid
   KPOINTS_OPT_MODE=     1    mode for optional k-point grid
 
 Orbital magnetization related:
   ORBITALMAG=     F  switch on orbital magnetization
   LCHIMAG   =     F  perturbation theory with respect to B field
   DQ        =  0.001000  dq finite difference perturbation B field
   LLRAUG    =     F  two centre corrections for induced B field



--------------------------------------------------------------------------------------------------------


 Static calculation
 charge density and potential will be updated during run
 non-spin polarized calculation
 Variant of blocked Davidson
 Davidson routine will perform the subspace rotation
 perform sub-space diagonalisation
    after iterative eigenvector-optimisation
 modified Broyden-mixing scheme, WC =      100.0
 initial mixing is a Kerker type mixing with AMIX =  0.4000 and BMIX =      1.0000
 Hartree-type preconditioning will be used
 using additional bands           40
 reciprocal scheme for non local part
 use partial core corrections
 calculate Harris-corrections to forces 
   (improved forces if not selfconsistent)
 use gradient corrections 
 use of overlap-Matrix (Vanderbilt PP)
 Gauss-broadening in eV      SIGMA  =   0.02


--------------------------------------------------------------------------------------------------------


  energy-cutoff  :      318.00
  volume of cell :     1284.06
      direct lattice vectors                 reciprocal lattice vectors
    10.869145120 -0.000000000 -0.000000000     0.092003556  0.000000000 -0.000000000
    -0.000000000 10.869145120  0.000000000     0.000000000  0.092003556 -0.000000000
     0.000000000  0.000000000 10.869145120     0.000000000 -0.000000000  0.092003556

  length of vectors
    10.869145120 10.869145120 10.869145120     0.092003556  0.092003556  0.092003556


 
 k-points in units of 2pi/SCALE and weight: KPOINTS created by Atomic Simulation Env
   0.00000000  0.00000000  0.00000000       0.125
   0.04600178  0.00000000  0.00000000       0.125
   0.00000000  0.04600178  0.00000000       0.125
   0.00000000 -0.00000000  0.04600178       0.125
   0.04600178  0.04600178  0.00000000       0.125
   0.00000000  0.04600178  0.04600178       0.125
   0.04600178  0.00000000  0.04600178       0.125
   0.04600178  0.04600178  0.04600178       0.125
 
 k-points in reciprocal lattice and weights: KPOINTS created by Atomic Simulation Env
   0.00000000  0.00000000  0.00000000       0.125
   0.50000000  0.00000000  0.00000000       0.125
  -0.00000000  0.50000000  0.00000000       0.125
   0.00000000 -0.00000000  0.50000000       0.125
   0.50000000  0.50000000  0.00000000       0.125
   0.00000000  0.50000000  0.50000000       0.125
   0.50000000 -0.00000000  0.50000000       0.125
   0.50000000  0.50000000  0.50000000       0.125
 
 position of ions in fractional coordinates (direct lattice) 
   0.24907996  0.25000000  0.25000000
   0.75000000  0.25000000  0.25000000
   0.25000000  0.75000000  0.25000000
   0.75000000  0.75000000  0.25000000
   0.25000000  0.25000000  0.75000000
   0.75000000  0.25000000  0.75000000
   0.25000000  0.75000000  0.75000000
   0.75000000  0.75000000  0.75000000
   0.25000000  0.00000000  0.00000000
   0.75000000  0.00000000  0.00000000
   0.25000000  0.50000000  0.00000000
   0.75000000  0.50000000  0.00000000
   0.25000000  0.00000000  0.50000000
   0.75000000  0.00000000  0.50000000
   0.25000000  0.50000000  0.50000000
   0.75000000  0.50000000  0.50000000
   0.00000000  0.25000000  0.99907996
   0.50000000  0.25000000  0.00000000
   0.00000000  0.75000000  0.00000000
   0.50000000  0.75000000  0.00000000
   0.00000000  0.25000000  0.50000000
   0.50000000  0.25000000  0.50000000
   0.00000000  0.75000000  0.50000000
   0.50000000  0.75000000  0.50000000
   0.00000000  0.00000000  0.25000000
   0.50000000  0.00000000  0.25000000
   0.00000000  0.50000000  0.25000000
   0.50000000  0.50000000  0.25000000
   0.00000000  0.00000000  0.75000000
   0.50000000  0.00000000  0.75000000
   0.00000000  0.50000000  0.75000000
   0.50000000  0.50000000  0.75000000
   0.37500000  0.37500000  0.37500000
   0.87500000  0.37500000  0.37500000
   0.37500000  0.87500000  0.37500000
   0.87500000  0.87500000  0.37500000
   0.37500000  0.37500000  0.87500000
   0.87500000  0.37500000  0.87500000
   0.37500000  0.87500000  0.87500000
   0.87500000  0.87500000  0.87500000
   0.37500000  0.12500000  0.12500000
   0.87500000  0.12500000  0.12500000
   0.37500000  0.62500000  0.12500000
   0.87500000  0.62500000  0.12500000
   0.37500000  0.12500000  0.62500000
   0.87500000  0.12500000  0.62500000
   0.37500000  0.62500000  0.62500000
   0.87500000  0.62500000  0.62500000
   0.12500000  0.37500000  0.12500000
   0.62500000  0.37500000  0.12500000
   0.12500000  0.87500000  0.12500000
   0.62500000  0.87500000  0.12500000
   0.12500000  0.37500000  0.62500000
   0.62500000  0.37500000  0.62500000
   0.12500000  0.87500000  0.62500000
   0.62500000  0.87500000  0.62500000
   0.12500000  0.12500000  0.37500000
   0.62500000  0.12500000  0.37500000
   0.12500000  0.62500000  0.37500000
   0.62500000  0.62500000  0.37500000
   0.12500000  0.12500000  0.87500000
   0.62500000  0.12500000  0.87500000
   0.12500000  0.62500000  0.87500000
   0.62500000  0.62500000  0.87500000
 
 position of ions in cartesian coordinates  (Angst):
   2.70728628  2.71728628  2.71728628
   8.15185884  2.71728628  2.71728628
   2.71728628  8.15185884  2.71728628
   8.15185884  8.15185884  2.71728628
   2.71728628  2.71728628  8.15185884
   8.15185884  2.71728628  8.15185884
   2.71728628  8.15185884  8.15185884
   8.15185884  8.15185884  8.15185884
   2.71728628 -0.00000000 -0.00000000
   8.15185884 -0.00000000 -0.00000000
   2.71728628  5.43457256  0.00000000
   8.15185884  5.43457256 -0.00000000
   2.71728628  0.00000000  5.43457256
   8.15185884 -0.00000000  5.43457256
   2.71728628  5.43457256  5.43457256
   8.15185884  5.43457256  5.43457256
   0.00000000  2.71728628 10.85914512
   5.43457256  2.71728628 -0.00000000
  -0.00000000  8.15185884  0.00000000
   5.43457256  8.15185884  0.00000000
   0.00000000  2.71728628  5.43457256
   5.43457256  2.71728628  5.43457256
  -0.00000000  8.15185884  5.43457256
   5.43457256  8.15185884  5.43457256
   0.00000000  0.00000000  2.71728628
   5.43457256 -0.00000000  2.71728628
  -0.00000000  5.43457256  2.71728628
   5.43457256  5.43457256  2.71728628
   0.00000000  0.00000000  8.15185884
   5.43457256  0.00000000  8.15185884
   0.00000000  5.43457256  8.15185884
   5.43457256  5.43457256  8.15185884
   4.07592942  4.07592942  4.07592942
   9.51050198  4.07592942  4.07592942
   4.07592942  9.51050198  4.07592942
   9.51050198  9.51050198  4.07592942
   4.07592942  4.07592942  9.51050198
   9.51050198  4.07592942  9.51050198
   4.07592942  9.51050198  9.51050198
   9.51050198  9.51050198  9.51050198
   4.07592942  1.35864314  1.35864314
   9.51050198  1.35864314  1.35864314
   4.07592942  6.79321570  1.35864314
   9.51050198  6.79321570  1.35864314
   4.07592942  1.35864314  6.79321570
   9.51050198  1.35864314  6.79321570
   4.07592942  6.79321570  6.79321570
   9.51050198  6.79321570  6.79321570
   1.35864314  4.07592942  1.35864314
   6.79321570  4.07592942  1.35864314
   1.35864314  9.51050198  1.35864314
   6.79321570  9.51050198  1.35864314
   1.35864314  4.07592942  6.79321570
   6.79321570  4.07592942  6.79321570
   1.35864314  9.51050198  6.79321570
   6.79321570  9.51050198  6.79321570
   1.35864314  1.35864314  4.07592942
   6.79321570  1.35864314  4.07592942
   1.35864314  6.79321570  4.07592942
   6.79321570  6.79321570  4.07592942
   1.35864314  1.35864314  9.51050198
   6.79321570  1.35864314  9.51050198
   1.35864314  6.79321570  9.51050198
   6.79321570  6.79321570  9.51050198
 


--------------------------------------------------------------------------------------------------------


 k-point   1 :   0.0000 0.0000 0.0000  plane waves:   16519
 k-point   2 :   0.5000 0.0000 0.0000  plane waves:   16488
 k-point   3 :  -0.0000 0.5000 0.0000  plane waves:   16488
 k-point   4 :   0.0000-0.0000 0.5000  plane waves:   16488
 k-point   5 :   0.5000 0.5000 0.0000  plane waves:   16588
 k-point   6 :   0.0000 0.5000 0.5000  plane waves:   16588
 k-point   7 :   0.5000-0.0000 0.5000  plane waves:   16588
 k-point   8 :   0.5000 0.5000 0.5000  plane waves:   16560

 maximum and minimum number of plane-waves per node :      4165     4106

 maximum number of plane-waves:     16588
 maximum index in each direction: 
   IXMAX=   15   IYMAX=   15   IZMAX=   15
   IXMIN=  -16   IYMIN=  -16   IZMIN=  -16


 parallel 3D FFT for wavefunctions:
    minimum data exchange during FFTs selected (reduces bandwidth)
 parallel 3D FFT for charge:
    minimum data exchange during FFTs selected (reduces bandwidth)


 total amount of memory used by VASP MPI-rank0    65387. kBytes
=======================================================================

   base      :      30000. kBytes
   nonl-proj :       6402. kBytes
   fftplans  :      11573. kBytes
   grid      :       5816. kBytes
   one-center:         49. kBytes
   wavefun   :      11547. kBytes
 
     INWAV:  cpu time      0.0000: real time      0.0000
 Broyden mixing: mesh for mixing (old mesh)
   NGX = 31   NGY = 31   NGZ = 31
  (NGX  =128   NGY  =128   NGZ  =128)
  gives a total of  29791 points

 initial charge density was supplied:
 charge density of overlapping atoms calculated
 number of electron     256.0000000 magnetization 
 keeping initial charge density in first step


--------------------------------------------------------------------------------------------------------


 Maximum index for augmentation-charges         1707 (set IRDMAX)


--------------------------------------------------------------------------------------------------------


 First call to EWALD:  gamma=   0.163
 Maximum number of real-space cells 3x 3x 3
 Maximum number of reciprocal cells 3x 3x 3

    FEWALD:  cpu time      0.0019: real time      0.0019


--------------------------------------- Iteration      1(   1)  ---------------------------------------


    POTLOK:  cpu time      0.0246: real time      0.0248
    SETDIJ:  cpu time      0.0226: real time      0.0227
     EDDAV:  cpu time      2.2924: real time      2.3044
       DOS:  cpu time      0.0008: real time      0.0008
    --------------------------------------------
      LOOP:  cpu time      2.3404: real time      2.3527

 eigenvalue-minimisations  :  2688
 total energy-change (2. order) : 0.4510116E+03  (-0.7260799E+04)
 number of electron     256.0000000 magnetization 
 augmentation part      256.0000000 magnetization 

 Free energy of the ion-electron system (eV)
  ---------------------------------------------------
  alpha Z        PSCENC =       107.38120932
  Ewald energy   TEWEN  =     -7307.87593351
  -Hartree energ DENC   =      -353.25040901
  -exchange      EXHF   =         0.00000000
  -V(xc)+E(xc)   XCENC  =      -558.85371335
  PAW double counting   =      5598.62625415    -4492.17844134
  entropy T*S    EENTRO =        -0.00314820
  eigenvalues    EBANDS =       892.39872362
  atomic energy  EATOM  =      6564.76702419
  Solvation  Ediel_sol  =         0.00000000
  ---------------------------------------------------
  free energy    TOTEN  =       451.01156587 eV

  energy without entropy =      451.01471407  energy(sigma->0) =      451.01313997


--------------------------------------------------------------------------------------------------------




--------------------------------------- Iteration      1(   2)  ---------------------------------------


     EDDAV:  cpu time      2.6243: real time      2.6384
       DOS:  cpu time      0.0003: real time      0.0003
    --------------------------------------------
      LOOP:  cpu time      2.6246: real time      2.6386

 eigenvalue-minimisations  :  3232
 total energy-change (2. order) :-0.7730837E+03  (-0.7307955E+03)
 number of electron     256.0000000 magnetization 
 augmentation part      256.0000000 magnetization 

 Free energy of the ion-electron system (eV)
  ---------------------------------------------------
  alpha Z        PSCENC =       107.38120932
  Ewald energy   TEWEN  =     -7307.87593351
  -Hartree energ DENC   =      -353.25040901
  -exchange      EXHF   =         0.00000000
  -V(xc)+E(xc)   XCENC  =      -558.85371335
  PAW double counting   =      5598.62625415    -4492.17844134
  entropy T*S    EENTRO =        -0.00000000
  eigenvalues    EBANDS =       119.31191477
  atomic energy  EATOM  =      6564.76702419
  Solvation  Ediel_sol  =         0.00000000
  ---------------------------------------------------
  free energy    TOTEN  =      -322.07209478 eV

  energy without entropy =     -322.07209478  energy(sigma->0) =     -322.07209478


--------------------------------------------------------------------------------------------------------




--------------------------------------- Iteration      1(   3)  ---------------------------------------


     EDDAV:  cpu time      2.6753: real time      2.6891
       DOS:  cpu time      0.0003: real time      0.0002
    --------------------------------------------
      LOOP:  cpu time      2.6755: real time      2.6894

 eigenvalue-minimisations  :  3304
 total energy-change (2. order) :-0.5134244E+02  (-0.5048113E+02)
 number of electron     256.0000000 magnetization 
 augmentation part      256.0000000 magnetization 

 Free energy of the ion-electron system (eV)
  ---------------------------------------------------
  alpha Z        PSCENC =       107.38120932
  Ewald energy   TEWEN  =     -7307.87593351
  -Hartree energ DENC   =      -353.25040901
  -exchange      EXHF   =         0.00000000
  -V(xc)+E(xc)   XCENC  =      -558.85371335
  PAW double counting   =      5598.62625415    -4492.17844134
  entropy T*S    EENTRO =        -0.00000000
  eigenvalues    EBANDS =        67.96947369
  atomic energy  EATOM  =      6564.76702419
  Solvation  Ediel_sol  =         0.00000000
  ---------------------------------------------------
  free energy    TOTEN  =      -373.41453586 eV

  energy without entropy =     -373.41453586  energy(sigma->0) =     -373.41453586


--------------------------------------------------------------------------------------------------------




--------------------------------------- Iteration      1(   4)  ---------------------------------------


     EDDAV:  cpu time      2.6251: real time      2.6390
       DOS:  cpu time      0.0002: real time      0.0002
    --------------------------------------------
      LOOP:  cpu time      2.6253: real time      2.6392

 eigenvalue-minimisations  :  3224
 total energy-change (2. order) :-0.1184006E+01  (-0.1175560E+01)
 number of electron     256.0000000 magnetization 
 augmentation part      256.0000000 magnetization 

 Free energy of the ion-electron system (eV)
  ---------------------------------------------------
  alpha Z        PSCENC =       107.38120932
  Ewald energy   TEWEN  =     -7307.87593351
  -Hartree energ DENC   =      -353.25040901
  -exchange      EXHF   =         0.00000000
  -V(xc)+E(xc)   XCENC  =      -558.85371335
  PAW double counting   =      5598.62625415    -4492.17844134
  entropy T*S    EENTRO =        -0.00000000
  eigenvalues    EBANDS =        66.78546789
  atomic energy  EATOM  =      6564.76702419
  Solvation  Ediel_sol  =         0.00000000
  ---------------------------------------------------
  free energy    TOTEN  =      -374.59854166 eV

  energy without entropy =     -374.59854166  energy(sigma->0) =     -374.59854166


--------------------------------------------------------------------------------------------------------




--------------------------------------- Iteration      1(   5)  ---------------------------------------


     EDDAV:  cpu time      2.6099: real time      2.6233
       DOS:  cpu time      0.0003: real time      0.0003
    CHARGE:  cpu time      0.0793: real time      0.0797
    MIXING:  cpu time      0.0022: real time      0.0022
    --------------------------------------------
      LOOP:  cpu time      2.6917: real time      2.7055

 eigenvalue-minimisations  :  3208
 total energy-change (2. order) :-0.4223940E-01  (-0.4219099E-01)
 number of electron     255.9999994 magnetization 
 augmentation part      -14.9589357 magnetization 

 Broyden mixing:
  rms(total) = 0.28466E+01    rms(broyden)= 0.28465E+01
  rms(prec ) = 0.31322E+01
  weight for this iteration     100.00

 Free energy of the ion-electron system (eV)
  ---------------------------------------------------
  alpha Z        PSCENC =       107.38120932
  Ewald energy   TEWEN  =     -7307.87593351
  -Hartree energ DENC   =      -353.25040901
  -exchange      EXHF   =         0.00000000
  -V(xc)+E(xc)   XCENC  =      -558.85371335
  PAW double counting   =      5598.62625415    -4492.17844134
  entropy T*S    EENTRO =        -0.00000000
  eigenvalues    EBANDS =        66.74322849
  atomic energy  EATOM  =      6564.76702419
  Solvation  Ediel_sol  =         0.00000000
  ---------------------------------------------------
  free energy    TOTEN  =      -374.64078106 eV

  energy without entropy =     -374.64078106  energy(sigma->0) =     -374.64078106


--------------------------------------------------------------------------------------------------------




--------------------------------------- Iteration      1(   6)  ---------------------------------------


    POTLOK:  cpu time      0.0223: real time      0.0225
    SETDIJ:  cpu time      0.0220: real time      0.0221
     EDDAV:  cpu time      2.5085: real time      2.5219
       DOS:  cpu time      0.0002: real time      0.0002
    CHARGE:  cpu time      0.0771: real time      0.0775
    MIXING:  cpu time      0.0027: real time      0.0028
    --------------------------------------------
      LOOP:  cpu time      2.6329: real time      2.6469

 eigenvalue-minimisations  :  3040
 total energy-change (2. order) : 0.4919269E+01  (-0.2592074E+00)
 number of electron     255.9999994 magnetization 
 augmentation part      -14.7996860 magnetization 

 Broyden mixing:
  rms(total) = 0.17163E+01    rms(broyden)= 0.17163E+01
  rms(prec ) = 0.18754E+01
  weight for this iteration     100.00

 eigenvalues of (default mixing * dielectric matrix)
  average eigenvalue GAMMA=   2.5110
  2.5110

 Free energy of the ion-electron system (eV)
  ---------------------------------------------------
  alpha Z        PSCENC =       107.38120932
  Ewald energy   TEWEN  =     -7307.87593351
  -Hartree energ DENC   =      -399.23603627
  -exchange      EXHF   =         0.00000000
  -V(xc)+E(xc)   XCENC  =      -551.57540036
  PAW double counting   =     12482.77869822   -11379.57645834
  entropy T*S    EENTRO =        -0.00000000
  eigenvalues    EBANDS =       113.61538434
  atomic energy  EATOM  =      6564.76702419
  Solvation  Ediel_sol  =         0.00000000
  ---------------------------------------------------
  free energy    TOTEN  =      -369.72151242 eV

  energy without entropy =     -369.72151242  energy(sigma->0) =     -369.72151242


--------------------------------------------------------------------------------------------------------




--------------------------------------- Iteration      1(   7)  ---------------------------------------


    POTLOK:  cpu time      0.0214: real time      0.0216
    SETDIJ:  cpu time      0.0221: real time      0.0222
     EDDAV:  cpu time      2.5154: real time      2.5284
       DOS:  cpu time      0.0003: real time      0.0003
    CHARGE:  cpu time      0.0769: real time      0.0775
    MIXING:  cpu time      0.0029: real time      0.0029
    --------------------------------------------
      LOOP:  cpu time      2.6389: real time      2.6529

 eigenvalue-minimisations  :  3056
 total energy-change (2. order) : 0.2231151E+01  (-0.5238386E+00)
 number of electron     255.9999994 magnetization 
 augmentation part      -14.5985502 magnetization 

 Broyden mixing:
  rms(total) = 0.99595E-01    rms(broyden)= 0.99595E-01
  rms(prec ) = 0.12384E+00
  weight for this iteration     100.00

 eigenvalues of (default mixing * dielectric matrix)
  average eigenvalue GAMMA=   2.2499
  2.2499  2.2499

 Free energy of the ion-electron system (eV)
  ---------------------------------------------------
  alpha Z        PSCENC =       107.38120932
  Ewald energy   TEWEN  =     -7307.87593351
  -Hartree energ DENC   =      -473.64963748
  -exchange      EXHF   =         0.00000000
  -V(xc)+E(xc)   XCENC  =      -539.13731711
  PAW double counting   =     29122.08568274   -28023.25517613
  entropy T*S    EENTRO =        -0.00000000
  eigenvalues    EBANDS =       182.19378702
  atomic energy  EATOM  =      6564.76702419
  Solvation  Ediel_sol  =         0.00000000
  ---------------------------------------------------
  free energy    TOTEN  =      -367.49036096 eV

  energy without entropy =     -367.49036096  energy(sigma->0) =     -367.49036096


--------------------------------------------------------------------------------------------------------




--------------------------------------- Iteration      1(   8)  ---------------------------------------


    POTLOK:  cpu time      0.0215: real time      0.0217
    SETDIJ:  cpu time      0.0221: real time      0.0222
     EDDAV:  cpu time      2.5262: real time      2.5394
       DOS:  cpu time      0.0005: real time      0.0005
    CHARGE:  cpu time      0.0786: real time      0.0790
    MIXING:  cpu time      0.0027: real time      0.0027
    --------------------------------------------
      LOOP:  cpu time      2.6516: real time      2.6655

 eigenvalue-minimisations  :  3072
 total energy-change (2. order) :-0.7140559E-02  (-0.2828503E-01)
 number of electron     255.9999994 magnetization 
 augmentation part      -14.6402989 magnetization 

 Broyden mixing:
  rms(total) = 0.35198E-01    rms(broyden)= 0.35197E-01
  rms(prec ) = 0.40526E-01
  weight for this iteration     100.00

 eigenvalues of (default mixing * dielectric matrix)
  average eigenvalue GAMMA=   2.4274
  2.8155  2.2333  2.2333

 Free energy of the ion-electron system (eV)
  ---------------------------------------------------
  alpha Z        PSCENC =       107.38120932
  Ewald energy   TEWEN  =     -7307.87593351
  -Hartree energ DENC   =      -466.69284516
  -exchange      EXHF   =         0.00000000
  -V(xc)+E(xc)   XCENC  =      -539.74254597
  PAW double counting   =     28623.29763188   -27523.66721190
  entropy T*S    EENTRO =        -0.00000000
  eigenvalues    EBANDS =       175.03516963
  atomic energy  EATOM  =      6564.76702419
  Solvation  Ediel_sol  =         0.00000000
  ---------------------------------------------------
  free energy    TOTEN  =      -367.49750152 eV

  energy without entropy =     -367.49750152  energy(sigma->0) =     -367.49750152


--------------------------------------------------------------------------------------------------------




--------------------------------------- Iteration      1(   9)  ---------------------------------------


    POTLOK:  cpu time      0.0214: real time      0.0216
    SETDIJ:  cpu time      0.0218: real time      0.0219
     EDDAV:  cpu time      2.6742: real time      2.6882
       DOS:  cpu time      0.0002: real time      0.0003
    CHARGE:  cpu time      0.0790: real time      0.0794
    MIXING:  cpu time      0.0028: real time      0.0028
    --------------------------------------------
      LOOP:  cpu time      2.7995: real time      2.8141

 eigenvalue-minimisations  :  3312
 total energy-change (2. order) :-0.1493347E-02  (-0.7204285E-03)
 number of electron     255.9999994 magnetization 
 augmentation part      -14.6409780 magnetization 

 Broyden mixing:
  rms(total) = 0.30941E-01    rms(broyden)= 0.30941E-01
  rms(prec ) = 0.32045E-01
  weight for this iteration     100.00

 eigenvalues of (default mixing * dielectric matrix)
  average eigenvalue GAMMA=   2.3733
  3.8701  2.3814  2.3814  0.8603

 Free energy of the ion-electron system (eV)
  ---------------------------------------------------
  alpha Z        PSCENC =       107.38120932
  Ewald energy   TEWEN  =     -7307.87593351
  -Hartree energ DENC   =      -468.63881609
  -exchange      EXHF   =         0.00000000
  -V(xc)+E(xc)   XCENC  =      -539.41455996
  PAW double counting   =     28767.52765828   -27668.00075950
  entropy T*S    EENTRO =        -0.00000000
  eigenvalues    EBANDS =       176.75518242
  atomic energy  EATOM  =      6564.76702419
  Solvation  Ediel_sol  =         0.00000000
  ---------------------------------------------------
  free energy    TOTEN  =      -367.49899487 eV

  energy without entropy =     -367.49899487  energy(sigma->0) =     -367.49899487


--------------------------------------------------------------------------------------------------------




--------------------------------------- Iteration      1(  10)  ---------------------------------------


    POTLOK:  cpu time      0.0217: real time      0.0219
    SETDIJ:  cpu time      0.0218: real time      0.0219
     EDDAV:  cpu time      2.4638: real time      2.4768
       DOS:  cpu time      0.0003: real time      0.0003
    CHARGE:  cpu time      0.0775: real time      0.0780
    MIXING:  cpu time      0.0027: real time      0.0028
    --------------------------------------------
      LOOP:  cpu time      2.5878: real time      2.6015

 eigenvalue-minimisations  :  2976
 total energy-change (2. order) :-0.8517853E-03  (-0.2091355E-03)
 number of electron     255.9999994 magnetization 
 augmentation part      -14.6429504 magnetization 

 Broyden mixing:
  rms(total) = 0.22959E-01    rms(broyden)= 0.22959E-01
  rms(prec ) = 0.23078E-01
  weight for this iteration     100.00

 eigenvalues of (default mixing * dielectric matrix)
  average eigenvalue GAMMA=   1.8671
  2.8661  2.2500  2.2500  0.9847  0.9847

 Free energy of the ion-electron system (eV)
  ---------------------------------------------------
  alpha Z        PSCENC =       107.38120932
  Ewald energy   TEWEN  =     -7307.87593351
  -Hartree energ DENC   =      -468.87959395
  -exchange      EXHF   =         0.00000000
  -V(xc)+E(xc)   XCENC  =      -539.34002502
  PAW double counting   =     28253.01007506   -27153.45205897
  entropy T*S    EENTRO =        -0.00000000
  eigenvalues    EBANDS =       176.88945624
  atomic energy  EATOM  =      6564.76702419
  Solvation  Ediel_sol  =         0.00000000
  ---------------------------------------------------
  free energy    TOTEN  =      -367.49984665 eV

  energy without entropy =     -367.49984665  energy(sigma->0) =     -367.49984665


--------------------------------------------------------------------------------------------------------




--------------------------------------- Iteration      1(  11)  ---------------------------------------


    POTLOK:  cpu time      0.0210: real time      0.0212
    SETDIJ:  cpu time      0.0219: real time      0.0220
     EDDAV:  cpu time      2.5607: real time      2.5741
       DOS:  cpu time      0.0003: real time      0.0003
    CHARGE:  cpu time      0.0782: real time      0.0788
    MIXING:  cpu time      0.0023: real time      0.0023
    --------------------------------------------
      LOOP:  cpu time      2.6843: real time      2.6985

 eigenvalue-minimisations  :  3144
 total energy-change (2. order) :-0.4029864E-04  (-0.8893950E-05)
 number of electron     255.9999994 magnetization 
 augmentation part      -14.6438085 magnetization 

 Broyden mixing:
  rms(total) = 0.83907E-03    rms(broyden)= 0.83905E-03
  rms(prec ) = 0.93633E-03
  weight for this iteration     100.00

 eigenvalues of (default mixing * dielectric matrix)
  average eigenvalue GAMMA=   1.7602
  2.8850  2.2527  2.2527  1.2008  1.2008  0.7694

 Free energy of the ion-electron system (eV)
  ---------------------------------------------------
  alpha Z        PSCENC =       107.38120932
  Ewald energy   TEWEN  =     -7307.87593351
  -Hartree energ DENC   =      -468.75127928
  -exchange      EXHF   =         0.00000000
  -V(xc)+E(xc)   XCENC  =      -539.35256108
  PAW double counting   =     28479.02712761   -27379.45734665
  entropy T*S    EENTRO =        -0.00000000
  eigenvalues    EBANDS =       176.76187246
  atomic energy  EATOM  =      6564.76702419
  Solvation  Ediel_sol  =         0.00000000
  ---------------------------------------------------
  free energy    TOTEN  =      -367.49988695 eV

  energy without entropy =     -367.49988695  energy(sigma->0) =     -367.49988695


--------------------------------------------------------------------------------------------------------




--------------------------------------- Iteration      1(  12)  ---------------------------------------


    POTLOK:  cpu time      0.0214: real time      0.0220
    SETDIJ:  cpu time      0.0220: real time      0.0221
     EDDAV:  cpu time      2.6280: real time      2.6418
       DOS:  cpu time      0.0003: real time      0.0003
    CHARGE:  cpu time      0.0788: real time      0.0792
    MIXING:  cpu time      0.0023: real time      0.0023
    --------------------------------------------
      LOOP:  cpu time      2.7527: real time      2.7676

 eigenvalue-minimisations  :  3216
 total energy-change (2. order) :-0.2174387E-05  (-0.3182546E-06)
 number of electron     255.9999994 magnetization 
 augmentation part      -14.6436913 magnetization 

 Broyden mixing:
  rms(total) = 0.84987E-03    rms(broyden)= 0.84987E-03
  rms(prec ) = 0.87928E-03
  weight for this iteration     100.00

 eigenvalues of (default mixing * dielectric matrix)
  average eigenvalue GAMMA=   1.8571
  3.0209  2.4975  2.4975  2.2003  0.9841  0.8995  0.8995

 Free energy of the ion-electron system (eV)
  ---------------------------------------------------
  alpha Z        PSCENC =       107.38120932
  Ewald energy   TEWEN  =     -7307.87593351
  -Hartree energ DENC   =      -468.78322677
  -exchange      EXHF   =         0.00000000
  -V(xc)+E(xc)   XCENC  =      -539.35103290
  PAW double counting   =     28482.28089294   -27382.71019782
  entropy T*S    EENTRO =        -0.00000000
  eigenvalues    EBANDS =       176.79137542
  atomic energy  EATOM  =      6564.76702419
  Solvation  Ediel_sol  =         0.00000000
  ---------------------------------------------------
  free energy    TOTEN  =      -367.49988913 eV

  energy without entropy =     -367.49988913  energy(sigma->0) =     -367.49988913


--------------------------------------------------------------------------------------------------------




--------------------------------------- Iteration      1(  13)  ---------------------------------------


    POTLOK:  cpu time      0.0212: real time      0.0213
    SETDIJ:  cpu time      0.0219: real time      0.0220
     EDDAV:  cpu time      2.4942: real time      2.5077
       DOS:  cpu time      0.0003: real time      0.0003
    CHARGE:  cpu time      0.0787: real time      0.0791
    MIXING:  cpu time      0.0022: real time      0.0022
    --------------------------------------------
      LOOP:  cpu time      2.6184: real time      2.6326

 eigenvalue-minimisations  :  3032
 total energy-change (2. order) : 0.1045280E-05  (-0.8782305E-07)
 number of electron     255.9999994 magnetization 
 augmentation part      -14.6436541 magnetization 

 Broyden mixing:
  rms(total) = 0.17992E-03    rms(broyden)= 0.17992E-03
  rms(prec ) = 0.18612E-03
  weight for this iteration     100.00

 eigenvalues of (default mixing * dielectric matrix)
  average eigenvalue GAMMA=   1.7825
  3.0619  2.6254  2.3860  2.2027  0.9557  0.9557  1.0364  1.0364

 Free energy of the ion-electron system (eV)
  ---------------------------------------------------
  alpha Z        PSCENC =       107.38120932
  Ewald energy   TEWEN  =     -7307.87593351
  -Hartree energ DENC   =      -468.78634508
  -exchange      EXHF   =         0.00000000
  -V(xc)+E(xc)   XCENC  =      -539.35334457
  PAW double counting   =     28476.40519970   -27376.83206196
  entropy T*S    EENTRO =        -0.00000000
  eigenvalues    EBANDS =       176.79436384
  atomic energy  EATOM  =      6564.76702419
  Solvation  Ediel_sol  =         0.00000000
  ---------------------------------------------------
  free energy    TOTEN  =      -367.49988808 eV

  energy without entropy =     -367.49988808  energy(sigma->0) =     -367.49988808


--------------------------------------------------------------------------------------------------------




--------------------------------------- Iteration      1(  14)  ---------------------------------------


    POTLOK:  cpu time      0.0210: real time      0.0212
    SETDIJ:  cpu time      0.0220: real time      0.0221
     EDDAV:  cpu time      2.1245: real time      2.1353
       DOS:  cpu time      0.0003: real time      0.0003
    CHARGE:  cpu time      0.0790: real time      0.0794
    MIXING:  cpu time      0.0019: real time      0.0019
    --------------------------------------------
      LOOP:  cpu time      2.2487: real time      2.2601

 eigenvalue-minimisations  :  2416
 total energy-change (2. order) : 0.1159488E-06  (-0.2255136E-08)
 number of electron     255.9999994 magnetization 
 augmentation part      -14.6436492 magnetization 

 Broyden mixing:
  rms(total) = 0.51641E-04    rms(broyden)= 0.51635E-04
  rms(prec ) = 0.54176E-04
  weight for this iteration     100.00

 eigenvalues of (default mixing * dielectric matrix)
  average eigenvalue GAMMA=   1.8254
  3.0753  2.5418  2.5418  2.1378  2.1378  1.1624  0.9877  0.9222  0.9222

 Free energy of the ion-electron system (eV)
  ---------------------------------------------------
  alpha Z        PSCENC =       107.38120932
  Ewald energy   TEWEN  =     -7307.87593351
  -Hartree energ DENC   =      -468.78609230
  -exchange      EXHF   =         0.00000000
  -V(xc)+E(xc)   XCENC  =      -539.35373541
  PAW double counting   =     28475.09228698   -27375.51900128
  entropy T*S    EENTRO =        -0.00000000
  eigenvalues    EBANDS =       176.79435406
  atomic energy  EATOM  =      6564.76702419
  Solvation  Ediel_sol  =         0.00000000
  ---------------------------------------------------
  free energy    TOTEN  =      -367.49988797 eV

  energy without entropy =     -367.49988797  energy(sigma->0) =     -367.49988797


--------------------------------------------------------------------------------------------------------




--------------------------------------- Iteration      1(  15)  ---------------------------------------


    POTLOK:  cpu time      0.0213: real time      0.0215
    SETDIJ:  cpu time      0.0221: real time      0.0222
     EDDAV:  cpu time      1.7826: real time      1.7920
       DOS:  cpu time      0.0003: real time      0.0003
    CHARGE:  cpu time      0.0782: real time      0.0786
    MIXING:  cpu time      0.0029: real time      0.0029
    --------------------------------------------
      LOOP:  cpu time      1.9073: real time      1.9174

 eigenvalue-minimisations  :  1856
 total energy-change (2. order) : 0.1768331E-07  (-0.1342093E-08)
 number of electron     255.9999994 magnetization 
 augmentation part      -14.6436491 magnetization 

 Broyden mixing:
  rms(total) = 0.13326E-04    rms(broyden)= 0.13304E-04
  rms(prec ) = 0.15422E-04
  weight for this iteration     100.00

 eigenvalues of (default mixing * dielectric matrix)
  average eigenvalue GAMMA=   1.7875
  3.0911  2.6377  2.2994  2.2994  1.8613  1.8613  0.9835  0.9835  0.9287  0.9287

 Free energy of the ion-electron system (eV)
  ---------------------------------------------------
  alpha Z        PSCENC =       107.38120932
  Ewald energy   TEWEN  =     -7307.87593351
  -Hartree energ DENC   =      -468.78552766
  -exchange      EXHF   =         0.00000000
  -V(xc)+E(xc)   XCENC  =      -539.35380110
  PAW double counting   =     28474.95206757   -27375.37882615
  entropy T*S    EENTRO =        -0.00000000
  eigenvalues    EBANDS =       176.79389940
  atomic energy  EATOM  =      6564.76702419
  Solvation  Ediel_sol  =         0.00000000
  ---------------------------------------------------
  free energy    TOTEN  =      -367.49988795 eV

  energy without entropy =     -367.49988795  energy(sigma->0) =     -367.49988795


--------------------------------------------------------------------------------------------------------




--------------------------------------- Iteration      1(  16)  ---------------------------------------


    POTLOK:  cpu time      0.0212: real time      0.0220
    SETDIJ:  cpu time      0.0212: real time      0.0214
     EDDAV:  cpu time      1.7078: real time      1.7167
       DOS:  cpu time      0.0003: real time      0.0003
    --------------------------------------------
      LOOP:  cpu time      1.7505: real time      1.7602

 eigenvalue-minimisations  :  1736
 total energy-change (2. order) : 0.9981704E-08  (-0.2480602E-09)
 number of electron     255.9999994 magnetization 
 augmentation part      -14.6436491 magnetization 

 Free energy of the ion-electron system (eV)
  ---------------------------------------------------
  alpha Z        PSCENC =       107.38120932
  Ewald energy   TEWEN  =     -7307.87593351
  -Hartree energ DENC   =      -468.78545788
  -exchange      EXHF   =         0.00000000
  -V(xc)+E(xc)   XCENC  =      -539.35382187
  PAW double counting   =     28474.89058923   -27375.31733386
  entropy T*S    EENTRO =        -0.00000000
  eigenvalues    EBANDS =       176.79383644
  atomic energy  EATOM  =      6564.76702419
  Solvation  Ediel_sol  =         0.00000000
  ---------------------------------------------------
  free energy    TOTEN  =      -367.49988794 eV

  energy without entropy =     -367.49988794  energy(sigma->0) =     -367.49988794


--------------------------------------------------------------------------------------------------------




 average (electrostatic) potential at core
  the test charge radii are     0.9892
  (the norm of the test charge is              1.0000)
       1 -83.0574       2 -83.0574       3 -83.0572       4 -83.0572       5 -83.0572
       6 -83.0572       7 -83.0574       8 -83.0574       9 -83.0573      10 -83.0555
      11 -83.0573      12 -83.0591      13 -83.0591      14 -83.0573      15 -83.0555
      16 -83.0573      17 -83.0573      18 -83.0574      19 -83.0574      20 -83.0572
      21 -83.0572      22 -83.0574      23 -83.0574      24 -83.0572      25 -83.0573
      26 -83.0573      27 -83.0573      28 -83.0573      29 -83.0573      30 -83.0573
      31 -83.0573      32 -83.0573      33 -83.0578      34 -83.0573      35 -83.0574
      36 -83.0573      37 -83.0573      38 -83.0568      39 -83.0573      40 -83.0572
      41 -83.0578      42 -83.0579      43 -83.0562      44 -83.0573      45 -83.0573
      46 -83.0574      47 -83.0562      48 -83.0572      49 -83.0573      50 -83.0572
      51 -83.0573      52 -83.0563      53 -83.0574      54 -83.0573      55 -83.0584
      56 -83.0573      57 -83.0568      58 -83.0572      59 -83.0573      60 -83.0574
      61 -83.0569      62 -83.0573      63 -83.0584      64 -83.0584
 
 
 
 E-fermi :   5.8931     XC(G=0):  -9.5445     alpha+bet :-11.9543

 Fermi energy:         5.8930719549

 k-point     1 :       0.0000    0.0000    0.0000
  band No.  band energies     occupation 
      1      -6.2055      2.00000
      2      -5.1231      2.00000
      3      -5.1225      2.00000
      4      -5.1213      2.00000
      5      -5.1213      2.00000
      6      -5.1200      2.00000
      7      -5.1195      2.00000
      8      -4.1597      2.00000
      9      -4.1576      2.00000
     10      -4.1563      2.00000
     11      -4.1555      2.00000
     12      -4.1551      2.00000
     13      -4.1550      2.00000
     14      -4.1550      2.00000
     15      -4.1549      2.00000
     16      -4.1546      2.00000
     17      -4.1538      2.00000
     18      -4.1525      2.00000
     19      -4.1504      2.00000
     20      -3.8624      2.00000
     21      -3.8607      2.00000
     22      -3.8606      2.00000
     23      -3.8588      2.00000
     24      -2.0542      2.00000
     25      -2.0542      2.00000
     26      -2.0520      2.00000
     27      -2.0519      2.00000
     28      -2.0498      2.00000
     29      -2.0497      2.00000
     30      -1.8874      2.00000
     31      -1.8860      2.00000
     32      -1.8847      2.00000
     33      -1.8831      2.00000
     34      -1.8828      2.00000
     35      -1.8827      2.00000
     36      -1.8827      2.00000
     37      -1.8827      2.00000
     38      -1.8823      2.00000
     39      -1.8808      2.00000
     40      -1.8793      2.00000
     41      -1.8780      2.00000
     42      -1.2365      2.00000
     43      -1.2347      2.00000
     44      -1.2347      2.00000
     45      -1.2328      2.00000
     46       0.2775      2.00000
     47       0.2784      2.00000
     48       0.2802      2.00000
     49       0.2817      2.00000
     50       0.2818      2.00000
     51       0.2819      2.00000
     52       0.2819      2.00000
     53       0.2821      2.00000
     54       0.2822      2.00000
     55       0.2837      2.00000
     56       0.2855      2.00000
     57       0.2864      2.00000
     58       1.8684      2.00000
     59       1.8700      2.00000
     60       1.8702      2.00000
     61       1.8708      2.00000
     62       1.8710      2.00000
     63       1.8711      2.00000
     64       1.8713      2.00000
     65       1.8714      2.00000
     66       1.8716      2.00000
     67       1.8721      2.00000
     68       1.8724      2.00000
     69       1.8738      2.00000
     70       1.9706      2.00000
     71       1.9710      2.00000
     72       1.9717      2.00000
     73       1.9724      2.00000
     74       1.9728      2.00000
     75       1.9733      2.00000
     76       1.9733      2.00000
     77       1.9738      2.00000
     78       1.9742      2.00000
     79       1.9749      2.00000
     80       1.9756      2.00000
     81       1.9760      2.00000
     82       2.2487      2.00000
     83       2.2505      2.00000
     84       2.2514      2.00000
     85       2.2514      2.00000
     86       2.2524      2.00000
     87       2.2542      2.00000
     88       2.9005      2.00000
     89       2.9016      2.00000
     90       2.9017      2.00000
     91       2.9017      2.00000
     92       2.9019      2.00000
     93       2.9030      2.00000
     94       3.8635      2.00000
     95       3.8636      2.00000
     96       3.8659      2.00000
     97       3.8659      2.00000
     98       3.8665      2.00000
     99       3.8665      2.00000
    100       3.8669      2.00000
    101       3.8669      2.00000
    102       3.8674      2.00000
    103       3.8674      2.00000
    104       3.8698      2.00000
    105       3.8698      2.00000
    106       4.4328      2.00000
    107       4.4340      2.00000
    108       4.4356      2.00000
    109       4.4360      2.00000
    110       4.4368      2.00000
    111       4.4370      2.00000
    112       4.4370      2.00000
    113       4.4372      2.00000
    114       4.4380      2.00000
    115       4.4384      2.00000
    116       4.4399      2.00000
    117       4.4411      2.00000
    118       4.5670      2.00000
    119       4.5675      2.00000
    120       4.5690      2.00000
    121       4.5697      2.00000
    122       4.5700      2.00000
    123       4.5707      2.00000
    124       4.5722      2.00000
    125       4.5729      2.00000
    126       5.7698      2.00000
    127       5.7720      2.00000
    128       5.7741      2.00000
    129       6.3634      0.00000
    130       6.3654      0.00000
    131       6.3657      0.00000
    132       6.3658      0.00000
    133       6.3662      0.00000
    134       6.3681      0.00000
    135       6.8060      0.00000
    136       6.8069      0.00000
    137       6.8081      0.00000
    138       6.8081      0.00000
    139       6.8092      0.00000
    140       6.8101      0.00000
    141       7.2316      0.00000
    142       7.2320      0.00000
    143       7.2320      0.00000
    144       7.2324      0.00000
    145       8.1350      0.00000
    146       8.1352      0.00000
    147       8.1361      0.00000
    148       8.1363      0.00000
    149       8.1377      0.00000
    150       8.1379      0.00000
    151       8.1379      0.00000
    152       8.1382      0.00000
    153       8.1396      0.00000
    154       8.1398      0.00000
    155       8.1405      0.00000
    156       8.1408      0.00000
    157       8.2877      0.00000
    158       8.2890      0.00000
    159       8.2902      0.00000
    160       8.7963      0.00000
    161       8.7975      0.00000
    162       8.7979      0.00000
    163       8.7979      0.00000
    164       8.7984      0.00000
    165       8.7996      0.00000
    166       9.0486      0.00000
    167       9.0504      0.00000
    168       9.0538      0.00000

 k-point     2 :       0.5000    0.0000    0.0000
  band No.  band energies     occupation 
      1      -5.9327      2.00000
      2      -5.9313      2.00000
      3      -4.8757      2.00000
      4      -4.8737      2.00000
      5      -4.8731      2.00000
      6      -4.8729      2.00000
      7      -4.8727      2.00000
      8      -4.8719      2.00000
      9      -4.8712      2.00000
     10      -4.8708      2.00000
     11      -4.0266      2.00000
     12      -4.0240      2.00000
     13      -4.0229      2.00000
     14      -4.0227      2.00000
     15      -4.0224      2.00000
     16      -4.0217      2.00000
     17      -4.0208      2.00000
     18      -4.0205      2.00000
     19      -3.8068      2.00000
     20      -3.8045      2.00000
     21      -3.0792      2.00000
     22      -3.0786      2.00000
     23      -3.0775      2.00000
     24      -3.0766      2.00000
     25      -3.0764      2.00000
     26      -3.0758      2.00000
     27      -3.0752      2.00000
     28      -3.0718      2.00000
     29      -1.9755      2.00000
     30      -1.9725      2.00000
     31      -1.9717      2.00000
     32      -1.9714      2.00000
     33      -1.9713      2.00000
     34      -1.9712      2.00000
     35      -1.9693      2.00000
     36      -1.9689      2.00000
     37      -0.8068      2.00000
     38      -0.8049      2.00000
     39      -0.8044      2.00000
     40      -0.8032      2.00000
     41      -0.8029      2.00000
     42      -0.8023      2.00000
     43      -0.8002      2.00000
     44      -0.7994      2.00000
     45      -0.6368      2.00000
     46      -0.6362      2.00000
     47      -0.6349      2.00000
     48      -0.6339      2.00000
     49      -0.6336      2.00000
     50      -0.6333      2.00000
     51      -0.6325      2.00000
     52      -0.6305      2.00000
     53       0.0225      2.00000
     54       0.0240      2.00000
     55       1.4711      2.00000
     56       1.4727      2.00000
     57       1.4734      2.00000
     58       1.4742      2.00000
     59       1.4745      2.00000
     60       1.4749      2.00000
     61       1.4755      2.00000
     62       1.4771      2.00000
     63       1.4922      2.00000
     64       1.4924      2.00000
     65       1.4926      2.00000
     66       1.4932      2.00000
     67       1.4934      2.00000
     68       1.4940      2.00000
     69       1.4943      2.00000
     70       1.4951      2.00000
     71       2.3167      2.00000
     72       2.3170      2.00000
     73       2.3176      2.00000
     74       2.3180      2.00000
     75       2.3184      2.00000
     76       2.3185      2.00000
     77       2.3191      2.00000
     78       2.3192      2.00000
     79       3.0224      2.00000
     80       3.0240      2.00000
     81       3.0242      2.00000
     82       3.0247      2.00000
     83       3.0250      2.00000
     84       3.0252      2.00000
     85       3.0257      2.00000
     86       3.0272      2.00000
     87       3.1465      2.00000
     88       3.1477      2.00000
     89       3.1484      2.00000
     90       3.1495      2.00000
     91       3.1575      2.00000
     92       3.1578      2.00000
     93       3.1584      2.00000
     94       3.1586      2.00000
     95       3.1592      2.00000
     96       3.1598      2.00000
     97       3.1604      2.00000
     98       3.1619      2.00000
     99       3.2833      2.00000
    100       3.2843      2.00000
    101       3.2851      2.00000
    102       3.2856      2.00000
    103       3.2861      2.00000
    104       3.2865      2.00000
    105       3.2871      2.00000
    106       3.2880      2.00000
    107       4.3287      2.00000
    108       4.3303      2.00000
    109       4.3310      2.00000
    110       4.3317      2.00000
    111       4.3320      2.00000
    112       4.3326      2.00000
    113       4.3332      2.00000
    114       4.3350      2.00000
    115       4.4329      2.00000
    116       4.4330      2.00000
    117       4.4963      2.00000
    118       4.4997      2.00000
    119       4.5008      2.00000
    120       4.5009      2.00000
    121       4.5010      2.00000
    122       4.5016      2.00000
    123       4.5020      2.00000
    124       4.5052      2.00000
    125       4.9528      2.00000
    126       4.9547      2.00000
    127       4.9557      2.00000
    128       4.9576      2.00000
    129       6.2790      0.00000
    130       6.2804      0.00000
    131       7.1933      0.00000
    132       7.1946      0.00000
    133       7.6434      0.00000
    134       7.6449      0.00000
    135       7.6450      0.00000
    136       7.6454      0.00000
    137       7.6456      0.00000
    138       7.6467      0.00000
    139       7.6473      0.00000
    140       7.6485      0.00000
    141       7.7139      0.00000
    142       7.7144      0.00000
    143       8.0571      0.00000
    144       8.0590      0.00000
    145       8.0591      0.00000
    146       8.0597      0.00000
    147       8.0598      0.00000
    148       8.0601      0.00000
    149       8.0604      0.00000
    150       8.0622      0.00000
    151       8.1429      0.00000
    152       8.1441      0.00000
    153       8.1450      0.00000
    154       8.1454      0.00000
    155       8.1458      0.00000
    156       8.1461      0.00000
    157       8.1474      0.00000
    158       8.1484      0.00000
    159       8.5507      0.00000
    160       8.5517      0.00000
    161       8.5523      0.00000
    162       8.5525      0.00000
    163       8.5532      0.00000
    164       8.5536      0.00000
    165       8.5539      0.00000
    166       8.5545      0.00000
    167       9.3204      0.00000
    168       9.3229      0.00000

 k-point     3 :      -0.0000    0.5000    0.0000
  band No.  band energies     occupation 
      1      -5.9320      2.00000
      2      -5.9320      2.00000
      3      -4.8747      2.00000
      4      -4.8747      2.00000
      5      -4.8729      2.00000
      6      -4.8729      2.00000
      7      -4.8725      2.00000
      8      -4.8725      2.00000
      9      -4.8708      2.00000
     10      -4.8708      2.00000
     11      -4.0267      2.00000
     12      -4.0230      2.00000
     13      -4.0227      2.00000
     14      -4.0227      2.00000
     15      -4.0227      2.00000
     16      -4.0227      2.00000
     17      -4.0224      2.00000
     18      -4.0187      2.00000
     19      -3.8057      2.00000
     20      -3.8057      2.00000
     21      -3.0784      2.00000
     22      -3.0783      2.00000
     23      -3.0766      2.00000
     24      -3.0766      2.00000
     25      -3.0762      2.00000
     26      -3.0762      2.00000
     27      -3.0744      2.00000
     28      -3.0744      2.00000
     29      -1.9758      2.00000
     30      -1.9718      2.00000
     31      -1.9715      2.00000
     32      -1.9715      2.00000
     33      -1.9715      2.00000
     34      -1.9714      2.00000
     35      -1.9711      2.00000
     36      -1.9672      2.00000
     37      -0.8060      2.00000
     38      -0.8060      2.00000
     39      -0.8030      2.00000
     40      -0.8030      2.00000
     41      -0.8030      2.00000
     42      -0.8030      2.00000
     43      -0.8001      2.00000
     44      -0.8001      2.00000
     45      -0.6374      2.00000
     46      -0.6350      2.00000
     47      -0.6340      2.00000
     48      -0.6340      2.00000
     49      -0.6340      2.00000
     50      -0.6339      2.00000
     51      -0.6329      2.00000
     52      -0.6304      2.00000
     53       0.0232      2.00000
     54       0.0232      2.00000
     55       1.4716      2.00000
     56       1.4716      2.00000
     57       1.4741      2.00000
     58       1.4741      2.00000
     59       1.4745      2.00000
     60       1.4745      2.00000
[...]
         0         1         2         3         4         5         6         7         8         9
 total charge-density along one line
 
 pseudopotential strength for first ion, spin component:           1
 18.404  25.676   0.000   0.000  -0.000   0.000   0.000  -0.000
 25.676  35.825   0.000   0.000  -0.000   0.000   0.000  -0.000
  0.000   0.000   4.177  -0.000  -0.000   7.782  -0.000  -0.000
  0.000   0.000  -0.000   4.177  -0.000  -0.000   7.782  -0.000
 -0.000  -0.000  -0.000  -0.000   4.177  -0.000  -0.000   7.782
  0.000   0.000   7.782  -0.000  -0.000  14.509  -0.000  -0.000
  0.000   0.000  -0.000   7.782  -0.000  -0.000  14.509  -0.000
 -0.000  -0.000  -0.000  -0.000   7.782  -0.000  -0.000  14.509
 total augmentation occupancy for first ion, spin component:           1
  5.947  -2.288   0.000   0.000  -0.019  -0.000  -0.000   0.006
 -2.288   0.989  -0.000   0.000   0.009   0.000   0.000  -0.003
  0.000  -0.000   3.000  -0.022  -0.000  -0.681   0.006   0.000
  0.000   0.000  -0.022   3.001   0.000   0.006  -0.681  -0.000
 -0.019   0.009  -0.000   0.000   3.000   0.000  -0.000  -0.681
 -0.000   0.000  -0.681   0.006   0.000   0.164  -0.002  -0.000
 -0.000   0.000   0.006  -0.681  -0.000  -0.002   0.164   0.000
  0.006  -0.003   0.000  -0.000  -0.681  -0.000   0.000   0.164


------------------------ aborting loop because EDIFF is reached ----------------------------------------


    CHARGE:  cpu time      0.0764: real time      0.0768
    FORLOC:  cpu time      0.0091: real time      0.0091
    FORNL :  cpu time      1.0564: real time      1.0606
    STRESS:  cpu time      2.1413: real time      2.1510
    FORCOR:  cpu time      0.0285: real time      0.0286
    FORHAR:  cpu time      0.0115: real time      0.0115
    MIXING:  cpu time      0.0009: real time      0.0009
    OFIELD:  cpu time      0.0000: real time      0.0000

  FORCE on cell =-STRESS in cart. coord.  units (eV):
  Direction    XX          YY          ZZ          XY          YZ          ZX
  --------------------------------------------------------------------------------------
  Alpha Z   107.38121   107.38121   107.38121
  Ewald   -2435.97723 -2435.96734 -2435.97724    -0.78458    -0.78458    -0.00066
  Hartree   156.26117   156.26293   156.26116    -0.08694    -0.08694    -0.00025
  E(xc)    -817.39781  -817.39794  -817.39781     0.01015     0.01015    -0.00000
  Local    -931.45624  -931.46743  -931.45623     0.81827     0.81826     0.00091
  n-local  2483.02427  2483.02631  2483.02427    -0.16275    -0.16277     0.00000
  augment  -368.16894  -368.16906  -368.16894     0.00718     0.00718     0.00000
  Kinetic  1806.30867  1806.30831  1806.30867     0.09986     0.09991    -0.00003
  Fock        0.00000     0.00000     0.00000     0.00000     0.00000     0.00000
  -------------------------------------------------------------------------------------
  Total      -0.02490    -0.02299    -0.02490    -0.09881    -0.09879    -0.00002
  in kB      -0.03107    -0.02869    -0.03107    -0.12329    -0.12326    -0.00003
  external pressure =       -0.03 kB  Pullay stress =        0.00 kB


 VOLUME and BASIS-vectors are now :
 -----------------------------------------------------------------------------
  energy-cutoff  :      318.00
  volume of cell :     1284.06
      direct lattice vectors                 reciprocal lattice vectors
    10.869145120 -0.000000000 -0.000000000     0.092003556  0.000000000 -0.000000000
    -0.000000000 10.869145120  0.000000000     0.000000000  0.092003556 -0.000000000
     0.000000000  0.000000000 10.869145120     0.000000000 -0.000000000  0.092003556

  length of vectors
    10.869145120 10.869145120 10.869145120     0.092003556  0.092003556  0.092003556


 FORCES acting on ions
    electron-ion (+dipol)            ewald-force                    non-local-force                 convergence-correction
 -----------------------------------------------------------------------------------------------
   -.465E+00 -.166E-02 0.304E-01   0.417E+00 -.622E-14 -.301E-01   0.178E+00 0.720E-03 -.223E-02   -.646E-05 -.637E-05 0.186E-05
   0.513E-02 0.166E-02 0.301E-01   -.511E-02 -.102E-13 -.297E-01   0.165E-02 -.710E-03 -.222E-02   0.343E-05 -.325E-05 0.316E-05
   -.147E-01 -.512E-03 0.670E-03   0.148E-01 -.355E-14 -.980E-03   0.439E-04 0.432E-03 -.180E-04   -.387E-05 0.337E-05 0.201E-05
   0.101E-01 0.506E-03 0.666E-03   -.106E-01 -.355E-14 -.980E-03   -.160E-03 -.436E-03 -.160E-04   0.410E-05 0.514E-05 0.230E-05
   -.768E-01 -.171E-02 0.299E-01   0.762E-01 -.622E-14 -.296E-01   0.203E-02 0.760E-03 -.223E-02   -.535E-05 -.516E-05 -.135E-05
   0.723E-01 0.171E-02 0.299E-01   -.720E-01 -.622E-14 -.296E-01   -.215E-02 -.759E-03 -.224E-02   0.468E-05 -.475E-05 -.154E-05
   -.354E-02 -.505E-03 0.595E-03   0.127E-01 -.622E-14 -.911E-03   -.583E-02 0.425E-03 -.771E-05   -.354E-05 0.317E-05 -.225E-05
   0.131E-01 0.501E-03 0.598E-03   -.122E-01 -.142E-13 -.911E-03   -.513E-03 -.429E-03 -.911E-05   0.241E-05 0.515E-05 -.339E-05
   -.216E-01 -.275E-03 -.218E-01   0.366E-01 0.212E-03 0.368E-01   -.117E-01 0.767E-04 -.117E-01   -.526E-05 -.352E-05 0.591E-05
   0.248E-01 0.465E-02 -.266E-01   -.206E-01 0.744E-04 0.367E-01   -.517E-02 -.574E-02 -.590E-02   0.992E-06 -.546E-05 0.710E-05
   -.312E-01 0.272E-03 -.315E-01   0.366E-01 -.212E-03 0.368E-01   -.207E-03 -.861E-04 -.817E-04   -.423E-05 0.473E-05 0.844E-05
   0.152E-01 0.485E-02 -.264E-01   -.206E-01 -.744E-04 0.367E-01   0.638E-02 -.581E-02 -.594E-02   0.608E-05 0.400E-05 0.708E-05
   -.266E-01 -.485E-02 0.251E-01   0.368E-01 0.744E-04 -.208E-01   -.593E-02 0.581E-02 -.524E-02   -.553E-05 -.289E-05 -.951E-05
   0.201E-01 0.639E-04 0.200E-01   -.207E-01 -.637E-04 -.206E-01   0.579E-03 0.520E-05 0.583E-03   0.445E-05 -.564E-05 -.680E-05
   -.265E-01 -.465E-02 0.154E-01   0.368E-01 -.744E-04 -.208E-01   -.592E-02 0.574E-02 0.633E-02   -.595E-05 0.643E-05 -.551E-05
   0.202E-01 -.650E-04 0.202E-01   -.207E-01 0.637E-04 -.206E-01   0.576E-03 -.329E-05 0.571E-03   0.459E-05 0.466E-05 -.822E-05
   0.296E-01 0.170E-02 -.465E+00   -.292E-01 -.311E-14 0.417E+00   -.222E-02 -.751E-03 0.178E+00   -.352E-05 -.243E-05 0.637E-05
   0.301E-01 0.165E-02 -.765E-01   -.297E-01 0.000E+00 0.759E-01   -.222E-02 -.708E-03 0.202E-02   0.608E-05 -.478E-05 0.683E-05
   0.597E-03 0.501E-03 -.147E-01   -.911E-03 -.577E-14 0.148E-01   -.754E-05 -.427E-03 0.447E-04   -.549E-05 0.288E-05 0.815E-05
   0.666E-03 0.508E-03 -.356E-02   -.980E-03 -.355E-14 0.127E-01   -.186E-04 -.436E-03 -.582E-02   0.538E-05 0.431E-05 0.859E-05
   0.299E-01 -.171E-02 0.479E-02   -.296E-01 -.755E-14 -.476E-02   -.223E-02 0.760E-03 0.166E-02   -.475E-05 -.624E-05 -.810E-05
   0.301E-01 -.165E-02 0.719E-01   -.297E-01 -.400E-14 -.717E-01   -.222E-02 0.710E-03 -.214E-02   0.653E-05 -.622E-05 -.698E-05
   0.600E-03 -.506E-03 0.101E-01   -.911E-03 -.131E-13 -.106E-01   -.855E-05 0.424E-03 -.160E-03   -.564E-05 0.441E-05 -.903E-05
   0.664E-03 -.513E-03 0.131E-01   -.980E-03 0.311E-14 -.122E-01   -.183E-04 0.431E-03 -.516E-03   0.640E-05 0.517E-05 -.681E-05
   0.316E-01 0.344E-03 0.318E-01   -.296E-01 -.352E-03 -.297E-01   -.294E-02 -.293E-05 -.298E-02   -.383E-05 -.460E-05 0.556E-05
   0.306E-01 -.618E-01 0.232E-02   -.297E-01 0.610E-01 -.980E-03   -.266E-02 0.198E-02 -.726E-03   0.635E-05 -.535E-05 0.240E-05
   0.283E-01 -.370E-03 0.283E-01   -.296E-01 0.352E-03 -.297E-01   -.153E-02 0.260E-04 -.145E-02   -.563E-05 0.453E-05 0.128E-05
   0.296E-01 0.618E-01 -.982E-03   -.297E-01 -.610E-01 -.980E-03   -.179E-02 -.198E-02 0.693E-03   0.603E-05 0.627E-05 0.308E-06
   0.231E-02 0.621E-01 0.304E-01   -.911E-03 -.614E-01 -.296E-01   -.768E-03 -.198E-02 -.266E-02   -.459E-05 -.244E-05 -.238E-05
   0.117E-02 0.412E-05 0.110E-02   -.980E-03 -.506E-05 -.911E-03   -.446E-03 0.380E-05 -.441E-03   0.745E-05 -.495E-05 -.220E-05
   -.111E-02 -.621E-01 0.294E-01   -.911E-03 0.614E-01 -.296E-01   0.751E-03 0.198E-02 -.181E-02   -.586E-05 0.363E-05 -.132E-05
   0.162E-03 -.245E-05 0.855E-04   -.980E-03 0.506E-05 -.911E-03   0.410E-03 -.685E-05 0.424E-03   0.455E-05 0.527E-05 -.199E-05
   0.194E-01 0.205E+00 0.217E+00   -.164E-01 -.179E+00 -.190E+00   -.354E-01 -.485E-01 -.493E-01   -.346E-06 -.102E-05 -.460E-05
   0.345E-01 -.171E-03 0.342E-01   -.356E-01 0.175E-03 -.354E-01   0.861E-03 -.114E-05 0.871E-03   0.884E-06 0.119E-06 -.316E-05
   -.108E-01 -.201E-01 0.129E-01   0.122E-01 0.194E-01 -.142E-01   -.109E-02 0.594E-03 0.113E-02   0.648E-06 -.187E-05 -.354E-05
   0.117E-01 0.700E-04 0.117E-01   -.114E-01 -.626E-04 -.114E-01   -.795E-03 -.938E-05 -.760E-03   -.238E-05 -.854E-06 -.408E-05
   -.308E-01 0.254E-04 -.310E-01   0.315E-01 -.254E-04 0.317E-01   -.507E-03 -.326E-05 -.497E-03   0.278E-06 -.299E-06 0.466E-05
   0.218E+00 -.206E+00 0.174E-01   -.191E+00 0.180E+00 -.147E-01   -.500E-01 0.492E-01 -.353E-01   -.113E-05 0.107E-07 0.332E-05
   -.145E-01 -.252E-05 -.146E-01   0.111E-01 0.174E-04 0.112E-01   0.110E-02 -.106E-04 0.108E-02   0.275E-05 -.126E-05 0.422E-05
   0.128E-01 0.200E-01 -.110E-01   -.142E-01 -.194E-01 0.123E-01   0.114E-02 -.587E-03 -.109E-02   -.768E-06 -.143E-06 0.388E-05
   0.285E-01 -.207E+00 -.215E+00   -.252E-01 0.182E+00 0.190E+00   -.352E-01 0.476E-01 0.473E-01   0.137E-05 -.375E-05 0.708E-05
   -.150E+00 -.184E+00 0.281E-01   0.123E+00 0.159E+00 -.252E-01   0.492E-01 0.483E-01 -.347E-01   -.418E-07 -.587E-05 0.635E-05
   -.121E-01 0.187E-01 -.189E-01   0.112E-01 -.204E-01 0.142E-01   0.175E-02 0.225E-02 0.307E-02   -.530E-07 0.815E-05 0.510E-05
   0.102E-01 0.906E-02 -.922E-02   -.831E-02 -.868E-02 0.112E-01   -.171E-02 0.162E-03 -.117E-02   -.114E-05 0.699E-05 0.844E-05
   -.218E-01 -.145E-02 0.334E-01   0.229E-01 0.307E-02 -.318E-01   -.334E-03 -.945E-03 -.144E-02   0.250E-06 -.650E-05 -.553E-05
   0.329E-01 0.212E-01 0.430E-01   -.319E-01 -.205E-01 -.442E-01   -.940E-03 -.171E-03 0.153E-02   -.152E-05 -.546E-05 -.780E-05
   -.159E-01 -.133E-02 0.845E-02   0.101E-01 -.100E-02 -.111E-01   0.394E-02 0.284E-02 0.311E-02   0.854E-06 0.697E-05 -.756E-05
   0.114E-01 -.110E-01 0.133E-01   -.111E-01 0.107E-01 -.124E-01   0.189E-03 0.757E-03 -.840E-03   0.878E-07 0.595E-05 -.687E-05
   0.210E+00 -.963E-03 0.213E+00   -.182E+00 0.875E-03 -.185E+00   -.830E-01 0.709E-03 -.837E-01   -.697E-05 0.508E-06 0.607E-05
   0.338E-01 0.225E-01 -.303E-01   -.354E-01 -.234E-01 0.315E-01   0.137E-02 0.773E-03 -.998E-03   0.613E-05 -.121E-05 0.572E-05
   -.790E-02 -.603E-04 -.779E-02   0.823E-02 0.587E-04 0.811E-02   -.218E-03 0.873E-05 -.222E-03   -.649E-05 -.147E-05 0.774E-05
   0.146E-01 -.961E-02 -.174E-01   -.114E-01 0.117E-01 0.111E-01   -.369E-02 -.210E-02 0.398E-02   0.744E-05 -.278E-05 0.696E-05
   -.306E-01 -.227E-01 0.340E-01   0.318E-01 0.235E-01 -.356E-01   -.992E-03 -.777E-03 0.136E-02   -.709E-05 -.248E-06 -.727E-05
   0.243E-01 -.553E-04 0.242E-01   -.232E-01 0.267E-04 -.231E-01   -.160E-02 0.270E-04 -.159E-02   0.856E-05 -.879E-06 -.510E-05
   -.175E-01 0.968E-02 0.146E-01   0.112E-01 -.117E-01 -.114E-01   0.401E-02 0.208E-02 -.368E-02   -.725E-05 -.184E-06 -.718E-05
   0.980E-02 0.223E-04 0.975E-02   -.102E-01 -.175E-04 -.101E-01   0.263E-03 -.303E-05 0.268E-03   0.633E-05 0.180E-06 -.799E-05
   0.259E-01 0.185E+00 -.151E+00   -.233E-01 -.160E+00 0.124E+00   -.347E-01 -.490E-01 0.499E-01   -.718E-05 -.527E-05 -.285E-05
   0.429E-01 -.210E-01 0.328E-01   -.442E-01 0.203E-01 -.317E-01   0.152E-02 0.147E-03 -.934E-03   0.751E-05 -.728E-05 -.332E-05
   -.942E-02 -.908E-02 0.103E-01   0.113E-01 0.868E-02 -.838E-02   -.113E-02 -.160E-03 -.171E-02   -.686E-05 0.681E-05 -.424E-05
   0.133E-01 0.109E-01 0.114E-01   -.124E-01 -.107E-01 -.111E-01   -.844E-03 -.749E-03 0.216E-03   0.787E-05 0.955E-05 -.412E-05
   -.216E+00 0.208E+00 0.264E-01   0.191E+00 -.183E+00 -.234E-01   0.481E-01 -.483E-01 -.352E-01   -.656E-05 -.546E-05 0.360E-05
   0.333E-01 0.150E-02 -.219E-01   -.318E-01 -.307E-02 0.230E-01   -.143E-02 0.922E-03 -.345E-03   0.640E-05 -.513E-05 0.292E-05
   -.189E-01 -.187E-01 -.123E-01   0.142E-01 0.203E-01 0.113E-01   0.305E-02 -.225E-02 0.174E-02   -.665E-05 0.523E-05 0.424E-05
   0.847E-02 0.130E-02 -.159E-01   -.111E-01 0.100E-02 0.101E-01   0.310E-02 -.284E-02 0.392E-02   0.573E-05 0.750E-05 0.490E-05
 -----------------------------------------------------------------------------------------------
   0.368E-04 0.217E-04 -.404E-04   -.176E-13 0.707E-14 0.267E-13   -.431E-04 -.222E-04 0.352E-04   0.659E-06 0.105E-06 -.583E-07
 
 
 POSITION                                       TOTAL-FORCE (eV/Angst)
 -----------------------------------------------------------------------------------
      2.70729      2.71729      2.71729         0.130271     -0.000948     -0.001881
      8.15186      2.71729      2.71729         0.001673      0.000942     -0.001860
      2.71729      8.15186      2.71729         0.000122     -0.000077     -0.000326
      8.15186      8.15186      2.71729        -0.000650      0.000076     -0.000328
      2.71729      2.71729      8.15186         0.001386     -0.000952     -0.001877
      8.15186      2.71729      8.15186        -0.001914      0.000951     -0.001877
      2.71729      8.15186      8.15186         0.003326     -0.000077     -0.000326
      8.15186      8.15186      8.15186         0.000377      0.000076     -0.000326
      2.71729     -0.00000     -0.00000         0.003314      0.000011      0.003336
      8.15186     -0.00000     -0.00000        -0.000904     -0.001018      0.004191
      2.71729      5.43457      0.00000         0.005215     -0.000022      0.005223
      8.15186      5.43457     -0.00000         0.000995     -0.001029      0.004354
      2.71729      0.00000      5.43457         0.004201      0.001030     -0.000914
      8.15186     -0.00000      5.43457        -0.000036     -0.000000     -0.000039
      2.71729      5.43457      5.43457         0.004343      0.001018      0.000977
      8.15186      5.43457      5.43457         0.000113      0.000000      0.000117
      0.00000      2.71729     10.85915        -0.001857      0.000946      0.130283
      5.43457      2.71729     -0.00000        -0.001861      0.000942      0.001372
     -0.00000      8.15186      0.00000        -0.000327      0.000077      0.000120
      5.43457      8.15186      0.00000        -0.000327      0.000076      0.003322
      0.00000      2.71729      5.43457        -0.001878     -0.000952      0.001686
      5.43457      2.71729      5.43457        -0.001861     -0.000943     -0.001901
     -0.00000      8.15186      5.43457        -0.000325     -0.000077     -0.000648
      5.43457      8.15186      5.43457        -0.000327     -0.000077      0.000377
      0.00000      0.00000      2.71729        -0.000935     -0.000015     -0.000909
      5.43457     -0.00000      2.71729        -0.001785      0.001249      0.000615
     -0.00000      5.43457      2.71729        -0.002813      0.000012     -0.002819
      5.43457      5.43457      2.71729        -0.001937     -0.001251     -0.001269
      0.00000      0.00000      8.15186         0.000626     -0.001266     -0.001800
      5.43457      0.00000      8.15186        -0.000250     -0.000002     -0.000250
      0.00000      5.43457      8.15186        -0.001278      0.001264     -0.001954
      5.43457      5.43457      8.15186        -0.000404      0.000001     -0.000403
      4.07593      4.07593      4.07593        -0.032396     -0.022145     -0.022618
      9.51050      4.07593      4.07593        -0.000253      0.000002     -0.000252
      4.07593      9.51050      4.07593         0.000240     -0.000066     -0.000232
      9.51050      9.51050      4.07593        -0.000474     -0.000003     -0.000473
      4.07593      4.07593      9.51050         0.000168     -0.000004      0.000176
      9.51050      4.07593      9.51050        -0.023229      0.022754     -0.032701
      4.07593      9.51050      9.51050        -0.002335      0.000003     -0.002340
      9.51050      9.51050      9.51050        -0.000228      0.000073      0.000245
      4.07593      1.35864      1.35864        -0.031843      0.022811      0.022914
      9.51050      1.35864      1.35864         0.022487      0.022738     -0.031843
      4.07593      6.79322      1.35864         0.000762      0.000590     -0.001669
      9.51050      6.79322      1.35864         0.000186      0.000554      0.000767
      4.07593      1.35864      6.79322         0.000727      0.000665      0.000115
      9.51050      1.35864      6.79322         0.000116      0.000595      0.000304
      4.07593      6.79322      6.79322        -0.001810      0.000522      0.000431
      9.51050      6.79322      6.79322         0.000433      0.000486      0.000046
      1.35864      4.07593      1.35864        -0.054890      0.000621     -0.055184
      6.79322      4.07593      1.35864        -0.000250     -0.000069      0.000170
      1.35864      9.51050      1.35864         0.000106      0.000006      0.000104
      6.79322      9.51050      1.35864        -0.000471     -0.000038     -0.002329
      1.35864      4.07593      6.79322         0.000176      0.000067     -0.000255
      6.79322      4.07593      6.79322        -0.000435     -0.000003     -0.000436
      1.35864      9.51050      6.79322        -0.002345      0.000037     -0.000477
      6.79322      9.51050      6.79322        -0.000091      0.000002     -0.000093
      1.35864      1.35864      4.07593        -0.032147     -0.023346      0.023093
      6.79322      1.35864      4.07593         0.000300     -0.000591      0.000122
      1.35864      6.79322      4.07593         0.000764     -0.000554      0.000189
      6.79322      6.79322      4.07593         0.000052     -0.000484      0.000429
      1.35864      1.35864      9.51050         0.023517     -0.023410     -0.032146
      6.79322      1.35864      9.51050         0.000124     -0.000657      0.000727
      1.35864      6.79322      9.51050        -0.001683     -0.000596      0.000769
      6.79322      6.79322      9.51050         0.000431     -0.000524     -0.001819
 -----------------------------------------------------------------------------------
    total drift:                               -0.000006     -0.000000     -0.000005


--------------------------------------------------------------------------------------------------------



  FREE ENERGIE OF THE ION-ELECTRON SYSTEM (eV)
  ---------------------------------------------------
  free  energy   TOTEN  =      -367.49988794 eV

  energy  without entropy=     -367.49988794  energy(sigma->0) =     -367.49988794
 


--------------------------------------------------------------------------------------------------------


    POTLOK:  cpu time      0.0427: real time      0.0429


--------------------------------------------------------------------------------------------------------


     LOOP+:  cpu time     43.6243: real time     43.8591
    4ORBIT:  cpu time      0.0000: real time      0.0000

 total amount of memory used by VASP MPI-rank0    65387. kBytes
=======================================================================

   base      :      30000. kBytes
   nonl-proj :       6402. kBytes
   fftplans  :      11573. kBytes
   grid      :       5816. kBytes
   one-center:         49. kBytes
   wavefun   :      11547. kBytes
 
  
  
 General timing and accounting informations for this job:
 ========================================================
  
                  Total CPU time used (sec):       45.616
                            User time (sec):       44.471
                          System time (sec):        1.145
                         Elapsed time (sec):       46.024
  
                   Maximum memory used (kb):      224016.
                   Average memory used (kb):          N/A
  
                          Minor page faults:        69422
                          Major page faults:            0
                 Voluntary context switches:          755
