 vasp.6.3.2 27Jun22 (build Oct 14 2022 12:13:54) complex                        
  
 executed on             LinuxIFC date 2023.04.03  14:20:36
 running on   32 total cores
 distrk:  each k-point on   32 cores,    1 groups
 distr:  one band on NCORE=   4 cores,    8 groups


--------------------------------------------------------------------------------------------------------


 INCAR:
   ADDGRID = True
   EDIFF = 1e-08
   EDIFFG = -1e-06
   ENCUT = 318
   GGA = Ps
   IALGO = 38
   IBRION = 2
   ISIF = 3
   ISMEAR = 0
   LCHARG = False
   LREAL = False
   LWAVE = False
   NELMIN = 5
   NPAR = 8
   NSW = 500
   PREC = Accurate
   SIGMA = 0.02

 POTCAR:    PAW_PBE Si 05Jan2001                  
 POTCAR:    PAW_PBE Si 05Jan2001                  
   SHA256 =  79d9987ad8750f624c4d6acb2a16d13abf6a777132adc04dc6c8399be72b42bb Si/POTCAR             
   COPYR  = (c) Copyright 05Jan2001 Georg Kresse                                                    
   COPYR  = This file is part of the software VASP. Any use, copying, and all other rights are regul
   COPYR  = If you do not have a valid VASP license, you may not use, copy or distribute this file. 
   VRHFIN =Si: s2p2                                                                                 
   LEXCH  = PE                                                                                      
   EATOM  =   103.0669 eV,    7.5752 Ry                                                             
                                                                                                    
   TITEL  = PAW_PBE Si 05Jan2001                                                                    
   LULTRA =        F    use ultrasoft PP ?                                                          
   IUNSCR =        1    unscreen: 0-lin 1-nonlin 2-no                                               
   RPACOR =    1.500    partial core radius                                                         
   POMASS =   28.085; ZVAL   =    4.000    mass and valenz                                          
   RCORE  =    1.900    outmost cutoff radius                                                       
   RWIGS  =    2.480; RWIGS  =    1.312    wigner-seitz radius (au A)                               
   ENMAX  =  245.345; ENMIN  =  184.009 eV                                                          
   ICORE  =        2    local potential                                                             
   LCOR   =        T    correct aug charges                                                         
   LPAW   =        T    paw PP                                                                      
   EAUG   =  322.069                                                                                
   DEXC   =    0.000                                                                                
   RMAX   =    1.950    core radius for proj-oper                                                   
   RAUG   =    1.300    factor for augmentation sphere                                              
   RDEP   =    1.993    radius for radial grids                                                     
   RDEPT  =    1.837    core radius for aug-charge                                                  
                                                                                                    
   Atomic configuration                                                                             
    6 entries                                                                                       
     n  l   j            E        occ.                                                              
     1  0  0.50     -1785.8828   2.0000                                                             
     2  0  0.50      -139.4969   2.0000                                                             
     2  1  1.50       -95.5546   6.0000                                                             
     3  0  0.50       -10.8127   2.0000                                                             
     3  1  0.50        -4.0811   2.0000                                                             
     3  2  1.50        -4.0817   0.0000                                                             
   Description                                                                                      
     l       E           TYP  RCUT    TYP  RCUT                                                     
     0    -10.8127223     23  1.900                                                                 
     0     -7.6451159     23  1.900                                                                 
     1     -4.0811372     23  1.900                                                                 
     1      2.4879257     23  1.900                                                                 
     2     -4.0817478      7  1.900                                                                 
  local pseudopotential read in
  partial core-charges read in
  partial kinetic energy density read in
  atomic valenz-charges read in
  non local Contribution for L=           0  read in
    real space projection operators read in
  non local Contribution for L=           0  read in
    real space projection operators read in
  non local Contribution for L=           1  read in
    real space projection operators read in
  non local Contribution for L=           1  read in
    real space projection operators read in
    PAW grid and wavefunctions read in
 
   number of l-projection  operators is LMAX  =           4
   number of lm-projection operators is LMMAX =           8
 
 -----------------------------------------------------------------------------
|                                                                             |
|               ----> ADVICE to this user running VASP <----                  |
|                                                                             |
|     You enforced a specific xc type in the INCAR file but a different       |
|     type was found in the POTCAR file.                                      |
|     I HOPE YOU KNOW WHAT YOU ARE DOING!                                     |
|                                                                             |
 -----------------------------------------------------------------------------

  PAW_PBE Si 05Jan2001                  :
 energy of atom  1       EATOM= -103.0669
 kinetic energy error for atom=    0.0016 (will be added to EATOM!!)
 
 
 POSCAR: Si
  positions in cartesian coordinates
  No initial velocities read in
 exchange correlation table for  LEXCH =       14
   RHO(1)=    0.500       N(1)  =     2000
   RHO(2)=  100.500       N(2)  =     4000
 


--------------------------------------------------------------------------------------------------------


 ion  position               nearest neighbor table
   1  0.500  0.000  0.000-   2 2.35   4 2.35   6 2.35   8 2.35
   2  0.250  0.250  0.750-   1 2.35   3 2.35   5 2.35   7 2.35
   3  0.500  0.500  0.500-   2 2.35   4 2.35   6 2.35   8 2.35
   4  0.250  0.750  0.250-   1 2.35   3 2.35   5 2.35   7 2.35
   5  0.000  0.000  0.500-   2 2.35   4 2.35   6 2.35   8 2.35
   6  0.750  0.250  0.250-   1 2.35   3 2.35   5 2.35   7 2.35
   7  0.000  0.500  0.000-   2 2.35   4 2.35   6 2.35   8 2.35
   8  0.750  0.750  0.750-   1 2.35   3 2.35   5 2.35   7 2.35
 
  LATTYP: Found a simple cubic cell.
 ALAT       =     5.4345725600
  
  Lattice vectors:
  
 A1 = (   5.4345725600,   0.0000000000,   0.0000000000)
 A2 = (   0.0000000000,   5.4345725600,   0.0000000000)
 A3 = (   0.0000000000,   0.0000000000,   5.4345725600)


Analysis of symmetry for initial positions (statically):
=====================================================================
 Subroutine PRICEL returns following result:
 
  LATTYP: Found a face centered cubic cell.
 ALAT       =     5.4345725600
  
  Lattice vectors:
  
 A1 = (   2.7172862800,  -2.7172862800,   0.0000000000)
 A2 = (   2.7172862800,   0.0000000000,   2.7172862800)
 A3 = (   0.0000000000,  -2.7172862800,   2.7172862800)
 
   4 primitive cells build up your supercell.
 

 Routine SETGRP: Setting up the symmetry group for a 
 simple cubic supercell.


 Subroutine GETGRP returns: Found 48 space group operations
 (whereof 24 operations were pure point group operations)
 out of a pool of 48 trial point group operations.


The static configuration has the point symmetry T_d .
 The point group associated with its full space group is O_h .


Analysis of symmetry for dynamics (positions and initial velocities):
=====================================================================
 Subroutine PRICEL returns following result:
 
  LATTYP: Found a face centered cubic cell.
 ALAT       =     5.4345725600
  
  Lattice vectors:
  
 A1 = (   2.7172862800,  -2.7172862800,   0.0000000000)
 A2 = (   2.7172862800,   0.0000000000,   2.7172862800)
 A3 = (   0.0000000000,  -2.7172862800,   2.7172862800)
 
   4 primitive cells build up your supercell.
 

 Routine SETGRP: Setting up the symmetry group for a 
 simple cubic supercell.


 Subroutine GETGRP returns: Found 48 space group operations
 (whereof 24 operations were pure point group operations)
 out of a pool of 48 trial point group operations.


The dynamic configuration has the point symmetry T_d .
 The point group associated with its full space group is O_h .


 Subroutine INISYM returns: Found 48 space group operations
 (whereof 24 operations are pure point group operations),
 and found     4 'primitive' translations


----------------------------------------------------------------------------------------

                                     Primitive cell                                     

  volume of cell :      40.1270

  direct lattice vectors                    reciprocal lattice vectors
     2.717286280 -2.717286280  0.000000000     0.184007112 -0.184007112 -0.184007112
     2.717286280  0.000000000  2.717286280     0.184007112  0.184007112  0.184007112
     0.000000000 -2.717286280  2.717286280    -0.184007112 -0.184007112  0.184007112

  length of vectors
     3.842823110  3.842823110  3.842823110     0.318709666  0.318709666  0.318709666

  position of ions in fractional coordinates (direct lattice)
     0.500000000  0.500000000  0.500000000
     0.250000000  0.250000000  0.250000000

  ion indices of the primitive-cell ions
   primitive index   ion index
                 1           1
                 2           2

----------------------------------------------------------------------------------------

 
 
 KPOINTS: KPOINTS created by Atomic Simulation Env

Automatic generation of k-mesh.
 Grid dimensions read from file:
 generate k-points for:    4    4    4

 Generating k-lattice:

  Cartesian coordinates                     Fractional coordinates (reciprocal lattice)
     0.046001778  0.000000000  0.000000000     0.250000000  0.000000000  0.000000000
     0.000000000  0.046001778  0.000000000     0.000000000  0.250000000  0.000000000
     0.000000000  0.000000000  0.046001778     0.000000000  0.000000000  0.250000000

  Length of vectors
     0.046001778  0.046001778  0.046001778

  Shift w.r.t. Gamma in fractional coordinates (k-lattice)
     0.000000000  0.000000000  0.000000000

 
 Subroutine IBZKPT returns following result:
 ===========================================
 
 Found     10 irreducible k-points:
 
 Following reciprocal coordinates:
            Coordinates               Weight
  0.000000  0.000000  0.000000      1.000000
  0.250000  0.000000  0.000000      6.000000
  0.500000  0.000000  0.000000      3.000000
  0.250000  0.250000  0.000000     12.000000
  0.500000  0.250000  0.000000     12.000000
  0.500000  0.500000  0.000000      3.000000
  0.250000  0.250000  0.250000      8.000000
  0.500000  0.250000  0.250000     12.000000
  0.500000  0.500000  0.250000      6.000000
  0.500000  0.500000  0.500000      1.000000
 
 Following cartesian coordinates:
            Coordinates               Weight
  0.000000  0.000000  0.000000      1.000000
  0.046002  0.000000  0.000000      6.000000
  0.092004  0.000000  0.000000      3.000000
  0.046002  0.046002  0.000000     12.000000
  0.092004  0.046002  0.000000     12.000000
  0.092004  0.092004  0.000000      3.000000
  0.046002  0.046002  0.046002      8.000000
  0.092004  0.046002  0.046002     12.000000
  0.092004  0.092004  0.046002      6.000000
  0.092004  0.092004  0.092004      1.000000
 


--------------------------------------------------------------------------------------------------------




 Dimension of arrays:
   k-points           NKPTS =     10   k-points in BZ     NKDIM =     10   number of bands    NBANDS=     24
   number of dos      NEDOS =    301   number of ions     NIONS =      8
   non local maximal  LDIM  =      4   non local SUM 2l+1 LMDIM =      8
   total plane-waves  NPLWV =  32768
   max r-space proj   IRMAX =      1   max aug-charges    IRDMAX=  54800
   dimension x,y,z NGX =    32 NGY =   32 NGZ =   32
   dimension x,y,z NGXF=    64 NGYF=   64 NGZF=   64
   support grid    NGXF=   128 NGYF=  128 NGZF=  128
   ions per type =               8
   NGX,Y,Z   is equivalent  to a cutoff of   9.79,  9.79,  9.79 a.u.
   NGXF,Y,Z  is equivalent  to a cutoff of  19.58, 19.58, 19.58 a.u.

 SYSTEM =  unknown system                          
 POSCAR =  Si                                      

 Startparameter for this run:
   NWRITE =      2    write-flag & timer
   PREC   = accura    normal or accurate (medium, high low for compatibility)
   ISTART =      0    job   : 0-new  1-cont  2-samecut
   ICHARG =      2    charge: 1-file 2-atom 10-const
   ISPIN  =      1    spin polarized calculation?
   LNONCOLLINEAR =      F non collinear calculations
   LSORBIT =      F    spin-orbit coupling
   INIWAV =      1    electr: 0-lowe 1-rand  2-diag
   LASPH  =      F    aspherical Exc in radial PAW
 Electronic Relaxation 1
   ENCUT  =  318.0 eV  23.37 Ry    4.83 a.u.   7.90  7.90  7.90*2*pi/ulx,y,z
   ENINI  =  318.0     initial cutoff
   ENAUG  =  322.1 eV  augmentation charge cutoff
   NELM   =     60;   NELMIN=  5; NELMDL=  0     # of ELM steps 
   EDIFF  = 0.1E-07   stopping-criterion for ELM
   LREAL  =      F    real-space projection
   NLSPLINE    = F    spline interpolate recip. space projectors
   LCOMPAT=      F    compatible to vasp.4.4
   GGA_COMPAT  = T    GGA compatible to vasp.4.4-vasp.4.6
   LMAXPAW     = -100 max onsite density
   LMAXMIX     =    2 max onsite mixed and CHGCAR
   VOSKOWN=      0    Vosko Wilk Nusair interpolation
   ROPT   =    0.00000
 Ionic relaxation
   EDIFFG = -.1E-05   stopping-criterion for IOM
   NSW    =    500    number of steps for IOM
   NBLOCK =      1;   KBLOCK =    500    inner block; outer block 
   IBRION =      2    ionic relax: 0-MD 1-quasi-New 2-CG
   NFREE  =      1    steps in history (QN), initial steepest desc. (CG)
   ISIF   =      3    stress and relaxation
   IWAVPR =     11    prediction:  0-non 1-charg 2-wave 3-comb
   ISYM   =      2    0-nonsym 1-usesym 2-fastsym
   LCORR  =      T    Harris-Foulkes like correction to forces

   POTIM  = 0.5000    time-step for ionic-motion
   TEIN   =    0.0    initial temperature
   TEBEG  =    0.0;   TEEND  =   0.0 temperature during run
   SMASS  =  -3.00    Nose mass-parameter (am)
   estimated Nose-frequenzy (Omega)   =  0.10E-29 period in steps = 0.13E+47 mass=  -0.675E-27a.u.
   SCALEE = 1.0000    scale energy and forces
   NPACO  =    256;   APACO  = 10.0  distance and # of slots for P.C.
   PSTRESS=    0.0 pullay stress

  Mass of Ions in am
   POMASS =  28.09
  Ionic Valenz
   ZVAL   =   4.00
  Atomic Wigner-Seitz radii
   RWIGS  =  -1.00
  virtual crystal weights 
   VCA    =   1.00
   NELECT =      32.0000    total number of electrons
   NUPDOWN=      -1.0000    fix difference up-down

 DOS related values:
   EMIN   =  10.00;   EMAX   =-10.00  energy-range for DOS
   EFERMI =   0.00
   ISMEAR =     0;   SIGMA  =   0.02  broadening in eV -4-tet -1-fermi 0-gaus

 Electronic relaxation 2 (details)
   IALGO  =     38    algorithm
   LDIAG  =      T    sub-space diagonalisation (order eigenvalues)
   LSUBROT=      F    optimize rotation matrix (better conditioning)
   TURBO    =      0    0=normal 1=particle mesh
   IRESTART =      0    0=no restart 2=restart with 2 vectors
   NREBOOT  =      0    no. of reboots
   NMIN     =      0    reboot dimension
   EREF     =   0.00    reference energy to select bands
   IMIX   =      4    mixing-type and parameters
     AMIX     =   0.40;   BMIX     =  1.00
     AMIX_MAG =   1.60;   BMIX_MAG =  1.00
     AMIN     =   0.10
     WC   =   100.;   INIMIX=   1;  MIXPRE=   1;  MAXMIX= -45

 Intra band minimization:
   WEIMIN = 0.0010     energy-eigenvalue tresh-hold
   EBREAK =  0.10E-09  absolut break condition
   DEPER  =   0.30     relativ break condition  

   TIME   =   0.40     timestep for ELM

  volume/ion in A,a.u.               =      20.06       135.40
  Fermi-wavevector in a.u.,A,eV,Ry     =   0.956370  1.807278 12.444490  0.914644
  Thomas-Fermi vector in A             =   2.085292
 
 Write flags
   LWAVE        =      F    write WAVECAR
   LDOWNSAMPLE  =      F    k-point downsampling of WAVECAR
   LCHARG       =      F    write CHGCAR
   LVTOT        =      F    write LOCPOT, total local potential
   LVHAR        =      F    write LOCPOT, Hartree potential only
   LELF         =      F    write electronic localiz. function (ELF)
   LORBIT       =      0    0 simple, 1 ext, 2 COOP (PROOUT), +10 PAW based schemes


 Dipole corrections
   LMONO  =      F    monopole corrections only (constant potential shift)
   LDIPOL =      F    correct potential (dipole corrections)
   IDIPOL =      0    1-x, 2-y, 3-z, 4-all directions 
   EPSILON=  1.0000000 bulk dielectric constant

 Exchange correlation treatment:
   GGA     =    PS    GGA type
   LEXCH   =    14    internal setting for exchange type
   LIBXC   =     F    Libxc                    
   VOSKOWN =     0    Vosko Wilk Nusair interpolation
   LHFCALC =     F    Hartree Fock is set to
   LHFONE  =     F    Hartree Fock one center treatment
   AEXX    =    0.0000 exact exchange contribution

 Linear response parameters
   LEPSILON=     F    determine dielectric tensor
   LRPA    =     F    only Hartree local field effects (RPA)
   LNABLA  =     F    use nabla operator in PAW spheres
   LVEL    =     F    velocity operator in full k-point grid
   CSHIFT  =0.1000    complex shift for real part using Kramers Kronig
   OMEGAMAX=  -1.0    maximum frequency
   DEG_THRESHOLD= 0.2000000E-02 threshold for treating states as degnerate
   RTIME   =   -0.100 relaxation time in fs
  (WPLASMAI=    0.000 imaginary part of plasma frequency in eV, 0.658/RTIME)
   DFIELD  = 0.0000000 0.0000000 0.0000000 field for delta impulse in time
 
  Optional k-point grid parameters
   LKPOINTS_OPT  =     F    use optional k-point grid
   KPOINTS_OPT_MODE=     1    mode for optional k-point grid
 
 Orbital magnetization related:
   ORBITALMAG=     F  switch on orbital magnetization
   LCHIMAG   =     F  perturbation theory with respect to B field
   DQ        =  0.001000  dq finite difference perturbation B field
   LLRAUG    =     F  two centre corrections for induced B field



--------------------------------------------------------------------------------------------------------


 conjugate gradient relaxation of ions
 charge density and potential will be updated during run
 non-spin polarized calculation
 Variant of blocked Davidson
 Davidson routine will perform the subspace rotation
 perform sub-space diagonalisation
    after iterative eigenvector-optimisation
 modified Broyden-mixing scheme, WC =      100.0
 initial mixing is a Kerker type mixing with AMIX =  0.4000 and BMIX =      1.0000
 Hartree-type preconditioning will be used
 using additional bands            8
 reciprocal scheme for non local part
 use partial core corrections
 calculate Harris-corrections to forces 
   (improved forces if not selfconsistent)
 use gradient corrections 
 use of overlap-Matrix (Vanderbilt PP)
 Gauss-broadening in eV      SIGMA  =   0.02


--------------------------------------------------------------------------------------------------------


  energy-cutoff  :      318.00
  volume of cell :      160.51
      direct lattice vectors                 reciprocal lattice vectors
     5.434572560  0.000000000  0.000000000     0.184007112  0.000000000  0.000000000
     0.000000000  5.434572560  0.000000000     0.000000000  0.184007112  0.000000000
     0.000000000  0.000000000  5.434572560     0.000000000  0.000000000  0.184007112

  length of vectors
     5.434572560  5.434572560  5.434572560     0.184007112  0.184007112  0.184007112


 
 k-points in units of 2pi/SCALE and weight: KPOINTS created by Atomic Simulation Env
   0.00000000  0.00000000  0.00000000       0.016
   0.04600178  0.00000000  0.00000000       0.094
   0.09200356  0.00000000  0.00000000       0.047
   0.04600178  0.04600178  0.00000000       0.188
   0.09200356  0.04600178  0.00000000       0.188
   0.09200356  0.09200356  0.00000000       0.047
   0.04600178  0.04600178  0.04600178       0.125
   0.09200356  0.04600178  0.04600178       0.188
   0.09200356  0.09200356  0.04600178       0.094
   0.09200356  0.09200356  0.09200356       0.016
 
 k-points in reciprocal lattice and weights: KPOINTS created by Atomic Simulation Env
   0.00000000  0.00000000  0.00000000       0.016
   0.25000000  0.00000000  0.00000000       0.094
   0.50000000  0.00000000  0.00000000       0.047
   0.25000000  0.25000000  0.00000000       0.188
   0.50000000  0.25000000  0.00000000       0.188
   0.50000000  0.50000000  0.00000000       0.047
   0.25000000  0.25000000  0.25000000       0.125
   0.50000000  0.25000000  0.25000000       0.188
   0.50000000  0.50000000  0.25000000       0.094
   0.50000000  0.50000000  0.50000000       0.016
 
 position of ions in fractional coordinates (direct lattice) 
   0.50000000  0.00000000  0.00000000
   0.25000000  0.25000000  0.75000000
   0.50000000  0.50000000  0.50000000
   0.25000000  0.75000000  0.25000000
   0.00000000  0.00000000  0.50000000
   0.75000000  0.25000000  0.25000000
   0.00000000  0.50000000  0.00000000
   0.75000000  0.75000000  0.75000000
 
 position of ions in cartesian coordinates  (Angst):
   2.71728628  0.00000000  0.00000000
   1.35864314  1.35864314  4.07592942
   2.71728628  2.71728628  2.71728628
   1.35864314  4.07592942  1.35864314
   0.00000000  0.00000000  2.71728628
   4.07592942  1.35864314  1.35864314
   0.00000000  2.71728628  0.00000000
   4.07592942  4.07592942  4.07592942
 


--------------------------------------------------------------------------------------------------------


 k-point   1 :   0.0000 0.0000 0.0000  plane waves:    2103
 k-point   2 :   0.2500 0.0000 0.0000  plane waves:    2036
 k-point   3 :   0.5000 0.0000 0.0000  plane waves:    2088
 k-point   4 :   0.2500 0.2500 0.0000  plane waves:    2063
 k-point   5 :   0.5000 0.2500 0.0000  plane waves:    2078
 k-point   6 :   0.5000 0.5000 0.0000  plane waves:    2048
 k-point   7 :   0.2500 0.2500 0.2500  plane waves:    2070
 k-point   8 :   0.5000 0.2500 0.2500  plane waves:    2084
 k-point   9 :   0.5000 0.5000 0.2500  plane waves:    2052
 k-point  10 :   0.5000 0.5000 0.5000  plane waves:    2008

 maximum and minimum number of plane-waves per node :       553      486

 maximum number of plane-waves:      2103
 maximum index in each direction: 
   IXMAX=    7   IYMAX=    7   IZMAX=    7
   IXMIN=   -8   IYMIN=   -8   IZMIN=   -8


 parallel 3D FFT for wavefunctions:
    minimum data exchange during FFTs selected (reduces bandwidth)
 parallel 3D FFT for charge:
    minimum data exchange during FFTs selected (reduces bandwidth)


 total amount of memory used by VASP MPI-rank0    32857. kBytes
=======================================================================

   base      :      30000. kBytes
   nonl-proj :        399. kBytes
   fftplans  :       1462. kBytes
   grid      :        733. kBytes
   one-center:          6. kBytes
   wavefun   :        257. kBytes
 
     INWAV:  cpu time      0.0000: real time      0.0000
 Broyden mixing: mesh for mixing (old mesh)
   NGX = 15   NGY = 15   NGZ = 15
  (NGX  = 64   NGY  = 64   NGZ  = 64)
  gives a total of   3375 points

 initial charge density was supplied:
 charge density of overlapping atoms calculated
 number of electron      32.0000000 magnetization 
 keeping initial charge density in first step


--------------------------------------------------------------------------------------------------------


 Maximum index for augmentation-charges         1701 (set IRDMAX)


--------------------------------------------------------------------------------------------------------


 First call to EWALD:  gamma=   0.326
 Maximum number of real-space cells 3x 3x 3
 Maximum number of reciprocal cells 3x 3x 3

    FEWALD:  cpu time      0.0011: real time      0.0011


--------------------------------------- Iteration      1(   1)  ---------------------------------------


    POTLOK:  cpu time      0.0047: real time      0.0111
    SETDIJ:  cpu time      0.0064: real time      0.0073
     EDDAV:  cpu time      0.0542: real time      0.1260
       DOS:  cpu time      0.0008: real time      0.0026
    --------------------------------------------
      LOOP:  cpu time      0.0660: real time      0.1469

 eigenvalue-minimisations  :   480
 total energy-change (2. order) : 0.4273863E+02  (-0.8954391E+03)
 number of electron      32.0000000 magnetization 
 augmentation part       32.0000000 magnetization 

 Free energy of the ion-electron system (eV)
  ---------------------------------------------------
  alpha Z        PSCENC =        13.42265116
  Ewald energy   TEWEN  =      -913.48489415
  -Hartree energ DENC   =       -44.15604849
  -exchange      EXHF   =         0.00000000
  -V(xc)+E(xc)   XCENC  =       -69.85671882
  PAW double counting   =       699.82828177     -561.52230517
  entropy T*S    EENTRO =        -0.00236769
  eigenvalues    EBANDS =        97.91415414
  atomic energy  EATOM  =       820.59587802
  Solvation  Ediel_sol  =         0.00000000
  ---------------------------------------------------
  free energy    TOTEN  =        42.73863078 eV

  energy without entropy =       42.74099847  energy(sigma->0) =       42.73981462


--------------------------------------------------------------------------------------------------------




--------------------------------------- Iteration      1(   2)  ---------------------------------------


     EDDAV:  cpu time      0.0472: real time      0.0486
       DOS:  cpu time      0.0001: real time      0.0001
    --------------------------------------------
      LOOP:  cpu time      0.0473: real time      0.0487

 eigenvalue-minimisations  :   680
 total energy-change (2. order) :-0.8594766E+02  (-0.7995735E+02)
 number of electron      32.0000000 magnetization 
 augmentation part       32.0000000 magnetization 

 Free energy of the ion-electron system (eV)
  ---------------------------------------------------
  alpha Z        PSCENC =        13.42265116
  Ewald energy   TEWEN  =      -913.48489415
  -Hartree energ DENC   =       -44.15604849
  -exchange      EXHF   =         0.00000000
  -V(xc)+E(xc)   XCENC  =       -69.85671882
  PAW double counting   =       699.82828177     -561.52230517
  entropy T*S    EENTRO =        -0.00000000
  eigenvalues    EBANDS =        11.96412634
  atomic energy  EATOM  =       820.59587802
  Solvation  Ediel_sol  =         0.00000000
  ---------------------------------------------------
  free energy    TOTEN  =       -43.20902934 eV

  energy without entropy =      -43.20902934  energy(sigma->0) =      -43.20902934


--------------------------------------------------------------------------------------------------------




--------------------------------------- Iteration      1(   3)  ---------------------------------------


     EDDAV:  cpu time      0.0443: real time      0.0476
       DOS:  cpu time      0.0001: real time      0.0001
    --------------------------------------------
      LOOP:  cpu time      0.0444: real time      0.0477

 eigenvalue-minimisations  :   640
 total energy-change (2. order) :-0.3567112E+01  (-0.3537555E+01)
 number of electron      32.0000000 magnetization 
 augmentation part       32.0000000 magnetization 

 Free energy of the ion-electron system (eV)
  ---------------------------------------------------
  alpha Z        PSCENC =        13.42265116
  Ewald energy   TEWEN  =      -913.48489415
  -Hartree energ DENC   =       -44.15604849
  -exchange      EXHF   =         0.00000000
  -V(xc)+E(xc)   XCENC  =       -69.85671882
  PAW double counting   =       699.82828177     -561.52230517
  entropy T*S    EENTRO =        -0.00000000
  eigenvalues    EBANDS =         8.39701410
  atomic energy  EATOM  =       820.59587802
  Solvation  Ediel_sol  =         0.00000000
  ---------------------------------------------------
  free energy    TOTEN  =       -46.77614157 eV

  energy without entropy =      -46.77614157  energy(sigma->0) =      -46.77614157


--------------------------------------------------------------------------------------------------------




--------------------------------------- Iteration      1(   4)  ---------------------------------------


     EDDAV:  cpu time      0.0406: real time      0.0410
       DOS:  cpu time      0.0001: real time      0.0001
    --------------------------------------------
      LOOP:  cpu time      0.0407: real time      0.0411

 eigenvalue-minimisations  :   576
 total energy-change (2. order) :-0.5296013E-01  (-0.5292586E-01)
 number of electron      32.0000000 magnetization 
 augmentation part       32.0000000 magnetization 

 Free energy of the ion-electron system (eV)
  ---------------------------------------------------
  alpha Z        PSCENC =        13.42265116
  Ewald energy   TEWEN  =      -913.48489415
  -Hartree energ DENC   =       -44.15604849
  -exchange      EXHF   =         0.00000000
  -V(xc)+E(xc)   XCENC  =       -69.85671882
  PAW double counting   =       699.82828177     -561.52230517
  entropy T*S    EENTRO =        -0.00000000
  eigenvalues    EBANDS =         8.34405398
  atomic energy  EATOM  =       820.59587802
  Solvation  Ediel_sol  =         0.00000000
  ---------------------------------------------------
  free energy    TOTEN  =       -46.82910170 eV

  energy without entropy =      -46.82910170  energy(sigma->0) =      -46.82910170


--------------------------------------------------------------------------------------------------------




--------------------------------------- Iteration      1(   5)  ---------------------------------------


     EDDAV:  cpu time      0.0428: real time      0.0430
       DOS:  cpu time      0.0001: real time      0.0001
    CHARGE:  cpu time      0.0082: real time      0.0097
    MIXING:  cpu time      0.0007: real time      0.0019
    --------------------------------------------
      LOOP:  cpu time      0.0517: real time      0.0548

 eigenvalue-minimisations  :   632
 total energy-change (2. order) :-0.1214022E-02  (-0.1213781E-02)
 number of electron      31.9999999 magnetization 
 augmentation part       -1.8699321 magnetization 

 Broyden mixing:
  rms(total) = 0.10060E+01    rms(broyden)= 0.10060E+01
  rms(prec ) = 0.13661E+01
  weight for this iteration     100.00

 Free energy of the ion-electron system (eV)
  ---------------------------------------------------
  alpha Z        PSCENC =        13.42265116
  Ewald energy   TEWEN  =      -913.48489415
  -Hartree energ DENC   =       -44.15604849
  -exchange      EXHF   =         0.00000000
  -V(xc)+E(xc)   XCENC  =       -69.85671882
  PAW double counting   =       699.82828177     -561.52230517
  entropy T*S    EENTRO =        -0.00000000
  eigenvalues    EBANDS =         8.34283995
  atomic energy  EATOM  =       820.59587802
  Solvation  Ediel_sol  =         0.00000000
  ---------------------------------------------------
  free energy    TOTEN  =       -46.83031572 eV

  energy without entropy =      -46.83031572  energy(sigma->0) =      -46.83031572


--------------------------------------------------------------------------------------------------------




--------------------------------------- Iteration      1(   6)  ---------------------------------------


    POTLOK:  cpu time      0.0031: real time      0.0031
    SETDIJ:  cpu time      0.0031: real time      0.0031
     EDDAV:  cpu time      0.0384: real time      0.0386
       DOS:  cpu time      0.0001: real time      0.0001
    CHARGE:  cpu time      0.0074: real time      0.0074
    MIXING:  cpu time      0.0003: real time      0.0003
    --------------------------------------------
      LOOP:  cpu time      0.0523: real time      0.0527

 eigenvalue-minimisations  :   536
 total energy-change (2. order) : 0.6150998E+00  (-0.2920919E-01)
 number of electron      31.9999999 magnetization 
 augmentation part       -1.8499398 magnetization 

 Broyden mixing:
  rms(total) = 0.60590E+00    rms(broyden)= 0.60590E+00
  rms(prec ) = 0.80776E+00
  weight for this iteration     100.00

 eigenvalues of (default mixing * dielectric matrix)
  average eigenvalue GAMMA=   2.5071
  2.5071

 Free energy of the ion-electron system (eV)
  ---------------------------------------------------
  alpha Z        PSCENC =        13.42265116
  Ewald energy   TEWEN  =      -913.48489415
  -Hartree energ DENC   =       -49.90590000
  -exchange      EXHF   =         0.00000000
  -V(xc)+E(xc)   XCENC  =       -68.94681099
  PAW double counting   =      1559.79418682    -1421.89395828
  entropy T*S    EENTRO =        -0.00000000
  eigenvalues    EBANDS =        14.20363153
  atomic energy  EATOM  =       820.59587802
  Solvation  Ediel_sol  =         0.00000000
  ---------------------------------------------------
  free energy    TOTEN  =       -46.21521588 eV

  energy without entropy =      -46.21521588  energy(sigma->0) =      -46.21521588


--------------------------------------------------------------------------------------------------------




--------------------------------------- Iteration      1(   7)  ---------------------------------------


    POTLOK:  cpu time      0.0031: real time      0.0031
    SETDIJ:  cpu time      0.0028: real time      0.0028
     EDDAV:  cpu time      0.0379: real time      0.0380
       DOS:  cpu time      0.0001: real time      0.0001
    CHARGE:  cpu time      0.0073: real time      0.0074
    MIXING:  cpu time      0.0003: real time      0.0003
    --------------------------------------------
      LOOP:  cpu time      0.0515: real time      0.0517

 eigenvalue-minimisations  :   536
 total energy-change (2. order) : 0.2800737E+00  (-0.5680291E-01)
 number of electron      31.9999999 magnetization 
 augmentation part       -1.8252564 magnetization 

 Broyden mixing:
  rms(total) = 0.35605E-01    rms(broyden)= 0.35605E-01
  rms(prec ) = 0.58670E-01
  weight for this iteration     100.00

 eigenvalues of (default mixing * dielectric matrix)
  average eigenvalue GAMMA=   2.2210
  2.2210  2.2210

 Free energy of the ion-electron system (eV)
  ---------------------------------------------------
  alpha Z        PSCENC =        13.42265116
  Ewald energy   TEWEN  =      -913.48489415
  -Hartree energ DENC   =       -59.00275684
  -exchange      EXHF   =         0.00000000
  -V(xc)+E(xc)   XCENC  =       -67.42643267
  PAW double counting   =      3585.03375801    -3447.66943333
  entropy T*S    EENTRO =        -0.00000000
  eigenvalues    EBANDS =        22.59608756
  atomic energy  EATOM  =       820.59587802
  Solvation  Ediel_sol  =         0.00000000
  ---------------------------------------------------
  free energy    TOTEN  =       -45.93514223 eV

  energy without entropy =      -45.93514223  energy(sigma->0) =      -45.93514223


--------------------------------------------------------------------------------------------------------




--------------------------------------- Iteration      1(   8)  ---------------------------------------


    POTLOK:  cpu time      0.0031: real time      0.0032
    SETDIJ:  cpu time      0.0027: real time      0.0028
     EDDAV:  cpu time      0.0391: real time      0.0393
       DOS:  cpu time      0.0001: real time      0.0001
    CHARGE:  cpu time      0.0072: real time      0.0072
    MIXING:  cpu time      0.0003: real time      0.0026
    --------------------------------------------
      LOOP:  cpu time      0.0526: real time      0.0551

 eigenvalue-minimisations  :   560
 total energy-change (2. order) :-0.2081333E-02  (-0.3213535E-02)
 number of electron      31.9999999 magnetization 
 augmentation part       -1.8301371 magnetization 

 Broyden mixing:
  rms(total) = 0.12677E-01    rms(broyden)= 0.12677E-01
  rms(prec ) = 0.18199E-01
  weight for this iteration     100.00

 eigenvalues of (default mixing * dielectric matrix)
  average eigenvalue GAMMA=   2.3058
  2.6593  2.1290  2.1290

 Free energy of the ion-electron system (eV)
  ---------------------------------------------------
  alpha Z        PSCENC =        13.42265116
  Ewald energy   TEWEN  =      -913.48489415
  -Hartree energ DENC   =       -58.35429616
  -exchange      EXHF   =         0.00000000
  -V(xc)+E(xc)   XCENC  =       -67.46331701
  PAW double counting   =      3582.67116093    -3445.21784902
  entropy T*S    EENTRO =        -0.00000000
  eigenvalues    EBANDS =        21.89344266
  atomic energy  EATOM  =       820.59587802
  Solvation  Ediel_sol  =         0.00000000
  ---------------------------------------------------
  free energy    TOTEN  =       -45.93722357 eV

  energy without entropy =      -45.93722357  energy(sigma->0) =      -45.93722357


--------------------------------------------------------------------------------------------------------




--------------------------------------- Iteration      1(   9)  ---------------------------------------


    POTLOK:  cpu time      0.0028: real time      0.0029
    SETDIJ:  cpu time      0.0027: real time      0.0027
     EDDAV:  cpu time      0.0408: real time      0.0411
       DOS:  cpu time      0.0001: real time      0.0001
    CHARGE:  cpu time      0.0073: real time      0.0073
    MIXING:  cpu time      0.0003: real time      0.0003
    --------------------------------------------
      LOOP:  cpu time      0.0541: real time      0.0544

 eigenvalue-minimisations  :   600
 total energy-change (2. order) :-0.2094407E-03  (-0.8632618E-04)
 number of electron      31.9999999 magnetization 
 augmentation part       -1.8301057 magnetization 

 Broyden mixing:
  rms(total) = 0.11172E-01    rms(broyden)= 0.11172E-01
  rms(prec ) = 0.12661E-01
  weight for this iteration     100.00

 eigenvalues of (default mixing * dielectric matrix)
  average eigenvalue GAMMA=   2.2669
  3.4030  2.4025  2.4025  0.8598

 Free energy of the ion-electron system (eV)
  ---------------------------------------------------
  alpha Z        PSCENC =        13.42265116
  Ewald energy   TEWEN  =      -913.48489415
  -Hartree energ DENC   =       -58.59634034
  -exchange      EXHF   =         0.00000000
  -V(xc)+E(xc)   XCENC  =       -67.42332466
  PAW double counting   =      3597.92433408    -3460.48401169
  entropy T*S    EENTRO =        -0.00000000
  eigenvalues    EBANDS =        22.10827456
  atomic energy  EATOM  =       820.59587802
  Solvation  Ediel_sol  =         0.00000000
  ---------------------------------------------------
  free energy    TOTEN  =       -45.93743301 eV

  energy without entropy =      -45.93743301  energy(sigma->0) =      -45.93743301


--------------------------------------------------------------------------------------------------------




--------------------------------------- Iteration      1(  10)  ---------------------------------------


    POTLOK:  cpu time      0.0028: real time      0.0029
    SETDIJ:  cpu time      0.0027: real time      0.0027
     EDDAV:  cpu time      0.0378: real time      0.0380
       DOS:  cpu time      0.0001: real time      0.0001
    CHARGE:  cpu time      0.0071: real time      0.0071
    MIXING:  cpu time      0.0003: real time      0.0003
    --------------------------------------------
      LOOP:  cpu time      0.0508: real time      0.0511

 eigenvalue-minimisations  :   544
 total energy-change (2. order) :-0.9596449E-04  (-0.2291400E-04)
 number of electron      31.9999999 magnetization 
 augmentation part       -1.8303913 magnetization 

 Broyden mixing:
  rms(total) = 0.57373E-02    rms(broyden)= 0.57373E-02
  rms(prec ) = 0.58754E-02
  weight for this iteration     100.00

 eigenvalues of (default mixing * dielectric matrix)
  average eigenvalue GAMMA=   1.8695
  2.8931  2.2748  2.2748  0.9523  0.9523

 Free energy of the ion-electron system (eV)
  ---------------------------------------------------
  alpha Z        PSCENC =        13.42265116
  Ewald energy   TEWEN  =      -913.48489415
  -Hartree energ DENC   =       -58.59945482
  -exchange      EXHF   =         0.00000000
  -V(xc)+E(xc)   XCENC  =       -67.41901548
  PAW double counting   =      3539.99529159    -3402.54982149
  entropy T*S    EENTRO =        -0.00000000
  eigenvalues    EBANDS =        22.10183620
  atomic energy  EATOM  =       820.59587802
  Solvation  Ediel_sol  =         0.00000000
  ---------------------------------------------------
  free energy    TOTEN  =       -45.93752897 eV

  energy without entropy =      -45.93752897  energy(sigma->0) =      -45.93752897


--------------------------------------------------------------------------------------------------------




--------------------------------------- Iteration      1(  11)  ---------------------------------------


    POTLOK:  cpu time      0.0029: real time      0.0030
    SETDIJ:  cpu time      0.0027: real time      0.0027
     EDDAV:  cpu time      0.0408: real time      0.0410
       DOS:  cpu time      0.0001: real time      0.0001
    CHARGE:  cpu time      0.0072: real time      0.0072
    MIXING:  cpu time      0.0004: real time      0.0004
    --------------------------------------------
      LOOP:  cpu time      0.0541: real time      0.0543

 eigenvalue-minimisations  :   600
 total energy-change (2. order) :-0.1236735E-05  (-0.5171929E-06)
 number of electron      31.9999999 magnetization 
 augmentation part       -1.8304724 magnetization 

 Broyden mixing:
  rms(total) = 0.32007E-03    rms(broyden)= 0.32006E-03
  rms(prec ) = 0.39536E-03
  weight for this iteration     100.00

 eigenvalues of (default mixing * dielectric matrix)
  average eigenvalue GAMMA=   1.9004
  2.7883  2.3853  2.3853  1.9956  0.9948  0.8532

 Free energy of the ion-electron system (eV)
  ---------------------------------------------------
  alpha Z        PSCENC =        13.42265116
  Ewald energy   TEWEN  =      -913.48489415
  -Hartree energ DENC   =       -58.59522856
  -exchange      EXHF   =         0.00000000
  -V(xc)+E(xc)   XCENC  =       -67.41894231
  PAW double counting   =      3558.44439784    -3420.99821135
  entropy T*S    EENTRO =        -0.00000000
  eigenvalues    EBANDS =        22.09681913
  atomic energy  EATOM  =       820.59587802
  Solvation  Ediel_sol  =         0.00000000
  ---------------------------------------------------
  free energy    TOTEN  =       -45.93753021 eV

  energy without entropy =      -45.93753021  energy(sigma->0) =      -45.93753021


--------------------------------------------------------------------------------------------------------




--------------------------------------- Iteration      1(  12)  ---------------------------------------


    POTLOK:  cpu time      0.0030: real time      0.0031
    SETDIJ:  cpu time      0.0026: real time      0.0026
     EDDAV:  cpu time      0.0418: real time      0.0421
       DOS:  cpu time      0.0001: real time      0.0001
    CHARGE:  cpu time      0.0070: real time      0.0070
    MIXING:  cpu time      0.0003: real time      0.0003
    --------------------------------------------
      LOOP:  cpu time      0.0548: real time      0.0553

 eigenvalue-minimisations  :   616
 total energy-change (2. order) :-0.1631357E-06  (-0.3272864E-07)
 number of electron      31.9999999 magnetization 
 augmentation part       -1.8304505 magnetization 

 Broyden mixing:
  rms(total) = 0.20514E-03    rms(broyden)= 0.20513E-03
  rms(prec ) = 0.25402E-03
  weight for this iteration     100.00

 eigenvalues of (default mixing * dielectric matrix)
  average eigenvalue GAMMA=   1.8714
  3.0685  2.6208  2.3526  2.2529  0.9638  0.9638  0.8776

 Free energy of the ion-electron system (eV)
  ---------------------------------------------------
  alpha Z        PSCENC =        13.42265116
  Ewald energy   TEWEN  =      -913.48489415
  -Hartree energ DENC   =       -58.59906857
  -exchange      EXHF   =         0.00000000
  -V(xc)+E(xc)   XCENC  =       -67.41892096
  PAW double counting   =      3560.08835252    -3422.64196332
  entropy T*S    EENTRO =        -0.00000000
  eigenvalues    EBANDS =        22.10043492
  atomic energy  EATOM  =       820.59587802
  Solvation  Ediel_sol  =         0.00000000
  ---------------------------------------------------
  free energy    TOTEN  =       -45.93753037 eV

  energy without entropy =      -45.93753037  energy(sigma->0) =      -45.93753037


--------------------------------------------------------------------------------------------------------




--------------------------------------- Iteration      1(  13)  ---------------------------------------


    POTLOK:  cpu time      0.0028: real time      0.0029
    SETDIJ:  cpu time      0.0026: real time      0.0026
     EDDAV:  cpu time      0.0391: real time      0.0393
       DOS:  cpu time      0.0001: real time      0.0001
    CHARGE:  cpu time      0.0071: real time      0.0072
    MIXING:  cpu time      0.0004: real time      0.0004
    --------------------------------------------
      LOOP:  cpu time      0.0522: real time      0.0525

 eigenvalue-minimisations  :   568
 total energy-change (2. order) : 0.2627228E-06  (-0.1018292E-07)
 number of electron      31.9999999 magnetization 
 augmentation part       -1.8304539 magnetization 

 Broyden mixing:
  rms(total) = 0.15886E-04    rms(broyden)= 0.15885E-04
  rms(prec ) = 0.16964E-04
  weight for this iteration     100.00

 eigenvalues of (default mixing * dielectric matrix)
  average eigenvalue GAMMA=   1.9788
  3.0897  2.7570  2.4883  2.4883  2.1662  0.9910  0.9248  0.9248

 Free energy of the ion-electron system (eV)
  ---------------------------------------------------
  alpha Z        PSCENC =        13.42265116
  Ewald energy   TEWEN  =      -913.48489415
  -Hartree energ DENC   =       -58.59796789
  -exchange      EXHF   =         0.00000000
  -V(xc)+E(xc)   XCENC  =       -67.41922831
  PAW double counting   =      3559.29801971    -3421.85133303
  entropy T*S    EENTRO =        -0.00000000
  eigenvalues    EBANDS =        22.09934439
  atomic energy  EATOM  =       820.59587802
  Solvation  Ediel_sol  =         0.00000000
  ---------------------------------------------------
  free energy    TOTEN  =       -45.93753011 eV

  energy without entropy =      -45.93753011  energy(sigma->0) =      -45.93753011


--------------------------------------------------------------------------------------------------------




--------------------------------------- Iteration      1(  14)  ---------------------------------------


    POTLOK:  cpu time      0.0030: real time      0.0030
    SETDIJ:  cpu time      0.0025: real time      0.0027
     EDDAV:  cpu time      0.0327: real time      0.0328
       DOS:  cpu time      0.0001: real time      0.0001
    CHARGE:  cpu time      0.0072: real time      0.0072
    MIXING:  cpu time      0.0004: real time      0.0004
    --------------------------------------------
      LOOP:  cpu time      0.0458: real time      0.0461

 eigenvalue-minimisations  :   400
 total energy-change (2. order) :-0.1086335E-07  (-0.1137798E-09)
 number of electron      31.9999999 magnetization 
 augmentation part       -1.8304546 magnetization 

 Broyden mixing:
  rms(total) = 0.11199E-04    rms(broyden)= 0.11199E-04
  rms(prec ) = 0.11589E-04
  weight for this iteration     100.00

 eigenvalues of (default mixing * dielectric matrix)
  average eigenvalue GAMMA=   1.8807
  3.1095  2.7394  2.4666  2.4666  2.2093  0.8991  1.0831  0.9766  0.9766

 Free energy of the ion-electron system (eV)
  ---------------------------------------------------
  alpha Z        PSCENC =        13.42265116
  Ewald energy   TEWEN  =      -913.48489415
  -Hartree energ DENC   =       -58.59787255
  -exchange      EXHF   =         0.00000000
  -V(xc)+E(xc)   XCENC  =       -67.41923991
  PAW double counting   =      3559.30360598    -3421.85693203
  entropy T*S    EENTRO =        -0.00000000
  eigenvalues    EBANDS =        22.09927335
  atomic energy  EATOM  =       820.59587802
  Solvation  Ediel_sol  =         0.00000000
  ---------------------------------------------------
  free energy    TOTEN  =       -45.93753012 eV

  energy without entropy =      -45.93753012  energy(sigma->0) =      -45.93753012


--------------------------------------------------------------------------------------------------------




--------------------------------------- Iteration      1(  15)  ---------------------------------------


    POTLOK:  cpu time      0.0028: real time      0.0028
    SETDIJ:  cpu time      0.0027: real time      0.0027
     EDDAV:  cpu time      0.0293: real time      0.0294
       DOS:  cpu time      0.0001: real time      0.0001
    CHARGE:  cpu time      0.0070: real time      0.0070
    MIXING:  cpu time      0.0004: real time      0.0004
    --------------------------------------------
      LOOP:  cpu time      0.0423: real time      0.0425

 eigenvalue-minimisations  :   328
 total energy-change (2. order) :-0.1335809E-07  (-0.1337722E-10)
 number of electron      31.9999999 magnetization 
 augmentation part       -1.8304543 magnetization 

 Broyden mixing:
  rms(total) = 0.30667E-05    rms(broyden)= 0.30667E-05
  rms(prec ) = 0.31861E-05
  weight for this iteration     100.00

 eigenvalues of (default mixing * dielectric matrix)
  average eigenvalue GAMMA=   1.8025
  3.0824  2.7095  2.4973  2.4973  2.1798  0.9028  0.9028  1.0484  1.1022  1.1022

 Free energy of the ion-electron system (eV)
  ---------------------------------------------------
  alpha Z        PSCENC =        13.42265116
  Ewald energy   TEWEN  =      -913.48489415
  -Hartree energ DENC   =       -58.59791506
  -exchange      EXHF   =         0.00000000
  -V(xc)+E(xc)   XCENC  =       -67.41923104
  PAW double counting   =      3559.33921565    -3421.89255621
  entropy T*S    EENTRO =        -0.00000000
  eigenvalues    EBANDS =        22.09932149
  atomic energy  EATOM  =       820.59587802
  Solvation  Ediel_sol  =         0.00000000
  ---------------------------------------------------
  free energy    TOTEN  =       -45.93753013 eV

  energy without entropy =      -45.93753013  energy(sigma->0) =      -45.93753013


--------------------------------------------------------------------------------------------------------




--------------------------------------- Iteration      1(  16)  ---------------------------------------


    POTLOK:  cpu time      0.0029: real time      0.0030
    SETDIJ:  cpu time      0.0027: real time      0.0027
     EDDAV:  cpu time      0.0286: real time      0.0287
       DOS:  cpu time      0.0001: real time      0.0001
    --------------------------------------------
      LOOP:  cpu time      0.0343: real time      0.0345

 eigenvalue-minimisations  :   312
 total energy-change (2. order) : 0.2739966E-08  (-0.2475478E-11)
 number of electron      31.9999999 magnetization 
 augmentation part       -1.8304543 magnetization 

 Free energy of the ion-electron system (eV)
  ---------------------------------------------------
  alpha Z        PSCENC =        13.42265116
  Ewald energy   TEWEN  =      -913.48489415
  -Hartree energ DENC   =       -58.59789876
  -exchange      EXHF   =         0.00000000
  -V(xc)+E(xc)   XCENC  =       -67.41923193
  PAW double counting   =      3559.34688886    -3421.90022686
  entropy T*S    EENTRO =        -0.00000000
  eigenvalues    EBANDS =        22.09930352
  atomic energy  EATOM  =       820.59587802
  Solvation  Ediel_sol  =         0.00000000
  ---------------------------------------------------
  free energy    TOTEN  =       -45.93753013 eV

  energy without entropy =      -45.93753013  energy(sigma->0) =      -45.93753013


--------------------------------------------------------------------------------------------------------




 average (electrostatic) potential at core
  the test charge radii are     0.9892
  (the norm of the test charge is              1.0000)
       1 -83.0573       2 -83.0573       3 -83.0573       4 -83.0573       5 -83.0573
       6 -83.0573       7 -83.0573       8 -83.0573
 
 
 
 E-fermi :   5.9019     XC(G=0):  -9.5445     alpha+bet :-11.9543

 Fermi energy:         5.9019192519

 k-point     1 :       0.0000    0.0000    0.0000
  band No.  band energies     occupation 
      1      -6.2055      2.00000
      2      -2.0519      2.00000
      3      -2.0519      2.00000
      4      -2.0519      2.00000
      5      -2.0519      2.00000
      6      -2.0519      2.00000
      7      -2.0519      2.00000
      8       2.9017      2.00000
      9       2.9017      2.00000
     10       2.9017      2.00000
     11       2.9017      2.00000
     12       2.9017      2.00000
     13       2.9017      2.00000
     14       5.7719      2.00000
     15       5.7719      2.00000
     16       5.7719      2.00000
     17       6.3658      0.00000
     18       6.3658      0.00000
     19       6.3658      0.00000
     20       6.3658      0.00000
     21       6.3658      0.00000
     22       6.3658      0.00000
     23       8.2889      0.00000
     24       8.2889      0.00000

 k-point     2 :       0.2500    0.0000    0.0000
  band No.  band energies     occupation 
      1      -5.9320      2.00000
      2      -3.8057      2.00000
      3      -1.9715      2.00000
      4      -1.9715      2.00000
      5      -1.9715      2.00000
      6      -1.9715      2.00000
      7       0.0232      2.00000
      8       2.3180      2.00000
      9       2.3180      2.00000
     10       2.3180      2.00000
     11       2.3180      2.00000
     12       3.1481      2.00000
     13       3.1481      2.00000
     14       4.4330      2.00000
     15       4.9552      2.00000
     16       4.9552      2.00000
     17       6.2797      0.00000
     18       7.1940      0.00000
     19       7.6459      0.00000
     20       7.6459      0.00000
     21       7.6459      0.00000
     22       7.6459      0.00000
     23       7.7141      0.00000
     24       9.4388      0.00000

 k-point     3 :       0.5000    0.0000    0.0000
  band No.  band energies     occupation 
      1      -5.1213      2.00000
      2      -5.1213      2.00000
      3      -1.8827      2.00000
      4      -1.8827      2.00000
      5      -1.8827      2.00000
      6      -1.8827      2.00000
      7       1.8712      2.00000
      8       1.8712      2.00000
      9       1.8712      2.00000
     10       1.8712      2.00000
     11       2.2514      2.00000
     12       2.2514      2.00000
     13       3.8667      2.00000
     14       3.8667      2.00000
     15       3.8667      2.00000
     16       3.8667      2.00000
     17       6.8081      0.00000
     18       6.8081      0.00000
     19       8.7979      0.00000
     20       8.7979      0.00000
     21       9.9476      0.00000
     22       9.9476      0.00000
     23       9.9476      0.00000
     24       9.9476      0.00000

 k-point     4 :       0.2500    0.2500    0.0000
  band No.  band energies     occupation 
      1      -5.6639      2.00000
      2      -3.6054      2.00000
      3      -3.6054      2.00000
      4      -2.4598      2.00000
      5      -1.4627      2.00000
      6      -0.1952      2.00000
      7      -0.1952      2.00000
      8       1.4170      2.00000
      9       2.3722      2.00000
     10       2.3722      2.00000
     11       2.9832      2.00000
     12       2.9832      2.00000
     13       3.0767      2.00000
     14       3.3314      2.00000
     15       4.1185      2.00000
     16       5.4802      2.00000
     17       6.8658      0.00000
     18       7.6316      0.00000
     19       7.6316      0.00000
     20       8.3152      0.00000
     21       8.3152      0.00000
     22       8.7638      0.00000
     23       8.8492      0.00000
     24       9.0699      0.00000

 k-point     5 :       0.5000    0.2500    0.0000
  band No.  band energies     occupation 
      1      -4.8727      2.00000
      2      -4.8727      2.00000
      3      -3.0764      2.00000
      4      -3.0764      2.00000
      5      -0.8030      2.00000
      6      -0.8030      2.00000
      7       1.4743      2.00000
      8       1.4743      2.00000
      9       1.4933      2.00000
     10       1.4933      2.00000
     11       3.0248      2.00000
     12       3.0248      2.00000
     13       3.1592      2.00000
     14       3.1592      2.00000
     15       4.3318      2.00000
     16       4.3318      2.00000
     17       8.1456      0.00000
     18       8.1456      0.00000
     19       8.5528      0.00000
     20       8.5528      0.00000
     21       9.6070      0.00000
     22       9.6070      0.00000
     23       9.8790      0.00000
     24       9.8790      0.00000

 k-point     6 :       0.5000    0.5000    0.0000
  band No.  band energies     occupation 
      1      -4.1550      2.00000
      2      -4.1550      2.00000
      3      -4.1550      2.00000
      4      -4.1550      2.00000
      5       0.2819      2.00000
      6       0.2819      2.00000
      7       0.2819      2.00000
      8       0.2819      2.00000
      9       1.9733      2.00000
     10       1.9733      2.00000
     11       1.9733      2.00000
     12       1.9733      2.00000
     13       4.4370      2.00000
     14       4.4370      2.00000
     15       4.4370      2.00000
     16       4.4370      2.00000
     17       8.1379      0.00000
     18       8.1379      0.00000
     19       8.1379      0.00000
     20       8.1379      0.00000
     21      10.5143      0.00000
     22      10.5143      0.00000
     23      10.5144      0.00000
     24      10.5146      0.00000

 k-point     7 :       0.2500    0.2500    0.2500
  band No.  band energies     occupation 
      1      -5.4037      2.00000
      2      -3.4778      2.00000
      3      -3.4778      2.00000
      4      -3.4778      2.00000
      5      -0.6246      2.00000
      6      -0.6246      2.00000
      7      -0.6246      2.00000
      8       1.8227      2.00000
      9       2.1984      2.00000
     10       2.1984      2.00000
     11       2.1984      2.00000
     12       3.5525      2.00000
     13       3.5525      2.00000
     14       3.5525      2.00000
     15       5.0076      2.00000
     16       5.0076      2.00000
     17       7.1888      0.00000
     18       7.1888      0.00000
     19       7.1888      0.00000
     20       7.7262      0.00000
     21       9.2307      0.00000
     22       9.2307      0.00000
     23      10.1314      0.00000
     24      10.1314      0.00000

 k-point     8 :       0.5000    0.2500    0.2500
  band No.  band energies     occupation 
      1      -4.6441      2.00000
      2      -4.6441      2.00000
      3      -3.3216      2.00000
      4      -3.3216      2.00000
      5      -1.0383      2.00000
      6      -1.0383      2.00000
      7       0.4650      2.00000
      8       0.4650      2.00000
      9       2.2873      2.00000
     10       2.2873      2.00000
     11       3.5911      2.00000
     12       3.5911      2.00000
     13       3.9182      2.00000
     14       3.9182      2.00000
     15       4.1741      2.00000
     16       4.1741      2.00000
     17       7.9400      0.00000
     18       7.9400      0.00000
     19       8.7701      0.00000
     20       8.7701      0.00000
     21       8.8122      0.00000
     22       8.8122      0.00000
     23       9.3554      0.00000
     24       9.3554      0.00000

 k-point     9 :       0.5000    0.5000    0.2500
  band No.  band energies     occupation 
      1      -4.0227      2.00000
      2      -4.0227      2.00000
      3      -4.0227      2.00000
      4      -4.0227      2.00000
      5      -0.6340      2.00000
      6      -0.6340      2.00000
      7      -0.6340      2.00000
      8      -0.6340      2.00000
      9       3.2857      2.00000
     10       3.2857      2.00000
     11       3.2857      2.00000
     12       3.2857      2.00000
     13       4.5009      2.00000
     14       4.5009      2.00000
     15       4.5009      2.00000
     16       4.5009      2.00000
     17       8.0597      0.00000
     18       8.0597      0.00000
     19       8.0597      0.00000
     20       8.0597      0.00000
     21       9.3198      0.00000
     22       9.3198      0.00000
     23       9.3198      0.00000
     24       9.3198      0.00000

 k-point    10 :       0.5000    0.5000    0.5000
  band No.  band energies     occupation 
      1      -3.8606      2.00000
      2      -3.8606      2.00000
      3      -3.8606      2.00000
      4      -3.8606      2.00000
      5      -1.2347      2.00000
      6      -1.2347      2.00000
      7      -1.2347      2.00000
      8      -1.2347      2.00000
      9       4.5698      2.00000
     10       4.5698      2.00000
     11       4.5698      2.00000
     12       4.5698      2.00000
     13       4.5698      2.00000
     14       4.5698      2.00000
     15       4.5698      2.00000
     16       4.5698      2.00000
     17       7.2320      0.00000
     18       7.2320      0.00000
     19       7.2320      0.00000
     20       7.2320      0.00000
     21       9.0500      0.00000
     22       9.0500      0.00000
     23       9.0500      0.00000
     24       9.0500      0.00000


--------------------------------------------------------------------------------------------------------


 soft charge-density along one line, spin component           1
         0         1         2         3         4         5         6         7         8         9
 total charge-density along one line
 
 pseudopotential strength for first ion, spin component:           1
 18.404  25.676  -0.000   0.000  -0.000  -0.000   0.000  -0.000
 25.676  35.825  -0.000   0.000  -0.000  -0.000   0.000  -0.000
 -0.000  -0.000   4.177  -0.000  -0.000   7.782  -0.000  -0.000
  0.000   0.000  -0.000   4.177  -0.000  -0.000   7.782  -0.000
 -0.000  -0.000  -0.000  -0.000   4.177  -0.000  -0.000   7.782
 -0.000  -0.000   7.782  -0.000  -0.000  14.509  -0.000  -0.000
  0.000   0.000  -0.000   7.782  -0.000  -0.000  14.509  -0.000
 -0.000  -0.000  -0.000  -0.000   7.782  -0.000  -0.000  14.509
 total augmentation occupancy for first ion, spin component:           1
  5.947  -2.288  -0.000  -0.000   0.000  -0.000   0.000  -0.000
 -2.288   0.989  -0.000  -0.000  -0.000   0.000   0.000   0.000
  0.000  -0.000   3.000   0.000  -0.000  -0.681   0.000  -0.000
 -0.000   0.000  -0.000   3.000  -0.000  -0.000  -0.681   0.000
 -0.000   0.000   0.000   0.000   3.000   0.000   0.000  -0.681
  0.000   0.000  -0.681   0.000  -0.000   0.164   0.000  -0.000
  0.000   0.000   0.000  -0.681   0.000  -0.000   0.164  -0.000
 -0.000  -0.000   0.000  -0.000  -0.681   0.000   0.000   0.164


------------------------ aborting loop because EDIFF is reached ----------------------------------------


    CHARGE:  cpu time      0.0071: real time      0.0072
    FORLOC:  cpu time      0.0002: real time      0.0002
    FORNL :  cpu time      0.0169: real time      0.0169
    STRESS:  cpu time      0.0489: real time      0.0493
    FORCOR:  cpu time      0.0029: real time      0.0029
    FORHAR:  cpu time      0.0006: real time      0.0006
    MIXING:  cpu time      0.0002: real time      0.0002
    OFIELD:  cpu time      0.0000: real time      0.0000

  FORCE on cell =-STRESS in cart. coord.  units (eV):
  Direction    XX          YY          ZZ          XY          YZ          ZX
  --------------------------------------------------------------------------------------
  Alpha Z    13.42265    13.42265    13.42265
  Ewald    -304.49548  -304.49548  -304.49548     0.00000     0.00000    -0.00000
  Hartree    19.53264    19.53264    19.53264    -0.00000    -0.00000    -0.00000
  E(xc)    -102.17471  -102.17471  -102.17471     0.00000     0.00000    -0.00000
  Local    -116.43219  -116.43219  -116.43219     0.00000    -0.00000    -0.00000
  n-local   310.36597   313.46610   307.30155    -2.05771    -1.72317    -0.77454
  augment   -46.02109   -46.02109   -46.02109     0.00000     0.00000     0.00000
  Kinetic   218.76443   229.96064   228.64037    -2.67661    -3.60412    -1.31420
  Fock        0.00000     0.00000     0.00000     0.00000     0.00000     0.00000
  -------------------------------------------------------------------------------------
  Total      -0.00183    -0.00183    -0.00183    -0.00000    -0.00000     0.00000
  in kB      -0.01827    -0.01827    -0.01827    -0.00000    -0.00000     0.00000
  external pressure =       -0.02 kB  Pullay stress =        0.00 kB


 VOLUME and BASIS-vectors are now :
 -----------------------------------------------------------------------------
  energy-cutoff  :      318.00
  volume of cell :      160.51
      direct lattice vectors                 reciprocal lattice vectors
     5.434572560  0.000000000  0.000000000     0.184007112  0.000000000  0.000000000
     0.000000000  5.434572560  0.000000000     0.000000000  0.184007112  0.000000000
     0.000000000  0.000000000  5.434572560     0.000000000  0.000000000  0.184007112

  length of vectors
     5.434572560  5.434572560  5.434572560     0.184007112  0.184007112  0.184007112


 FORCES acting on ions
    electron-ion (+dipol)            ewald-force                    non-local-force                 convergence-correction
 -----------------------------------------------------------------------------------------------
   -.392E-14 0.767E-14 -.644E-13   0.178E-13 0.355E-14 0.000E+00   -.365E-16 -.112E-16 -.184E-16   -.258E-15 -.104E-14 -.886E-14
   0.654E-14 -.115E-12 0.369E-13   0.103E-13 -.353E-14 -.356E-14   0.212E-16 0.103E-16 0.194E-16   -.929E-15 0.948E-15 -.625E-14
   -.196E-14 0.208E-12 0.392E-13   0.355E-14 0.355E-14 -.711E-14   -.526E-17 0.105E-16 -.174E-16   -.656E-15 -.164E-14 -.921E-14
   0.719E-14 -.115E-12 0.406E-13   -.360E-14 -.355E-14 -.109E-13   0.123E-16 -.885E-17 0.999E-17   -.878E-15 -.837E-15 -.565E-14
   0.588E-14 -.103E-16 0.301E-13   0.000E+00 0.355E-14 0.107E-13   -.229E-16 -.143E-16 -.163E-16   -.221E-14 -.782E-15 -.920E-14
   0.111E-13 0.303E-12 -.277E-12   -.353E-14 -.303E-14 0.682E-14   0.281E-16 0.211E-16 0.213E-16   -.194E-14 0.607E-15 -.548E-14
   0.588E-14 -.759E-15 0.317E-13   -.107E-13 0.355E-14 0.355E-14   -.263E-16 0.113E-16 -.254E-16   -.182E-14 -.159E-14 -.875E-14
   -.654E-15 0.109E-12 -.475E-12   -.142E-13 -.353E-14 -.254E-16   0.326E-16 -.969E-17 0.308E-16   -.207E-14 -.401E-15 -.613E-14
 -----------------------------------------------------------------------------------------------
   0.301E-13 0.397E-12 -.638E-12   -.344E-15 0.568E-15 -.593E-15   0.314E-17 0.914E-17 0.396E-17   -.108E-13 -.474E-14 -.595E-13
 
 
 POSITION                                       TOTAL-FORCE (eV/Angst)
 -----------------------------------------------------------------------------------
      2.71729      0.00000      0.00000        -0.000000      0.000000      0.000000
      1.35864      1.35864      4.07593         0.000000     -0.000000     -0.000000
      2.71729      2.71729      2.71729        -0.000000     -0.000000     -0.000000
      1.35864      4.07593      1.35864         0.000000      0.000000      0.000000
      0.00000      0.00000      2.71729        -0.000000      0.000000     -0.000000
      4.07593      1.35864      1.35864         0.000000     -0.000000      0.000000
      0.00000      2.71729      0.00000        -0.000000     -0.000000      0.000000
      4.07593      4.07593      4.07593         0.000000      0.000000     -0.000000
 -----------------------------------------------------------------------------------
    total drift:                                0.000000      0.000000     -0.000000


--------------------------------------------------------------------------------------------------------



  FREE ENERGIE OF THE ION-ELECTRON SYSTEM (eV)
  ---------------------------------------------------
  free  energy   TOTEN  =       -45.93753013 eV

  energy  without entropy=      -45.93753013  energy(sigma->0) =      -45.93753013
 


--------------------------------------------------------------------------------------------------------


    POTLOK:  cpu time      0.0061: real time      0.0061


--------------------------------------------------------------------------------------------------------




--------------------------------------------------------------------------------------------------------


    WAVPRE:  cpu time      0.0015: real time      0.0059
    FEWALD:  cpu time      0.0001: real time      0.0001
    GENKIN:  cpu time      0.0010: real time      0.0010
    ORTHCH:  cpu time      0.0022: real time      0.0022
     LOOP+:  cpu time      0.8874: real time      0.9942


--------------------------------------- Iteration      2(   1)  ---------------------------------------


    POTLOK:  cpu time      0.0026: real time      0.0027
    SETDIJ:  cpu time      0.0026: real time      0.0026
     EDDAV:  cpu time      0.0371: real time      0.0373
       DOS:  cpu time      0.0001: real time      0.0001
    CHARGE:  cpu time      0.0071: real time      0.0071
    MIXING:  cpu time      0.0002: real time      0.0002
    --------------------------------------------
      LOOP:  cpu time      0.0497: real time      0.0500

 eigenvalue-minimisations  :   536
 total energy-change (2. order) :-0.1474814E-07  (-0.7700628E-07)
 number of electron      31.9999999 magnetization 
 augmentation part       -1.8304489 magnetization 

 Broyden mixing:
  rms(total) = 0.88033E-04    rms(broyden)= 0.88025E-04
  rms(prec ) = 0.15436E-03
  weight for this iteration     100.00

 Free energy of the ion-electron system (eV)
  ---------------------------------------------------
  alpha Z        PSCENC =        13.42309557
  Ewald energy   TEWEN  =      -913.49497551
  -Hartree energ DENC   =       -58.59856114
  -exchange      EXHF   =         0.00000000
  -V(xc)+E(xc)   XCENC  =       -67.41863138
  PAW double counting   =      3559.34648076    -3421.89981925
  entropy T*S    EENTRO =        -0.00000000
  eigenvalues    EBANDS =        22.10900277
  atomic energy  EATOM  =       820.59587802
  Solvation  Ediel_sol  =         0.00000000
  ---------------------------------------------------
  free energy    TOTEN  =       -45.93753015 eV

  energy without entropy =      -45.93753015  energy(sigma->0) =      -45.93753015


--------------------------------------------------------------------------------------------------------




--------------------------------------- Iteration      2(   2)  ---------------------------------------


    POTLOK:  cpu time      0.0027: real time      0.0028
    SETDIJ:  cpu time      0.0026: real time      0.0026
     EDDAV:  cpu time      0.0349: real time      0.0351
       DOS:  cpu time      0.0001: real time      0.0001
    CHARGE:  cpu time      0.0070: real time      0.0070
    MIXING:  cpu time      0.0003: real time      0.0003
    --------------------------------------------
      LOOP:  cpu time      0.0477: real time      0.0479

 eigenvalue-minimisations  :   472
 total energy-change (2. order) :-0.1553428E-07  (-0.2857529E-08)
 number of electron      31.9999999 magnetization 
 augmentation part       -1.8304502 magnetization 

 Broyden mixing:
  rms(total) = 0.55066E-04    rms(broyden)= 0.55065E-04
  rms(prec ) = 0.90274E-04
  weight for this iteration     100.00

 eigenvalues of (default mixing * dielectric matrix)
  average eigenvalue GAMMA=   2.5399
  2.5399

 Free energy of the ion-electron system (eV)
  ---------------------------------------------------
  alpha Z        PSCENC =        13.42309557
  Ewald energy   TEWEN  =      -913.49497551
  -Hartree energ DENC   =       -58.59756676
  -exchange      EXHF   =         0.00000000
  -V(xc)+E(xc)   XCENC  =       -67.41866272
  PAW double counting   =      3559.46698394    -3422.02034749
  entropy T*S    EENTRO =        -0.00000000
  eigenvalues    EBANDS =        22.10806478
  atomic energy  EATOM  =       820.59587802
  Solvation  Ediel_sol  =         0.00000000
  ---------------------------------------------------
  free energy    TOTEN  =       -45.93753016 eV

  energy without entropy =      -45.93753016  energy(sigma->0) =      -45.93753016


--------------------------------------------------------------------------------------------------------




--------------------------------------- Iteration      2(   3)  ---------------------------------------


    POTLOK:  cpu time      0.0027: real time      0.0028
    SETDIJ:  cpu time      0.0026: real time      0.0027
     EDDAV:  cpu time      0.0280: real time      0.0281
       DOS:  cpu time      0.0001: real time      0.0001
    CHARGE:  cpu time      0.0070: real time      0.0070
    MIXING:  cpu time      0.0003: real time      0.0003
    --------------------------------------------
      LOOP:  cpu time      0.0407: real time      0.0410

 eigenvalue-minimisations  :   304
 total energy-change (2. order) :-0.5398419E-07  (-0.1573247E-08)
 number of electron      31.9999999 magnetization 
 augmentation part       -1.8304571 magnetization 

 Broyden mixing:
  rms(total) = 0.10198E-04    rms(broyden)= 0.10198E-04
  rms(prec ) = 0.11525E-04
  weight for this iteration     100.00

 eigenvalues of (default mixing * dielectric matrix)
  average eigenvalue GAMMA=   1.4961
  0.7871  2.2052

 Free energy of the ion-electron system (eV)
  ---------------------------------------------------
  alpha Z        PSCENC =        13.42309557
  Ewald energy   TEWEN  =      -913.49497551
  -Hartree energ DENC   =       -58.59630571
  -exchange      EXHF   =         0.00000000
  -V(xc)+E(xc)   XCENC  =       -67.41868212
  PAW double counting   =      3559.65451704    -3422.20793122
  entropy T*S    EENTRO =        -0.00000000
  eigenvalues    EBANDS =        22.10687371
  atomic energy  EATOM  =       820.59587802
  Solvation  Ediel_sol  =         0.00000000
  ---------------------------------------------------
  free energy    TOTEN  =       -45.93753022 eV

  energy without entropy =      -45.93753022  energy(sigma->0) =      -45.93753022


--------------------------------------------------------------------------------------------------------




--------------------------------------- Iteration      2(   4)  ---------------------------------------


    POTLOK:  cpu time      0.0027: real time      0.0028
    SETDIJ:  cpu time      0.0026: real time      0.0026
     EDDAV:  cpu time      0.0274: real time      0.0275
       DOS:  cpu time      0.0001: real time      0.0001
    CHARGE:  cpu time      0.0072: real time      0.0072
    MIXING:  cpu time      0.0004: real time      0.0004
    --------------------------------------------
      LOOP:  cpu time      0.0403: real time      0.0406

 eigenvalue-minimisations  :   288
 total energy-change (2. order) :-0.7674316E-08  (-0.1262939E-09)
 number of electron      31.9999999 magnetization 
 augmentation part       -1.8304579 magnetization 

 Broyden mixing:
  rms(total) = 0.11837E-04    rms(broyden)= 0.11837E-04
  rms(prec ) = 0.12431E-04
  weight for this iteration     100.00

 eigenvalues of (default mixing * dielectric matrix)
  average eigenvalue GAMMA=   1.1627
  2.1675  0.6602  0.6602

 Free energy of the ion-electron system (eV)
  ---------------------------------------------------
  alpha Z        PSCENC =        13.42309557
  Ewald energy   TEWEN  =      -913.49497551
  -Hartree energ DENC   =       -58.59635936
  -exchange      EXHF   =         0.00000000
  -V(xc)+E(xc)   XCENC  =       -67.41867461
  PAW double counting   =      3559.64031141    -3422.19373191
  entropy T*S    EENTRO =        -0.00000000
  eigenvalues    EBANDS =        22.10692616
  atomic energy  EATOM  =       820.59587802
  Solvation  Ediel_sol  =         0.00000000
  ---------------------------------------------------
  free energy    TOTEN  =       -45.93753022 eV

  energy without entropy =      -45.93753022  energy(sigma->0) =      -45.93753022


--------------------------------------------------------------------------------------------------------




--------------------------------------- Iteration      2(   5)  ---------------------------------------


    POTLOK:  cpu time      0.0029: real time      0.0030
    SETDIJ:  cpu time      0.0026: real time      0.0026
     EDDAV:  cpu time      0.0273: real time      0.0274
       DOS:  cpu time      0.0001: real time      0.0001
    --------------------------------------------
      LOOP:  cpu time      0.0329: real time      0.0332

 eigenvalue-minimisations  :   288
 total energy-change (2. order) :-0.4946855E-08  (-0.1723019E-10)
 number of electron      31.9999999 magnetization 
 augmentation part       -1.8304579 magnetization 

 Free energy of the ion-electron system (eV)
  ---------------------------------------------------
  alpha Z        PSCENC =        13.42309557
  Ewald energy   TEWEN  =      -913.49497551
  -Hartree energ DENC   =       -58.59635836
  -exchange      EXHF   =         0.00000000
  -V(xc)+E(xc)   XCENC  =       -67.41867305
  PAW double counting   =      3559.62026151    -3422.17368671
  entropy T*S    EENTRO =        -0.00000000
  eigenvalues    EBANDS =        22.10692828
  atomic energy  EATOM  =       820.59587802
  Solvation  Ediel_sol  =         0.00000000
  ---------------------------------------------------
  free energy    TOTEN  =       -45.93753023 eV

  energy without entropy =      -45.93753023  energy(sigma->0) =      -45.93753023


--------------------------------------------------------------------------------------------------------




 average (electrostatic) potential at core
  the test charge radii are     0.9892
  (the norm of the test charge is              1.0000)
       1 -83.0569       2 -83.0569       3 -83.0569       4 -83.0569       5 -83.0569
       6 -83.0569       7 -83.0569       8 -83.0569
 
 
 
 E-fermi :   5.9021     XC(G=0):  -9.5446     alpha+bet :-11.9547

 Fermi energy:         5.9020747479

 k-point     1 :       0.0000    0.0000    0.0000
  band No.  band energies     occupation 
      1      -6.2054      2.00000
      2      -2.0517      2.00000
      3      -2.0517      2.00000
      4      -2.0517      2.00000
      5      -2.0517      2.00000
      6      -2.0517      2.00000
      7      -2.0517      2.00000
      8       2.9020      2.00000
      9       2.9020      2.00000
     10       2.9020      2.00000
     11       2.9020      2.00000
     12       2.9020      2.00000
     13       2.9020      2.00000
     14       5.7723      2.00000
     15       5.7723      2.00000
     16       5.7723      2.00000
     17       6.3660      0.00000
     18       6.3660      0.00000
     19       6.3660      0.00000
     20       6.3660      0.00000
     21       6.3660      0.00000
     22       6.3660      0.00000
     23       8.2893      0.00000
     24       8.2893      0.00000

[...]
  entropy T*S    EENTRO =        -0.00000000
  eigenvalues    EBANDS =        22.10381396
  atomic energy  EATOM  =       820.59587802
  Solvation  Ediel_sol  =         0.00000000
  ---------------------------------------------------
  free energy    TOTEN  =       -45.93753021 eV

  energy without entropy =      -45.93753021  energy(sigma->0) =      -45.93753021


--------------------------------------------------------------------------------------------------------




--------------------------------------- Iteration      6(   5)  ---------------------------------------


    POTLOK:  cpu time      0.0027: real time      0.0028
    SETDIJ:  cpu time      0.0026: real time      0.0026
     EDDAV:  cpu time      0.0249: real time      0.0250
       DOS:  cpu time      0.0001: real time      0.0001
    --------------------------------------------
      LOOP:  cpu time      0.0304: real time      0.0306

 eigenvalue-minimisations  :   240
 total energy-change (2. order) : 0.2046363E-09  (-0.9947663E-13)
 number of electron      31.9999999 magnetization 
 augmentation part       -1.8304568 magnetization 

 Free energy of the ion-electron system (eV)
  ---------------------------------------------------
  alpha Z        PSCENC =        13.42291311
  Ewald energy   TEWEN  =      -913.49083633
  -Hartree energ DENC   =       -58.59700475
  -exchange      EXHF   =         0.00000000
  -V(xc)+E(xc)   XCENC  =       -67.41889657
  PAW double counting   =      3559.48240661    -3422.03580411
  entropy T*S    EENTRO =        -0.00000000
  eigenvalues    EBANDS =        22.10381380
  atomic energy  EATOM  =       820.59587802
  Solvation  Ediel_sol  =         0.00000000
  ---------------------------------------------------
  free energy    TOTEN  =       -45.93753021 eV

  energy without entropy =      -45.93753021  energy(sigma->0) =      -45.93753021


--------------------------------------------------------------------------------------------------------




 average (electrostatic) potential at core
  the test charge radii are     0.9892
  (the norm of the test charge is              1.0000)
       1 -83.0571       2 -83.0571       3 -83.0571       4 -83.0571       5 -83.0571
       6 -83.0571       7 -83.0571       8 -83.0571
 
 
 
 E-fermi :   5.9019     XC(G=0):  -9.5446     alpha+bet :-11.9545

 Fermi energy:         5.9019403201

 k-point     1 :       0.0000    0.0000    0.0000
  band No.  band energies     occupation 
      1      -6.2054      2.00000
      2      -2.0518      2.00000
      3      -2.0518      2.00000
      4      -2.0518      2.00000
      5      -2.0518      2.00000
      6      -2.0518      2.00000
      7      -2.0518      2.00000
      8       2.9019      2.00000
      9       2.9019      2.00000
     10       2.9019      2.00000
     11       2.9019      2.00000
     12       2.9019      2.00000
     13       2.9019      2.00000
     14       5.7721      2.00000
     15       5.7721      2.00000
     16       5.7721      2.00000
     17       6.3659      0.00000
     18       6.3659      0.00000
     19       6.3659      0.00000
     20       6.3659      0.00000
     21       6.3659      0.00000
     22       6.3659      0.00000
     23       8.2891      0.00000
     24       8.2891      0.00000

 k-point     2 :       0.2500    0.0000    0.0000
  band No.  band energies     occupation 
      1      -5.9319      2.00000
      2      -3.8056      2.00000
      3      -1.9713      2.00000
      4      -1.9713      2.00000
      5      -1.9713      2.00000
      6      -1.9713      2.00000
      7       0.0234      2.00000
      8       2.3182      2.00000
      9       2.3182      2.00000
     10       2.3182      2.00000
     11       2.3182      2.00000
     12       3.1483      2.00000
     13       3.1483      2.00000
     14       4.4332      2.00000
     15       4.9554      2.00000
     16       4.9554      2.00000
     17       6.2799      0.00000
     18       7.1941      0.00000
     19       7.6461      0.00000
     20       7.6461      0.00000
     21       7.6461      0.00000
     22       7.6461      0.00000
     23       7.7143      0.00000
     24       9.4390      0.00000

 k-point     3 :       0.5000    0.0000    0.0000
  band No.  band energies     occupation 
      1      -5.1212      2.00000
      2      -5.1212      2.00000
      3      -1.8826      2.00000
      4      -1.8826      2.00000
      5      -1.8826      2.00000
      6      -1.8826      2.00000
      7       1.8713      2.00000
      8       1.8713      2.00000
      9       1.8713      2.00000
     10       1.8713      2.00000
     11       2.2516      2.00000
     12       2.2516      2.00000
     13       3.8668      2.00000
     14       3.8668      2.00000
     15       3.8668      2.00000
     16       3.8668      2.00000
     17       6.8083      0.00000
     18       6.8083      0.00000
     19       8.7981      0.00000
     20       8.7981      0.00000
     21       9.9478      0.00000
     22       9.9478      0.00000
     23       9.9478      0.00000
     24       9.9478      0.00000

 k-point     4 :       0.2500    0.2500    0.0000
  band No.  band energies     occupation 
      1      -5.6638      2.00000
      2      -3.6052      2.00000
      3      -3.6052      2.00000
      4      -2.4596      2.00000
      5      -1.4625      2.00000
      6      -0.1951      2.00000
      7      -0.1951      2.00000
      8       1.4171      2.00000
      9       2.3723      2.00000
     10       2.3723      2.00000
     11       2.9834      2.00000
     12       2.9834      2.00000
     13       3.0769      2.00000
     14       3.3316      2.00000
     15       4.1186      2.00000
     16       5.4804      2.00000
     17       6.8660      0.00000
     18       7.6318      0.00000
     19       7.6318      0.00000
     20       8.3154      0.00000
     21       8.3154      0.00000
     22       8.7640      0.00000
     23       8.8495      0.00000
     24       9.0701      0.00000

 k-point     5 :       0.5000    0.2500    0.0000
  band No.  band energies     occupation 
      1      -4.8726      2.00000
      2      -4.8726      2.00000
      3      -3.0763      2.00000
      4      -3.0763      2.00000
      5      -0.8028      2.00000
      6      -0.8028      2.00000
      7       1.4745      2.00000
      8       1.4745      2.00000
      9       1.4934      2.00000
     10       1.4934      2.00000
     11       3.0250      2.00000
     12       3.0250      2.00000
     13       3.1593      2.00000
     14       3.1593      2.00000
     15       4.3320      2.00000
     16       4.3320      2.00000
     17       8.1458      0.00000
     18       8.1458      0.00000
     19       8.5530      0.00000
     20       8.5530      0.00000
     21       9.6073      0.00000
     22       9.6073      0.00000
     23       9.8792      0.00000
     24       9.8792      0.00000

 k-point     6 :       0.5000    0.5000    0.0000
  band No.  band energies     occupation 
      1      -4.1549      2.00000
      2      -4.1549      2.00000
      3      -4.1549      2.00000
      4      -4.1549      2.00000
      5       0.2821      2.00000
      6       0.2821      2.00000
      7       0.2821      2.00000
      8       0.2821      2.00000
      9       1.9734      2.00000
     10       1.9734      2.00000
     11       1.9734      2.00000
     12       1.9734      2.00000
     13       4.4372      2.00000
     14       4.4372      2.00000
     15       4.4372      2.00000
     16       4.4372      2.00000
     17       8.1381      0.00000
     18       8.1381      0.00000
     19       8.1381      0.00000
     20       8.1381      0.00000
     21      10.5146      0.00000
     22      10.5146      0.00000
     23      10.5146      0.00000
     24      10.5146      0.00000

 k-point     7 :       0.2500    0.2500    0.2500
  band No.  band energies     occupation 
      1      -5.4036      2.00000
      2      -3.4777      2.00000
      3      -3.4777      2.00000
      4      -3.4777      2.00000
      5      -0.6244      2.00000
      6      -0.6244      2.00000
      7      -0.6244      2.00000
      8       1.8229      2.00000
      9       2.1985      2.00000
     10       2.1985      2.00000
     11       2.1985      2.00000
     12       3.5526      2.00000
     13       3.5526      2.00000
     14       3.5526      2.00000
     15       5.0078      2.00000
     16       5.0078      2.00000
     17       7.1889      0.00000
     18       7.1889      0.00000
     19       7.1889      0.00000
     20       7.7265      0.00000
     21       9.2309      0.00000
     22       9.2309      0.00000
     23      10.1316      0.00000
     24      10.1316      0.00000

 k-point     8 :       0.5000    0.2500    0.2500
  band No.  band energies     occupation 
      1      -4.6440      2.00000
      2      -4.6440      2.00000
      3      -3.3215      2.00000
      4      -3.3215      2.00000
      5      -1.0382      2.00000
      6      -1.0382      2.00000
      7       0.4651      2.00000
      8       0.4651      2.00000
      9       2.2875      2.00000
     10       2.2875      2.00000
     11       3.5913      2.00000
     12       3.5913      2.00000
     13       3.9184      2.00000
     14       3.9184      2.00000
     15       4.1743      2.00000
     16       4.1743      2.00000
     17       7.9402      0.00000
     18       7.9402      0.00000
     19       8.7703      0.00000
     20       8.7703      0.00000
     21       8.8124      0.00000
     22       8.8124      0.00000
     23       9.3556      0.00000
     24       9.3556      0.00000

 k-point     9 :       0.5000    0.5000    0.2500
  band No.  band energies     occupation 
      1      -4.0226      2.00000
      2      -4.0226      2.00000
      3      -4.0226      2.00000
      4      -4.0226      2.00000
      5      -0.6338      2.00000
      6      -0.6338      2.00000
      7      -0.6338      2.00000
      8      -0.6338      2.00000
      9       3.2859      2.00000
     10       3.2859      2.00000
     11       3.2859      2.00000
     12       3.2859      2.00000
     13       4.5011      2.00000
     14       4.5011      2.00000
     15       4.5011      2.00000
     16       4.5011      2.00000
     17       8.0600      0.00000
     18       8.0600      0.00000
     19       8.0600      0.00000
     20       8.0600      0.00000
     21       9.3201      0.00000
     22       9.3201      0.00000
     23       9.3201      0.00000
     24       9.3201      0.00000

 k-point    10 :       0.5000    0.5000    0.5000
  band No.  band energies     occupation 
      1      -3.8605      2.00000
      2      -3.8605      2.00000
      3      -3.8605      2.00000
      4      -3.8605      2.00000
      5      -1.2346      2.00000
      6      -1.2346      2.00000
      7      -1.2346      2.00000
      8      -1.2346      2.00000
      9       4.5700      2.00000
     10       4.5700      2.00000
     11       4.5700      2.00000
     12       4.5700      2.00000
     13       4.5700      2.00000
     14       4.5700      2.00000
     15       4.5700      2.00000
     16       4.5700      2.00000
     17       7.2323      0.00000
     18       7.2323      0.00000
     19       7.2323      0.00000
     20       7.2323      0.00000
     21       9.0502      0.00000
     22       9.0502      0.00000
     23       9.0502      0.00000
     24       9.0502      0.00000


--------------------------------------------------------------------------------------------------------


 soft charge-density along one line, spin component           1
         0         1         2         3         4         5         6         7         8         9
 total charge-density along one line
 
 pseudopotential strength for first ion, spin component:           1
 18.404  25.676  -0.000   0.000  -0.000  -0.000   0.000  -0.000
 25.676  35.825  -0.000   0.000  -0.000  -0.000   0.000  -0.000
 -0.000  -0.000   4.177  -0.000  -0.000   7.782  -0.000  -0.000
  0.000   0.000  -0.000   4.177  -0.000  -0.000   7.782  -0.000
 -0.000  -0.000  -0.000  -0.000   4.177  -0.000  -0.000   7.782
 -0.000  -0.000   7.782  -0.000  -0.000  14.509  -0.000  -0.000
  0.000   0.000  -0.000   7.782  -0.000  -0.000  14.509  -0.000
 -0.000  -0.000  -0.000  -0.000   7.782  -0.000  -0.000  14.509
 total augmentation occupancy for first ion, spin component:           1
  5.948  -2.288  -0.000   0.000   0.000  -0.000  -0.000   0.000
 -2.288   0.989  -0.000  -0.000  -0.000   0.000  -0.000   0.000
 -0.000   0.000   3.000  -0.000  -0.000  -0.681   0.000   0.000
  0.000   0.000  -0.000   3.000  -0.000   0.000  -0.681   0.000
  0.000   0.000  -0.000  -0.000   3.000   0.000   0.000  -0.681
 -0.000  -0.000  -0.681   0.000   0.000   0.164  -0.000  -0.000
 -0.000   0.000   0.000  -0.681   0.000  -0.000   0.164  -0.000
  0.000   0.000   0.000   0.000  -0.681  -0.000  -0.000   0.164


------------------------ aborting loop because EDIFF is reached ----------------------------------------


    CHARGE:  cpu time      0.0072: real time      0.0072
    FORLOC:  cpu time      0.0002: real time      0.0002
    FORNL :  cpu time      0.0166: real time      0.0167
    STRESS:  cpu time      0.0485: real time      0.0487
    FORCOR:  cpu time      0.0028: real time      0.0028
    FORHAR:  cpu time      0.0006: real time      0.0006
    MIXING:  cpu time      0.0002: real time      0.0002
    OFIELD:  cpu time      0.0000: real time      0.0000

  FORCE on cell =-STRESS in cart. coord.  units (eV):
  Direction    XX          YY          ZZ          XY          YZ          ZX
  --------------------------------------------------------------------------------------
  Alpha Z    13.42291    13.42291    13.42291
  Ewald    -304.49747  -304.49747  -304.49747     0.00000     0.00000    -0.00000
  Hartree    19.53233    19.53233    19.53233    -0.00000    -0.00000    -0.00000
  E(xc)    -102.17518  -102.17518  -102.17518     0.00000     0.00000    -0.00000
  Local    -116.43111  -116.43111  -116.43111     0.00000     0.00000    -0.00000
  n-local   310.36748   313.46758   307.30295    -2.05774    -1.72319    -0.77455
  augment   -46.02112   -46.02112   -46.02112     0.00000     0.00000     0.00000
  Kinetic   218.76610   229.96244   228.64235    -2.67662    -3.60413    -1.31420
  Fock        0.00000     0.00000     0.00000     0.00000     0.00000     0.00000
  -------------------------------------------------------------------------------------
  Total       0.00000     0.00000     0.00000     0.00000     0.00000     0.00000
  in kB       0.00004     0.00004     0.00004     0.00000     0.00000     0.00000
  external pressure =        0.00 kB  Pullay stress =        0.00 kB


 VOLUME and BASIS-vectors are now :
 -----------------------------------------------------------------------------
  energy-cutoff  :      318.00
  volume of cell :      160.50
      direct lattice vectors                 reciprocal lattice vectors
     5.434537209  0.000000000  0.000000000     0.184008309  0.000000000  0.000000000
    -0.000000000  5.434537209  0.000000000    -0.000000000  0.184008309  0.000000000
    -0.000000000 -0.000000000  5.434537209    -0.000000000 -0.000000000  0.184008309

  length of vectors
     5.434537209  5.434537209  5.434537209     0.184008309  0.184008309  0.184008309


 FORCES acting on ions
    electron-ion (+dipol)            ewald-force                    non-local-force                 convergence-correction
 -----------------------------------------------------------------------------------------------
   -.981E-14 0.623E-14 -.101E-12   0.711E-14 0.000E+00 0.355E-14   0.449E-16 0.565E-17 -.638E-17   0.816E-15 0.231E-14 0.393E-14
   -.261E-14 -.112E-12 -.285E-14   0.329E-14 -.412E-15 -.355E-14   -.516E-16 -.478E-17 0.495E-17   0.332E-14 -.109E-14 0.742E-14
   -.392E-14 0.206E-12 0.247E-14   0.711E-14 0.711E-14 -.711E-14   0.479E-16 -.725E-17 0.199E-16   0.826E-15 0.355E-14 0.463E-14
   -.327E-14 -.115E-12 0.933E-14   0.314E-14 0.710E-14 -.142E-13   -.495E-16 0.137E-16 -.199E-16   0.337E-14 0.736E-15 0.131E-15
   0.458E-14 -.125E-14 -.253E-14   0.355E-14 -.711E-14 0.142E-13   0.455E-16 0.138E-16 0.124E-16   -.161E-15 0.253E-14 0.445E-14
   -.719E-14 0.308E-12 -.310E-12   -.107E-13 -.682E-14 0.713E-14   -.384E-16 -.122E-16 -.133E-16   -.448E-14 -.101E-14 0.623E-17
   -.523E-14 -.177E-14 -.147E-14   0.355E-14 0.000E+00 0.355E-14   0.270E-16 0.244E-16 0.799E-17   -.469E-15 0.332E-14 0.402E-14
   -.327E-14 0.111E-12 -.516E-12   -.107E-13 0.103E-16 -.357E-14   -.354E-16 -.895E-17 -.938E-17   -.485E-14 0.513E-15 0.762E-14
 -----------------------------------------------------------------------------------------------
   -.307E-13 0.402E-12 -.922E-12   0.639E-14 -.118E-15 0.419E-16   -.958E-17 0.243E-16 -.371E-17   -.162E-14 0.109E-13 0.322E-13
 
 
 POSITION                                       TOTAL-FORCE (eV/Angst)
 -----------------------------------------------------------------------------------
      2.71727      0.00000      0.00000        -0.000000     -0.000000      0.000000
      1.35863      1.35863      4.07590         0.000000      0.000000     -0.000000
      2.71727      2.71727      2.71727        -0.000000      0.000000     -0.000000
      1.35863      4.07590      1.35863         0.000000     -0.000000      0.000000
     -0.00000     -0.00000      2.71727        -0.000000      0.000000      0.000000
      4.07590      1.35863      1.35863         0.000000     -0.000000     -0.000000
     -0.00000      2.71727      0.00000        -0.000000     -0.000000      0.000000
      4.07590      4.07590      4.07590         0.000000      0.000000     -0.000000
 -----------------------------------------------------------------------------------
    total drift:                               -0.000000      0.000000     -0.000000


--------------------------------------------------------------------------------------------------------



  FREE ENERGIE OF THE ION-ELECTRON SYSTEM (eV)
  ---------------------------------------------------
  free  energy   TOTEN  =       -45.93753021 eV

  energy  without entropy=      -45.93753021  energy(sigma->0) =      -45.93753021
 
 d Force = 0.0000000E+00[ 0.000E+00, 0.000E+00]  d Energy =-0.4224603E-09 0.422E-09
 d Force = 0.0000000E+00[ 0.000E+00, 0.000E+00]  d Ewald  =-0.1813017E-04 0.181E-04


--------------------------------------------------------------------------------------------------------


    POTLOK:  cpu time      0.0054: real time      0.0054


--------------------------------------------------------------------------------------------------------




--------------------------------------------------------------------------------------------------------


  
 reached required accuracy - stopping structural energy minimisation
     LOOP+:  cpu time      0.2677: real time      0.2768
    4ORBIT:  cpu time      0.0000: real time      0.0000

 total amount of memory used by VASP MPI-rank0    32857. kBytes
=======================================================================

   base      :      30000. kBytes
   nonl-proj :        399. kBytes
   fftplans  :       1462. kBytes
   grid      :        733. kBytes
   one-center:          6. kBytes
   wavefun   :        257. kBytes
 
  
  
 General timing and accounting informations for this job:
 ========================================================
  
                  Total CPU time used (sec):        2.672
                            User time (sec):        2.347
                          System time (sec):        0.325
                         Elapsed time (sec):        3.201
  
                   Maximum memory used (kb):      167508.
                   Average memory used (kb):          N/A
  
                          Minor page faults:        11412
                          Major page faults:          192
                 Voluntary context switches:         1469
