 running on   32 total cores
 distrk:  each k-point on   32 cores,    1 groups
 distr:  one band on    4 cores,    8 groups
 vasp.6.3.2 27Jun22 (build Oct 14 2022 12:13:54) complex                        
  
 POSCAR found type information on POSCAR Si
 POSCAR found :  1 types and       8 ions
 scaLAPACK will be used
 -----------------------------------------------------------------------------
|                                                                             |
|               ----> ADVICE to this user running VASP <----                  |
|                                                                             |
|     You enforced a specific xc type in the INCAR file but a different       |
|     type was found in the POTCAR file.                                      |
|     I HOPE YOU KNOW WHAT YOU ARE DOING!                                     |
|                                                                             |
 -----------------------------------------------------------------------------

 LDA part: xc-table for Pade appr. of Perdew
 POSCAR, INCAR and KPOINTS ok, starting setup
 FFT: planning ... GRIDC
 FFT: planning ... GRID_SOFT
 FFT: planning ... GRID
 WAVECAR not read
 WARNING: random wavefunctions but no delay for mixing, default for NELMDL
 entering main loop
       N       E                     dE             d eps       ncg     rms          rms(c)
DAV:   1     0.427386307775E+02    0.42739E+02   -0.89544E+03   480   0.741E+02
DAV:   2    -0.432090293400E+02   -0.85948E+02   -0.79957E+02   680   0.131E+02
DAV:   3    -0.467761415734E+02   -0.35671E+01   -0.35376E+01   640   0.255E+01
DAV:   4    -0.468291017002E+02   -0.52960E-01   -0.52926E-01   576   0.406E+00
DAV:   5    -0.468303157226E+02   -0.12140E-02   -0.12138E-02   632   0.510E-01    0.101E+01
DAV:   6    -0.462152158837E+02    0.61510E+00   -0.29209E-01   536   0.211E+00    0.606E+00
DAV:   7    -0.459351422337E+02    0.28007E+00   -0.56803E-01   536   0.301E+00    0.356E-01
DAV:   8    -0.459372235663E+02   -0.20813E-02   -0.32135E-02   560   0.824E-01    0.127E-01
DAV:   9    -0.459374330070E+02   -0.20944E-03   -0.86326E-04   600   0.143E-01    0.112E-01
DAV:  10    -0.459375289715E+02   -0.95964E-04   -0.22914E-04   544   0.672E-02    0.574E-02
DAV:  11    -0.459375302082E+02   -0.12367E-05   -0.51719E-06   600   0.111E-02    0.320E-03
DAV:  12    -0.459375303714E+02   -0.16314E-06   -0.32729E-07   616   0.281E-03    0.205E-03
DAV:  13    -0.459375301086E+02    0.26272E-06   -0.10183E-07   568   0.150E-03    0.159E-04
DAV:  14    -0.459375301195E+02   -0.10863E-07   -0.11378E-09   400   0.174E-04    0.112E-04
DAV:  15    -0.459375301329E+02   -0.13358E-07   -0.13377E-10   328   0.647E-05    0.307E-05
DAV:  16    -0.459375301301E+02    0.27400E-08   -0.24755E-11   312   0.262E-05
   1 F= -.45937530E+02 E0= -.45937530E+02  d E =-.459375E+02
 curvature:   0.00 expect dE= 0.000E+00 dE for cont linesearch  0.000E+00
 trial: gam= 0.00000 g(F)=  0.168E-59 g(S)=  0.606E-07 ort = 0.000E+00 (trialstep = 0.100E+01)
 search vector abs. value=  0.607E-07
 bond charge predicted
       N       E                     dE             d eps       ncg     rms          rms(c)
DAV:   1    -0.459375301476E+02   -0.14748E-07   -0.77006E-07   536   0.370E-03    0.880E-04
DAV:   2    -0.459375301631E+02   -0.15534E-07   -0.28575E-08   472   0.730E-04    0.551E-04
DAV:   3    -0.459375302171E+02   -0.53984E-07   -0.15732E-08   304   0.506E-04    0.102E-04
DAV:   4    -0.459375302248E+02   -0.76743E-08   -0.12629E-09   288   0.191E-04    0.118E-04
DAV:   5    -0.459375302297E+02   -0.49469E-08   -0.17230E-10   288   0.729E-05
   2 F= -.45937530E+02 E0= -.45937530E+02  d E =-.996278E-07
 trial-energy change:   -0.000000  1 .order   -0.000000   -0.000000    0.000000
 step:   0.9297(harm=  0.5858)  dis= 0.00000  next Energy=   -45.937530 (dE=-0.101E-06)
 bond charge predicted
       N       E                     dE             d eps       ncg     rms          rms(c)
DAV:   1    -0.459375302524E+02   -0.27563E-07   -0.29901E-09   288   0.244E-04    0.107E-04
DAV:   2    -0.459375302480E+02    0.43092E-08   -0.23968E-10   288   0.754E-05    0.458E-05
DAV:   3    -0.459375302425E+02    0.55578E-08   -0.22373E-11   264   0.252E-05    0.906E-06
DAV:   4    -0.459375302402E+02    0.22505E-08   -0.42542E-12   264   0.100E-05    0.280E-06
DAV:   5    -0.459375302396E+02    0.60265E-09   -0.58996E-13   264   0.427E-06
   3 F= -.45937530E+02 E0= -.45937530E+02  d E =-.109523E-06
 curvature:  -0.09 expect dE=-0.189E-08 dE for cont linesearch -0.188E-08
 ZBRENT: interpolating
 opt :   0.5867  next Energy=   -45.937530 (dE=-0.116E-06)
 bond charge predicted
       N       E                     dE             d eps       ncg     rms          rms(c)
DAV:   1    -0.459375302545E+02   -0.14253E-07   -0.90352E-08   528   0.127E-03    0.302E-04
DAV:   2    -0.459375302417E+02    0.12749E-07   -0.31820E-09   264   0.250E-04    0.186E-04
DAV:   3    -0.459375302192E+02    0.22541E-07   -0.19039E-09   264   0.189E-04    0.363E-05
DAV:   4    -0.459375302168E+02    0.24370E-08   -0.15879E-10   264   0.708E-05    0.382E-05
DAV:   5    -0.459375302140E+02    0.27561E-08   -0.28019E-11   264   0.283E-05
   4 F= -.45937530E+02 E0= -.45937530E+02  d E =-.838954E-07
 curvature:  -0.29 expect dE=-0.111E-11 dE for cont linesearch -0.111E-11
 ZBRENT: interpolating
 opt :   0.5912  next Energy=   -45.937530 (dE=-0.839E-07)
 bond charge predicted
       N       E                     dE             d eps       ncg     rms          rms(c)
DAV:   1    -0.459375302094E+02    0.73542E-08   -0.15431E-11   264   0.210E-05    0.195E-05
DAV:   2    -0.459375302096E+02   -0.23738E-09   -0.15663E-12   264   0.719E-06    0.102E-05
DAV:   3    -0.459375302103E+02   -0.62926E-09    0.52369E-14   248   0.331E-06    0.145E-06
DAV:   4    -0.459375302104E+02   -0.10823E-09   -0.51516E-13   240   0.146E-06    0.477E-07
DAV:   5    -0.459375302105E+02   -0.11403E-09    0.19156E-13   240   0.648E-07
   5 F= -.45937530E+02 E0= -.45937530E+02  d E =-.803863E-07
 curvature:  -0.29 expect dE=-0.461E-12 dE for cont linesearch -0.460E-12
 ZBRENT: interpolating
 opt :   0.5894  next Energy=   -45.937530 (dE=-0.804E-07)
 bond charge predicted
       N       E                     dE             d eps       ncg     rms          rms(c)
DAV:   1    -0.459375302105E+02   -0.11403E-09   -0.16765E-12   240   0.664E-06    0.112E-06
DAV:   2    -0.459375302105E+02   -0.42292E-10   -0.19145E-13   240   0.216E-06    0.851E-07
DAV:   3    -0.459375302103E+02    0.25625E-09    0.26178E-13   240   0.827E-07    0.214E-07
DAV:   4    -0.459375302103E+02    0.38654E-11    0.24743E-13   240   0.339E-07    0.961E-08
DAV:   5    -0.459375302101E+02    0.20464E-09   -0.99477E-13   240   0.146E-07
   6 F= -.45937530E+02 E0= -.45937530E+02  d E =-.799638E-07
 curvature:  -0.18 expect dE=-0.449E-13 dE for cont linesearch -0.448E-13
 trial: gam= 0.00000 g(F)=  0.155E-59 g(S)=  0.255E-12 ort =-0.124E-09 (trialstep = 0.918E+00)
 search vector abs. value=  0.100E-09
 reached required accuracy - stopping structural energy minimisation
