unknown system                          
           1
     5.434573    0.000000    0.000000
     0.000000    5.434573    0.000000
     0.000000    0.000000    5.434573
   Si
     8
Direct configuration=     1
   0.50000000  0.00000000  0.00000000
   0.25000000  0.25000000  0.75000000
   0.50000000  0.50000000  0.50000000
   0.25000000  0.75000000  0.25000000
   0.00000000  0.00000000  0.50000000
   0.75000000  0.25000000  0.25000000
   0.00000000  0.50000000  0.00000000
   0.75000000  0.75000000  0.75000000
unknown system                          
           1
     5.434513    0.000000    0.000000
    -0.000000    5.434513    0.000000
    -0.000000   -0.000000    5.434513
   Si
     8
Direct configuration=     2
   0.50000000  0.00000000  0.00000000
   0.25000000  0.25000000  0.75000000
   0.50000000  0.50000000  0.50000000
   0.25000000  0.75000000  0.25000000
  -0.00000000  0.00000000  0.50000000
   0.75000000  0.25000000  0.25000000
  -0.00000000  0.50000000  0.00000000
   0.75000000  0.75000000  0.75000000
unknown system                          
           1
     5.434517    0.000000    0.000000
    -0.000000    5.434517    0.000000
    -0.000000   -0.000000    5.434517
   Si
     8
Direct configuration=     3
   0.50000000  0.00000000  0.00000000
   0.25000000  0.25000000  0.75000000
   0.50000000  0.50000000  0.50000000
   0.25000000  0.75000000  0.25000000
  -0.00000000  0.00000000  0.50000000
   0.75000000  0.25000000  0.25000000
  -0.00000000  0.50000000  0.00000000
   0.75000000  0.75000000  0.75000000
unknown system                          
           1
     5.434537    0.000000    0.000000
    -0.000000    5.434537    0.000000
    -0.000000   -0.000000    5.434537
   Si
     8
Direct configuration=     4
   0.50000000  0.00000000  0.00000000
   0.25000000  0.25000000  0.75000000
   0.50000000  0.50000000  0.50000000
   0.25000000  0.75000000  0.25000000
  -0.00000000  0.00000000  0.50000000
   0.75000000  0.25000000  0.25000000
  -0.00000000  0.50000000  0.00000000
   0.75000000  0.75000000  0.75000000
unknown system                          
           1
     5.434537    0.000000    0.000000
    -0.000000    5.434537    0.000000
    -0.000000   -0.000000    5.434537
   Si
     8
Direct configuration=     5
   0.50000000  0.00000000  0.00000000
   0.25000000  0.25000000  0.75000000
   0.50000000  0.50000000  0.50000000
   0.25000000  0.75000000  0.25000000
  -0.00000000  0.00000000  0.50000000
   0.75000000  0.25000000  0.25000000
  -0.00000000  0.50000000  0.00000000
   0.75000000  0.75000000  0.75000000
unknown system                          
           1
     5.434537    0.000000    0.000000
    -0.000000    5.434537    0.000000
    -0.000000   -0.000000    5.434537
   Si
     8
Direct configuration=     6
   0.50000000  0.00000000  0.00000000
   0.25000000  0.25000000  0.75000000
   0.50000000  0.50000000  0.50000000
   0.25000000  0.75000000  0.25000000
  -0.00000000  0.00000000  0.50000000
   0.75000000  0.25000000  0.25000000
  -0.00000000  0.50000000  0.00000000
   0.75000000  0.75000000  0.75000000
