  64  64   0   0
  0.2197554E+02  0.1120400E-08  0.1120400E-08  0.1120400E-08  0.5000000E-15
  1.000000000000000E-004
  CAR 
 unknown system                          
     11.06294444    -22.84614857  301     -0.55091992      1.00000000
    -22.846  0.0000E+00  0.0000E+00
    -22.733  0.0000E+00  0.0000E+00
    -22.620  0.0000E+00  0.0000E+00
    -22.507  0.0000E+00  0.0000E+00
    -22.394  0.0000E+00  0.0000E+00
    -22.281  0.0000E+00  0.0000E+00
    -22.168  0.0000E+00  0.0000E+00
    -22.055  0.0000E+00  0.0000E+00
    -21.942  0.0000E+00  0.0000E+00
    -21.829  0.0000E+00  0.0000E+00
    -21.716  0.0000E+00  0.0000E+00
    -21.603  0.0000E+00  0.0000E+00
    -21.490  0.0000E+00  0.0000E+00
    -21.377  0.5288E-05  0.5977E-06
    -21.264  0.1437E+04  0.1624E+03
    -21.151  0.2618E+03  0.1920E+03
    -21.038  0.0000E+00  0.1920E+03
    -20.925  0.0000E+00  0.1920E+03
    -20.812  0.0000E+00  0.1920E+03
    -20.699  0.0000E+00  0.1920E+03
    -20.586  0.0000E+00  0.1920E+03
    -20.473  0.0000E+00  0.1920E+03
    -20.359  0.0000E+00  0.1920E+03
    -20.246  0.0000E+00  0.1920E+03
    -20.133  0.0000E+00  0.1920E+03
    -20.020  0.0000E+00  0.1920E+03
    -19.907  0.0000E+00  0.1920E+03
    -19.794  0.0000E+00  0.1920E+03
    -19.681  0.0000E+00  0.1920E+03
    -19.568  0.0000E+00  0.1920E+03
    -19.455  0.0000E+00  0.1920E+03
    -19.342  0.0000E+00  0.1920E+03
    -19.229  0.0000E+00  0.1920E+03
    -19.116  0.0000E+00  0.1920E+03
    -19.003  0.0000E+00  0.1920E+03
    -18.890  0.0000E+00  0.1920E+03
    -18.777  0.0000E+00  0.1920E+03
    -18.664  0.0000E+00  0.1920E+03
    -18.551  0.0000E+00  0.1920E+03
    -18.438  0.0000E+00  0.1920E+03
    -18.325  0.0000E+00  0.1920E+03
    -18.212  0.0000E+00  0.1920E+03
    -18.099  0.0000E+00  0.1920E+03
    -17.986  0.0000E+00  0.1920E+03
    -17.873  0.0000E+00  0.1920E+03
    -17.760  0.0000E+00  0.1920E+03
    -17.647  0.0000E+00  0.1920E+03
    -17.534  0.0000E+00  0.1920E+03
    -17.421  0.0000E+00  0.1920E+03
    -17.308  0.0000E+00  0.1920E+03
    -17.195  0.0000E+00  0.1920E+03
    -17.082  0.0000E+00  0.1920E+03
    -16.969  0.0000E+00  0.1920E+03
    -16.856  0.0000E+00  0.1920E+03
    -16.743  0.0000E+00  0.1920E+03
    -16.629  0.0000E+00  0.1920E+03
    -16.516  0.0000E+00  0.1920E+03
    -16.403  0.0000E+00  0.1920E+03
    -16.290  0.0000E+00  0.1920E+03
    -16.177  0.0000E+00  0.1920E+03
    -16.064  0.0000E+00  0.1920E+03
    -15.951  0.0000E+00  0.1920E+03
    -15.838  0.0000E+00  0.1920E+03
    -15.725  0.0000E+00  0.1920E+03
    -15.612  0.0000E+00  0.1920E+03
    -15.499  0.0000E+00  0.1920E+03
    -15.386  0.0000E+00  0.1920E+03
    -15.273  0.0000E+00  0.1920E+03
    -15.160  0.0000E+00  0.1920E+03
    -15.047  0.0000E+00  0.1920E+03
    -14.934  0.0000E+00  0.1920E+03
    -14.821  0.0000E+00  0.1920E+03
    -14.708  0.0000E+00  0.1920E+03
    -14.595  0.0000E+00  0.1920E+03
    -14.482  0.0000E+00  0.1920E+03
    -14.369  0.0000E+00  0.1920E+03
    -14.256  0.0000E+00  0.1920E+03
    -14.143  0.0000E+00  0.1920E+03
    -14.030  0.0000E+00  0.1920E+03
    -13.917  0.0000E+00  0.1920E+03
    -13.804  0.0000E+00  0.1920E+03
    -13.691  0.0000E+00  0.1920E+03
    -13.578  0.0000E+00  0.1920E+03
    -13.465  0.5771E-13  0.1920E+03
    -13.352  0.1503E+01  0.1922E+03
    -13.239  0.2260E+02  0.1947E+03
    -13.126  0.4777E+02  0.2001E+03
    -13.013  0.1345E+03  0.2153E+03
    -12.899  0.3576E+03  0.2557E+03
    -12.786  0.2306E+01  0.2560E+03
    -12.673  0.0000E+00  0.2560E+03
    -12.560  0.0000E+00  0.2560E+03
    -12.447  0.0000E+00  0.2560E+03
    -12.334  0.0000E+00  0.2560E+03
    -12.221  0.0000E+00  0.2560E+03
    -12.108  0.0000E+00  0.2560E+03
    -11.995  0.0000E+00  0.2560E+03
    -11.882  0.0000E+00  0.2560E+03
    -11.769  0.0000E+00  0.2560E+03
    -11.656  0.0000E+00  0.2560E+03
    -11.543  0.0000E+00  0.2560E+03
    -11.430  0.0000E+00  0.2560E+03
    -11.317  0.0000E+00  0.2560E+03
    -11.204  0.0000E+00  0.2560E+03
    -11.091  0.0000E+00  0.2560E+03
    -10.978  0.0000E+00  0.2560E+03
    -10.865  0.0000E+00  0.2560E+03
    -10.752  0.0000E+00  0.2560E+03
    -10.639  0.0000E+00  0.2560E+03
    -10.526  0.0000E+00  0.2560E+03
    -10.413  0.0000E+00  0.2560E+03
    -10.300  0.0000E+00  0.2560E+03
    -10.187  0.0000E+00  0.2560E+03
    -10.074  0.0000E+00  0.2560E+03
     -9.961  0.0000E+00  0.2560E+03
     -9.848  0.0000E+00  0.2560E+03
     -9.735  0.0000E+00  0.2560E+03
     -9.622  0.0000E+00  0.2560E+03
     -9.509  0.0000E+00  0.2560E+03
     -9.396  0.0000E+00  0.2560E+03
     -9.283  0.0000E+00  0.2560E+03
     -9.169  0.0000E+00  0.2560E+03
     -9.056  0.0000E+00  0.2560E+03
     -8.943  0.0000E+00  0.2560E+03
     -8.830  0.0000E+00  0.2560E+03
     -8.717  0.0000E+00  0.2560E+03
     -8.604  0.0000E+00  0.2560E+03
     -8.491  0.0000E+00  0.2560E+03
     -8.378  0.0000E+00  0.2560E+03
     -8.265  0.0000E+00  0.2560E+03
     -8.152  0.0000E+00  0.2560E+03
     -8.039  0.0000E+00  0.2560E+03
     -7.926  0.0000E+00  0.2560E+03
     -7.813  0.0000E+00  0.2560E+03
     -7.700  0.0000E+00  0.2560E+03
     -7.587  0.0000E+00  0.2560E+03
     -7.474  0.0000E+00  0.2560E+03
     -7.361  0.0000E+00  0.2560E+03
     -7.248  0.0000E+00  0.2560E+03
     -7.135  0.0000E+00  0.2560E+03
     -7.022  0.0000E+00  0.2560E+03
     -6.909  0.0000E+00  0.2560E+03
     -6.796  0.0000E+00  0.2560E+03
     -6.683  0.0000E+00  0.2560E+03
     -6.570  0.0000E+00  0.2560E+03
     -6.457  0.0000E+00  0.2560E+03
     -6.344  0.0000E+00  0.2560E+03
     -6.231  0.0000E+00  0.2560E+03
     -6.118  0.0000E+00  0.2560E+03
     -6.005  0.0000E+00  0.2560E+03
     -5.892  0.0000E+00  0.2560E+03
     -5.779  0.0000E+00  0.2560E+03
     -5.666  0.0000E+00  0.2560E+03
     -5.553  0.0000E+00  0.2560E+03
     -5.439  0.0000E+00  0.2560E+03
     -5.326  0.0000E+00  0.2560E+03
     -5.213  0.0000E+00  0.2560E+03
     -5.100  0.0000E+00  0.2560E+03
     -4.987  0.0000E+00  0.2560E+03
     -4.874  0.0000E+00  0.2560E+03
     -4.761  0.0000E+00  0.2560E+03
     -4.648  0.0000E+00  0.2560E+03
     -4.535  0.0000E+00  0.2560E+03
     -4.422  0.0000E+00  0.2560E+03
     -4.309  0.0000E+00  0.2560E+03
     -4.196  0.0000E+00  0.2560E+03
     -4.083  0.0000E+00  0.2560E+03
     -3.970  0.0000E+00  0.2560E+03
     -3.857  0.0000E+00  0.2560E+03
     -3.744  0.0000E+00  0.2560E+03
     -3.631  0.0000E+00  0.2560E+03
     -3.518  0.0000E+00  0.2560E+03
     -3.405  0.0000E+00  0.2560E+03
     -3.292  0.0000E+00  0.2560E+03
     -3.179  0.0000E+00  0.2560E+03
     -3.066  0.0000E+00  0.2560E+03
     -2.953  0.0000E+00  0.2560E+03
     -2.840  0.0000E+00  0.2560E+03
     -2.727  0.2615E+00  0.2560E+03
     -2.614  0.8586E+01  0.2570E+03
     -2.501  0.3203E+02  0.2606E+03
     -2.388  0.7872E+02  0.2695E+03
     -2.275  0.8694E+02  0.2793E+03
     -2.162  0.1523E+03  0.2966E+03
     -2.049  0.6804E+02  0.3043E+03
     -1.936  0.5904E+02  0.3109E+03
     -1.823  0.6718E+02  0.3185E+03
     -1.709  0.6398E+02  0.3257E+03
     -1.596  0.1861E-08  0.3258E+03
     -1.483  0.9020E+02  0.3359E+03
     -1.370  0.1814E+03  0.3565E+03
     -1.257  0.2123E+02  0.3589E+03
     -1.144  0.2623E+03  0.3885E+03
     -1.031  0.1315E+03  0.4034E+03
     -0.918  0.2623E+03  0.4330E+03
     -0.805  0.5954E+02  0.4398E+03
     -0.692  0.6650E+02  0.4473E+03
     -0.579  0.6474E+01  0.4480E+03
     -0.466  0.0000E+00  0.4480E+03
     -0.353  0.0000E+00  0.4480E+03
     -0.240  0.0000E+00  0.4480E+03
     -0.127  0.0000E+00  0.4480E+03
     -0.014  0.0000E+00  0.4480E+03
      0.099  0.0000E+00  0.4480E+03
      0.212  0.0000E+00  0.4480E+03
      0.325  0.0000E+00  0.4480E+03
      0.438  0.0000E+00  0.4480E+03
      0.551  0.0000E+00  0.4480E+03
      0.664  0.0000E+00  0.4480E+03
      0.777  0.0000E+00  0.4480E+03
      0.890  0.0000E+00  0.4480E+03
      1.003  0.0000E+00  0.4480E+03
      1.116  0.0000E+00  0.4480E+03
      1.229  0.0000E+00  0.4480E+03
      1.342  0.0000E+00  0.4480E+03
      1.455  0.0000E+00  0.4480E+03
      1.568  0.0000E+00  0.4480E+03
      1.681  0.0000E+00  0.4480E+03
      1.794  0.0000E+00  0.4480E+03
      1.907  0.0000E+00  0.4480E+03
      2.021  0.0000E+00  0.4480E+03
      2.134  0.0000E+00  0.4480E+03
      2.247  0.0000E+00  0.4480E+03
      2.360  0.0000E+00  0.4480E+03
      2.473  0.0000E+00  0.4480E+03
      2.586  0.0000E+00  0.4480E+03
      2.699  0.0000E+00  0.4480E+03
      2.812  0.0000E+00  0.4480E+03
      2.925  0.0000E+00  0.4480E+03
      3.038  0.0000E+00  0.4480E+03
      3.151  0.0000E+00  0.4480E+03
      3.264  0.0000E+00  0.4480E+03
      3.377  0.0000E+00  0.4480E+03
      3.490  0.0000E+00  0.4480E+03
      3.603  0.0000E+00  0.4480E+03
      3.716  0.0000E+00  0.4480E+03
      3.829  0.0000E+00  0.4480E+03
      3.942  0.0000E+00  0.4480E+03
      4.055  0.0000E+00  0.4480E+03
      4.168  0.0000E+00  0.4480E+03
      4.281  0.3152E-04  0.4480E+03
      4.394  0.2212E+01  0.4482E+03
      4.507  0.0000E+00  0.4482E+03
      4.620  0.0000E+00  0.4482E+03
      4.733  0.0000E+00  0.4482E+03
      4.846  0.0000E+00  0.4482E+03
      4.959  0.6138E-04  0.4483E+03
      5.072  0.1327E+02  0.4497E+03
      5.185  0.0000E+00  0.4498E+03
      5.298  0.0000E+00  0.4498E+03
      5.411  0.0000E+00  0.4498E+03
      5.524  0.3915E+01  0.4502E+03
      5.637  0.2263E+02  0.4527E+03
      5.751  0.2119E-06  0.4528E+03
      5.864  0.1745E+02  0.4547E+03
      5.977  0.2396E+00  0.4548E+03
      6.090  0.0000E+00  0.4548E+03
      6.203  0.0000E+00  0.4548E+03
      6.316  0.1578E-02  0.4548E+03
      6.429  0.1442E+02  0.4564E+03
      6.542  0.7696E+01  0.4573E+03
      6.655  0.4583E+02  0.4624E+03
      6.768  0.6032E+02  0.4692E+03
      6.881  0.5950E+02  0.4760E+03
      6.994  0.1277E+02  0.4774E+03
      7.107  0.7193E+00  0.4775E+03
      7.220  0.5457E+01  0.4781E+03
      7.333  0.1685E+01  0.4783E+03
      7.446  0.8249E+02  0.4876E+03
      7.559  0.1677E+03  0.5066E+03
      7.672  0.1465E+01  0.5068E+03
      7.785  0.2650E+02  0.5097E+03
      7.898  0.3745E+00  0.5098E+03
      8.011  0.5271E+02  0.5157E+03
      8.124  0.1236E-01  0.5158E+03
      8.237  0.1448E+02  0.5174E+03
      8.350  0.9167E+02  0.5277E+03
      8.463  0.8581E-05  0.5278E+03
      8.576  0.1536E+03  0.5451E+03
      8.689  0.5656E+01  0.5458E+03
      8.802  0.2819E-05  0.5458E+03
      8.915  0.8650E+02  0.5555E+03
      9.028  0.1215E+03  0.5693E+03
      9.141  0.2160E+01  0.5695E+03
      9.254  0.2598E+02  0.5724E+03
      9.367  0.1826E+02  0.5745E+03
      9.481  0.2061E+01  0.5747E+03
      9.594  0.1121E+02  0.5760E+03
      9.707  0.0000E+00  0.5760E+03
      9.820  0.0000E+00  0.5760E+03
      9.933  0.0000E+00  0.5760E+03
     10.046  0.0000E+00  0.5760E+03
     10.159  0.0000E+00  0.5760E+03
     10.272  0.0000E+00  0.5760E+03
     10.385  0.0000E+00  0.5760E+03
     10.498  0.0000E+00  0.5760E+03
     10.611  0.0000E+00  0.5760E+03
     10.724  0.0000E+00  0.5760E+03
     10.837  0.0000E+00  0.5760E+03
     10.950  0.0000E+00  0.5760E+03
     11.063  0.0000E+00  0.5760E+03
