       N       E                     dE             d eps       ncg     rms          rms(c)
DAV:   1     0.432177949456E+04    0.43218E+04   -0.17164E+05  4608   0.125E+03
DAV:   2     0.363948160423E+03   -0.39578E+04   -0.37656E+04  5120   0.368E+02
DAV:   3    -0.206161390703E+03   -0.57011E+03   -0.56584E+03  5600   0.156E+02
DAV:   4    -0.228191519365E+03   -0.22030E+02   -0.21928E+02  5568   0.331E+01
DAV:   5    -0.229003962977E+03   -0.81244E+00   -0.81111E+00  5600   0.616E+00    0.106E+01
DAV:   6    -0.224138853240E+03    0.48651E+01   -0.94773E+00  5728   0.526E+00    0.776E+00
DAV:   7    -0.223777594045E+03    0.36126E+00   -0.20676E+00  6240   0.236E+00    0.533E+00
DAV:   8    -0.223902811185E+03   -0.12522E+00   -0.26552E-01  5344   0.122E+00    0.141E+00
DAV:   9    -0.223897294738E+03    0.55164E-02   -0.11383E-02  5664   0.258E-01    0.594E-01
DAV:  10    -0.223901671908E+03   -0.43772E-02   -0.18678E-02  5376   0.224E-01    0.296E-01
DAV:  11    -0.223900898897E+03    0.77301E-03   -0.17458E-03  5728   0.813E-02    0.810E-02
DAV:  12    -0.223900864347E+03    0.34550E-04   -0.15468E-04  5856   0.229E-02    0.965E-03
DAV:  13    -0.223900870197E+03   -0.58500E-05   -0.13418E-05  5472   0.657E-03    0.240E-03
DAV:  14    -0.223900869896E+03    0.30147E-06   -0.14441E-06  6144   0.253E-03    0.893E-03
DAV:  15    -0.223900871075E+03   -0.11795E-05   -0.54038E-07  4672   0.138E-03    0.303E-03
DAV:  16    -0.223900871640E+03   -0.56477E-06   -0.10313E-07  5280   0.714E-04    0.282E-04
DAV:  17    -0.223900871592E+03    0.48123E-07   -0.48034E-09  3360   0.390E-04    0.123E-04
DAV:  18    -0.223900871612E+03   -0.20547E-07   -0.38529E-09  3360   0.266E-04    0.196E-04
DAV:  19    -0.223900871604E+03    0.83310E-08   -0.23613E-09  3072   0.167E-04
   1 F= -.22390087E+03 E0= -.22390087E+03  d E =-.352975E-16
