 vasp.6.3.2 27Jun22 (build Oct 14 2022 12:13:54) complex                        
  
 executed on             LinuxIFC date 2025.08.28  21:57:05
 running on   32 total cores
 distrk:  each k-point on   32 cores,    1 groups
 distr:  one band on NCORE=   1 cores,   32 groups


--------------------------------------------------------------------------------------------------------


 INCAR:
   ENCUT = 341.213600
   SIGMA = 0.020000
   EDIFF = 1.00e-08
   GGA = PS
   PREC = Accurate
   IALGO = 38
   IBRION = -1
   ISMEAR = 0
   NELMIN = 5
   ADDGRID = .TRUE.
   LCHARG = .FALSE.
   LWAVE = .FALSE.
   LREAL = .FALSE.

 POTCAR:    PAW_PBE Na_pv 19Sep2006               
 POTCAR:    PAW_PBE Cl 06Sep2000                  
 -----------------------------------------------------------------------------
|                                                                             |
|           W    W    AA    RRRRR   N    N  II  N    N   GGGG   !!!           |
|           W    W   A  A   R    R  NN   N  II  NN   N  G    G  !!!           |
|           W    W  A    A  R    R  N N  N  II  N N  N  G       !!!           |
|           W WW W  AAAAAA  RRRRR   N  N N  II  N  N N  G  GGG   !            |
|           WW  WW  A    A  R   R   N   NN  II  N   NN  G    G                |
|           W    W  A    A  R    R  N    N  II  N    N   GGGG   !!!           |
|                                                                             |
|     For optimal performance we recommend to set                             |
|       NCORE = 2 up to number-of-cores-per-socket                            |
|     NCORE specifies how many cores store one orbital (NPAR=cpu/NCORE).      |
|     This setting can greatly improve the performance of VASP for DFT.       |
|     The default, NCORE=1 might be grossly inefficient on modern             |
|     multi-core architectures or massively parallel machines. Do your        |
|     own testing! More info at https://www.vasp.at/wiki/index.php/NCORE      |
|     Unfortunately you need to use the default for GW and RPA                |
|     calculations (for HF NCORE is supported but not extensively tested      |
|     yet).                                                                   |
|                                                                             |
 -----------------------------------------------------------------------------

 POTCAR:    PAW_PBE Na_pv 19Sep2006               
   SHA256 =  6a2f546d9e11350984debacf3dc457d8cffc0868e817d445faca461816a32b94 Na_pv/POTCAR          
   COPYR  = (c) Copyright 19Sep2006 Georg Kresse                                                    
   COPYR  = This file is part of the software VASP. Any use, copying, and all other rights are regul
   COPYR  = If you do not have a valid VASP license, you may not use, copy or distribute this file. 
   VRHFIN =Na: p6s1                                                                                 
   LEXCH  = PE                                                                                      
   EATOM  =   766.0439 eV,   56.3026 Ry                                                             
                                                                                                    
   TITEL  = PAW_PBE Na_pv 19Sep2006                                                                 
   LULTRA =        F    use ultrasoft PP ?                                                          
   IUNSCR =        1    unscreen: 0-lin 1-nonlin 2-no                                               
   RPACOR =    1.800    partial core radius                                                         
   POMASS =   22.990; ZVAL   =    7.000    mass and valenz                                          
   RCORE  =    2.200    outmost cutoff radius                                                       
   RWIGS  =    2.200; RWIGS  =    1.164    wigner-seitz radius (au A)                               
   ENMAX  =  259.561; ENMIN  =  194.671 eV                                                          
   ICORE  =        2    local potential                                                             
   LCOR   =        T    correct aug charges                                                         
   LPAW   =        T    paw PP                                                                      
   EAUG   =  368.056                                                                                
   DEXC   =    0.000                                                                                
   RMAX   =    2.245    core radius for proj-oper                                                   
   RAUG   =    1.300    factor for augmentation sphere                                              
   RDEP   =    2.259    radius for radial grids                                                     
   RDEPT  =    1.738    core radius for aug-charge                                                  
                                                                                                    
   Atomic configuration                                                                             
    5 entries                                                                                       
     n  l   j            E        occ.                                                              
     1  0  0.50     -1033.6933   2.0000                                                             
     2  0  0.50       -56.7526   2.0000                                                             
     2  1  1.50       -28.6721   6.0000                                                             
     3  0  0.50        -2.7440   1.0000                                                             
     3  2  1.50        -1.3606   0.0000                                                             
   Description                                                                                      
     l       E           TYP  RCUT    TYP  RCUT                                                     
     1    -28.6720912     23  2.000                                                                 
     1      6.8029130     23  2.000                                                                 
     0     -2.7439560     23  2.200                                                                 
     0     34.0145650     23  2.200                                                                 
     2     -1.3605826     23  2.200                                                                 
  local pseudopotential read in
  partial core-charges read in
  partial kinetic energy density read in
  atomic valenz-charges read in
  non local Contribution for L=           1  read in
    real space projection operators read in
  non local Contribution for L=           1  read in
    real space projection operators read in
  non local Contribution for L=           0  read in
    real space projection operators read in
  non local Contribution for L=           0  read in
    real space projection operators read in
    PAW grid and wavefunctions read in
 
   number of l-projection  operators is LMAX  =           4
   number of lm-projection operators is LMMAX =           8
 
 POTCAR:    PAW_PBE Cl 06Sep2000                  
   SHA256 =  9f1b6e6ed4247ac726a768b330d26d7667cc3c95a39ff49c1d064c2d9dcce931 Cl/POTCAR             
   COPYR  = (c) Copyright 06Sep2000 Georg Kresse                                                    
   COPYR  = This file is part of the software VASP. Any use, copying, and all other rights are regul
   COPYR  = If you do not have a valid VASP license, you may not use, copy or distribute this file. 
   VRHFIN =Cl: s2p5                                                                                 
   LEXCH  = PE                                                                                      
   EATOM  =   409.7259 eV,   30.1140 Ry                                                             
                                                                                                    
   TITEL  = PAW_PBE Cl 06Sep2000                                                                    
   LULTRA =        F    use ultrasoft PP ?                                                          
   IUNSCR =        1    unscreen: 0-lin 1-nonlin 2-no                                               
   RPACOR =    1.500    partial core radius                                                         
   POMASS =   35.453; ZVAL   =    7.000    mass and valenz                                          
   RCORE  =    1.900    outmost cutoff radius                                                       
   RWIGS  =    2.100; RWIGS  =    1.111    wigner-seitz radius (au A)                               
   ENMAX  =  262.472; ENMIN  =  196.854 eV                                                          
   ICORE  =        2    local potential                                                             
   LCOR   =        T    correct aug charges                                                         
   LPAW   =        T    paw PP                                                                      
   EAUG   =  356.192                                                                                
   DEXC   =    0.000                                                                                
   RMAX   =    1.945    core radius for proj-oper                                                   
   RAUG   =    1.300    factor for augmentation sphere                                              
   RDEP   =    2.020    radius for radial grids                                                     
   RDEPT  =    1.678    core radius for aug-charge                                                  
                                                                                                    
   Atomic configuration                                                                             
    6 entries                                                                                       
     n  l   j            E        occ.                                                              
     1  0  0.50     -2751.1850   2.0000                                                             
     2  0  0.50      -252.6861   2.0000                                                             
     2  1  1.50      -191.6157   6.0000                                                             
     3  0  0.50       -20.6916   2.0000                                                             
     3  1  0.50        -8.5949   5.0000                                                             
     3  2  1.50        -8.1635   0.0000                                                             
   Description                                                                                      
     l       E           TYP  RCUT    TYP  RCUT                                                     
     0    -20.6915656     23  1.900                                                                 
     0    -22.0521482     23  1.900                                                                 
     1     -8.5948577     23  1.900                                                                 
     1     -5.3847331     23  1.900                                                                 
     2     -8.1634956     23  1.900                                                                 
  local pseudopotential read in
  partial core-charges read in
  partial kinetic energy density read in
  atomic valenz-charges read in
  non local Contribution for L=           0  read in
    real space projection operators read in
  non local Contribution for L=           0  read in
    real space projection operators read in
  non local Contribution for L=           1  read in
    real space projection operators read in
  non local Contribution for L=           1  read in
    real space projection operators read in
    PAW grid and wavefunctions read in
 
   number of l-projection  operators is LMAX  =           4
   number of lm-projection operators is LMMAX =           8
 
 -----------------------------------------------------------------------------
|                                                                             |
|               ----> ADVICE to this user running VASP <----                  |
|                                                                             |
|     You have a (more or less) 'large supercell' and for larger cells it     |
|     might be more efficient to use real-space projection operators.         |
|     Therefore, try LREAL= Auto in the INCAR file.                           |
|     Mind: For very accurate calculation, you might also keep the            |
|     reciprocal projection scheme (i.e. LREAL=.FALSE.).                      |
|                                                                             |
 -----------------------------------------------------------------------------

 -----------------------------------------------------------------------------
|                                                                             |
|               ----> ADVICE to this user running VASP <----                  |
|                                                                             |
|     You enforced a specific xc type in the INCAR file but a different       |
|     type was found in the POTCAR file.                                      |
|     I HOPE YOU KNOW WHAT YOU ARE DOING!                                     |
|                                                                             |
 -----------------------------------------------------------------------------

  PAW_PBE Na_pv 19Sep2006               :
 energy of atom  1       EATOM= -766.0439
 kinetic energy error for atom=    0.0189 (will be added to EATOM!!)
  PAW_PBE Cl 06Sep2000                  :
 energy of atom  2       EATOM= -409.7259
 kinetic energy error for atom=    0.0106 (will be added to EATOM!!)
 
 
 POSCAR: Na Cl
  positions in cartesian coordinates
  No initial velocities read in
 exchange correlation table for  LEXCH =       14
   RHO(1)=    0.500       N(1)  =     2000
   RHO(2)=  100.500       N(2)  =     4000
 


--------------------------------------------------------------------------------------------------------


 ion  position               nearest neighbor table
   1  0.003  0.000  0.000-
   2  0.253  0.250  0.000-
   3  0.250  0.000  0.250-
   4  0.000  0.250  0.250-
   5  0.000  0.000  0.500-
   6  0.250  0.250  0.500-
   7  0.250  0.000  0.750-
   8  0.000  0.250  0.750-
   9  0.000  0.500  0.000-
  10  0.250  0.750  0.000-
  11  0.250  0.500  0.250-
  12  0.000  0.750  0.250-
  13  0.000  0.500  0.500-
  14  0.250  0.750  0.500-
  15  0.250  0.500  0.750-
  16  0.000  0.750  0.750-
  17  0.500  0.000  0.000-
  18  0.750  0.250  0.000-
  19  0.750  0.000  0.250-
  20  0.500  0.250  0.250-
  21  0.500  0.000  0.500-
  22  0.750  0.250  0.500-
  23  0.750  0.000  0.750-
  24  0.500  0.250  0.750-
  25  0.500  0.500  0.000-
  26  0.750  0.750  0.000-
  27  0.750  0.500  0.250-
  28  0.500  0.750  0.250-
  29  0.500  0.500  0.500-
  30  0.750  0.750  0.500-
  31  0.750  0.500  0.750-
  32  0.500  0.750  0.750-
  33  0.250  0.250  0.250-
  34  0.000  0.000  0.250-
  35  0.000  0.250  0.000-
  36  0.250  0.000  0.000-
  37  0.250  0.250  0.750-
  38  0.000  0.000  0.750-
  39  0.000  0.250  0.500-
  40  0.250  0.000  0.500-
  41  0.250  0.750  0.250-
  42  0.000  0.500  0.250-
  43  0.000  0.750  0.000-
  44  0.250  0.500  0.000-
  45  0.250  0.750  0.750-
  46  0.000  0.500  0.750-
  47  0.000  0.750  0.500-
  48  0.250  0.500  0.500-
  49  0.750  0.250  0.250-
  50  0.500  0.000  0.250-
  51  0.500  0.250  0.000-
  52  0.750  0.000  0.000-
  53  0.750  0.250  0.750-
  54  0.500  0.000  0.750-
  55  0.500  0.250  0.500-
  56  0.750  0.000  0.500-
  57  0.750  0.750  0.250-
  58  0.500  0.500  0.250-
  59  0.500  0.750  0.000-
  60  0.750  0.500  0.000-
  61  0.750  0.750  0.750-
  62  0.500  0.500  0.750-
  63  0.500  0.750  0.500-
  64  0.750  0.500  0.500-
 
  LATTYP: Found a simple cubic cell.
 ALAT       =    11.2040023600
  
  Lattice vectors:
  
 A1 = (  11.2040023600,   0.0000000000,   0.0000000000)
 A2 = (   0.0000000000,  11.2040023600,   0.0000000000)
 A3 = (   0.0000000000,   0.0000000000,  11.2040023600)


Analysis of symmetry for initial positions (statically):
=====================================================================
 Subroutine PRICEL returns:
 Original cell was already a primitive cell.
 

 Routine SETGRP: Setting up the symmetry group for a 
 simple cubic supercell.


 Subroutine GETGRP returns: Found  2 space group operations
 (whereof  2 operations were pure point group operations)
 out of a pool of 48 trial point group operations.


The static configuration has the point symmetry C_1h.


Analysis of symmetry for dynamics (positions and initial velocities):
=====================================================================
 Subroutine PRICEL returns:
 Original cell was already a primitive cell.
 

 Routine SETGRP: Setting up the symmetry group for a 
 simple cubic supercell.


 Subroutine GETGRP returns: Found  2 space group operations
 (whereof  2 operations were pure point group operations)
 out of a pool of 48 trial point group operations.


The dynamic configuration has the point symmetry C_1h.


 Subroutine INISYM returns: Found  2 space group operations
 (whereof  2 operations are pure point group operations),
 and found     1 'primitive' translations


----------------------------------------------------------------------------------------

                                     Primitive cell                                     

  volume of cell :    1406.4347

  direct lattice vectors                    reciprocal lattice vectors
    11.204002360  0.000000000  0.000000000     0.089253819  0.000000000  0.000000000
     0.000000000 11.204002360  0.000000000     0.000000000  0.089253819  0.000000000
     0.000000000  0.000000000 11.204002360     0.000000000  0.000000000  0.089253819

  length of vectors
    11.204002360 11.204002360 11.204002360     0.089253819  0.089253819  0.089253819

  position of ions in fractional coordinates (direct lattice)
     0.002677615  0.000000000  0.000000000
     0.252677615  0.250000000  0.000000000
     0.250000000  0.000000000  0.250000000
     0.000000000  0.250000000  0.250000000
     0.000000000  0.000000000  0.500000000
     0.250000000  0.250000000  0.500000000
     0.250000000  0.000000000  0.750000000
     0.000000000  0.250000000  0.750000000
     0.000000000  0.500000000  0.000000000
     0.250000000  0.750000000  0.000000000
     0.250000000  0.500000000  0.250000000
     0.000000000  0.750000000  0.250000000
     0.000000000  0.500000000  0.500000000
     0.250000000  0.750000000  0.500000000
     0.250000000  0.500000000  0.750000000
     0.000000000  0.750000000  0.750000000
     0.500000000  0.000000000  0.000000000
     0.750000000  0.250000000  0.000000000
     0.750000000  0.000000000  0.250000000
     0.500000000  0.250000000  0.250000000
     0.500000000  0.000000000  0.500000000
     0.750000000  0.250000000  0.500000000
     0.750000000  0.000000000  0.750000000
     0.500000000  0.250000000  0.750000000
     0.500000000  0.500000000  0.000000000
     0.750000000  0.750000000  0.000000000
     0.750000000  0.500000000  0.250000000
     0.500000000  0.750000000  0.250000000
     0.500000000  0.500000000  0.500000000
     0.750000000  0.750000000  0.500000000
     0.750000000  0.500000000  0.750000000
     0.500000000  0.750000000  0.750000000
     0.250000000  0.250000000  0.250000000
     0.000000000  0.000000000  0.250000000
     0.000000000  0.250000000  0.000000000
     0.250000000  0.000000000  0.000000000
     0.250000000  0.250000000  0.750000000
     0.000000000  0.000000000  0.750000000
     0.000000000  0.250000000  0.500000000
     0.250000000  0.000000000  0.500000000
     0.250000000  0.750000000  0.250000000
     0.000000000  0.500000000  0.250000000
     0.000000000  0.750000000  0.000000000
     0.250000000  0.500000000  0.000000000
     0.250000000  0.750000000  0.750000000
     0.000000000  0.500000000  0.750000000
     0.000000000  0.750000000  0.500000000
     0.250000000  0.500000000  0.500000000
     0.750000000  0.250000000  0.250000000
     0.500000000  0.000000000  0.250000000
     0.500000000  0.250000000  0.000000000
     0.750000000  0.000000000  0.000000000
     0.750000000  0.250000000  0.750000000
     0.500000000  0.000000000  0.750000000
     0.500000000  0.250000000  0.500000000
     0.750000000  0.000000000  0.500000000
     0.750000000  0.750000000  0.250000000
     0.500000000  0.500000000  0.250000000
     0.500000000  0.750000000  0.000000000
     0.750000000  0.500000000  0.000000000
     0.750000000  0.750000000  0.750000000
     0.500000000  0.500000000  0.750000000
     0.500000000  0.750000000  0.500000000
     0.750000000  0.500000000  0.500000000

  ion indices of the primitive-cell ions
   primitive index   ion index
                 1           1
                 2           2
                 3           3
                 4           4
                 5           5
                 6           6
                 7           7
                 8           8
                 9           9
                10          10
                11          11
                12          12
                13          13
                14          14
                15          15
                16          16
                17          17
                18          18
                19          19
                20          20
                21          21
                22          22
                23          23
                24          24
                25          25
                26          26
                27          27
                28          28
                29          29
                30          30
                31          31
                32          32
                33          33
                34          34
                35          35
                36          36
                37          37
                38          38
                39          39
                40          40
                41          41
                42          42
                43          43
                44          44
                45          45
                46          46
                47          47
                48          48
                49          49
                50          50
                51          51
                52          52
                53          53
                54          54
                55          55
                56          56
                57          57
                58          58
                59          59
                60          60
                61          61
                62          62
                63          63
                64          64

----------------------------------------------------------------------------------------

 
 
 KPOINTS: KPOINTS created by Atomic Simulation Env

Automatic generation of k-mesh.
 Grid dimensions read from file:
 generate k-points for:    2    2    2

 Generating k-lattice:

  Cartesian coordinates                     Fractional coordinates (reciprocal lattice)
     0.044626910  0.000000000  0.000000000     0.500000000  0.000000000  0.000000000
     0.000000000  0.044626910  0.000000000     0.000000000  0.500000000  0.000000000
     0.000000000  0.000000000  0.044626910     0.000000000  0.000000000  0.500000000

  Length of vectors
     0.044626910  0.044626910  0.044626910

  Shift w.r.t. Gamma in fractional coordinates (k-lattice)
     0.000000000  0.000000000  0.000000000

 
 Subroutine IBZKPT returns following result:
 ===========================================
 
 Found      8 irreducible k-points:
 
 Following reciprocal coordinates:
            Coordinates               Weight
  0.000000  0.000000  0.000000      1.000000
  0.500000  0.000000  0.000000      1.000000
  0.000000  0.500000  0.000000      1.000000
  0.000000  0.000000  0.500000      1.000000
  0.500000  0.500000  0.000000      1.000000
  0.000000  0.500000  0.500000      1.000000
  0.500000  0.000000  0.500000      1.000000
  0.500000  0.500000  0.500000      1.000000
 
 Following cartesian coordinates:
            Coordinates               Weight
  0.000000  0.000000  0.000000      1.000000
  0.044627  0.000000  0.000000      1.000000
  0.000000  0.044627  0.000000      1.000000
  0.000000  0.000000  0.044627      1.000000
  0.044627  0.044627  0.000000      1.000000
  0.000000  0.044627  0.044627      1.000000
  0.044627  0.000000  0.044627      1.000000
  0.044627  0.044627  0.044627      1.000000
 


--------------------------------------------------------------------------------------------------------




 Dimension of arrays:
   k-points           NKPTS =      8   k-points in BZ     NKDIM =      8   number of bands    NBANDS=    288
   number of dos      NEDOS =    301   number of ions     NIONS =     64
   non local maximal  LDIM  =      4   non local SUM 2l+1 LMDIM =      8
   total plane-waves  NPLWV = 343000
   max r-space proj   IRMAX =      1   max aug-charges    IRDMAX=  56280
   dimension x,y,z NGX =    70 NGY =   70 NGZ =   70
   dimension x,y,z NGXF=   140 NGYF=  140 NGZF=  140
   support grid    NGXF=   280 NGYF=  280 NGZF=  280
   ions per type =              32  32
   NGX,Y,Z   is equivalent  to a cutoff of  10.39, 10.39, 10.39 a.u.
   NGXF,Y,Z  is equivalent  to a cutoff of  20.77, 20.77, 20.77 a.u.

 SYSTEM =  unknown system                          
 POSCAR =  Na Cl                                   

 Startparameter for this run:
   NWRITE =      2    write-flag & timer
   PREC   = accura    normal or accurate (medium, high low for compatibility)
   ISTART =      0    job   : 0-new  1-cont  2-samecut
   ICHARG =      2    charge: 1-file 2-atom 10-const
   ISPIN  =      1    spin polarized calculation?
   LNONCOLLINEAR =      F non collinear calculations
   LSORBIT =      F    spin-orbit coupling
   INIWAV =      1    electr: 0-lowe 1-rand  2-diag
   LASPH  =      F    aspherical Exc in radial PAW
 Electronic Relaxation 1
   ENCUT  =  341.2 eV  25.08 Ry    5.01 a.u.  16.87 16.87 16.87*2*pi/ulx,y,z
   ENINI  =  341.2     initial cutoff
   ENAUG  =  368.1 eV  augmentation charge cutoff
   NELM   =     60;   NELMIN=  5; NELMDL= -5     # of ELM steps 
   EDIFF  = 0.1E-07   stopping-criterion for ELM
   LREAL  =      F    real-space projection
   NLSPLINE    = F    spline interpolate recip. space projectors
   LCOMPAT=      F    compatible to vasp.4.4
   GGA_COMPAT  = T    GGA compatible to vasp.4.4-vasp.4.6
   LMAXPAW     = -100 max onsite density
   LMAXMIX     =    2 max onsite mixed and CHGCAR
   VOSKOWN=      0    Vosko Wilk Nusair interpolation
   ROPT   =    0.00000   0.00000
 Ionic relaxation
   EDIFFG = 0.1E-06   stopping-criterion for IOM
   NSW    =      0    number of steps for IOM
   NBLOCK =      1;   KBLOCK =      1    inner block; outer block 
   IBRION =     -1    ionic relax: 0-MD 1-quasi-New 2-CG
   NFREE  =      0    steps in history (QN), initial steepest desc. (CG)
   ISIF   =      2    stress and relaxation
   IWAVPR =     10    prediction:  0-non 1-charg 2-wave 3-comb
   ISYM   =      2    0-nonsym 1-usesym 2-fastsym
   LCORR  =      T    Harris-Foulkes like correction to forces

   POTIM  = 0.5000    time-step for ionic-motion
   TEIN   =    0.0    initial temperature
   TEBEG  =    0.0;   TEEND  =   0.0 temperature during run
   SMASS  =  -3.00    Nose mass-parameter (am)
   estimated Nose-frequenzy (Omega)   =  0.10E-29 period in steps = 0.13E+47 mass=  -0.287E-26a.u.
   SCALEE = 1.0000    scale energy and forces
   NPACO  =    256;   APACO  = 10.0  distance and # of slots for P.C.
   PSTRESS=    0.0 pullay stress

  Mass of Ions in am
   POMASS =  22.99 35.45
  Ionic Valenz
   ZVAL   =   7.00  7.00
  Atomic Wigner-Seitz radii
   RWIGS  =  -1.00 -1.00
  virtual crystal weights 
   VCA    =   1.00  1.00
   NELECT =     448.0000    total number of electrons
   NUPDOWN=      -1.0000    fix difference up-down

 DOS related values:
   EMIN   =  10.00;   EMAX   =-10.00  energy-range for DOS
   EFERMI =   0.00
   ISMEAR =     0;   SIGMA  =   0.02  broadening in eV -4-tet -1-fermi 0-gaus

 Electronic relaxation 2 (details)
   IALGO  =     38    algorithm
   LDIAG  =      T    sub-space diagonalisation (order eigenvalues)
   LSUBROT=      F    optimize rotation matrix (better conditioning)
   TURBO    =      0    0=normal 1=particle mesh
   IRESTART =      0    0=no restart 2=restart with 2 vectors
   NREBOOT  =      0    no. of reboots
   NMIN     =      0    reboot dimension
   EREF     =   0.00    reference energy to select bands
   IMIX   =      4    mixing-type and parameters
     AMIX     =   0.40;   BMIX     =  1.00
     AMIX_MAG =   1.60;   BMIX_MAG =  1.00
     AMIN     =   0.10
     WC   =   100.;   INIMIX=   1;  MIXPRE=   1;  MAXMIX= -45

 Intra band minimization:
   WEIMIN = 0.0000     energy-eigenvalue tresh-hold
   EBREAK =  0.87E-11  absolut break condition
   DEPER  =   0.30     relativ break condition  

   TIME   =   0.40     timestep for ELM

  volume/ion in A,a.u.               =      21.98       148.30
  Fermi-wavevector in a.u.,A,eV,Ry     =   1.118049  2.112807 17.007750  1.250034
  Thomas-Fermi vector in A             =   2.254677
 
 Write flags
   LWAVE        =      F    write WAVECAR
   LDOWNSAMPLE  =      F    k-point downsampling of WAVECAR
   LCHARG       =      F    write CHGCAR
   LVTOT        =      F    write LOCPOT, total local potential
   LVHAR        =      F    write LOCPOT, Hartree potential only
   LELF         =      F    write electronic localiz. function (ELF)
   LORBIT       =      0    0 simple, 1 ext, 2 COOP (PROOUT), +10 PAW based schemes


 Dipole corrections
   LMONO  =      F    monopole corrections only (constant potential shift)
   LDIPOL =      F    correct potential (dipole corrections)
   IDIPOL =      0    1-x, 2-y, 3-z, 4-all directions 
   EPSILON=  1.0000000 bulk dielectric constant

 Exchange correlation treatment:
   GGA     =    PS    GGA type
   LEXCH   =    14    internal setting for exchange type
   LIBXC   =     F    Libxc                    
   VOSKOWN =     0    Vosko Wilk Nusair interpolation
   LHFCALC =     F    Hartree Fock is set to
   LHFONE  =     F    Hartree Fock one center treatment
   AEXX    =    0.0000 exact exchange contribution

 Linear response parameters
   LEPSILON=     F    determine dielectric tensor
   LRPA    =     F    only Hartree local field effects (RPA)
   LNABLA  =     F    use nabla operator in PAW spheres
   LVEL    =     F    velocity operator in full k-point grid
   CSHIFT  =0.1000    complex shift for real part using Kramers Kronig
   OMEGAMAX=  -1.0    maximum frequency
   DEG_THRESHOLD= 0.2000000E-02 threshold for treating states as degnerate
   RTIME   =   -0.100 relaxation time in fs
  (WPLASMAI=    0.000 imaginary part of plasma frequency in eV, 0.658/RTIME)
   DFIELD  = 0.0000000 0.0000000 0.0000000 field for delta impulse in time
 
  Optional k-point grid parameters
   LKPOINTS_OPT  =     F    use optional k-point grid
   KPOINTS_OPT_MODE=     1    mode for optional k-point grid
 
 Orbital magnetization related:
   ORBITALMAG=     F  switch on orbital magnetization
   LCHIMAG   =     F  perturbation theory with respect to B field
   DQ        =  0.001000  dq finite difference perturbation B field
   LLRAUG    =     F  two centre corrections for induced B field



--------------------------------------------------------------------------------------------------------


 Static calculation
 charge density and potential will be updated during run
 non-spin polarized calculation
 Variant of blocked Davidson
 Davidson routine will perform the subspace rotation
 perform sub-space diagonalisation
    after iterative eigenvector-optimisation
 modified Broyden-mixing scheme, WC =      100.0
 initial mixing is a Kerker type mixing with AMIX =  0.4000 and BMIX =      1.0000
 Hartree-type preconditioning will be used
 using additional bands           64
 reciprocal scheme for non local part
 use partial core corrections
 calculate Harris-corrections to forces 
   (improved forces if not selfconsistent)
 use gradient corrections 
 use of overlap-Matrix (Vanderbilt PP)
 Gauss-broadening in eV      SIGMA  =   0.02


--------------------------------------------------------------------------------------------------------


  energy-cutoff  :      341.21
  volume of cell :     1406.43
      direct lattice vectors                 reciprocal lattice vectors
    11.204002360  0.000000000  0.000000000     0.089253819  0.000000000  0.000000000
     0.000000000 11.204002360  0.000000000     0.000000000  0.089253819  0.000000000
     0.000000000  0.000000000 11.204002360     0.000000000  0.000000000  0.089253819

  length of vectors
    11.204002360 11.204002360 11.204002360     0.089253819  0.089253819  0.089253819


 
 k-points in units of 2pi/SCALE and weight: KPOINTS created by Atomic Simulation Env
   0.00000000  0.00000000  0.00000000       0.125
   0.04462691  0.00000000  0.00000000       0.125
   0.00000000  0.04462691  0.00000000       0.125
   0.00000000  0.00000000  0.04462691       0.125
   0.04462691  0.04462691  0.00000000       0.125
   0.00000000  0.04462691  0.04462691       0.125
   0.04462691  0.00000000  0.04462691       0.125
   0.04462691  0.04462691  0.04462691       0.125
 
 k-points in reciprocal lattice and weights: KPOINTS created by Atomic Simulation Env
   0.00000000  0.00000000  0.00000000       0.125
   0.50000000  0.00000000  0.00000000       0.125
   0.00000000  0.50000000  0.00000000       0.125
   0.00000000  0.00000000  0.50000000       0.125
   0.50000000  0.50000000  0.00000000       0.125
   0.00000000  0.50000000  0.50000000       0.125
   0.50000000  0.00000000  0.50000000       0.125
   0.50000000  0.50000000  0.50000000       0.125
 
 position of ions in fractional coordinates (direct lattice) 
   0.00267761  0.00000000  0.00000000
   0.25267761  0.25000000  0.00000000
   0.25000000  0.00000000  0.25000000
   0.00000000  0.25000000  0.25000000
   0.00000000  0.00000000  0.50000000
   0.25000000  0.25000000  0.50000000
   0.25000000  0.00000000  0.75000000
   0.00000000  0.25000000  0.75000000
   0.00000000  0.50000000  0.00000000
   0.25000000  0.75000000  0.00000000
   0.25000000  0.50000000  0.25000000
   0.00000000  0.75000000  0.25000000
   0.00000000  0.50000000  0.50000000
   0.25000000  0.75000000  0.50000000
   0.25000000  0.50000000  0.75000000
   0.00000000  0.75000000  0.75000000
   0.50000000  0.00000000  0.00000000
   0.75000000  0.25000000  0.00000000
   0.75000000  0.00000000  0.25000000
   0.50000000  0.25000000  0.25000000
   0.50000000  0.00000000  0.50000000
   0.75000000  0.25000000  0.50000000
   0.75000000  0.00000000  0.75000000
   0.50000000  0.25000000  0.75000000
   0.50000000  0.50000000  0.00000000
   0.75000000  0.75000000  0.00000000
   0.75000000  0.50000000  0.25000000
   0.50000000  0.75000000  0.25000000
   0.50000000  0.50000000  0.50000000
   0.75000000  0.75000000  0.50000000
   0.75000000  0.50000000  0.75000000
   0.50000000  0.75000000  0.75000000
   0.25000000  0.25000000  0.25000000
   0.00000000  0.00000000  0.25000000
   0.00000000  0.25000000  0.00000000
   0.25000000  0.00000000  0.00000000
   0.25000000  0.25000000  0.75000000
   0.00000000  0.00000000  0.75000000
   0.00000000  0.25000000  0.50000000
   0.25000000  0.00000000  0.50000000
   0.25000000  0.75000000  0.25000000
   0.00000000  0.50000000  0.25000000
   0.00000000  0.75000000  0.00000000
   0.25000000  0.50000000  0.00000000
   0.25000000  0.75000000  0.75000000
   0.00000000  0.50000000  0.75000000
   0.00000000  0.75000000  0.50000000
   0.25000000  0.50000000  0.50000000
   0.75000000  0.25000000  0.25000000
   0.50000000  0.00000000  0.25000000
   0.50000000  0.25000000  0.00000000
   0.75000000  0.00000000  0.00000000
   0.75000000  0.25000000  0.75000000
   0.50000000  0.00000000  0.75000000
   0.50000000  0.25000000  0.50000000
   0.75000000  0.00000000  0.50000000
   0.75000000  0.75000000  0.25000000
   0.50000000  0.50000000  0.25000000
   0.50000000  0.75000000  0.00000000
   0.75000000  0.50000000  0.00000000
   0.75000000  0.75000000  0.75000000
   0.50000000  0.50000000  0.75000000
   0.50000000  0.75000000  0.50000000
   0.75000000  0.50000000  0.50000000
 
 position of ions in cartesian coordinates  (Angst):
   0.03000000  0.00000000  0.00000000
   2.83100059  2.80100059  0.00000000
   2.80100059  0.00000000  2.80100059
   0.00000000  2.80100059  2.80100059
   0.00000000  0.00000000  5.60200118
   2.80100059  2.80100059  5.60200118
   2.80100059  0.00000000  8.40300177
   0.00000000  2.80100059  8.40300177
   0.00000000  5.60200118  0.00000000
   2.80100059  8.40300177  0.00000000
   2.80100059  5.60200118  2.80100059
   0.00000000  8.40300177  2.80100059
   0.00000000  5.60200118  5.60200118
   2.80100059  8.40300177  5.60200118
   2.80100059  5.60200118  8.40300177
   0.00000000  8.40300177  8.40300177
   5.60200118  0.00000000  0.00000000
   8.40300177  2.80100059  0.00000000
   8.40300177  0.00000000  2.80100059
   5.60200118  2.80100059  2.80100059
   5.60200118  0.00000000  5.60200118
   8.40300177  2.80100059  5.60200118
   8.40300177  0.00000000  8.40300177
   5.60200118  2.80100059  8.40300177
   5.60200118  5.60200118  0.00000000
   8.40300177  8.40300177  0.00000000
   8.40300177  5.60200118  2.80100059
   5.60200118  8.40300177  2.80100059
   5.60200118  5.60200118  5.60200118
   8.40300177  8.40300177  5.60200118
   8.40300177  5.60200118  8.40300177
   5.60200118  8.40300177  8.40300177
   2.80100059  2.80100059  2.80100059
   0.00000000  0.00000000  2.80100059
   0.00000000  2.80100059  0.00000000
   2.80100059  0.00000000  0.00000000
   2.80100059  2.80100059  8.40300177
   0.00000000  0.00000000  8.40300177
   0.00000000  2.80100059  5.60200118
   2.80100059  0.00000000  5.60200118
   2.80100059  8.40300177  2.80100059
   0.00000000  5.60200118  2.80100059
   0.00000000  8.40300177  0.00000000
   2.80100059  5.60200118  0.00000000
   2.80100059  8.40300177  8.40300177
   0.00000000  5.60200118  8.40300177
   0.00000000  8.40300177  5.60200118
   2.80100059  5.60200118  5.60200118
   8.40300177  2.80100059  2.80100059
   5.60200118  0.00000000  2.80100059
   5.60200118  2.80100059  0.00000000
   8.40300177  0.00000000  0.00000000
   8.40300177  2.80100059  8.40300177
   5.60200118  0.00000000  8.40300177
   5.60200118  2.80100059  5.60200118
   8.40300177  0.00000000  5.60200118
   8.40300177  8.40300177  2.80100059
   5.60200118  5.60200118  2.80100059
   5.60200118  8.40300177  0.00000000
   8.40300177  5.60200118  0.00000000
   8.40300177  8.40300177  8.40300177
   5.60200118  5.60200118  8.40300177
   5.60200118  8.40300177  5.60200118
   8.40300177  5.60200118  5.60200118
 


--------------------------------------------------------------------------------------------------------


 k-point   1 :   0.0000 0.0000 0.0000  plane waves:   20005
 k-point   2 :   0.5000 0.0000 0.0000  plane waves:   20138
 k-point   3 :   0.0000 0.5000 0.0000  plane waves:   20138
 k-point   4 :   0.0000 0.0000 0.5000  plane waves:   20138
 k-point   5 :   0.5000 0.5000 0.0000  plane waves:   20160
 k-point   6 :   0.0000 0.5000 0.5000  plane waves:   20160
 k-point   7 :   0.5000 0.0000 0.5000  plane waves:   20160
 k-point   8 :   0.5000 0.5000 0.5000  plane waves:   20336

 maximum and minimum number of plane-waves per node :     20336    20005

 maximum number of plane-waves:     20336
 maximum index in each direction: 
   IXMAX=   16   IYMAX=   16   IZMAX=   16
   IXMIN=  -17   IYMIN=  -17   IZMIN=  -17


 serial   3D FFT for wavefunctions
 parallel 3D FFT for charge:
    minimum data exchange during FFTs selected (reduces bandwidth)


 total amount of memory used by VASP MPI-rank0   129658. kBytes
=======================================================================

   base      :      30000. kBytes
   nonl-proj :      41680. kBytes
   fftplans  :      14405. kBytes
   grid      :      19342. kBytes
   one-center:        196. kBytes
   wavefun   :      24035. kBytes
 
     INWAV:  cpu time      0.0000: real time      0.0000
 Broyden mixing: mesh for mixing (old mesh)
   NGX = 33   NGY = 33   NGZ = 33
  (NGX  =140   NGY  =140   NGZ  =140)
  gives a total of  35937 points

 initial charge density was supplied:
 charge density of overlapping atoms calculated
 number of electron     448.0000000 magnetization 
 keeping initial charge density in first step


--------------------------------------------------------------------------------------------------------


 Maximum index for augmentation-charges         1834 (set IRDMAX)


--------------------------------------------------------------------------------------------------------


 First call to EWALD:  gamma=   0.158
 Maximum number of real-space cells 3x 3x 3
 Maximum number of reciprocal cells 3x 3x 3

    FEWALD:  cpu time      0.0014: real time      0.0015


--------------------------------------- Iteration      1(   1)  ---------------------------------------


    POTLOK:  cpu time      0.0431: real time      0.0553
    SETDIJ:  cpu time      0.0319: real time      0.0348
     EDDAV:  cpu time      9.4162: real time      9.5197
       DOS:  cpu time      0.0011: real time      0.0028
    --------------------------------------------
      LOOP:  cpu time      9.4923: real time      9.6126

 eigenvalue-minimisations  :  4608
 total energy-change (2. order) : 0.4321779E+04  (-0.1716440E+05)
 number of electron     448.0000000 magnetization 
 augmentation part      448.0000000 magnetization 

 Free energy of the ion-electron system (eV)
  ---------------------------------------------------
  alpha Z        PSCENC =       751.52672365
  Ewald energy   TEWEN  =    -22871.34769693
  -Hartree energ DENC   =     -8992.23772737
  -exchange      EXHF   =         0.00000000
  -V(xc)+E(xc)   XCENC  =      1456.53422166
  PAW double counting   =     26466.43774078   -29286.08056155
  entropy T*S    EENTRO =        -0.00310308
  eigenvalues    EBANDS =      -735.22957253
  atomic energy  EATOM  =     37532.17946992
  Solvation  Ediel_sol  =         0.00000000
  ---------------------------------------------------
  free energy    TOTEN  =      4321.77949456 eV

  energy without entropy =     4321.78259765  energy(sigma->0) =     4321.78104610


--------------------------------------------------------------------------------------------------------




--------------------------------------- Iteration      1(   2)  ---------------------------------------


     EDDAV:  cpu time     10.2446: real time     10.3026
       DOS:  cpu time      0.0002: real time      0.0002
    --------------------------------------------
      LOOP:  cpu time     10.2447: real time     10.3027

 eigenvalue-minimisations  :  5120
 total energy-change (2. order) :-0.3957831E+04  (-0.3765585E+04)
 number of electron     448.0000000 magnetization 
 augmentation part      448.0000000 magnetization 

 Free energy of the ion-electron system (eV)
  ---------------------------------------------------
  alpha Z        PSCENC =       751.52672365
  Ewald energy   TEWEN  =    -22871.34769693
  -Hartree energ DENC   =     -8992.23772737
  -exchange      EXHF   =         0.00000000
  -V(xc)+E(xc)   XCENC  =      1456.53422166
  PAW double counting   =     26466.43774078   -29286.08056155
  entropy T*S    EENTRO =        -0.00000000
  eigenvalues    EBANDS =     -4693.06400976
  atomic energy  EATOM  =     37532.17946992
  Solvation  Ediel_sol  =         0.00000000
  ---------------------------------------------------
  free energy    TOTEN  =       363.94816042 eV

  energy without entropy =      363.94816042  energy(sigma->0) =      363.94816042


--------------------------------------------------------------------------------------------------------




--------------------------------------- Iteration      1(   3)  ---------------------------------------


     EDDAV:  cpu time     11.0151: real time     11.0788
       DOS:  cpu time      0.0002: real time      0.0002
    --------------------------------------------
      LOOP:  cpu time     11.0153: real time     11.0790

 eigenvalue-minimisations  :  5600
 total energy-change (2. order) :-0.5701096E+03  (-0.5658426E+03)
 number of electron     448.0000000 magnetization 
 augmentation part      448.0000000 magnetization 

 Free energy of the ion-electron system (eV)
  ---------------------------------------------------
  alpha Z        PSCENC =       751.52672365
  Ewald energy   TEWEN  =    -22871.34769693
  -Hartree energ DENC   =     -8992.23772737
  -exchange      EXHF   =         0.00000000
  -V(xc)+E(xc)   XCENC  =      1456.53422166
  PAW double counting   =     26466.43774078   -29286.08056155
  entropy T*S    EENTRO =        -0.00000000
  eigenvalues    EBANDS =     -5263.17356088
  atomic energy  EATOM  =     37532.17946992
  Solvation  Ediel_sol  =         0.00000000
  ---------------------------------------------------
  free energy    TOTEN  =      -206.16139070 eV

  energy without entropy =     -206.16139070  energy(sigma->0) =     -206.16139070


--------------------------------------------------------------------------------------------------------




--------------------------------------- Iteration      1(   4)  ---------------------------------------


     EDDAV:  cpu time     10.9897: real time     11.0551
       DOS:  cpu time      0.0002: real time      0.0002
    --------------------------------------------
      LOOP:  cpu time     10.9900: real time     11.0553

 eigenvalue-minimisations  :  5568
 total energy-change (2. order) :-0.2203013E+02  (-0.2192848E+02)
 number of electron     448.0000000 magnetization 
 augmentation part      448.0000000 magnetization 

 Free energy of the ion-electron system (eV)
  ---------------------------------------------------
  alpha Z        PSCENC =       751.52672365
  Ewald energy   TEWEN  =    -22871.34769693
  -Hartree energ DENC   =     -8992.23772737
  -exchange      EXHF   =         0.00000000
  -V(xc)+E(xc)   XCENC  =      1456.53422166
  PAW double counting   =     26466.43774078   -29286.08056155
  entropy T*S    EENTRO =        -0.00000000
  eigenvalues    EBANDS =     -5285.20368954
  atomic energy  EATOM  =     37532.17946992
  Solvation  Ediel_sol  =         0.00000000
  ---------------------------------------------------
  free energy    TOTEN  =      -228.19151937 eV

  energy without entropy =     -228.19151937  energy(sigma->0) =     -228.19151937


--------------------------------------------------------------------------------------------------------




--------------------------------------- Iteration      1(   5)  ---------------------------------------


     EDDAV:  cpu time     11.0152: real time     11.0761
       DOS:  cpu time      0.0002: real time      0.0002
    CHARGE:  cpu time      0.3369: real time      0.3389
    MIXING:  cpu time      0.0012: real time      0.0024
    --------------------------------------------
      LOOP:  cpu time     11.3536: real time     11.4176

 eigenvalue-minimisations  :  5600
 total energy-change (2. order) :-0.8124436E+00  (-0.8111054E+00)
 number of electron     448.0000022 magnetization 
 augmentation part      111.6516177 magnetization 

 Broyden mixing:
  rms(total) = 0.10608E+01    rms(broyden)= 0.10604E+01
  rms(prec ) = 0.14938E+01
  weight for this iteration     100.00

 Free energy of the ion-electron system (eV)
  ---------------------------------------------------
  alpha Z        PSCENC =       751.52672365
  Ewald energy   TEWEN  =    -22871.34769693
  -Hartree energ DENC   =     -8992.23772737
  -exchange      EXHF   =         0.00000000
  -V(xc)+E(xc)   XCENC  =      1456.53422166
  PAW double counting   =     26466.43774078   -29286.08056155
  entropy T*S    EENTRO =        -0.00000000
  eigenvalues    EBANDS =     -5286.01613316
  atomic energy  EATOM  =     37532.17946992
  Solvation  Ediel_sol  =         0.00000000
  ---------------------------------------------------
  free energy    TOTEN  =      -229.00396298 eV

  energy without entropy =     -229.00396298  energy(sigma->0) =     -229.00396298


--------------------------------------------------------------------------------------------------------




--------------------------------------- Iteration      1(   6)  ---------------------------------------


    POTLOK:  cpu time      0.0364: real time      0.0367
    SETDIJ:  cpu time      0.0296: real time      0.0297
     EDDAV:  cpu time     11.2388: real time     11.3007
       DOS:  cpu time      0.0002: real time      0.0002
    CHARGE:  cpu time      0.3375: real time      0.3392
    MIXING:  cpu time      0.0013: real time      0.0013
    --------------------------------------------
      LOOP:  cpu time     11.6438: real time     11.7077

 eigenvalue-minimisations  :  5728
 total energy-change (2. order) : 0.4865110E+01  (-0.9477316E+00)
 number of electron     448.0000022 magnetization 
 augmentation part      112.4551180 magnetization 

 Broyden mixing:
  rms(total) = 0.77599E+00    rms(broyden)= 0.77593E+00
  rms(prec ) = 0.89200E+00
  weight for this iteration     100.00

 eigenvalues of (default mixing * dielectric matrix)
  average eigenvalue GAMMA=   1.0745
  1.0745

 Free energy of the ion-electron system (eV)
  ---------------------------------------------------
  alpha Z        PSCENC =       751.52672365
  Ewald energy   TEWEN  =    -22871.34769693
  -Hartree energ DENC   =     -9061.95246600
  -exchange      EXHF   =         0.00000000
  -V(xc)+E(xc)   XCENC  =      1465.44394979
  PAW double counting   =     27291.10372252   -30103.23841912
  entropy T*S    EENTRO =        -0.00000000
  eigenvalues    EBANDS =     -5227.85413708
  atomic energy  EATOM  =     37532.17946992
  Solvation  Ediel_sol  =         0.00000000
  ---------------------------------------------------
  free energy    TOTEN  =      -224.13885324 eV

  energy without entropy =     -224.13885324  energy(sigma->0) =     -224.13885324


--------------------------------------------------------------------------------------------------------




--------------------------------------- Iteration      1(   7)  ---------------------------------------


    POTLOK:  cpu time      0.0362: real time      0.0366
    SETDIJ:  cpu time      0.0300: real time      0.0301
     EDDAV:  cpu time     12.0395: real time     12.1054
       DOS:  cpu time      0.0002: real time      0.0002
    CHARGE:  cpu time      0.3372: real time      0.3389
    MIXING:  cpu time      0.0014: real time      0.0014
    --------------------------------------------
      LOOP:  cpu time     12.4446: real time     12.5127

 eigenvalue-minimisations  :  6240
 total energy-change (2. order) : 0.3612592E+00  (-0.2067625E+00)
 number of electron     448.0000022 magnetization 
 augmentation part      112.8267338 magnetization 

 Broyden mixing:
  rms(total) = 0.53317E+00    rms(broyden)= 0.53315E+00
  rms(prec ) = 0.56317E+00
  weight for this iteration     100.00

 eigenvalues of (default mixing * dielectric matrix)
  average eigenvalue GAMMA=   2.1536
  1.4390  2.8683

 Free energy of the ion-electron system (eV)
  ---------------------------------------------------
  alpha Z        PSCENC =       751.52672365
  Ewald energy   TEWEN  =    -22871.34769693
  -Hartree energ DENC   =     -9085.85308444
  -exchange      EXHF   =         0.00000000
  -V(xc)+E(xc)   XCENC  =      1470.12680690
  PAW double counting   =     28329.69927248   -31142.42455326
  entropy T*S    EENTRO =        -0.00000000
  eigenvalues    EBANDS =     -5207.68453237
  atomic energy  EATOM  =     37532.17946992
  Solvation  Ediel_sol  =         0.00000000
  ---------------------------------------------------
  free energy    TOTEN  =      -223.77759404 eV

  energy without entropy =     -223.77759404  energy(sigma->0) =     -223.77759404


--------------------------------------------------------------------------------------------------------




--------------------------------------- Iteration      1(   8)  ---------------------------------------


    POTLOK:  cpu time      0.0359: real time      0.0364
    SETDIJ:  cpu time      0.0302: real time      0.0303
     EDDAV:  cpu time     10.6381: real time     10.6963
       DOS:  cpu time      0.0003: real time      0.0003
    CHARGE:  cpu time      0.3396: real time      0.3415
    MIXING:  cpu time      0.0016: real time      0.0032
    --------------------------------------------
      LOOP:  cpu time     11.0458: real time     11.1080

 eigenvalue-minimisations  :  5344
 total energy-change (2. order) :-0.1252171E+00  (-0.2655194E-01)
 number of electron     448.0000022 magnetization 
 augmentation part      112.8096675 magnetization 

 Broyden mixing:
  rms(total) = 0.14118E+00    rms(broyden)= 0.14118E+00
  rms(prec ) = 0.14406E+00
  weight for this iteration     100.00

 eigenvalues of (default mixing * dielectric matrix)
  average eigenvalue GAMMA=   1.5565
  2.5187  1.3844  0.7663

 Free energy of the ion-electron system (eV)
  ---------------------------------------------------
  alpha Z        PSCENC =       751.52672365
  Ewald energy   TEWEN  =    -22871.34769693
  -Hartree energ DENC   =     -9075.21586122
  -exchange      EXHF   =         0.00000000
  -V(xc)+E(xc)   XCENC  =      1472.33763394
  PAW double counting   =     29808.08488208   -32627.89801081
  entropy T*S    EENTRO =        -0.00000000
  eigenvalues    EBANDS =     -5213.56995181
  atomic energy  EATOM  =     37532.17946992
  Solvation  Ediel_sol  =         0.00000000
  ---------------------------------------------------
  free energy    TOTEN  =      -223.90281119 eV

  energy without entropy =     -223.90281119  energy(sigma->0) =     -223.90281119


--------------------------------------------------------------------------------------------------------




--------------------------------------- Iteration      1(   9)  ---------------------------------------


    POTLOK:  cpu time      0.0364: real time      0.0372
    SETDIJ:  cpu time      0.0303: real time      0.0304
     EDDAV:  cpu time     11.1314: real time     11.1925
       DOS:  cpu time      0.0003: real time      0.0003
    CHARGE:  cpu time      0.3461: real time      0.3482
    MIXING:  cpu time      0.0014: real time      0.0014
    --------------------------------------------
      LOOP:  cpu time     11.5459: real time     11.6100

 eigenvalue-minimisations  :  5664
 total energy-change (2. order) : 0.5516447E-02  (-0.1138288E-02)
 number of electron     448.0000022 magnetization 
 augmentation part      112.8317751 magnetization 

 Broyden mixing:
  rms(total) = 0.59402E-01    rms(broyden)= 0.59401E-01
  rms(prec ) = 0.61479E-01
  weight for this iteration     100.00

 eigenvalues of (default mixing * dielectric matrix)
  average eigenvalue GAMMA=   2.0195
  2.9788  2.7103  0.9964  1.3925

 Free energy of the ion-electron system (eV)
  ---------------------------------------------------
  alpha Z        PSCENC =       751.52672365
  Ewald energy   TEWEN  =    -22871.34769693
  -Hartree energ DENC   =     -9077.95899945
  -exchange      EXHF   =         0.00000000
  -V(xc)+E(xc)   XCENC  =      1472.35692362
  PAW double counting   =     29628.49742784   -32447.47121847
  entropy T*S    EENTRO =        -0.00000000
  eigenvalues    EBANDS =     -5211.67992494
  atomic energy  EATOM  =     37532.17946992
  Solvation  Ediel_sol  =         0.00000000
  ---------------------------------------------------
  free energy    TOTEN  =      -223.89729474 eV

  energy without entropy =     -223.89729474  energy(sigma->0) =     -223.89729474


--------------------------------------------------------------------------------------------------------




--------------------------------------- Iteration      1(  10)  ---------------------------------------


    POTLOK:  cpu time      0.0365: real time      0.0414
    SETDIJ:  cpu time      0.0302: real time      0.0303
     EDDAV:  cpu time     10.6879: real time     10.7465
       DOS:  cpu time      0.0002: real time      0.0002
    CHARGE:  cpu time      0.3563: real time      0.3585
    MIXING:  cpu time      0.0018: real time      0.0018
    --------------------------------------------
      LOOP:  cpu time     11.1127: real time     11.1786

 eigenvalue-minimisations  :  5376
 total energy-change (2. order) :-0.4377170E-02  (-0.1867768E-02)
 number of electron     448.0000022 magnetization 
 augmentation part      112.8612043 magnetization 

 Broyden mixing:
  rms(total) = 0.29555E-01    rms(broyden)= 0.29553E-01
  rms(prec ) = 0.31624E-01
  weight for this iteration     100.00

 eigenvalues of (default mixing * dielectric matrix)
  average eigenvalue GAMMA=   1.7107
  2.9403  2.5115  1.2963  1.0205  0.7849

 Free energy of the ion-electron system (eV)
  ---------------------------------------------------
  alpha Z        PSCENC =       751.52672365
  Ewald energy   TEWEN  =    -22871.34769693
  -Hartree energ DENC   =     -9079.43526292
  -exchange      EXHF   =         0.00000000
  -V(xc)+E(xc)   XCENC  =      1472.60949645
  PAW double counting   =     29453.61145879   -32272.85957359
  entropy T*S    EENTRO =        -0.00000000
  eigenvalues    EBANDS =     -5210.18628728
  atomic energy  EATOM  =     37532.17946992
  Solvation  Ediel_sol  =         0.00000000
  ---------------------------------------------------
  free energy    TOTEN  =      -223.90167191 eV

  energy without entropy =     -223.90167191  energy(sigma->0) =     -223.90167191


--------------------------------------------------------------------------------------------------------




--------------------------------------- Iteration      1(  11)  ---------------------------------------


    POTLOK:  cpu time      0.0362: real time      0.0369
    SETDIJ:  cpu time      0.0301: real time      0.0302
     EDDAV:  cpu time     11.2246: real time     11.2868
       DOS:  cpu time      0.0002: real time      0.0002
    CHARGE:  cpu time      0.3396: real time      0.3414
    MIXING:  cpu time      0.0017: real time      0.0017
    --------------------------------------------
      LOOP:  cpu time     11.6324: real time     11.6972

 eigenvalue-minimisations  :  5728
 total energy-change (2. order) : 0.7730112E-03  (-0.1745828E-03)
 number of electron     448.0000022 magnetization 
 augmentation part      112.8513686 magnetization 

 Broyden mixing:
  rms(total) = 0.81007E-02    rms(broyden)= 0.81006E-02
  rms(prec ) = 0.84951E-02
  weight for this iteration     100.00

 eigenvalues of (default mixing * dielectric matrix)
  average eigenvalue GAMMA=   1.5901
  2.9099  2.4246  1.3271  1.0092  0.9349  0.9349

 Free energy of the ion-electron system (eV)
  ---------------------------------------------------
  alpha Z        PSCENC =       751.52672365
  Ewald energy   TEWEN  =    -22871.34769693
  -Hartree energ DENC   =     -9078.30344622
  -exchange      EXHF   =         0.00000000
  -V(xc)+E(xc)   XCENC  =      1472.52793016
  PAW double counting   =     29488.03902617   -32307.42472922
  entropy T*S    EENTRO =        -0.00000000
  eigenvalues    EBANDS =     -5211.09817643
  atomic energy  EATOM  =     37532.17946992
  Solvation  Ediel_sol  =         0.00000000
  ---------------------------------------------------
  free energy    TOTEN  =      -223.90089890 eV

  energy without entropy =     -223.90089890  energy(sigma->0) =     -223.90089890


--------------------------------------------------------------------------------------------------------




--------------------------------------- Iteration      1(  12)  ---------------------------------------


    POTLOK:  cpu time      0.0360: real time      0.0366
    SETDIJ:  cpu time      0.0297: real time      0.0298
     EDDAV:  cpu time     11.4209: real time     11.4849
       DOS:  cpu time      0.0002: real time      0.0002
    CHARGE:  cpu time      0.3417: real time      0.3435
    MIXING:  cpu time      0.0020: real time      0.0020
    --------------------------------------------
      LOOP:  cpu time     11.8305: real time     11.8969

 eigenvalue-minimisations  :  5856
 total energy-change (2. order) : 0.3454989E-04  (-0.1546814E-04)
 number of electron     448.0000022 magnetization 
 augmentation part      112.8485161 magnetization 

 Broyden mixing:
  rms(total) = 0.96529E-03    rms(broyden)= 0.96398E-03
  rms(prec ) = 0.11924E-02
  weight for this iteration     100.00

 eigenvalues of (default mixing * dielectric matrix)
  average eigenvalue GAMMA=   1.6553
  2.8891  2.4844  1.9667  1.1734  1.1734  1.0579  0.8425

 Free energy of the ion-electron system (eV)
  ---------------------------------------------------
  alpha Z        PSCENC =       751.52672365
  Ewald energy   TEWEN  =    -22871.34769693
  -Hartree energ DENC   =     -9078.14384754
  -exchange      EXHF   =         0.00000000
  -V(xc)+E(xc)   XCENC  =      1472.51654831
  PAW double counting   =     29499.90265050   -32319.28170326
  entropy T*S    EENTRO =        -0.00000000
  eigenvalues    EBANDS =     -5211.25300901
  atomic energy  EATOM  =     37532.17946992
  Solvation  Ediel_sol  =         0.00000000
  ---------------------------------------------------
  free energy    TOTEN  =      -223.90086435 eV

  energy without entropy =     -223.90086435  energy(sigma->0) =     -223.90086435


--------------------------------------------------------------------------------------------------------




--------------------------------------- Iteration      1(  13)  ---------------------------------------


    POTLOK:  cpu time      0.0359: real time      0.0362
    SETDIJ:  cpu time      0.0300: real time      0.0301
     EDDAV:  cpu time     10.8398: real time     10.8997
       DOS:  cpu time      0.0004: real time      0.0004
    CHARGE:  cpu time      0.3402: real time      0.3422
    MIXING:  cpu time      0.0013: real time      0.0013
    --------------------------------------------
      LOOP:  cpu time     11.2475: real time     11.3099

 eigenvalue-minimisations  :  5472
 total energy-change (2. order) :-0.5849994E-05  (-0.1341771E-05)
 number of electron     448.0000022 magnetization 
 augmentation part      112.8478362 magnetization 

 Broyden mixing:
  rms(total) = 0.23995E-03    rms(broyden)= 0.23939E-03
  rms(prec ) = 0.28892E-03
  weight for this iteration     100.00

 eigenvalues of (default mixing * dielectric matrix)
  average eigenvalue GAMMA=   1.6417
  2.9836  2.4267  2.4267  1.2577  0.9858  0.9858  1.0337  1.0337

 Free energy of the ion-electron system (eV)
  ---------------------------------------------------
  alpha Z        PSCENC =       751.52672365
  Ewald energy   TEWEN  =    -22871.34769693
  -Hartree energ DENC   =     -9078.10405536
  -exchange      EXHF   =         0.00000000
  -V(xc)+E(xc)   XCENC  =      1472.51096527
  PAW double counting   =     29498.23806580   -32317.60800239
  entropy T*S    EENTRO =        -0.00000000
  eigenvalues    EBANDS =     -5211.29634018
  atomic energy  EATOM  =     37532.17946992
  Solvation  Ediel_sol  =         0.00000000
  ---------------------------------------------------
  free energy    TOTEN  =      -223.90087020 eV

  energy without entropy =     -223.90087020  energy(sigma->0) =     -223.90087020


--------------------------------------------------------------------------------------------------------




--------------------------------------- Iteration      1(  14)  ---------------------------------------


    POTLOK:  cpu time      0.0366: real time      0.0370
    SETDIJ:  cpu time      0.0302: real time      0.0304
     EDDAV:  cpu time     11.9236: real time     11.9897
       DOS:  cpu time      0.0002: real time      0.0002
    CHARGE:  cpu time      0.3369: real time      0.3389
    MIXING:  cpu time      0.0014: real time      0.0014
    --------------------------------------------
      LOOP:  cpu time     12.3290: real time     12.3976

 eigenvalue-minimisations  :  6144
 total energy-change (2. order) : 0.3014720E-06  (-0.1444078E-06)
 number of electron     448.0000022 magnetization 
 augmentation part      112.8476633 magnetization 

 Broyden mixing:
  rms(total) = 0.89339E-03    rms(broyden)= 0.89334E-03
  rms(prec ) = 0.91686E-03
  weight for this iteration     100.00

 eigenvalues of (default mixing * dielectric matrix)
  average eigenvalue GAMMA=   1.6545
  3.0389  2.6112  2.6112  1.4321  1.2543  1.2543  0.9466  0.9466  0.7948

 Free energy of the ion-electron system (eV)
  ---------------------------------------------------
  alpha Z        PSCENC =       751.52672365
  Ewald energy   TEWEN  =    -22871.34769693
  -Hartree energ DENC   =     -9078.10861831
  -exchange      EXHF   =         0.00000000
  -V(xc)+E(xc)   XCENC  =      1472.51194810
  PAW double counting   =     29499.97578970   -32319.34477132
  entropy T*S    EENTRO =        -0.00000000
  eigenvalues    EBANDS =     -5211.29371472
  atomic energy  EATOM  =     37532.17946992
  Solvation  Ediel_sol  =         0.00000000
  ---------------------------------------------------
  free energy    TOTEN  =      -223.90086990 eV

  energy without entropy =     -223.90086990  energy(sigma->0) =     -223.90086990


--------------------------------------------------------------------------------------------------------




--------------------------------------- Iteration      1(  15)  ---------------------------------------


    POTLOK:  cpu time      0.0361: real time      0.0368
    SETDIJ:  cpu time      0.0302: real time      0.0304
     EDDAV:  cpu time      9.5947: real time      9.6468
       DOS:  cpu time      0.0003: real time      0.0003
    CHARGE:  cpu time      0.3375: real time      0.3392
    MIXING:  cpu time      0.0017: real time      0.0017
    --------------------------------------------
      LOOP:  cpu time     10.0005: real time     10.0551

 eigenvalue-minimisations  :  4672
 total energy-change (2. order) :-0.1179469E-05  (-0.5403836E-07)
 number of electron     448.0000022 magnetization 
 augmentation part      112.8477779 magnetization 

 Broyden mixing:
  rms(total) = 0.30304E-03    rms(broyden)= 0.30297E-03
  rms(prec ) = 0.31062E-03
  weight for this iteration     100.00

 eigenvalues of (default mixing * dielectric matrix)
  average eigenvalue GAMMA=   1.6307
  3.1242  2.8093  2.3574  1.3911  1.3911  1.4025  1.0204  1.0204  0.8952  0.8952

 Free energy of the ion-electron system (eV)
  ---------------------------------------------------
  alpha Z        PSCENC =       751.52672365
  Ewald energy   TEWEN  =    -22871.34769693
  -Hartree energ DENC   =     -9078.13769329
  -exchange      EXHF   =         0.00000000
  -V(xc)+E(xc)   XCENC  =      1472.51306377
  PAW double counting   =     29498.89522493   -32318.26170282
  entropy T*S    EENTRO =        -0.00000000
  eigenvalues    EBANDS =     -5211.26826031
  atomic energy  EATOM  =     37532.17946992
  Solvation  Ediel_sol  =         0.00000000
  ---------------------------------------------------
  free energy    TOTEN  =      -223.90087108 eV

  energy without entropy =     -223.90087108  energy(sigma->0) =     -223.90087108


--------------------------------------------------------------------------------------------------------




--------------------------------------- Iteration      1(  16)  ---------------------------------------


    POTLOK:  cpu time      0.0369: real time      0.0410
    SETDIJ:  cpu time      0.0301: real time      0.0303
     EDDAV:  cpu time     10.5956: real time     10.6536
       DOS:  cpu time      0.0003: real time      0.0003
    CHARGE:  cpu time      0.3367: real time      0.3385
    MIXING:  cpu time      0.0023: real time      0.0023
    --------------------------------------------
      LOOP:  cpu time     11.0019: real time     11.0660

 eigenvalue-minimisations  :  5280
 total energy-change (2. order) :-0.5647744E-06  (-0.1031276E-07)
 number of electron     448.0000022 magnetization 
 augmentation part      112.8478600 magnetization 

 Broyden mixing:
  rms(total) = 0.28185E-04    rms(broyden)= 0.27495E-04
  rms(prec ) = 0.32742E-04
  weight for this iteration     100.00

 eigenvalues of (default mixing * dielectric matrix)
  average eigenvalue GAMMA=   1.6198
  3.1495  2.7572  2.3741  1.6626  1.6626  1.3011  1.1329  1.1329  0.9521  0.8465
  0.8465

 Free energy of the ion-electron system (eV)
  ---------------------------------------------------
  alpha Z        PSCENC =       751.52672365
  Ewald energy   TEWEN  =    -22871.34769693
  -Hartree energ DENC   =     -9078.14613427
  -exchange      EXHF   =         0.00000000
  -V(xc)+E(xc)   XCENC  =      1472.51325000
  PAW double counting   =     29498.27000148   -32317.63506837
  entropy T*S    EENTRO =        -0.00000000
  eigenvalues    EBANDS =     -5211.26141713
  atomic energy  EATOM  =     37532.17946992
  Solvation  Ediel_sol  =         0.00000000
  ---------------------------------------------------
  free energy    TOTEN  =      -223.90087164 eV

  energy without entropy =     -223.90087164  energy(sigma->0) =     -223.90087164


--------------------------------------------------------------------------------------------------------




--------------------------------------- Iteration      1(  17)  ---------------------------------------


    POTLOK:  cpu time      0.0368: real time      0.0376
    SETDIJ:  cpu time      0.0304: real time      0.0306
     EDDAV:  cpu time      7.5795: real time      7.6212
       DOS:  cpu time      0.0002: real time      0.0002
    CHARGE:  cpu time      0.3426: real time      0.3444
    MIXING:  cpu time      0.0021: real time      0.0021
    --------------------------------------------
      LOOP:  cpu time      7.9916: real time      8.0361

 eigenvalue-minimisations  :  3360
 total energy-change (2. order) : 0.4812318E-07  (-0.4803417E-09)
 number of electron     448.0000022 magnetization 
 augmentation part      112.8478601 magnetization 

 Broyden mixing:
  rms(total) = 0.12275E-04    rms(broyden)= 0.10666E-04
  rms(prec ) = 0.15789E-04
  weight for this iteration     100.00
  WARNING: grid for Broyden might be to small

 eigenvalues of (default mixing * dielectric matrix)
  average eigenvalue GAMMA=   1.6001
  3.1767  2.8465  2.2673  1.7872  1.7872  1.2254  1.2254  1.2752  0.9310  0.8602
  0.9093  0.9093

 Free energy of the ion-electron system (eV)
  ---------------------------------------------------
  alpha Z        PSCENC =       751.52672365
  Ewald energy   TEWEN  =    -22871.34769693
  -Hartree energ DENC   =     -9078.14668199
  -exchange      EXHF   =         0.00000000
  -V(xc)+E(xc)   XCENC  =      1472.51327477
  PAW double counting   =     29498.26628001   -32317.63116405
  entropy T*S    EENTRO =        -0.00000000
  eigenvalues    EBANDS =     -5211.26107698
  atomic energy  EATOM  =     37532.17946992
  Solvation  Ediel_sol  =         0.00000000
  ---------------------------------------------------
  free energy    TOTEN  =      -223.90087159 eV

  energy without entropy =     -223.90087159  energy(sigma->0) =     -223.90087159


--------------------------------------------------------------------------------------------------------




--------------------------------------- Iteration      1(  18)  ---------------------------------------


    POTLOK:  cpu time      0.0370: real time      0.0373
    SETDIJ:  cpu time      0.0307: real time      0.0308
     EDDAV:  cpu time      7.5885: real time      7.6304
       DOS:  cpu time      0.0002: real time      0.0002
    CHARGE:  cpu time      0.3359: real time      0.3376
    MIXING:  cpu time      0.0018: real time      0.0018
    --------------------------------------------
      LOOP:  cpu time      7.9941: real time      8.0382

 eigenvalue-minimisations  :  3360
 total energy-change (2. order) :-0.2054730E-07  (-0.3852870E-09)
 number of electron     448.0000022 magnetization 
 augmentation part      112.8478640 magnetization 

 Broyden mixing:
  rms(total) = 0.19568E-04    rms(broyden)= 0.18602E-04
  rms(prec ) = 0.20153E-04
  weight for this iteration     100.00

 eigenvalues of (default mixing * dielectric matrix)
  average eigenvalue GAMMA=   1.5585
  3.1678  2.8784  2.2431  2.2431  1.2455  1.2455  1.3028  1.1551  1.1551  1.0655
  0.8995  0.8995  0.7596

 Free energy of the ion-electron system (eV)
  ---------------------------------------------------
  alpha Z        PSCENC =       751.52672365
  Ewald energy   TEWEN  =    -22871.34769693
  -Hartree energ DENC   =     -9078.14841927
  -exchange      EXHF   =         0.00000000
  -V(xc)+E(xc)   XCENC  =      1472.51334291
  PAW double counting   =     29498.24341589   -32317.60818720
  entropy T*S    EENTRO =        -0.00000000
  eigenvalues    EBANDS =     -5211.25952059
  atomic energy  EATOM  =     37532.17946992
  Solvation  Ediel_sol  =         0.00000000
  ---------------------------------------------------
  free energy    TOTEN  =      -223.90087161 eV

  energy without entropy =     -223.90087161  energy(sigma->0) =     -223.90087161


--------------------------------------------------------------------------------------------------------




--------------------------------------- Iteration      1(  19)  ---------------------------------------


    POTLOK:  cpu time      0.0365: real time      0.0368
    SETDIJ:  cpu time      0.0307: real time      0.0308
     EDDAV:  cpu time      7.1361: real time      7.1756
       DOS:  cpu time      0.0003: real time      0.0003
    --------------------------------------------
      LOOP:  cpu time      7.2035: real time      7.2435

 eigenvalue-minimisations  :  3072
 total energy-change (2. order) : 0.8330971E-08  (-0.2361349E-09)
 number of electron     448.0000022 magnetization 
 augmentation part      112.8478640 magnetization 

 Free energy of the ion-electron system (eV)
  ---------------------------------------------------
  alpha Z        PSCENC =       751.52672365
  Ewald energy   TEWEN  =    -22871.34769693
  -Hartree energ DENC   =     -9078.14857783
  -exchange      EXHF   =         0.00000000
  -V(xc)+E(xc)   XCENC  =      1472.51335493
  PAW double counting   =     29498.25449090   -32317.61926163
  entropy T*S    EENTRO =        -0.00000000
  eigenvalues    EBANDS =     -5211.25937463
  atomic energy  EATOM  =     37532.17946992
  Solvation  Ediel_sol  =         0.00000000
  ---------------------------------------------------
  free energy    TOTEN  =      -223.90087160 eV

  energy without entropy =     -223.90087160  energy(sigma->0) =     -223.90087160


--------------------------------------------------------------------------------------------------------




 average (electrostatic) potential at core
  the test charge radii are     0.9254  0.9406
  (the norm of the test charge is              1.0000)
       1 -46.9440       2 -46.9553       3 -46.9553       4 -46.9440       5 -46.9483
       6 -46.9508       7 -46.9553       8 -46.9440       9 -46.9439      10 -46.9552
      11 -46.9508      12 -46.9483      13 -46.9484      14 -46.9508      15 -46.9508
      16 -46.9483      17 -46.9553      18 -46.9440      19 -46.9440      20 -46.9553
      21 -46.9508      22 -46.9484      23 -46.9440      24 -46.9553      25 -46.9553
      26 -46.9440      27 -46.9484      28 -46.9509      29 -46.9508      30 -46.9484
      31 -46.9484      32 -46.9509      33 -93.5909      34 -93.5854      35 -93.5649
      36 -93.6115      37 -93.5909      38 -93.5854      39 -93.5873      40 -93.5890
      41 -93.5909      42 -93.5855      43 -93.5872      44 -93.5890      45 -93.5909
      46 -93.5855      47 -93.5872      48 -93.5892      49 -93.5855      50 -93.5910
      51 -93.6117      52 -93.5651      53 -93.5855      54 -93.5910      55 -93.5891
      56 -93.5873      57 -93.5855      58 -93.5910      59 -93.5891      60 -93.5874
      61 -93.5855      62 -93.5910      63 -93.5892      64 -93.5872
 
 
 
 E-fermi :  -0.5509     XC(G=0):  -8.4227     alpha+bet : -8.2520

 Fermi energy:        -0.5509199174

 k-point     1 :       0.0000    0.0000    0.0000
  band No.  band energies     occupation 
      1     -21.3048      2.00000
      2     -21.3048      2.00000
      3     -21.3046      2.00000
      4     -21.3045      2.00000
      5     -21.2960      2.00000
      6     -21.2955      2.00000
      7     -21.2953      2.00000
      8     -21.2949      2.00000
      9     -21.2945      2.00000
     10     -21.2943      2.00000
     11     -21.2941      2.00000
     12     -21.2940      2.00000
     13     -21.2940      2.00000
     14     -21.2935      2.00000
     15     -21.2928      2.00000
     16     -21.2928      2.00000
     17     -21.2925      2.00000
     18     -21.2917      2.00000
     19     -21.2916      2.00000
     20     -21.2886      2.00000
     21     -21.2878      2.00000
     22     -21.2878      2.00000
     23     -21.2876      2.00000
     24     -21.2872      2.00000
     25     -21.2867      2.00000
     26     -21.2864      2.00000
     27     -21.2864      2.00000
     28     -21.2864      2.00000
     29     -21.2860      2.00000
     30     -21.2850      2.00000
     31     -21.2849      2.00000
     32     -21.2845      2.00000
     33     -21.2838      2.00000
     34     -21.2837      2.00000
     35     -21.2834      2.00000
     36     -21.2831      2.00000
     37     -21.2828      2.00000
     38     -21.2827      2.00000
     39     -21.2825      2.00000
     40     -21.2823      2.00000
     41     -21.2817      2.00000
     42     -21.2817      2.00000
     43     -21.2817      2.00000
     44     -21.2816      2.00000
     45     -21.2814      2.00000
     46     -21.2814      2.00000
     47     -21.2814      2.00000
     48     -21.2806      2.00000
     49     -21.2804      2.00000
     50     -21.2803      2.00000
     51     -21.2800      2.00000
     52     -21.2799      2.00000
     53     -21.2798      2.00000
     54     -21.2789      2.00000
     55     -21.2786      2.00000
     56     -21.2780      2.00000
     57     -21.2776      2.00000
     58     -21.2776      2.00000
     59     -21.2768      2.00000
     60     -21.2766      2.00000
     61     -21.2766      2.00000
     62     -21.2756      2.00000
     63     -21.2756      2.00000
     64     -21.2753      2.00000
     65     -21.2752      2.00000
     66     -21.2751      2.00000
     67     -21.2749      2.00000
     68     -21.2748      2.00000
     69     -21.2748      2.00000
     70     -21.2747      2.00000
     71     -21.2745      2.00000
     72     -21.2733      2.00000
     73     -21.2729      2.00000
     74     -21.2728      2.00000
     75     -21.2723      2.00000
     76     -21.2719      2.00000
     77     -21.2716      2.00000
     78     -21.2716      2.00000
     79     -21.2715      2.00000
     80     -21.2712      2.00000
     81     -21.2712      2.00000
     82     -21.2709      2.00000
     83     -21.2703      2.00000
     84     -21.2701      2.00000
     85     -21.2701      2.00000
     86     -21.2699      2.00000
     87     -21.2693      2.00000
     88     -21.2691      2.00000
     89     -21.2688      2.00000
     90     -21.2679      2.00000
     91     -21.2678      2.00000
     92     -21.2676      2.00000
     93     -21.2673      2.00000
     94     -21.2672      2.00000
     95     -21.2669      2.00000
     96     -21.2668      2.00000
     97     -13.3582      2.00000
[...]
         0         1         2         3         4         5         6         7         8         9
 total charge-density along one line
 
 pseudopotential strength for first ion, spin component:           1
-25.383  -0.000   0.000   2.508   0.000  -0.000  -0.000  -0.000
 -0.000 -25.383  -0.000   0.000   2.508   0.000   0.000   0.000
  0.000  -0.000 -25.383  -0.000   0.000   2.508  -0.000  -0.001
  2.508   0.000  -0.000   6.529   0.000   0.000   0.000  -0.000
  0.000   2.508   0.000   0.000   6.529   0.000  -0.000   0.000
 -0.000   0.000   2.508   0.000   0.000   6.529   0.000   0.000
 -0.000   0.000  -0.000   0.000  -0.000   0.000   1.428   6.993
 -0.000   0.000  -0.001  -0.000   0.000   0.000   6.993  33.988
 total augmentation occupancy for first ion, spin component:           1
  2.002   0.000  -0.000   0.002   0.000  -0.000   0.000  -0.000
  0.000   2.002   0.000   0.000   0.002   0.000   0.000   0.000
 -0.000   0.000   2.002  -0.000   0.000   0.002   0.001  -0.000
  0.002   0.000  -0.000   0.017   0.000  -0.000   0.000   0.000
  0.000   0.002   0.000   0.000   0.017   0.000   0.000   0.000
 -0.000   0.000   0.002  -0.000   0.000   0.017   0.003  -0.000
  0.000   0.000   0.001   0.000   0.000   0.003   0.403  -0.001
 -0.000   0.000  -0.000   0.000   0.000  -0.000  -0.001   0.000


------------------------ aborting loop because EDIFF is reached ----------------------------------------


    CHARGE:  cpu time      0.3360: real time      0.3380
    FORLOC:  cpu time      0.0117: real time      0.0117
    FORNL :  cpu time      2.2549: real time      2.2684
    STRESS:  cpu time     12.0365: real time     12.1025
    FORCOR:  cpu time      0.0515: real time      0.0517
    FORHAR:  cpu time      0.0183: real time      0.0184
    MIXING:  cpu time      0.0012: real time      0.0012
    OFIELD:  cpu time      0.0000: real time      0.0000

  FORCE on cell =-STRESS in cart. coord.  units (eV):
  Direction    XX          YY          ZZ          XY          YZ          ZX
  --------------------------------------------------------------------------------------
  Alpha Z   751.52672   751.52672   751.52672
  Ewald   -7623.60707 -7623.95106 -7623.92690     0.00718     0.00000     0.00000
  Hartree  3026.14258  3025.99342  3026.01136     0.00669    -0.00000    -0.00000
  E(xc)   -2014.34806 -2014.34818 -2014.34818    -0.00000    -0.00000     0.00000
  Local   -2025.19452 -2024.70685 -2024.74866    -0.01388    -0.00000    -0.00000
  n-local  1887.63157  1887.62030  1887.62029    -0.00002     0.00000     0.00000
  augment   687.00897   687.00961   687.00926    -0.00000    -0.00010    -0.00009
  Kinetic  5310.52638  5310.52270  5310.52265     0.00006     0.00000     0.00000
  Fock        0.00000     0.00000     0.00000     0.00000     0.00000     0.00000
  -------------------------------------------------------------------------------------
  Total      -0.31343    -0.33334    -0.33346     0.00003     0.00000     0.00000
  in kB      -0.35705    -0.37974    -0.37988     0.00003     0.00000     0.00000
  external pressure =       -0.37 kB  Pullay stress =        0.00 kB


 VOLUME and BASIS-vectors are now :
 -----------------------------------------------------------------------------
  energy-cutoff  :      341.21
  volume of cell :     1406.43
      direct lattice vectors                 reciprocal lattice vectors
    11.204002360  0.000000000  0.000000000     0.089253819  0.000000000  0.000000000
     0.000000000 11.204002360  0.000000000     0.000000000  0.089253819  0.000000000
     0.000000000  0.000000000 11.204002360     0.000000000  0.000000000  0.089253819

  length of vectors
    11.204002360 11.204002360 11.204002360     0.089253819  0.089253819  0.089253819


 FORCES acting on ions
    electron-ion (+dipol)            ewald-force                    non-local-force                 convergence-correction
 -----------------------------------------------------------------------------------------------
   0.378E+01 -.446E+00 -.675E-05   -.373E+01 0.479E+00 -.169E-13   -.118E+00 -.270E-01 0.374E-22   0.510E-04 -.108E-05 -.190E-12
   0.378E+01 -.437E+00 -.675E-05   -.372E+01 0.470E+00 -.166E-13   -.119E+00 -.271E-01 0.206E-22   0.514E-04 -.324E-05 -.195E-12
   0.574E-01 -.249E-02 -.443E+00   -.612E-01 0.259E-02 0.476E+00   0.355E-02 -.865E-04 -.272E-01   0.509E-04 0.863E-06 -.235E-05
   0.542E-01 0.249E-02 0.440E+00   -.578E-01 -.259E-02 -.473E+00   0.343E-02 0.864E-04 0.269E-01   0.527E-04 -.309E-06 0.230E-05
   0.155E+00 -.395E-01 -.279E-07   -.155E+00 0.391E-01 0.180E-14   -.276E-03 0.407E-03 -.880E-25   0.508E-04 0.142E-05 -.229E-12
   0.156E+00 -.397E-01 -.279E-07   -.156E+00 0.392E-01 0.125E-13   -.215E-03 0.427E-03 -.158E-25   0.496E-04 -.440E-06 -.129E-12
   0.574E-01 -.249E-02 0.443E+00   -.612E-01 0.259E-02 -.476E+00   0.355E-02 -.865E-04 0.272E-01   0.509E-04 0.863E-06 0.235E-05
   0.542E-01 0.249E-02 -.440E+00   -.578E-01 -.259E-02 0.473E+00   0.343E-02 0.864E-04 -.269E-01   0.527E-04 -.309E-06 -.230E-05
   -.822E-01 0.437E+00 -.187E-08   0.870E-01 -.470E+00 0.131E-13   -.335E-02 0.268E-01 -.389E-26   0.495E-04 0.524E-06 -.167E-12
   -.789E-01 0.445E+00 -.188E-08   0.836E-01 -.479E+00 0.954E-14   -.323E-02 0.273E-01 0.699E-25   0.495E-04 0.251E-05 -.782E-13
   0.293E+00 0.248E-02 -.372E-01   -.301E+00 -.259E-02 0.366E-01   0.656E-02 0.896E-04 0.518E-03   0.516E-04 -.898E-06 -.324E-06
   0.291E+00 -.248E-02 0.420E-01   -.299E+00 0.259E-02 -.416E-01   0.650E-02 -.896E-04 -.317E-03   0.522E-04 0.830E-06 -.764E-06
   0.561E-01 0.395E-01 0.140E-11   -.586E-01 -.391E-01 0.160E-13   0.206E-02 -.407E-03 0.198E-24   0.520E-04 -.192E-05 -.178E-12
   0.577E-01 0.397E-01 -.144E-11   -.603E-01 -.392E-01 0.125E-13   0.212E-02 -.428E-03 0.732E-26   0.499E-04 0.937E-06 -.155E-12
   0.293E+00 0.248E-02 0.372E-01   -.301E+00 -.259E-02 -.366E-01   0.656E-02 0.896E-04 -.518E-03   0.516E-04 -.898E-06 0.324E-06
   0.291E+00 -.248E-02 -.420E-01   -.299E+00 0.259E-02 0.416E-01   0.650E-02 -.896E-04 0.317E-03   0.522E-04 0.830E-06 0.764E-06
   -.693E+00 0.445E+00 0.502E-05   0.763E+00 -.479E+00 -.153E-13   -.588E-01 0.273E-01 -.411E-22   -.530E-04 0.325E-05 -.753E-13
   -.697E+00 0.438E+00 0.502E-05   0.766E+00 -.470E+00 0.599E-14   -.588E-01 0.268E-01 0.466E-22   -.571E-04 0.111E-05 -.638E-13
   -.412E+00 0.751E-03 0.437E+00   0.424E+00 -.777E-03 -.469E+00   -.854E-02 0.201E-04 0.268E-01   -.507E-04 0.145E-05 0.115E-05
   -.409E+00 -.751E-03 -.446E+00   0.420E+00 0.777E-03 0.479E+00   -.844E-02 -.202E-04 -.274E-01   -.511E-04 -.889E-06 -.289E-05
   -.134E+00 0.397E-01 -.279E-07   0.135E+00 -.392E-01 0.160E-13   -.111E-02 -.427E-03 -.372E-24   -.495E-04 0.102E-05 -.260E-12
   -.136E+00 0.395E-01 -.279E-07   0.137E+00 -.391E-01 0.891E-14   -.117E-02 -.407E-03 0.724E-25   -.515E-04 -.182E-05 -.150E-12
   -.412E+00 0.751E-03 -.437E+00   0.424E+00 -.777E-03 0.469E+00   -.854E-02 0.201E-04 -.268E-01   -.507E-04 0.145E-05 -.115E-05
   -.409E+00 -.751E-03 0.446E+00   0.420E+00 0.777E-03 -.479E+00   -.844E-02 -.202E-04 0.274E-01   -.511E-04 -.889E-06 0.289E-05
   -.369E+00 -.445E+00 -.187E-08   0.375E+00 0.479E+00 -.162E-13   -.413E-02 -.273E-01 0.204E-24   -.498E-04 -.360E-05 -.139E-12
   -.372E+00 -.438E+00 -.188E-08   0.379E+00 0.470E+00 0.194E-13   -.423E-02 -.268E-01 -.287E-24   -.507E-04 -.128E-05 -.262E-13
   -.175E+00 -.750E-03 0.388E-01   0.182E+00 0.777E-03 -.383E-01   -.548E-02 -.207E-04 -.427E-03   -.518E-04 -.134E-05 -.129E-05
   -.174E+00 0.750E-03 -.404E-01   0.180E+00 -.777E-03 0.400E-01   -.542E-02 0.209E-04 0.407E-03   -.516E-04 0.967E-06 -.339E-06
   -.677E-01 -.397E-01 -.954E-12   0.701E-01 0.392E-01 0.142E-13   -.193E-02 0.428E-03 -.905E-27   -.497E-04 -.170E-05 -.195E-12
   -.693E-01 -.395E-01 0.157E-10   0.718E-01 0.391E-01 0.892E-14   -.198E-02 0.407E-03 -.324E-24   -.504E-04 0.167E-05 -.202E-12
   -.175E+00 -.750E-03 -.388E-01   0.182E+00 0.777E-03 0.383E-01   -.548E-02 -.207E-04 0.427E-03   -.518E-04 -.134E-05 0.129E-05
   -.174E+00 0.750E-03 0.404E-01   0.180E+00 -.777E-03 -.400E-01   -.542E-02 0.209E-04 -.407E-03   -.516E-04 0.967E-06 0.339E-06
   0.846E+00 -.159E+00 -.143E+00   -.857E+00 0.161E+00 0.145E+00   0.160E-01 -.330E-02 -.334E-02   0.470E-04 -.145E-05 -.184E-05
   0.843E+00 -.157E+00 0.172E+00   -.854E+00 0.159E+00 -.174E+00   0.159E-01 -.325E-02 0.320E-02   0.473E-04 -.117E-06 0.117E-05
   -.108E+01 0.152E-01 0.148E-05   0.108E+01 -.153E-01 0.869E-14   0.192E-01 -.181E-04 -.495E-25   0.484E-04 -.528E-06 -.611E-13
   -.114E+01 -.152E-01 0.148E-05   0.114E+01 0.153E-01 -.135E-13   0.242E-01 0.182E-04 -.335E-23   0.477E-04 0.146E-05 -.555E-13
   0.846E+00 -.159E+00 0.143E+00   -.857E+00 0.161E+00 -.145E+00   0.160E-01 -.330E-02 0.334E-02   0.470E-04 -.145E-05 0.184E-05
   0.843E+00 -.157E+00 -.172E+00   -.854E+00 0.159E+00 0.174E+00   0.159E-01 -.325E-02 -.320E-02   0.473E-04 -.117E-06 -.117E-05
   0.897E-01 0.384E-03 0.834E-08   -.909E-01 -.398E-03 -.354E-14   0.189E-02 0.247E-04 0.278E-25   0.448E-04 -.104E-05 -.112E-12
   0.920E-01 -.383E-03 0.834E-08   -.932E-01 0.398E-03 0.623E-14   0.197E-02 -.249E-04 -.281E-24   0.453E-04 -.189E-06 -.149E-12
   0.473E-01 0.159E+00 -.158E+00   -.480E-01 -.161E+00 0.160E+00   0.980E-03 0.330E-02 -.327E-02   0.458E-04 0.150E-05 -.715E-06
   0.442E-01 0.157E+00 0.157E+00   -.448E-01 -.159E+00 -.159E+00   0.925E-03 0.325E-02 0.327E-02   0.460E-04 -.315E-06 0.466E-06
   0.888E+00 -.152E-01 -.182E-09   -.900E+00 0.153E-01 0.237E-14   0.169E-01 0.438E-04 0.745E-24   0.472E-04 0.831E-06 -.655E-13
   0.890E+00 0.152E-01 -.180E-09   -.902E+00 -.153E-01 -.145E-13   0.170E-01 -.427E-04 0.770E-24   0.476E-04 -.707E-06 -.105E-12
   0.473E-01 0.159E+00 0.158E+00   -.480E-01 -.161E+00 -.160E+00   0.980E-03 0.330E-02 0.327E-02   0.458E-04 0.150E-05 0.715E-06
   0.442E-01 0.157E+00 -.157E+00   -.448E-01 -.159E+00 0.159E+00   0.925E-03 0.325E-02 -.327E-02   0.460E-04 -.315E-06 -.466E-06
   0.106E+00 -.388E-03 -.160E-10   -.107E+00 0.398E-03 -.266E-14   0.152E-02 -.223E-04 -.399E-25   0.466E-04 0.186E-05 -.141E-12
   0.107E+00 0.383E-03 -.134E-10   -.108E+00 -.398E-03 0.771E-17   0.154E-02 0.247E-04 -.157E-24   0.448E-04 -.224E-06 -.103E-12
   -.341E+00 0.157E+00 0.156E+00   0.346E+00 -.159E+00 -.157E+00   -.770E-02 0.324E-02 0.322E-02   -.485E-04 -.521E-06 0.143E-05
   -.338E+00 0.159E+00 -.160E+00   0.343E+00 -.161E+00 0.162E+00   -.765E-02 0.330E-02 -.333E-02   -.463E-04 0.173E-05 -.142E-05
   -.232E+01 -.156E-02 0.148E-05   0.234E+01 0.158E-02 0.104E-13   0.613E-03 -.369E-04 0.468E-23   -.468E-04 -.152E-05 -.641E-13
   -.226E+01 0.156E-02 0.148E-05   0.228E+01 -.158E-02 -.829E-14   -.455E-02 0.358E-04 0.231E-23   -.486E-04 0.631E-06 0.263E-14
   -.341E+00 0.157E+00 -.156E+00   0.346E+00 -.159E+00 0.157E+00   -.770E-02 0.324E-02 -.322E-02   -.485E-04 -.521E-06 -.143E-05
   -.338E+00 0.159E+00 0.160E+00   0.343E+00 -.161E+00 -.162E+00   -.765E-02 0.330E-02 0.333E-02   -.463E-04 0.173E-05 0.142E-05
   -.109E+00 -.271E-03 0.833E-08   0.110E+00 0.274E-03 -.355E-14   -.121E-02 -.279E-05 -.348E-25   -.434E-04 -.969E-06 -.137E-12
   -.111E+00 0.270E-03 0.835E-08   0.112E+00 -.274E-03 0.837E-17   -.129E-02 0.189E-05 -.872E-24   -.459E-04 0.218E-05 -.193E-12
   -.157E+00 -.157E+00 0.157E+00   0.158E+00 0.159E+00 -.159E+00   -.226E-02 -.324E-02 0.324E-02   -.463E-04 0.339E-06 -.296E-06
   -.154E+00 -.159E+00 -.159E+00   0.155E+00 0.161E+00 0.161E+00   -.221E-02 -.330E-02 -.330E-02   -.456E-04 -.182E-05 -.126E-05
   -.293E+00 0.156E-02 -.182E-09   0.297E+00 -.158E-02 0.734E-14   -.665E-02 0.295E-04 -.401E-24   -.462E-04 0.125E-05 -.356E-13
   -.296E+00 -.157E-02 -.191E-09   0.300E+00 0.158E-02 -.140E-13   -.673E-02 -.264E-04 0.215E-25   -.478E-04 -.246E-06 -.821E-13
   -.157E+00 -.157E+00 -.157E+00   0.158E+00 0.159E+00 0.159E+00   -.226E-02 -.324E-02 -.324E-02   -.463E-04 0.339E-06 0.296E-06
   -.154E+00 -.159E+00 0.159E+00   0.155E+00 0.161E+00 -.161E+00   -.221E-02 -.330E-02 0.330E-02   -.456E-04 -.182E-05 0.126E-05
   -.941E-01 0.269E-03 -.166E-10   0.951E-01 -.274E-03 -.416E-16   -.164E-02 0.305E-05 0.237E-25   -.467E-04 0.160E-05 -.171E-12
   -.951E-01 -.271E-03 -.142E-10   0.962E-01 0.274E-03 -.583E-16   -.167E-02 -.176E-05 0.340E-26   -.467E-04 -.245E-05 -.127E-12
 -----------------------------------------------------------------------------------------------
   0.300E+00 -.956E-05 0.222E-05   0.311E-13 -.455E-14 0.799E-13   -.299E+00 0.702E-05 -.434E-18   -.410E-05 -.686E-06 -.160E-11
 
 
 POSITION                                       TOTAL-FORCE (eV/Angst)
 -----------------------------------------------------------------------------------
      0.03000      0.00000      0.00000        -0.061302      0.005890      0.000000
      2.83100      2.80100      0.00000        -0.061306      0.005838      0.000000
      2.80100      0.00000      2.80100        -0.000150      0.000019      0.005907
      0.00000      2.80100      2.80100        -0.000154     -0.000019     -0.005821
      0.00000      0.00000      5.60200        -0.000069     -0.000073      0.000000
      2.80100      2.80100      5.60200        -0.000082     -0.000077      0.000000
      2.80100      0.00000      8.40300        -0.000150      0.000019     -0.005907
      0.00000      2.80100      8.40300        -0.000154     -0.000019      0.005821
      0.00000      5.60200      0.00000         0.001457     -0.005803      0.000000
      2.80100      8.40300      0.00000         0.001461     -0.005925      0.000000
      2.80100      5.60200      2.80100        -0.001696     -0.000020     -0.000097
      0.00000      8.40300      2.80100        -0.001683      0.000020      0.000054
      0.00000      5.60200      5.60200        -0.000473      0.000073      0.000000
      2.80100      8.40300      5.60200        -0.000486      0.000077      0.000000
      2.80100      5.60200      8.40300        -0.001696     -0.000020      0.000097
      0.00000      8.40300      8.40300        -0.001683      0.000020     -0.000054
      5.60200      0.00000      0.00000         0.010427     -0.005926      0.000000
      8.40300      2.80100      0.00000         0.010423     -0.005801      0.000000
      8.40300      0.00000      2.80100         0.002671     -0.000004     -0.005796
      5.60200      2.80100      2.80100         0.002675      0.000005      0.005931
      5.60200      0.00000      5.60200         0.000274      0.000077      0.000000
      8.40300      2.80100      5.60200         0.000287      0.000074      0.000000
      8.40300      0.00000      8.40300         0.002671     -0.000004      0.005796
      5.60200      2.80100      8.40300         0.002675      0.000005     -0.005931
      5.60200      5.60200      0.00000         0.001821      0.005927      0.000000
      8.40300      8.40300      0.00000         0.001816      0.005800      0.000000
      8.40300      5.60200      2.80100         0.001141      0.000005      0.000078
      5.60200      8.40300      2.80100         0.001128     -0.000005     -0.000073
      5.60200      5.60200      5.60200         0.000407     -0.000077      0.000000
      8.40300      8.40300      5.60200         0.000419     -0.000073      0.000000
      8.40300      5.60200      8.40300         0.001141      0.000005     -0.000078
      5.60200      8.40300      8.40300         0.001128     -0.000005      0.000073
      2.80100      2.80100      2.80100         0.004776     -0.001305     -0.001427
      0.00000      0.00000      2.80100         0.004751     -0.001283      0.001160
      0.00000      2.80100      0.00000         0.021170     -0.000089      0.000000
      2.80100      0.00000      0.00000         0.025218      0.000088      0.000000
      2.80100      2.80100      8.40300         0.004776     -0.001305      0.001427
      0.00000      0.00000      8.40300         0.004751     -0.001283     -0.001160
      0.00000      2.80100      5.60200         0.000732      0.000010      0.000000
      2.80100      0.00000      5.60200         0.000762     -0.000010      0.000000
      2.80100      8.40300      2.80100         0.000372      0.001305     -0.001295
      0.00000      5.60200      2.80100         0.000350      0.001284      0.001294
      0.00000      8.40300      0.00000         0.005133      0.000123      0.000000
      2.80100      5.60200      0.00000         0.005163     -0.000123      0.000000
      2.80100      8.40300      8.40300         0.000372      0.001305      0.001295
      0.00000      5.60200      8.40300         0.000350      0.001284     -0.001294
      0.00000      8.40300      5.60200         0.000581     -0.000011      0.000000
      2.80100      5.60200      5.60200         0.000591      0.000010      0.000000
      8.40300      2.80100      2.80100        -0.003070      0.001283      0.001270
      5.60200      0.00000      2.80100        -0.003049      0.001306     -0.001318
      5.60200      2.80100      0.00000         0.017404     -0.000021      0.000000
      8.40300      0.00000      0.00000         0.013346      0.000021      0.000000
      8.40300      2.80100      8.40300        -0.003070      0.001283     -0.001270
      5.60200      0.00000      8.40300        -0.003049      0.001306      0.001318
      5.60200      2.80100      5.60200        -0.000497     -0.000001      0.000000
      8.40300      0.00000      5.60200        -0.000526      0.000001      0.000000
      8.40300      8.40300      2.80100        -0.000907     -0.001283      0.001282
      5.60200      5.60200      2.80100        -0.000884     -0.001305     -0.001307
      5.60200      8.40300      0.00000        -0.002659      0.000012      0.000000
      8.40300      5.60200      0.00000        -0.002688     -0.000014      0.000000
      8.40300      8.40300      8.40300        -0.000907     -0.001283     -0.001282
      5.60200      5.60200      8.40300        -0.000884     -0.001305      0.001307
      5.60200      8.40300      5.60200        -0.000665      0.000000      0.000000
      8.40300      5.60200      5.60200        -0.000677     -0.000002      0.000000
 -----------------------------------------------------------------------------------
    total drift:                                0.001173     -0.000003      0.000002


--------------------------------------------------------------------------------------------------------



  FREE ENERGIE OF THE ION-ELECTRON SYSTEM (eV)
  ---------------------------------------------------
  free  energy   TOTEN  =      -223.90087160 eV

  energy  without entropy=     -223.90087160  energy(sigma->0) =     -223.90087160
 


--------------------------------------------------------------------------------------------------------


    POTLOK:  cpu time      0.0687: real time      0.0690


--------------------------------------------------------------------------------------------------------


     LOOP+:  cpu time    216.9385: real time    218.2378
    4ORBIT:  cpu time      0.0000: real time      0.0000

 total amount of memory used by VASP MPI-rank0   129658. kBytes
=======================================================================

   base      :      30000. kBytes
   nonl-proj :      41680. kBytes
   fftplans  :      14405. kBytes
   grid      :      19342. kBytes
   one-center:        196. kBytes
   wavefun   :      24035. kBytes
 
  
  
 General timing and accounting informations for this job:
 ========================================================
  
                  Total CPU time used (sec):      221.302
                            User time (sec):      220.689
                          System time (sec):        0.613
                         Elapsed time (sec):      223.817
  
                   Maximum memory used (kb):      315996.
                   Average memory used (kb):          N/A
  
                          Minor page faults:       120967
                          Major page faults:          189
                 Voluntary context switches:         1507
