<?xml version="1.0" encoding="ISO-8859-1"?>
<modeling>
 <generator>
  <i name="program" type="string">vasp </i>
  <i name="version" type="string">6.3.2  </i>
  <i name="subversion" type="string">27Jun22 (build Oct 14 2022 12:13:54) complex                          parallel </i>
  <i name="platform" type="string">LinuxIFC </i>
  <i name="date" type="string">2025 08 28 </i>
  <i name="time" type="string">21:57:05 </i>
 </generator>
 <incar>
  <i type="string" name="PREC">Accurate</i>
  <i type="int" name="IALGO">    38</i>
  <i type="logical" name="ADDGRID"> T  </i>
  <i type="int" name="NELMIN">     5</i>
  <i type="int" name="IBRION">    -1</i>
  <i name="EDIFF">      0.00000001</i>
  <i name="ENCUT">    341.21360000</i>
  <i type="logical" name="LREAL"> F  </i>
  <i type="int" name="ISMEAR">     0</i>
  <i name="SIGMA">      0.02000000</i>
  <i type="logical" name="LWAVE"> F  </i>
  <i type="logical" name="LCHARG"> F  </i>
  <i type="string" name="GGA">PS</i>
 </incar>
 <primitive_cell>
  <structure name="primitive_cell" >
   <crystal>
    <varray name="basis" >
     <v>      11.20400236       0.00000000       0.00000000 </v>
     <v>       0.00000000      11.20400236       0.00000000 </v>
     <v>       0.00000000       0.00000000      11.20400236 </v>
    </varray>
    <i name="volume">   1406.43470641 </i>
    <varray name="rec_basis" >
     <v>       0.08925382       0.00000000       0.00000000 </v>
     <v>       0.00000000       0.08925382       0.00000000 </v>
     <v>       0.00000000       0.00000000       0.08925382 </v>
    </varray>
   </crystal>
   <varray name="positions" >
    <v>       0.00267761       0.00000000       0.00000000 </v>
    <v>       0.25267761       0.25000000       0.00000000 </v>
    <v>       0.25000000       0.00000000       0.25000000 </v>
    <v>       0.00000000       0.25000000       0.25000000 </v>
    <v>       0.00000000       0.00000000       0.50000000 </v>
    <v>       0.25000000       0.25000000       0.50000000 </v>
    <v>       0.25000000       0.00000000       0.75000000 </v>
    <v>       0.00000000       0.25000000       0.75000000 </v>
    <v>       0.00000000       0.50000000       0.00000000 </v>
    <v>       0.25000000       0.75000000       0.00000000 </v>
    <v>       0.25000000       0.50000000       0.25000000 </v>
    <v>       0.00000000       0.75000000       0.25000000 </v>
    <v>       0.00000000       0.50000000       0.50000000 </v>
    <v>       0.25000000       0.75000000       0.50000000 </v>
    <v>       0.25000000       0.50000000       0.75000000 </v>
    <v>       0.00000000       0.75000000       0.75000000 </v>
    <v>       0.50000000       0.00000000       0.00000000 </v>
    <v>       0.75000000       0.25000000       0.00000000 </v>
    <v>       0.75000000       0.00000000       0.25000000 </v>
    <v>       0.50000000       0.25000000       0.25000000 </v>
    <v>       0.50000000       0.00000000       0.50000000 </v>
    <v>       0.75000000       0.25000000       0.50000000 </v>
    <v>       0.75000000       0.00000000       0.75000000 </v>
    <v>       0.50000000       0.25000000       0.75000000 </v>
    <v>       0.50000000       0.50000000       0.00000000 </v>
    <v>       0.75000000       0.75000000       0.00000000 </v>
    <v>       0.75000000       0.50000000       0.25000000 </v>
    <v>       0.50000000       0.75000000       0.25000000 </v>
    <v>       0.50000000       0.50000000       0.50000000 </v>
    <v>       0.75000000       0.75000000       0.50000000 </v>
    <v>       0.75000000       0.50000000       0.75000000 </v>
    <v>       0.50000000       0.75000000       0.75000000 </v>
    <v>       0.25000000       0.25000000       0.25000000 </v>
    <v>       0.00000000       0.00000000       0.25000000 </v>
    <v>       0.00000000       0.25000000       0.00000000 </v>
    <v>       0.25000000       0.00000000       0.00000000 </v>
    <v>       0.25000000       0.25000000       0.75000000 </v>
    <v>       0.00000000       0.00000000       0.75000000 </v>
    <v>       0.00000000       0.25000000       0.50000000 </v>
    <v>       0.25000000       0.00000000       0.50000000 </v>
    <v>       0.25000000       0.75000000       0.25000000 </v>
    <v>       0.00000000       0.50000000       0.25000000 </v>
    <v>       0.00000000       0.75000000       0.00000000 </v>
    <v>       0.25000000       0.50000000       0.00000000 </v>
    <v>       0.25000000       0.75000000       0.75000000 </v>
    <v>       0.00000000       0.50000000       0.75000000 </v>
    <v>       0.00000000       0.75000000       0.50000000 </v>
    <v>       0.25000000       0.50000000       0.50000000 </v>
    <v>       0.75000000       0.25000000       0.25000000 </v>
    <v>       0.50000000       0.00000000       0.25000000 </v>
    <v>       0.50000000       0.25000000       0.00000000 </v>
    <v>       0.75000000       0.00000000       0.00000000 </v>
    <v>       0.75000000       0.25000000       0.75000000 </v>
    <v>       0.50000000       0.00000000       0.75000000 </v>
    <v>       0.50000000       0.25000000       0.50000000 </v>
    <v>       0.75000000       0.00000000       0.50000000 </v>
    <v>       0.75000000       0.75000000       0.25000000 </v>
    <v>       0.50000000       0.50000000       0.25000000 </v>
    <v>       0.50000000       0.75000000       0.00000000 </v>
    <v>       0.75000000       0.50000000       0.00000000 </v>
    <v>       0.75000000       0.75000000       0.75000000 </v>
    <v>       0.50000000       0.50000000       0.75000000 </v>
    <v>       0.50000000       0.75000000       0.50000000 </v>
    <v>       0.75000000       0.50000000       0.50000000 </v>
   </varray>
  </structure>
  <varray name="primitive_index" >
   <v type="int" >        1 </v>
   <v type="int" >        2 </v>
   <v type="int" >        3 </v>
   <v type="int" >        4 </v>
   <v type="int" >        5 </v>
   <v type="int" >        6 </v>
   <v type="int" >        7 </v>
   <v type="int" >        8 </v>
   <v type="int" >        9 </v>
   <v type="int" >       10 </v>
   <v type="int" >       11 </v>
   <v type="int" >       12 </v>
   <v type="int" >       13 </v>
   <v type="int" >       14 </v>
   <v type="int" >       15 </v>
   <v type="int" >       16 </v>
   <v type="int" >       17 </v>
   <v type="int" >       18 </v>
   <v type="int" >       19 </v>
   <v type="int" >       20 </v>
   <v type="int" >       21 </v>
   <v type="int" >       22 </v>
   <v type="int" >       23 </v>
   <v type="int" >       24 </v>
   <v type="int" >       25 </v>
   <v type="int" >       26 </v>
   <v type="int" >       27 </v>
   <v type="int" >       28 </v>
   <v type="int" >       29 </v>
   <v type="int" >       30 </v>
   <v type="int" >       31 </v>
   <v type="int" >       32 </v>
   <v type="int" >       33 </v>
   <v type="int" >       34 </v>
   <v type="int" >       35 </v>
   <v type="int" >       36 </v>
   <v type="int" >       37 </v>
   <v type="int" >       38 </v>
   <v type="int" >       39 </v>
   <v type="int" >       40 </v>
   <v type="int" >       41 </v>
   <v type="int" >       42 </v>
   <v type="int" >       43 </v>
   <v type="int" >       44 </v>
   <v type="int" >       45 </v>
   <v type="int" >       46 </v>
   <v type="int" >       47 </v>
   <v type="int" >       48 </v>
   <v type="int" >       49 </v>
   <v type="int" >       50 </v>
   <v type="int" >       51 </v>
   <v type="int" >       52 </v>
   <v type="int" >       53 </v>
   <v type="int" >       54 </v>
   <v type="int" >       55 </v>
   <v type="int" >       56 </v>
   <v type="int" >       57 </v>
   <v type="int" >       58 </v>
   <v type="int" >       59 </v>
   <v type="int" >       60 </v>
   <v type="int" >       61 </v>
   <v type="int" >       62 </v>
   <v type="int" >       63 </v>
   <v type="int" >       64 </v>
  </varray>
 </primitive_cell>
 <kpoints>
  <generation param="Gamma">
   <v type="int" name="divisions">       2        2        2 </v>
   <v name="usershift">      0.00000000       0.00000000       0.00000000 </v>
   <v name="genvec1">      0.50000000       0.00000000       0.00000000 </v>
   <v name="genvec2">      0.00000000       0.50000000       0.00000000 </v>
   <v name="genvec3">      0.00000000       0.00000000       0.50000000 </v>
   <v name="shift">      0.00000000       0.00000000       0.00000000 </v>
  </generation>
  <varray name="kpointlist" >
   <v>       0.00000000       0.00000000       0.00000000 </v>
   <v>       0.50000000       0.00000000       0.00000000 </v>
   <v>       0.00000000       0.50000000       0.00000000 </v>
   <v>       0.00000000       0.00000000       0.50000000 </v>
   <v>       0.50000000       0.50000000       0.00000000 </v>
   <v>       0.00000000       0.50000000       0.50000000 </v>
   <v>       0.50000000       0.00000000       0.50000000 </v>
   <v>       0.50000000       0.50000000       0.50000000 </v>
  </varray>
  <varray name="weights" >
   <v>       0.12500000 </v>
   <v>       0.12500000 </v>
   <v>       0.12500000 </v>
   <v>       0.12500000 </v>
   <v>       0.12500000 </v>
   <v>       0.12500000 </v>
   <v>       0.12500000 </v>
   <v>       0.12500000 </v>
  </varray>
 </kpoints>
 <parameters>
  <separator name="general" >
   <i type="string" name="SYSTEM">unknown system</i>
   <i type="logical" name="LCOMPAT"> F  </i>
  </separator>
  <separator name="electronic" >
   <i type="string" name="PREC">accura</i>
   <i name="ENMAX">    341.21360000</i>
   <i name="ENAUG">    368.05600000</i>
   <i name="EDIFF">      0.00000001</i>
   <i type="int" name="IALGO">    38</i>
   <i type="int" name="IWAVPR">    10</i>
   <i type="int" name="NBANDS">   288</i>
   <i type="int" name="NBANDSLOW">    -1</i>
   <i type="int" name="NBANDSHIGH">    -1</i>
   <i name="NELECT">    448.00000000</i>
   <i type="int" name="TURBO">     0</i>
   <i type="int" name="IRESTART">     0</i>
   <i type="int" name="NREBOOT">     0</i>
   <i type="int" name="NMIN">     0</i>
   <i name="EREF">      0.00000000</i>
   <separator name="electronic smearing" >
    <i type="int" name="ISMEAR">     0</i>
    <i name="SIGMA">      0.02000000</i>
    <i name="KSPACING">      0.50000000</i>
    <i type="logical" name="KGAMMA"> T  </i>
    <i type="logical" name="KBLOWUP"> T  </i>
   </separator>
   <separator name="electronic projectors" >
    <i type="logical" name="LREAL"> F  </i>
    <v name="ROPT">      0.00000000      0.00000000</v>
    <i type="int" name="LMAXPAW">  -100</i>
    <i type="int" name="LMAXMIX">     2</i>
    <i type="logical" name="NLSPLINE"> F  </i>
   </separator>
   <separator name="electronic startup" >
    <i type="int" name="ISTART">     0</i>
    <i type="int" name="ICHARG">     2</i>
    <i type="int" name="INIWAV">     1</i>
   </separator>
   <separator name="electronic spin" >
    <i type="int" name="ISPIN">     1</i>
    <i type="logical" name="LNONCOLLINEAR"> F  </i>
    <v name="MAGMOM">      1.00000000      1.00000000      1.00000000      1.00000000      1.00000000      1.00000000      1.00000000      1.00000000      1.00000000      1.00000000      1.00000000      1.00000000      1.00000000      1.00000000      1.00000000      1.00000000      1.00000000      1.00000000      1.00000000      1.00000000
      1.00000000      1.00000000      1.00000000      1.00000000      1.00000000      1.00000000      1.00000000      1.00000000      1.00000000      1.00000000      1.00000000      1.00000000      1.00000000      1.00000000      1.00000000      1.00000000      1.00000000      1.00000000      1.00000000      1.00000000
      1.00000000      1.00000000      1.00000000      1.00000000      1.00000000      1.00000000      1.00000000      1.00000000      1.00000000      1.00000000      1.00000000      1.00000000      1.00000000      1.00000000      1.00000000      1.00000000      1.00000000      1.00000000      1.00000000      1.00000000
      1.00000000      1.00000000      1.00000000      1.00000000</v>
    <i name="NUPDOWN">     -1.00000000</i>
    <i type="logical" name="LSORBIT"> F  </i>
    <v name="SAXIS">      0.00000000      0.00000000      1.00000000</v>
    <i type="logical" name="LSPIRAL"> F  </i>
    <v name="QSPIRAL">      0.00000000      0.00000000      0.00000000</v>
    <i type="logical" name="LZEROZ"> F  </i>
   </separator>
   <separator name="electronic exchange-correlation" >
    <i type="logical" name="LASPH"> F  </i>
    <i type="logical" name="LMETAGGA"> F  </i>
   </separator>
   <separator name="electronic convergence" >
    <i type="int" name="NELM">    60</i>
    <i type="int" name="NELMDL">    -5</i>
    <i type="int" name="NELMIN">     5</i>
    <i name="ENINI">    341.21360000</i>
    <separator name="electronic convergence detail" >
     <i type="logical" name="LDIAG"> T  </i>
     <i type="logical" name="LSUBROT"> F  </i>
     <i name="WEIMIN">      0.00000000</i>
     <i name="EBREAK">      0.00000000</i>
     <i name="DEPER">      0.30000000</i>
     <i type="int" name="NRMM">     4</i>
     <i name="TIME">      0.40000000</i>
    </separator>
   </separator>
   <separator name="electronic mixer" >
    <i name="AMIX">      0.40000000</i>
    <i name="BMIX">      1.00000000</i>
    <i name="AMIN">      0.10000000</i>
    <i name="AMIX_MAG">      1.60000000</i>
    <i name="BMIX_MAG">      1.00000000</i>
    <separator name="electronic mixer details" >
     <i type="int" name="IMIX">     4</i>
     <i type="logical" name="MIXFIRST"> F  </i>
     <i type="int" name="MAXMIX">   -45</i>
     <i name="WC">    100.00000000</i>
     <i type="int" name="INIMIX">     1</i>
     <i type="int" name="MIXPRE">     1</i>
     <i type="int" name="MREMOVE">     5</i>
    </separator>
   </separator>
   <separator name="electronic dipolcorrection" >
    <i type="logical" name="LDIPOL"> F  </i>
    <i type="logical" name="LMONO"> F  </i>
    <i type="int" name="IDIPOL">     0</i>
    <i name="EPSILON">      1.00000000</i>
    <v name="DIPOL">   -100.00000000   -100.00000000   -100.00000000</v>
    <i name="EFIELD">      0.00000000</i>
   </separator>
  </separator>
  <separator name="grids" >
   <i type="int" name="NGX">    70</i>
   <i type="int" name="NGY">    70</i>
   <i type="int" name="NGZ">    70</i>
   <i type="int" name="NGXF">   140</i>
   <i type="int" name="NGYF">   140</i>
   <i type="int" name="NGZF">   140</i>
   <i type="logical" name="ADDGRID"> T  </i>
  </separator>
  <separator name="ionic" >
   <i type="int" name="NSW">     0</i>
   <i type="int" name="IBRION">    -1</i>
   <i type="int" name="MDALGO">     0</i>
   <i type="int" name="ISIF">     2</i>
   <i name="PSTRESS">      0.00000000</i>
   <i name="EDIFFG">      0.00000010</i>
   <i type="int" name="NFREE">     0</i>
   <i name="POTIM">      0.50000000</i>
   <i name="SMASS">     -3.00000000</i>
   <i name="SCALEE">      1.00000000</i>
  </separator>
  <separator name="ionic md" >
   <i name="TEBEG">      0.00010000</i>
   <i name="TEEND">      0.00010000</i>
   <i type="int" name="NBLOCK">     1</i>
   <i type="int" name="KBLOCK">     1</i>
   <i type="int" name="NPACO">   256</i>
   <i name="APACO">     10.00000000</i>
  </separator>
  <separator name="symmetry" >
   <i type="int" name="ISYM">     2</i>
   <i name="SYMPREC">      0.00001000</i>
  </separator>
  <separator name="dos" >
   <i type="int" name="LORBIT">     0</i>
   <v name="RWIGS">     -1.00000000     -1.00000000</v>
   <i type="int" name="NEDOS">   301</i>
   <i name="EMIN">     10.00000000</i>
   <i name="EMAX">    -10.00000000</i>
   <i name="EFERMI">      0.00000000</i>
  </separator>
  <separator name="writing" >
   <i type="int" name="NWRITE">     2</i>
   <i type="logical" name="LWAVE"> F  </i>
   <i type="logical" name="LDOWNSAMPLE"> F  </i>
   <i type="logical" name="LCHARG"> F  </i>
   <i type="logical" name="LPARD"> F  </i>
   <i type="logical" name="LVTOT"> F  </i>
   <i type="logical" name="LVHAR"> F  </i>
   <i type="logical" name="LELF"> F  </i>
   <i type="logical" name="LOPTICS"> F  </i>
   <v name="STM">      0.00000000      0.00000000      0.00000000      0.00000000      0.00000000      0.00000000      0.00000000</v>
  </separator>
  <separator name="performance" >
   <i type="int" name="NPAR">    32</i>
   <i type="int" name="NSIM">     4</i>
   <i type="int" name="NBLK">    -1</i>
   <i type="logical" name="LPLANE"> T  </i>
   <i type="logical" name="LSCALAPACK"> T  </i>
   <i type="logical" name="LSCAAWARE"> F  </i>
   <i type="logical" name="LSCALU"> F  </i>
   <i type="logical" name="LASYNC"> F  </i>
   <i type="logical" name="LORBITALREAL"> F  </i>
  </separator>
  <separator name="miscellaneous" >
   <i type="int" name="IDIOT">     3</i>
   <i type="int" name="PHON_NSTRUCT">    -1</i>
   <i type="logical" name="LMUSIC"> F  </i>
   <v name="POMASS">     22.99000000     35.45300000</v>
   <v name="DARWINR">      0.00000000      0.00000000</v>
   <v name="DARWINV">      1.00000000      1.00000000</v>
   <i type="logical" name="LCORR"> T  </i>
  </separator>
  <i type="logical" name="GGA_COMPAT"> T  </i>
  <i type="logical" name="LBERRY"> F  </i>
  <i type="int" name="ICORELEVEL">     0</i>
  <i type="logical" name="LDAU"> F  </i>
  <i type="int" name="I_CONSTRAINED_M">     0</i>
  <separator name="electronic exchange-correlation" >
   <i type="string" name="GGA">PS</i>
   <i type="int" name="VOSKOWN">     0</i>
   <i type="logical" name="LHFCALC"> F  </i>
   <i type="string" name="PRECFOCK"></i>
   <i type="logical" name="LSYMGRAD"> F  </i>
   <i type="logical" name="LHFONE"> F  </i>
   <i type="logical" name="LRHFCALC"> F  </i>
   <i type="logical" name="LTHOMAS"> F  </i>
   <i type="logical" name="LMODELHF"> F  </i>
   <i type="logical" name="LFOCKACE"> F  </i>
   <i name="ENCUT4O">     -1.00000000</i>
   <i type="int" name="EXXOEP">     0</i>
   <i type="int" name="FOURORBIT">     0</i>
   <i name="AEXX">      0.00000000</i>
   <i name="HFALPHA">      0.00000000</i>
   <i name="MCALPHA">      0.00000000</i>
   <i name="ALDAX">      1.00000000</i>
   <i name="AGGAX">      1.00000000</i>
   <i name="ALDAC">      1.00000000</i>
   <i name="AGGAC">      1.00000000</i>
   <i type="int" name="NKREDX">     1</i>
   <i type="int" name="NKREDY">     1</i>
   <i type="int" name="NKREDZ">     1</i>
   <i type="logical" name="SHIFTRED"> F  </i>
   <i type="logical" name="ODDONLY"> F  </i>
   <i type="logical" name="EVENONLY"> F  </i>
   <i type="int" name="LMAXFOCK">     0</i>
   <i type="int" name="NMAXFOCKAE">     0</i>
   <i type="logical" name="LFOCKAEDFT"> F  </i>
   <i name="HFSCREEN">      0.00000000</i>
   <i name="HFSCREENC">      0.00000000</i>
   <i type="int" name="NBANDSGWLOW">     0</i>
  </separator>
  <separator name="vdW DFT" >
   <i type="logical" name="LUSE_VDW"> F  </i>
   <i name="Zab_VDW">     -0.84910000</i>
   <i name="PARAM1">      0.12340000</i>
   <i name="PARAM2">      1.00000000</i>
   <i name="PARAM3">      0.00000000</i>
  </separator>
  <separator name="model GW" >
   <i type="int" name="MODEL_GW">     0</i>
   <i name="MODEL_EPS0">     13.18532537</i>
   <i name="MODEL_ALPHA">      1.00000000</i>
  </separator>
  <separator name="linear response parameters" >
   <i type="logical" name="LEPSILON"> F  </i>
   <i type="logical" name="LRPA"> F  </i>
   <i type="logical" name="LNABLA"> F  </i>
   <i type="logical" name="LVEL"> F  </i>
   <i name="CSHIFT">      0.10000000</i>
   <i name="OMEGAMAX">     -1.00000000</i>
   <i name="DEG_THRESHOLD">      0.00200000</i>
   <i name="RTIME">     -0.10000000</i>
   <i name="WPLASMAI">      0.00000000</i>
   <v name="DFIELD">      0.00000000      0.00000000      0.00000000</v>
   <v name="WPLASMA">      0.00000000      0.00000000      0.00000000      0.00000000      0.00000000      0.00000000      0.00000000      0.00000000      0.00000000</v>
  </separator>
  <separator name="orbital magnetization" >
   <i type="logical" name="NUCIND"> F  </i>
   <v name="MAGPOS">      0.00000000      0.00000000      0.00000000</v>
   <i type="logical" name="LNICSALL"> T  </i>
   <i type="logical" name="ORBITALMAG"> F  </i>
   <i type="logical" name="LMAGBLOCH"> F  </i>
   <i type="logical" name="LCHIMAG"> F  </i>
   <i type="logical" name="LGAUGE"> T  </i>
   <i type="int" name="MAGATOM">     0</i>
   <v name="MAGDIPOL">      0.00000000      0.00000000      0.00000000</v>
   <v name="AVECCONST">      0.00000000      0.00000000      0.00000000</v>
  </separator>
  <separator name="response functions" >
   <i type="logical" name="LFINITE_TEMPERATURE"> F  </i>
   <i type="logical" name="LADDER"> F  </i>
   <i type="logical" name="LRPAFORCE"> F  </i>
   <i type="logical" name="LFXC"> F  </i>
   <i type="logical" name="LHARTREE"> T  </i>
   <i type="int" name="IBSE">     0</i>
   <v type="int" name="KPOINT">    -1     0     0     0</v>
   <i type="logical" name="LTCTC"> F  </i>
   <i type="logical" name="LTCTE"> F  </i>
   <i type="logical" name="LTETE"> F  </i>
   <i type="logical" name="LTRIPLET"> F  </i>
   <i type="logical" name="LFXCEPS"> F  </i>
   <i type="logical" name="LFXHEG"> F  </i>
   <i type="int" name="NATURALO">     2</i>
   <i type="logical" name="LHOLEGF"> F  </i>
   <i type="logical" name="L2ORDER"> F  </i>
   <i type="logical" name="LDMP1"> F  </i>
   <i type="logical" name="LMP2LT"> F  </i>
   <i type="logical" name="LSMP2LT"> F  </i>
   <i type="logical" name="LGWLF"> F  </i>
   <i name="ENCUTGW">     -2.00000000</i>
   <i name="ENCUTGWSOFT">     -2.00000000</i>
   <i name="ENCUTLF">     -1.00000000</i>
   <i type="logical" name="LESF_SPLINES"> F  </i>
   <i type="int" name="LMAXMP2">    -1</i>
   <i name="SCISSOR">      0.00000000</i>
   <i type="int" name="NOMEGA">     0</i>
   <i type="int" name="NOMEGAR">     0</i>
   <i type="int" name="NBANDSGW">    -1</i>
   <i type="int" name="NBANDSO">    -1</i>
   <i type="int" name="NBANDSV">    -1</i>
   <i type="int" name="NELMGW">     1</i>
   <i type="int" name="NELMHF">     1</i>
   <i type="int" name="DIM">     3</i>
   <i type="int" name="IESPILON">     4</i>
   <i type="int" name="ANTIRES">     0</i>
   <i name="OMEGAMAX">    -30.00000000</i>
   <i name="OMEGAMIN">    -30.00000000</i>
   <i name="OMEGATL">   -200.00000000</i>
   <i type="int" name="OMEGAGRID">     0</i>
   <i name="CSHIFT">     -0.10000000</i>
   <i type="logical" name="LSELFENERGY"> F  </i>
   <i type="logical" name="LSPECTRAL"> F  </i>
   <i type="logical" name="LSPECTRALGW"> F  </i>
   <i type="logical" name="LSINGLES"> F  </i>
   <i type="logical" name="LFERMIGW"> F  </i>
   <i type="logical" name="ODDONLYGW"> F  </i>
   <i type="logical" name="EVENONLYGW"> F  </i>
   <i type="int" name="NKREDLFX">     1</i>
   <i type="int" name="NKREDLFY">     1</i>
   <i type="int" name="NKREDLFZ">     1</i>
   <i type="int" name="MAXMEM">  2800</i>
   <i type="int" name="TELESCOPE">     0</i>
   <i type="int" name="NTAUPAR">    -1</i>
   <i type="int" name="NOMEGAPAR">    -1</i>
   <i name="DAMP_NEWTON">      0.80000001</i>
   <i name="LAMBDA">      1.00000000</i>
  </separator>
  <separator name="External order field" >
   <i name="OFIELD_KAPPA">      0.00000000</i>
   <v name="OFIELD_K">      0.00000000      0.00000000      0.00000000</v>
   <i name="OFIELD_Q6_NEAR">      0.00000000</i>
   <i name="OFIELD_Q6_FAR">      0.00000000</i>
   <i name="OFIELD_A">      0.00000000</i>
  </separator>
  <separator name="optional k-points parameters" >
   <i type="int" name="KPOINTS_OPT_MODE">     1</i>
   <i type="logical" name="LKPOINTS_OPT"> F  </i>
  </separator>
 </parameters>
 <atominfo>
  <atoms>      64 </atoms>
  <types>       2 </types>
  <array name="atoms" >
   <dimension dim="1">ion</dimension>
   <field type="string">element</field>
   <field type="int">atomtype</field>
   <set>
    <rc><c>Na</c><c>   1</c></rc>
    <rc><c>Na</c><c>   1</c></rc>
    <rc><c>Na</c><c>   1</c></rc>
    <rc><c>Na</c><c>   1</c></rc>
    <rc><c>Na</c><c>   1</c></rc>
    <rc><c>Na</c><c>   1</c></rc>
    <rc><c>Na</c><c>   1</c></rc>
    <rc><c>Na</c><c>   1</c></rc>
    <rc><c>Na</c><c>   1</c></rc>
    <rc><c>Na</c><c>   1</c></rc>
    <rc><c>Na</c><c>   1</c></rc>
    <rc><c>Na</c><c>   1</c></rc>
    <rc><c>Na</c><c>   1</c></rc>
    <rc><c>Na</c><c>   1</c></rc>
    <rc><c>Na</c><c>   1</c></rc>
    <rc><c>Na</c><c>   1</c></rc>
    <rc><c>Na</c><c>   1</c></rc>
    <rc><c>Na</c><c>   1</c></rc>
    <rc><c>Na</c><c>   1</c></rc>
    <rc><c>Na</c><c>   1</c></rc>
    <rc><c>Na</c><c>   1</c></rc>
    <rc><c>Na</c><c>   1</c></rc>
    <rc><c>Na</c><c>   1</c></rc>
    <rc><c>Na</c><c>   1</c></rc>
    <rc><c>Na</c><c>   1</c></rc>
    <rc><c>Na</c><c>   1</c></rc>
    <rc><c>Na</c><c>   1</c></rc>
    <rc><c>Na</c><c>   1</c></rc>
    <rc><c>Na</c><c>   1</c></rc>
    <rc><c>Na</c><c>   1</c></rc>
    <rc><c>Na</c><c>   1</c></rc>
    <rc><c>Na</c><c>   1</c></rc>
    <rc><c>Cl</c><c>   2</c></rc>
    <rc><c>Cl</c><c>   2</c></rc>
    <rc><c>Cl</c><c>   2</c></rc>
    <rc><c>Cl</c><c>   2</c></rc>
    <rc><c>Cl</c><c>   2</c></rc>
    <rc><c>Cl</c><c>   2</c></rc>
    <rc><c>Cl</c><c>   2</c></rc>
    <rc><c>Cl</c><c>   2</c></rc>
    <rc><c>Cl</c><c>   2</c></rc>
    <rc><c>Cl</c><c>   2</c></rc>
    <rc><c>Cl</c><c>   2</c></rc>
    <rc><c>Cl</c><c>   2</c></rc>
    <rc><c>Cl</c><c>   2</c></rc>
    <rc><c>Cl</c><c>   2</c></rc>
    <rc><c>Cl</c><c>   2</c></rc>
    <rc><c>Cl</c><c>   2</c></rc>
    <rc><c>Cl</c><c>   2</c></rc>
    <rc><c>Cl</c><c>   2</c></rc>
    <rc><c>Cl</c><c>   2</c></rc>
    <rc><c>Cl</c><c>   2</c></rc>
    <rc><c>Cl</c><c>   2</c></rc>
    <rc><c>Cl</c><c>   2</c></rc>
    <rc><c>Cl</c><c>   2</c></rc>
    <rc><c>Cl</c><c>   2</c></rc>
    <rc><c>Cl</c><c>   2</c></rc>
    <rc><c>Cl</c><c>   2</c></rc>
    <rc><c>Cl</c><c>   2</c></rc>
    <rc><c>Cl</c><c>   2</c></rc>
    <rc><c>Cl</c><c>   2</c></rc>
    <rc><c>Cl</c><c>   2</c></rc>
    <rc><c>Cl</c><c>   2</c></rc>
    <rc><c>Cl</c><c>   2</c></rc>
   </set>
  </array>
  <array name="atomtypes" >
   <dimension dim="1">type</dimension>
   <field type="int">atomspertype</field>
   <field type="string">element</field>
   <field>mass</field>
   <field>valence</field>
   <field type="string">pseudopotential</field>
   <set>
    <rc><c>  32</c><c>Na</c><c>     22.99000000</c><c>      7.00000000</c><c>  PAW_PBE Na_pv 19Sep2006               </c></rc>
    <rc><c>  32</c><c>Cl</c><c>     35.45300000</c><c>      7.00000000</c><c>  PAW_PBE Cl 06Sep2000                  </c></rc>
   </set>
  </array>
 </atominfo>
 <structure name="initialpos" >
  <crystal>
   <varray name="basis" >
    <v>      11.20400236       0.00000000       0.00000000 </v>
    <v>       0.00000000      11.20400236       0.00000000 </v>
    <v>       0.00000000       0.00000000      11.20400236 </v>
   </varray>
   <i name="volume">   1406.43470641 </i>
   <varray name="rec_basis" >
    <v>       0.08925382       0.00000000       0.00000000 </v>
    <v>       0.00000000       0.08925382       0.00000000 </v>
    <v>       0.00000000       0.00000000       0.08925382 </v>
   </varray>
  </crystal>
  <varray name="positions" >
   <v>       0.00267761       0.00000000       0.00000000 </v>
   <v>       0.25267761       0.25000000       0.00000000 </v>
   <v>       0.25000000       0.00000000       0.25000000 </v>
   <v>       0.00000000       0.25000000       0.25000000 </v>
   <v>       0.00000000       0.00000000       0.50000000 </v>
   <v>       0.25000000       0.25000000       0.50000000 </v>
   <v>       0.25000000       0.00000000       0.75000000 </v>
   <v>       0.00000000       0.25000000       0.75000000 </v>
   <v>       0.00000000       0.50000000       0.00000000 </v>
   <v>       0.25000000       0.75000000       0.00000000 </v>
   <v>       0.25000000       0.50000000       0.25000000 </v>
   <v>       0.00000000       0.75000000       0.25000000 </v>
   <v>       0.00000000       0.50000000       0.50000000 </v>
   <v>       0.25000000       0.75000000       0.50000000 </v>
   <v>       0.25000000       0.50000000       0.75000000 </v>
   <v>       0.00000000       0.75000000       0.75000000 </v>
   <v>       0.50000000       0.00000000       0.00000000 </v>
   <v>       0.75000000       0.25000000       0.00000000 </v>
   <v>       0.75000000       0.00000000       0.25000000 </v>
   <v>       0.50000000       0.25000000       0.25000000 </v>
   <v>       0.50000000       0.00000000       0.50000000 </v>
   <v>       0.75000000       0.25000000       0.50000000 </v>
   <v>       0.75000000       0.00000000       0.75000000 </v>
   <v>       0.50000000       0.25000000       0.75000000 </v>
   <v>       0.50000000       0.50000000       0.00000000 </v>
   <v>       0.75000000       0.75000000       0.00000000 </v>
   <v>       0.75000000       0.50000000       0.25000000 </v>
   <v>       0.50000000       0.75000000       0.25000000 </v>
   <v>       0.50000000       0.50000000       0.50000000 </v>
   <v>       0.75000000       0.75000000       0.50000000 </v>
   <v>       0.75000000       0.50000000       0.75000000 </v>
   <v>       0.50000000       0.75000000       0.75000000 </v>
   <v>       0.25000000       0.25000000       0.25000000 </v>
   <v>       0.00000000       0.00000000       0.25000000 </v>
   <v>       0.00000000       0.25000000       0.00000000 </v>
   <v>       0.25000000       0.00000000       0.00000000 </v>
   <v>       0.25000000       0.25000000       0.75000000 </v>
   <v>       0.00000000       0.00000000       0.75000000 </v>
   <v>       0.00000000       0.25000000       0.50000000 </v>
   <v>       0.25000000       0.00000000       0.50000000 </v>
   <v>       0.25000000       0.75000000       0.25000000 </v>
   <v>       0.00000000       0.50000000       0.25000000 </v>
   <v>       0.00000000       0.75000000       0.00000000 </v>
   <v>       0.25000000       0.50000000       0.00000000 </v>
   <v>       0.25000000       0.75000000       0.75000000 </v>
   <v>       0.00000000       0.50000000       0.75000000 </v>
   <v>       0.00000000       0.75000000       0.50000000 </v>
   <v>       0.25000000       0.50000000       0.50000000 </v>
   <v>       0.75000000       0.25000000       0.25000000 </v>
   <v>       0.50000000       0.00000000       0.25000000 </v>
   <v>       0.50000000       0.25000000       0.00000000 </v>
   <v>       0.75000000       0.00000000       0.00000000 </v>
   <v>       0.75000000       0.25000000       0.75000000 </v>
   <v>       0.50000000       0.00000000       0.75000000 </v>
   <v>       0.50000000       0.25000000       0.50000000 </v>
   <v>       0.75000000       0.00000000       0.50000000 </v>
   <v>       0.75000000       0.75000000       0.25000000 </v>
   <v>       0.50000000       0.50000000       0.25000000 </v>
   <v>       0.50000000       0.75000000       0.00000000 </v>
   <v>       0.75000000       0.50000000       0.00000000 </v>
   <v>       0.75000000       0.75000000       0.75000000 </v>
   <v>       0.50000000       0.50000000       0.75000000 </v>
   <v>       0.50000000       0.75000000       0.50000000 </v>
   <v>       0.75000000       0.50000000       0.50000000 </v>
  </varray>
 </structure>
 <calculation>
  <scstep>
   <time name="dav">    9.42    9.52</time>
   <time name="total">    9.49    9.61</time>
   <energy>
    <i name="alphaZ">    751.52672365 </i>
    <i name="ewald"> -22871.34769693 </i>
    <i name="hartreedc">  -8992.23772737 </i>
    <i name="XCdc">   1456.53422166 </i>
    <i name="pawpsdc">  26466.43774078 </i>
    <i name="pawaedc"> -29286.08056155 </i>
    <i name="eentropy">     -0.00310308 </i>
    <i name="bandstr">   -735.22957253 </i>
    <i name="atom">  37532.17946992 </i>
    <i name="e_fr_energy">   4321.77949456 </i>
    <i name="e_wo_entrp">   4321.78259765 </i>
    <i name="e_0_energy">   4321.78104610 </i>
   </energy>
  </scstep>
  <scstep>
   <time name="dav">   10.24   10.30</time>
   <time name="total">   10.24   10.30</time>
   <energy>
    <i name="e_fr_energy">    363.94816042 </i>
    <i name="e_wo_entrp">    363.94816042 </i>
    <i name="e_0_energy">    363.94816042 </i>
   </energy>
  </scstep>
  <scstep>
   <time name="dav">   11.02   11.08</time>
   <time name="total">   11.02   11.08</time>
   <energy>
    <i name="e_fr_energy">   -206.16139070 </i>
    <i name="e_wo_entrp">   -206.16139070 </i>
    <i name="e_0_energy">   -206.16139070 </i>
   </energy>
  </scstep>
  <scstep>
   <time name="dav">   10.99   11.06</time>
   <time name="total">   10.99   11.06</time>
   <energy>
    <i name="e_fr_energy">   -228.19151937 </i>
    <i name="e_wo_entrp">   -228.19151937 </i>
    <i name="e_0_energy">   -228.19151937 </i>
   </energy>
  </scstep>
  <scstep>
   <time name="dav">   11.02   11.08</time>
   <time name="total">   11.35   11.42</time>
   <energy>
    <i name="e_fr_energy">   -229.00396298 </i>
    <i name="e_wo_entrp">   -229.00396298 </i>
    <i name="e_0_energy">   -229.00396298 </i>
   </energy>
  </scstep>
  <scstep>
   <time name="dav">   11.24   11.30</time>
   <time name="total">   11.64   11.71</time>
   <energy>
    <i name="e_fr_energy">   -224.13885324 </i>
    <i name="e_wo_entrp">   -224.13885324 </i>
    <i name="e_0_energy">   -224.13885324 </i>
   </energy>
  </scstep>
  <scstep>
   <time name="dav">   12.04   12.11</time>
   <time name="total">   12.44   12.51</time>
   <energy>
    <i name="e_fr_energy">   -223.77759404 </i>
    <i name="e_wo_entrp">   -223.77759404 </i>
    <i name="e_0_energy">   -223.77759404 </i>
   </energy>
  </scstep>
  <scstep>
   <time name="dav">   10.64   10.70</time>
   <time name="total">   11.05   11.11</time>
   <energy>
    <i name="e_fr_energy">   -223.90281119 </i>
    <i name="e_wo_entrp">   -223.90281119 </i>
    <i name="e_0_energy">   -223.90281119 </i>
   </energy>
  </scstep>
  <scstep>
   <time name="dav">   11.13   11.19</time>
   <time name="total">   11.55   11.61</time>
   <energy>
    <i name="e_fr_energy">   -223.89729474 </i>
    <i name="e_wo_entrp">   -223.89729474 </i>
    <i name="e_0_energy">   -223.89729474 </i>
   </energy>
  </scstep>
  <scstep>
   <time name="dav">   10.69   10.75</time>
   <time name="total">   11.11   11.18</time>
   <energy>
    <i name="e_fr_energy">   -223.90167191 </i>
    <i name="e_wo_entrp">   -223.90167191 </i>
    <i name="e_0_energy">   -223.90167191 </i>
   </energy>
  </scstep>
  <scstep>
   <time name="dav">   11.22   11.29</time>
   <time name="total">   11.63   11.70</time>
   <energy>
    <i name="e_fr_energy">   -223.90089890 </i>
    <i name="e_wo_entrp">   -223.90089890 </i>
    <i name="e_0_energy">   -223.90089890 </i>
   </energy>
  </scstep>
  <scstep>
   <time name="dav">   11.42   11.48</time>
   <time name="total">   11.83   11.90</time>
   <energy>
    <i name="e_fr_energy">   -223.90086435 </i>
    <i name="e_wo_entrp">   -223.90086435 </i>
    <i name="e_0_energy">   -223.90086435 </i>
   </energy>
  </scstep>
  <scstep>
   <time name="dav">   10.84   10.90</time>
   <time name="total">   11.25   11.31</time>
   <energy>
    <i name="e_fr_energy">   -223.90087020 </i>
    <i name="e_wo_entrp">   -223.90087020 </i>
    <i name="e_0_energy">   -223.90087020 </i>
   </energy>
  </scstep>
  <scstep>
   <time name="dav">   11.92   11.99</time>
   <time name="total">   12.33   12.40</time>
   <energy>
    <i name="e_fr_energy">   -223.90086990 </i>
    <i name="e_wo_entrp">   -223.90086990 </i>
    <i name="e_0_energy">   -223.90086990 </i>
   </energy>
  </scstep>
  <scstep>
   <time name="dav">    9.59    9.65</time>
   <time name="total">   10.00   10.06</time>
   <energy>
    <i name="e_fr_energy">   -223.90087108 </i>
    <i name="e_wo_entrp">   -223.90087108 </i>
    <i name="e_0_energy">   -223.90087108 </i>
   </energy>
  </scstep>
  <scstep>
   <time name="dav">   10.60   10.65</time>
   <time name="total">   11.00   11.07</time>
   <energy>
    <i name="e_fr_energy">   -223.90087164 </i>
    <i name="e_wo_entrp">   -223.90087164 </i>
    <i name="e_0_energy">   -223.90087164 </i>
   </energy>
  </scstep>
  <scstep>
   <time name="dav">    7.58    7.62</time>
   <time name="total">    7.99    8.04</time>
   <energy>
    <i name="e_fr_energy">   -223.90087159 </i>
    <i name="e_wo_entrp">   -223.90087159 </i>
    <i name="e_0_energy">   -223.90087159 </i>
   </energy>
  </scstep>
  <scstep>
   <time name="dav">    7.59    7.63</time>
   <time name="total">    7.99    8.04</time>
   <energy>
    <i name="e_fr_energy">   -223.90087161 </i>
    <i name="e_wo_entrp">   -223.90087161 </i>
    <i name="e_0_energy">   -223.90087161 </i>
   </energy>
  </scstep>
  <scstep>
   <time name="dav">    7.14    7.18</time>
   <time name="total">    7.20    7.24</time>
   <energy>
    <i name="alphaZ">    751.52672365 </i>
    <i name="ewald"> -22871.34769693 </i>
    <i name="hartreedc">  -9078.14857783 </i>
    <i name="XCdc">   1472.51335493 </i>
    <i name="pawpsdc">  29498.25449090 </i>
    <i name="pawaedc"> -32317.61926163 </i>
    <i name="eentropy">     -0.00000000 </i>
    <i name="bandstr">  -5211.25937463 </i>
    <i name="atom">  37532.17946992 </i>
    <i name="e_fr_energy">   -223.90087160 </i>
    <i name="e_wo_entrp">   -223.90087160 </i>
    <i name="e_0_energy">   -223.90087160 </i>
   </energy>
  </scstep>
  <structure>
   <crystal>
    <varray name="basis" >
     <v>      11.20400236       0.00000000       0.00000000 </v>
     <v>       0.00000000      11.20400236       0.00000000 </v>
     <v>       0.00000000       0.00000000      11.20400236 </v>
    </varray>
    <i name="volume">   1406.43470641 </i>
    <varray name="rec_basis" >
     <v>       0.08925382       0.00000000       0.00000000 </v>
     <v>       0.00000000       0.08925382       0.00000000 </v>
     <v>       0.00000000       0.00000000       0.08925382 </v>
    </varray>
   </crystal>
   <varray name="positions" >
    <v>       0.00267761       0.00000000       0.00000000 </v>
    <v>       0.25267761       0.25000000       0.00000000 </v>
    <v>       0.25000000       0.00000000       0.25000000 </v>
    <v>       0.00000000       0.25000000       0.25000000 </v>
    <v>       0.00000000       0.00000000       0.50000000 </v>
    <v>       0.25000000       0.25000000       0.50000000 </v>
    <v>       0.25000000       0.00000000       0.75000000 </v>
    <v>       0.00000000       0.25000000       0.75000000 </v>
    <v>       0.00000000       0.50000000       0.00000000 </v>
    <v>       0.25000000       0.75000000       0.00000000 </v>
    <v>       0.25000000       0.50000000       0.25000000 </v>
    <v>       0.00000000       0.75000000       0.25000000 </v>
    <v>       0.00000000       0.50000000       0.50000000 </v>
    <v>       0.25000000       0.75000000       0.50000000 </v>
    <v>       0.25000000       0.50000000       0.75000000 </v>
    <v>       0.00000000       0.75000000       0.75000000 </v>
    <v>       0.50000000       0.00000000       0.00000000 </v>
    <v>       0.75000000       0.25000000       0.00000000 </v>
    <v>       0.75000000       0.00000000       0.25000000 </v>
    <v>       0.50000000       0.25000000       0.25000000 </v>
    <v>       0.50000000       0.00000000       0.50000000 </v>
    <v>       0.75000000       0.25000000       0.50000000 </v>
    <v>       0.75000000       0.00000000       0.75000000 </v>
    <v>       0.50000000       0.25000000       0.75000000 </v>
    <v>       0.50000000       0.50000000       0.00000000 </v>
    <v>       0.75000000       0.75000000       0.00000000 </v>
    <v>       0.75000000       0.50000000       0.25000000 </v>
    <v>       0.50000000       0.75000000       0.25000000 </v>
    <v>       0.50000000       0.50000000       0.50000000 </v>
    <v>       0.75000000       0.75000000       0.50000000 </v>
    <v>       0.75000000       0.50000000       0.75000000 </v>
    <v>       0.50000000       0.75000000       0.75000000 </v>
    <v>       0.25000000       0.25000000       0.25000000 </v>
    <v>       0.00000000       0.00000000       0.25000000 </v>
    <v>       0.00000000       0.25000000       0.00000000 </v>
    <v>       0.25000000       0.00000000       0.00000000 </v>
    <v>       0.25000000       0.25000000       0.75000000 </v>
    <v>       0.00000000       0.00000000       0.75000000 </v>
    <v>       0.00000000       0.25000000       0.50000000 </v>
    <v>       0.25000000       0.00000000       0.50000000 </v>
    <v>       0.25000000       0.75000000       0.25000000 </v>
    <v>       0.00000000       0.50000000       0.25000000 </v>
    <v>       0.00000000       0.75000000       0.00000000 </v>
    <v>       0.25000000       0.50000000       0.00000000 </v>
    <v>       0.25000000       0.75000000       0.75000000 </v>
    <v>       0.00000000       0.50000000       0.75000000 </v>
    <v>       0.00000000       0.75000000       0.50000000 </v>
    <v>       0.25000000       0.50000000       0.50000000 </v>
    <v>       0.75000000       0.25000000       0.25000000 </v>
    <v>       0.50000000       0.00000000       0.25000000 </v>
    <v>       0.50000000       0.25000000       0.00000000 </v>
    <v>       0.75000000       0.00000000       0.00000000 </v>
    <v>       0.75000000       0.25000000       0.75000000 </v>
    <v>       0.50000000       0.00000000       0.75000000 </v>
    <v>       0.50000000       0.25000000       0.50000000 </v>
    <v>       0.75000000       0.00000000       0.50000000 </v>
    <v>       0.75000000       0.75000000       0.25000000 </v>
    <v>       0.50000000       0.50000000       0.25000000 </v>
    <v>       0.50000000       0.75000000       0.00000000 </v>
    <v>       0.75000000       0.50000000       0.00000000 </v>
    <v>       0.75000000       0.75000000       0.75000000 </v>
    <v>       0.50000000       0.50000000       0.75000000 </v>
    <v>       0.50000000       0.75000000       0.50000000 </v>
    <v>       0.75000000       0.50000000       0.50000000 </v>
   </varray>
  </structure>
  <varray name="forces" >
   <v>      -0.06130246       0.00588975       0.00000000 </v>
   <v>      -0.06130619       0.00583771       0.00000000 </v>
   <v>      -0.00014975       0.00001885       0.00590659 </v>
   <v>      -0.00015446      -0.00001868      -0.00582106 </v>
   <v>      -0.00006886      -0.00007334       0.00000000 </v>
   <v>      -0.00008170      -0.00007722       0.00000000 </v>
   <v>      -0.00014975       0.00001885      -0.00590659 </v>
   <v>      -0.00015446      -0.00001868       0.00582106 </v>
   <v>       0.00145673      -0.00580291       0.00000000 </v>
   <v>       0.00146053      -0.00592473       0.00000000 </v>
   <v>      -0.00169650      -0.00001964      -0.00009713 </v>
   <v>      -0.00168299       0.00001964       0.00005350 </v>
   <v>      -0.00047272       0.00007339       0.00000000 </v>
   <v>      -0.00048561       0.00007727       0.00000000 </v>
   <v>      -0.00169650      -0.00001964       0.00009713 </v>
   <v>      -0.00168299       0.00001964      -0.00005350 </v>
   <v>       0.01042666      -0.00592638       0.00000000 </v>
   <v>       0.01042258      -0.00580072       0.00000000 </v>
   <v>       0.00267050      -0.00000447      -0.00579629 </v>
   <v>       0.00267518       0.00000469       0.00593116 </v>
   <v>       0.00027422       0.00007749       0.00000000 </v>
   <v>       0.00028704       0.00007351       0.00000000 </v>
   <v>       0.00267050      -0.00000447       0.00579629 </v>
   <v>       0.00267518       0.00000469      -0.00593116 </v>
   <v>       0.00182107       0.00592690       0.00000000 </v>
   <v>       0.00181588       0.00580015       0.00000000 </v>
   <v>       0.00114124       0.00000473       0.00007793 </v>
   <v>       0.00112842      -0.00000470      -0.00007271 </v>
   <v>       0.00040707      -0.00007727       0.00000000 </v>
   <v>       0.00041921      -0.00007339       0.00000000 </v>
   <v>       0.00114124       0.00000473      -0.00007793 </v>
   <v>       0.00112842      -0.00000470       0.00007271 </v>
   <v>       0.00477585      -0.00130457      -0.00142663 </v>
   <v>       0.00475128      -0.00128318       0.00116043 </v>
   <v>       0.02116991      -0.00008910       0.00000000 </v>
   <v>       0.02521773       0.00008751       0.00000000 </v>
   <v>       0.00477585      -0.00130457       0.00142663 </v>
   <v>       0.00475128      -0.00128318      -0.00116043 </v>
   <v>       0.00073166       0.00000955       0.00000000 </v>
   <v>       0.00076169      -0.00000968       0.00000000 </v>
   <v>       0.00037181       0.00130503      -0.00129497 </v>
   <v>       0.00035044       0.00128424       0.00129366 </v>
   <v>       0.00513344       0.00012257       0.00000000 </v>
   <v>       0.00516275      -0.00012335       0.00000000 </v>
   <v>       0.00037181       0.00130503       0.00129497 </v>
   <v>       0.00035044       0.00128424      -0.00129366 </v>
   <v>       0.00058053      -0.00001060       0.00000000 </v>
   <v>       0.00059144       0.00000957       0.00000000 </v>
   <v>      -0.00306958       0.00128316       0.00126965 </v>
   <v>      -0.00304948       0.00130567      -0.00131790 </v>
   <v>       0.01740428      -0.00002075       0.00000000 </v>
   <v>       0.01334571       0.00002075       0.00000000 </v>
   <v>      -0.00306958       0.00128316      -0.00126965 </v>
   <v>      -0.00304948       0.00130567       0.00131790 </v>
   <v>      -0.00049671      -0.00000072       0.00000000 </v>
   <v>      -0.00052593       0.00000106       0.00000000 </v>
   <v>      -0.00090729      -0.00128260       0.00128179 </v>
   <v>      -0.00088449      -0.00130505      -0.00130653 </v>
   <v>      -0.00265915       0.00001199       0.00000000 </v>
   <v>      -0.00268847      -0.00001351       0.00000000 </v>
   <v>      -0.00090729      -0.00128260      -0.00128179 </v>
   <v>      -0.00088449      -0.00130505       0.00130653 </v>
   <v>      -0.00066536       0.00000015       0.00000000 </v>
   <v>      -0.00067736      -0.00000192       0.00000000 </v>
  </varray>
  <varray name="stress" >
   <v>      -0.35705107       0.00003140       0.00000000 </v>
   <v>       0.00003155      -0.37973523       0.00000000 </v>
   <v>       0.00000000       0.00000000      -0.37987544 </v>
  </varray>
  <energy>
   <i name="e_fr_energy">   -223.90087160 </i>
   <i name="e_wo_entrp">   -223.90087160 </i>
   <i name="e_0_energy">   -223.90087160 </i>
  </energy>
  <time name="totalsc">  216.94  218.24</time>
  <eigenvalues>
   <array>
    <dimension dim="1">band</dimension>
    <dimension dim="2">kpoint</dimension>
    <dimension dim="3">spin</dimension>
    <field>eigene</field>
    <field>occ</field>
    <set>
     <set comment="spin 1">
      <set comment="kpoint 1">
       <r>  -21.3048    1.0000 </r>
       <r>  -21.3048    1.0000 </r>
       <r>  -21.3046    1.0000 </r>
       <r>  -21.3045    1.0000 </r>
       <r>  -21.2960    1.0000 </r>
       <r>  -21.2955    1.0000 </r>
       <r>  -21.2953    1.0000 </r>
       <r>  -21.2949    1.0000 </r>
       <r>  -21.2945    1.0000 </r>
       <r>  -21.2943    1.0000 </r>
       <r>  -21.2941    1.0000 </r>
       <r>  -21.2940    1.0000 </r>
       <r>  -21.2940    1.0000 </r>
       <r>  -21.2935    1.0000 </r>
       <r>  -21.2928    1.0000 </r>
       <r>  -21.2928    1.0000 </r>
       <r>  -21.2925    1.0000 </r>
       <r>  -21.2917    1.0000 </r>
       <r>  -21.2916    1.0000 </r>
       <r>  -21.2886    1.0000 </r>
       <r>  -21.2878    1.0000 </r>
       <r>  -21.2878    1.0000 </r>
       <r>  -21.2876    1.0000 </r>
       <r>  -21.2872    1.0000 </r>
       <r>  -21.2867    1.0000 </r>
       <r>  -21.2864    1.0000 </r>
       <r>  -21.2864    1.0000 </r>
       <r>  -21.2864    1.0000 </r>
       <r>  -21.2860    1.0000 </r>
       <r>  -21.2850    1.0000 </r>
       <r>  -21.2849    1.0000 </r>
       <r>  -21.2845    1.0000 </r>
       <r>  -21.2838    1.0000 </r>
       <r>  -21.2837    1.0000 </r>
       <r>  -21.2834    1.0000 </r>
       <r>  -21.2831    1.0000 </r>
       <r>  -21.2828    1.0000 </r>
       <r>  -21.2827    1.0000 </r>
       <r>  -21.2825    1.0000 </r>
       <r>  -21.2823    1.0000 </r>
       <r>  -21.2817    1.0000 </r>
       <r>  -21.2817    1.0000 </r>
       <r>  -21.2817    1.0000 </r>
       <r>  -21.2816    1.0000 </r>
       <r>  -21.2814    1.0000 </r>
       <r>  -21.2814    1.0000 </r>
       <r>  -21.2814    1.0000 </r>
       <r>  -21.2806    1.0000 </r>
       <r>  -21.2804    1.0000 </r>
       <r>  -21.2803    1.0000 </r>
       <r>  -21.2800    1.0000 </r>
       <r>  -21.2799    1.0000 </r>
       <r>  -21.2798    1.0000 </r>
       <r>  -21.2789    1.0000 </r>
       <r>  -21.2786    1.0000 </r>
       <r>  -21.2780    1.0000 </r>
       <r>  -21.2776    1.0000 </r>
       <r>  -21.2776    1.0000 </r>
       <r>  -21.2768    1.0000 </r>
       <r>  -21.2766    1.0000 </r>
       <r>  -21.2766    1.0000 </r>
       <r>  -21.2756    1.0000 </r>
       <r>  -21.2756    1.0000 </r>
       <r>  -21.2753    1.0000 </r>
       <r>  -21.2752    1.0000 </r>
       <r>  -21.2751    1.0000 </r>
       <r>  -21.2749    1.0000 </r>
       <r>  -21.2748    1.0000 </r>
       <r>  -21.2748    1.0000 </r>
       <r>  -21.2747    1.0000 </r>
       <r>  -21.2745    1.0000 </r>
       <r>  -21.2733    1.0000 </r>
       <r>  -21.2729    1.0000 </r>
       <r>  -21.2728    1.0000 </r>
       <r>  -21.2723    1.0000 </r>
       <r>  -21.2719    1.0000 </r>
       <r>  -21.2716    1.0000 </r>
       <r>  -21.2716    1.0000 </r>
       <r>  -21.2715    1.0000 </r>
       <r>  -21.2712    1.0000 </r>
       <r>  -21.2712    1.0000 </r>
       <r>  -21.2709    1.0000 </r>
       <r>  -21.2703    1.0000 </r>
       <r>  -21.2701    1.0000 </r>
       <r>  -21.2701    1.0000 </r>
       <r>  -21.2699    1.0000 </r>
       <r>  -21.2693    1.0000 </r>
       <r>  -21.2691    1.0000 </r>
       <r>  -21.2688    1.0000 </r>
       <r>  -21.2679    1.0000 </r>
       <r>  -21.2678    1.0000 </r>
       <r>  -21.2676    1.0000 </r>
       <r>  -21.2673    1.0000 </r>
       <r>  -21.2672    1.0000 </r>
       <r>  -21.2669    1.0000 </r>
       <r>  -21.2668    1.0000 </r>
       <r>  -13.3582    1.0000 </r>
       <r>  -13.1437    1.0000 </r>
       <r>  -13.1410    1.0000 </r>
       <r>  -13.1373    1.0000 </r>
       <r>  -13.1373    1.0000 </r>
       <r>  -13.1346    1.0000 </r>
       <r>  -13.1327    1.0000 </r>
       <r>  -13.0222    1.0000 </r>
       <r>  -13.0208    1.0000 </r>
       <r>  -13.0115    1.0000 </r>
       <r>  -13.0115    1.0000 </r>
       <r>  -13.0112    1.0000 </r>
       <r>  -13.0112    1.0000 </r>
       <r>  -13.0112    1.0000 </r>
       <r>  -13.0111    1.0000 </r>
       <r>  -13.0111    1.0000 </r>
       <r>  -13.0111    1.0000 </r>
       <r>  -13.0047    1.0000 </r>
       <r>  -13.0040    1.0000 </r>
       <r>  -12.9897    1.0000 </r>
       <r>  -12.9897    1.0000 </r>
       <r>  -12.9892    1.0000 </r>
       <r>  -12.9879    1.0000 </r>
       <r>  -12.9412    1.0000 </r>
       <r>  -12.9411    1.0000 </r>
       <r>  -12.9400    1.0000 </r>
       <r>  -12.9251    1.0000 </r>
       <r>  -12.9236    1.0000 </r>
       <r>  -12.9214    1.0000 </r>
       <r>  -12.9214    1.0000 </r>
       <r>  -12.9169    1.0000 </r>
       <r>  -12.9137    1.0000 </r>
       <r>   -2.7002    1.0000 </r>
       <r>   -2.7000    1.0000 </r>
       <r>   -2.7000    1.0000 </r>
       <r>   -2.7000    1.0000 </r>
       <r>   -2.4241    1.0000 </r>
       <r>   -2.4240    1.0000 </r>
       <r>   -2.4240    1.0000 </r>
       <r>   -2.2076    1.0000 </r>
       <r>   -2.2075    1.0000 </r>
       <r>   -2.2073    1.0000 </r>
       <r>   -2.2073    1.0000 </r>
       <r>   -2.2048    1.0000 </r>
       <r>   -2.2045    1.0000 </r>
       <r>   -2.2040    1.0000 </r>
       <r>   -2.2039    1.0000 </r>
       <r>   -2.2013    1.0000 </r>
       <r>   -2.2013    1.0000 </r>
       <r>   -2.2013    1.0000 </r>
       <r>   -2.2011    1.0000 </r>
       <r>   -1.9289    1.0000 </r>
       <r>   -1.9278    1.0000 </r>
       <r>   -1.9276    1.0000 </r>
       <r>   -1.9253    1.0000 </r>
       <r>   -1.9248    1.0000 </r>
       <r>   -1.9247    1.0000 </r>
       <r>   -1.9246    1.0000 </r>
       <r>   -1.9246    1.0000 </r>
       <r>   -1.9242    1.0000 </r>
       <r>   -1.9217    1.0000 </r>
       <r>   -1.9216    1.0000 </r>
       <r>   -1.9204    1.0000 </r>
       <r>   -1.7978    1.0000 </r>
       <r>   -1.7974    1.0000 </r>
       <r>   -1.7966    1.0000 </r>
       <r>   -1.7966    1.0000 </r>
       <r>   -1.7959    1.0000 </r>
       <r>   -1.7952    1.0000 </r>
       <r>   -1.5067    1.0000 </r>
       <r>   -1.5066    1.0000 </r>
       <r>   -1.5063    1.0000 </r>
       <r>   -1.5061    1.0000 </r>
       <r>   -1.5060    1.0000 </r>
       <r>   -1.5053    1.0000 </r>
       <r>   -1.5052    1.0000 </r>
       <r>   -1.5052    1.0000 </r>
       <r>   -1.5050    1.0000 </r>
       <r>   -1.5049    1.0000 </r>
       <r>   -1.5044    1.0000 </r>
       <r>   -1.5043    1.0000 </r>
       <r>   -1.4636    1.0000 </r>
       <r>   -1.4630    1.0000 </r>
       <r>   -1.4626    1.0000 </r>
       <r>   -1.4622    1.0000 </r>
       <r>   -1.4619    1.0000 </r>
       <r>   -1.4617    1.0000 </r>
       <r>   -1.2948    1.0000 </r>
       <r>   -1.2948    1.0000 </r>
       <r>   -1.2948    1.0000 </r>
       <r>   -1.2947    1.0000 </r>
       <r>   -1.2946    1.0000 </r>
       <r>   -1.2946    1.0000 </r>
       <r>   -1.0057    1.0000 </r>
       <r>   -1.0039    1.0000 </r>
       <r>   -1.0038    1.0000 </r>
       <r>   -1.0033    1.0000 </r>
       <r>   -1.0019    1.0000 </r>
       <r>   -1.0008    1.0000 </r>
       <r>   -1.0007    1.0000 </r>
       <r>   -1.0007    1.0000 </r>
       <r>   -1.0006    1.0000 </r>
       <r>   -0.9981    1.0000 </r>
       <r>   -0.9979    1.0000 </r>
       <r>   -0.9970    1.0000 </r>
       <r>   -0.9528    1.0000 </r>
       <r>   -0.9527    1.0000 </r>
       <r>   -0.9526    1.0000 </r>
       <r>   -0.9523    1.0000 </r>
       <r>   -0.9481    1.0000 </r>
       <r>   -0.9479    1.0000 </r>
       <r>   -0.9476    1.0000 </r>
       <r>   -0.9474    1.0000 </r>
       <r>   -0.9473    1.0000 </r>
       <r>   -0.9473    1.0000 </r>
       <r>   -0.9470    1.0000 </r>
       <r>   -0.9468    1.0000 </r>
       <r>   -0.9458    1.0000 </r>
       <r>   -0.9458    1.0000 </r>
       <r>   -0.9450    1.0000 </r>
       <r>   -0.9440    1.0000 </r>
       <r>   -0.9410    1.0000 </r>
       <r>   -0.9410    1.0000 </r>
       <r>   -0.9409    1.0000 </r>
       <r>   -0.9401    1.0000 </r>
       <r>   -0.6649    1.0000 </r>
       <r>   -0.6648    1.0000 </r>
       <r>   -0.6647    1.0000 </r>
       <r>    4.3403    0.0000 </r>
       <r>    6.3651    0.0000 </r>
       <r>    6.3664    0.0000 </r>
       <r>    6.3682    0.0000 </r>
       <r>    6.3682    0.0000 </r>
       <r>    6.3699    0.0000 </r>
       <r>    6.3712    0.0000 </r>
       <r>    6.4446    0.0000 </r>
       <r>    6.4446    0.0000 </r>
       <r>    6.4446    0.0000 </r>
       <r>    6.4447    0.0000 </r>
       <r>    6.8280    0.0000 </r>
       <r>    6.8280    0.0000 </r>
       <r>    6.8280    0.0000 </r>
       <r>    7.2068    0.0000 </r>
       <r>    7.2068    0.0000 </r>
       <r>    7.2069    0.0000 </r>
       <r>    7.4607    0.0000 </r>
       <r>    7.4608    0.0000 </r>
       <r>    7.4625    0.0000 </r>
       <r>    7.4626    0.0000 </r>
       <r>    7.4634    0.0000 </r>
       <r>    7.4638    0.0000 </r>
       <r>    7.4646    0.0000 </r>
       <r>    7.4650    0.0000 </r>
       <r>    7.4658    0.0000 </r>
       <r>    7.4658    0.0000 </r>
       <r>    7.4675    0.0000 </r>
       <r>    7.4677    0.0000 </r>
       <r>    8.1662    0.0000 </r>
       <r>    8.1671    0.0000 </r>
       <r>    8.1684    0.0000 </r>
       <r>    8.1684    0.0000 </r>
       <r>    8.1696    0.0000 </r>
       <r>    8.1706    0.0000 </r>
       <r>    8.2768    0.0000 </r>
       <r>    8.2779    0.0000 </r>
       <r>    8.2795    0.0000 </r>
       <r>    8.2796    0.0000 </r>
       <r>    8.2811    0.0000 </r>
       <r>    8.2823    0.0000 </r>
       <r>    8.8948    0.0000 </r>
       <r>    8.8961    0.0000 </r>
       <r>    8.8965    0.0000 </r>
       <r>    8.8975    0.0000 </r>
       <r>    8.8989    0.0000 </r>
       <r>    8.9006    0.0000 </r>
       <r>    8.9015    0.0000 </r>
       <r>    8.9018    0.0000 </r>
       <r>    8.9031    0.0000 </r>
       <r>    8.9034    0.0000 </r>
       <r>    8.9039    0.0000 </r>
       <r>    8.9046    0.0000 </r>
       <r>    8.9130    0.0000 </r>
       <r>    8.9137    0.0000 </r>
       <r>    8.9142    0.0000 </r>
       <r>    8.9165    0.0000 </r>
       <r>    8.9168    0.0000 </r>
       <r>    8.9170    0.0000 </r>
       <r>    8.9183    0.0000 </r>
       <r>    8.9200    0.0000 </r>
       <r>    8.9204    0.0000 </r>
       <r>    8.9213    0.0000 </r>
       <r>    8.9234    0.0000 </r>
      </set>
      <set comment="kpoint 2">
       <r>  -21.3027    1.0000 </r>
       <r>  -21.3026    1.0000 </r>
       <r>  -21.3023    1.0000 </r>
       <r>  -21.3022    1.0000 </r>
       <r>  -21.2971    1.0000 </r>
       <r>  -21.2970    1.0000 </r>
       <r>  -21.2969    1.0000 </r>
       <r>  -21.2969    1.0000 </r>
       <r>  -21.2950    1.0000 </r>
       <r>  -21.2946    1.0000 </r>
       <r>  -21.2944    1.0000 </r>
       <r>  -21.2934    1.0000 </r>
       <r>  -21.2932    1.0000 </r>
       <r>  -21.2927    1.0000 </r>
       <r>  -21.2926    1.0000 </r>
       <r>  -21.2925    1.0000 </r>
       <r>  -21.2925    1.0000 </r>
       <r>  -21.2924    1.0000 </r>
       <r>  -21.2914    1.0000 </r>
       <r>  -21.2902    1.0000 </r>
       <r>  -21.2898    1.0000 </r>
       <r>  -21.2893    1.0000 </r>
       <r>  -21.2889    1.0000 </r>
       <r>  -21.2886    1.0000 </r>
       <r>  -21.2886    1.0000 </r>
       <r>  -21.2881    1.0000 </r>
       <r>  -21.2873    1.0000 </r>
       <r>  -21.2872    1.0000 </r>
       <r>  -21.2871    1.0000 </r>
       <r>  -21.2868    1.0000 </r>
       <r>  -21.2867    1.0000 </r>
       <r>  -21.2866    1.0000 </r>
       <r>  -21.2862    1.0000 </r>
       <r>  -21.2857    1.0000 </r>
       <r>  -21.2843    1.0000 </r>
       <r>  -21.2840    1.0000 </r>
       <r>  -21.2833    1.0000 </r>
       <r>  -21.2833    1.0000 </r>
       <r>  -21.2830    1.0000 </r>
       <r>  -21.2830    1.0000 </r>
       <r>  -21.2818    1.0000 </r>
       <r>  -21.2810    1.0000 </r>
       <r>  -21.2802    1.0000 </r>
       <r>  -21.2800    1.0000 </r>
       <r>  -21.2792    1.0000 </r>
       <r>  -21.2786    1.0000 </r>
       <r>  -21.2785    1.0000 </r>
       <r>  -21.2784    1.0000 </r>
       <r>  -21.2784    1.0000 </r>
       <r>  -21.2781    1.0000 </r>
       <r>  -21.2779    1.0000 </r>
       <r>  -21.2776    1.0000 </r>
       <r>  -21.2775    1.0000 </r>
       <r>  -21.2774    1.0000 </r>
       <r>  -21.2773    1.0000 </r>
       <r>  -21.2772    1.0000 </r>
       <r>  -21.2767    1.0000 </r>
       <r>  -21.2765    1.0000 </r>
       <r>  -21.2763    1.0000 </r>
       <r>  -21.2759    1.0000 </r>
       <r>  -21.2757    1.0000 </r>
       <r>  -21.2757    1.0000 </r>
       <r>  -21.2754    1.0000 </r>
       <r>  -21.2753    1.0000 </r>
       <r>  -21.2752    1.0000 </r>
       <r>  -21.2752    1.0000 </r>
       <r>  -21.2748    1.0000 </r>
       <r>  -21.2748    1.0000 </r>
       <r>  -21.2744    1.0000 </r>
       <r>  -21.2744    1.0000 </r>
       <r>  -21.2743    1.0000 </r>
       <r>  -21.2736    1.0000 </r>
       <r>  -21.2734    1.0000 </r>
       <r>  -21.2731    1.0000 </r>
       <r>  -21.2731    1.0000 </r>
       <r>  -21.2731    1.0000 </r>
       <r>  -21.2729    1.0000 </r>
       <r>  -21.2724    1.0000 </r>
       <r>  -21.2723    1.0000 </r>
       <r>  -21.2720    1.0000 </r>
       <r>  -21.2715    1.0000 </r>
       <r>  -21.2712    1.0000 </r>
       <r>  -21.2707    1.0000 </r>
       <r>  -21.2704    1.0000 </r>
       <r>  -21.2704    1.0000 </r>
       <r>  -21.2703    1.0000 </r>
       <r>  -21.2697    1.0000 </r>
       <r>  -21.2693    1.0000 </r>
       <r>  -21.2690    1.0000 </r>
       <r>  -21.2690    1.0000 </r>
       <r>  -21.2679    1.0000 </r>
       <r>  -21.2677    1.0000 </r>
       <r>  -21.2674    1.0000 </r>
       <r>  -21.2673    1.0000 </r>
       <r>  -21.2672    1.0000 </r>
       <r>  -21.2671    1.0000 </r>
       <r>  -13.2950    1.0000 </r>
       <r>  -13.2879    1.0000 </r>
       <r>  -13.1066    1.0000 </r>
       <r>  -13.1022    1.0000 </r>
       <r>  -13.0988    1.0000 </r>
       <r>  -13.0980    1.0000 </r>
       <r>  -13.0957    1.0000 </r>
       <r>  -13.0949    1.0000 </r>
       <r>  -13.0928    1.0000 </r>
       <r>  -13.0894    1.0000 </r>
       <r>  -13.0105    1.0000 </r>
       <r>  -13.0080    1.0000 </r>
       <r>  -13.0034    1.0000 </r>
       <r>  -13.0033    1.0000 </r>
       <r>  -12.9979    1.0000 </r>
       <r>  -12.9979    1.0000 </r>
       <r>  -12.9978    1.0000 </r>
       <r>  -12.9969    1.0000 </r>
       <r>  -12.9930    1.0000 </r>
       <r>  -12.9896    1.0000 </r>
       <r>  -12.9519    1.0000 </r>
       <r>  -12.9484    1.0000 </r>
       <r>  -12.9456    1.0000 </r>
       <r>  -12.9448    1.0000 </r>
       <r>  -12.9426    1.0000 </r>
       <r>  -12.9418    1.0000 </r>
       <r>  -12.9396    1.0000 </r>
       <r>  -12.9372    1.0000 </r>
       <r>  -12.9347    1.0000 </r>
       <r>  -12.9345    1.0000 </r>
       <r>  -12.9245    1.0000 </r>
       <r>  -12.9226    1.0000 </r>
       <r>   -2.5087    1.0000 </r>
       <r>   -2.5086    1.0000 </r>
       <r>   -2.5081    1.0000 </r>
       <r>   -2.5081    1.0000 </r>
       <r>   -2.5007    1.0000 </r>
       <r>   -2.5006    1.0000 </r>
       <r>   -2.5003    1.0000 </r>
       <r>   -2.5002    1.0000 </r>
       <r>   -2.2912    1.0000 </r>
       <r>   -2.2912    1.0000 </r>
       <r>   -2.2842    1.0000 </r>
       <r>   -2.2842    1.0000 </r>
       <r>   -2.2781    1.0000 </r>
       <r>   -2.2705    1.0000 </r>
       <r>   -2.1432    1.0000 </r>
       <r>   -2.1395    1.0000 </r>
       <r>   -2.1369    1.0000 </r>
       <r>   -2.1367    1.0000 </r>
       <r>   -2.1363    1.0000 </r>
       <r>   -2.1359    1.0000 </r>
       <r>   -2.1336    1.0000 </r>
       <r>   -2.1298    1.0000 </r>
       <r>   -1.9887    1.0000 </r>
       <r>   -1.9878    1.0000 </r>
       <r>   -1.9877    1.0000 </r>
       <r>   -1.9857    1.0000 </r>
       <r>   -1.9849    1.0000 </r>
       <r>   -1.9831    1.0000 </r>
       <r>   -1.9830    1.0000 </r>
       <r>   -1.9823    1.0000 </r>
       <r>   -1.8136    1.0000 </r>
       <r>   -1.8125    1.0000 </r>
       <r>   -1.8125    1.0000 </r>
       <r>   -1.8109    1.0000 </r>
       <r>   -1.8066    1.0000 </r>
       <r>   -1.8050    1.0000 </r>
       <r>   -1.8050    1.0000 </r>
       <r>   -1.8039    1.0000 </r>
       <r>   -1.5010    1.0000 </r>
       <r>   -1.5010    1.0000 </r>
       <r>   -1.4945    1.0000 </r>
       <r>   -1.4945    1.0000 </r>
       <r>   -1.3860    1.0000 </r>
       <r>   -1.3859    1.0000 </r>
       <r>   -1.3752    1.0000 </r>
       <r>   -1.3752    1.0000 </r>
       <r>   -1.2162    1.0000 </r>
       <r>   -1.2161    1.0000 </r>
       <r>   -1.2092    1.0000 </r>
       <r>   -1.2092    1.0000 </r>
       <r>   -1.1942    1.0000 </r>
       <r>   -1.1940    1.0000 </r>
       <r>   -1.1939    1.0000 </r>
       <r>   -1.1914    1.0000 </r>
       <r>   -1.1912    1.0000 </r>
       <r>   -1.1895    1.0000 </r>
       <r>   -1.1891    1.0000 </r>
       <r>   -1.1887    1.0000 </r>
       <r>   -1.1802    1.0000 </r>
       <r>   -1.1791    1.0000 </r>
       <r>   -1.1765    1.0000 </r>
       <r>   -1.1763    1.0000 </r>
       <r>   -1.1725    1.0000 </r>
       <r>   -1.1723    1.0000 </r>
       <r>   -1.1686    1.0000 </r>
       <r>   -1.1673    1.0000 </r>
       <r>   -1.1633    1.0000 </r>
       <r>   -1.1628    1.0000 </r>
       <r>   -1.1627    1.0000 </r>
       <r>   -1.1616    1.0000 </r>
       <r>   -1.1578    1.0000 </r>
       <r>   -1.1559    1.0000 </r>
       <r>   -1.1555    1.0000 </r>
       <r>   -1.1541    1.0000 </r>
       <r>   -1.0865    1.0000 </r>
       <r>   -1.0796    1.0000 </r>
       <r>   -0.9519    1.0000 </r>
       <r>   -0.9518    1.0000 </r>
       <r>   -0.9517    1.0000 </r>
       <r>   -0.9516    1.0000 </r>
       <r>   -0.9424    1.0000 </r>
       <r>   -0.9423    1.0000 </r>
       <r>   -0.9422    1.0000 </r>
       <r>   -0.9420    1.0000 </r>
       <r>   -0.9397    1.0000 </r>
       <r>   -0.9357    1.0000 </r>
       <r>   -0.9327    1.0000 </r>
       <r>   -0.9322    1.0000 </r>
       <r>   -0.9321    1.0000 </r>
       <r>   -0.9319    1.0000 </r>
       <r>   -0.9286    1.0000 </r>
       <r>   -0.9239    1.0000 </r>
       <r>   -0.7716    1.0000 </r>
       <r>   -0.7716    1.0000 </r>
       <r>   -0.7649    1.0000 </r>
       <r>   -0.7649    1.0000 </r>
       <r>    5.0198    0.0000 </r>
       <r>    5.0250    0.0000 </r>
       <r>    6.7148    0.0000 </r>
       <r>    6.7156    0.0000 </r>
       <r>    6.7158    0.0000 </r>
       <r>    6.7169    0.0000 </r>
       <r>    6.7199    0.0000 </r>
       <r>    6.7209    0.0000 </r>
       <r>    6.7210    0.0000 </r>
       <r>    6.7218    0.0000 </r>
       <r>    6.8399    0.0000 </r>
       <r>    6.8400    0.0000 </r>
       <r>    6.8400    0.0000 </r>
       <r>    6.8401    0.0000 </r>
       <r>    6.8464    0.0000 </r>
       <r>    6.8464    0.0000 </r>
       <r>    6.8464    0.0000 </r>
       <r>    6.8465    0.0000 </r>
       <r>    6.9690    0.0000 </r>
       <r>    6.9732    0.0000 </r>
       <r>    7.3591    0.0000 </r>
       <r>    7.3591    0.0000 </r>
       <r>    7.3659    0.0000 </r>
       <r>    7.3660    0.0000 </r>
       <r>    7.4763    0.0000 </r>
       <r>    7.4842    0.0000 </r>
       <r>    7.7104    0.0000 </r>
       <r>    7.7104    0.0000 </r>
       <r>    7.7188    0.0000 </r>
       <r>    7.7188    0.0000 </r>
       <r>    8.2622    0.0000 </r>
       <r>    8.2627    0.0000 </r>
       <r>    8.2628    0.0000 </r>
       <r>    8.2646    0.0000 </r>
       <r>    8.2673    0.0000 </r>
       <r>    8.2691    0.0000 </r>
       <r>    8.2691    0.0000 </r>
       <r>    8.2695    0.0000 </r>
       <r>    8.5333    0.0000 </r>
       <r>    8.5341    0.0000 </r>
       <r>    8.5344    0.0000 </r>
       <r>    8.5358    0.0000 </r>
       <r>    8.5359    0.0000 </r>
       <r>    8.5362    0.0000 </r>
       <r>    8.5365    0.0000 </r>
       <r>    8.5368    0.0000 </r>
       <r>    8.5397    0.0000 </r>
       <r>    8.5404    0.0000 </r>
       <r>    8.5406    0.0000 </r>
       <r>    8.5407    0.0000 </r>
       <r>    8.5410    0.0000 </r>
       <r>    8.5429    0.0000 </r>
       <r>    8.5433    0.0000 </r>
       <r>    8.5442    0.0000 </r>
       <r>    8.9447    0.0000 </r>
       <r>    8.9467    0.0000 </r>
       <r>    8.9475    0.0000 </r>
       <r>    8.9489    0.0000 </r>
       <r>    8.9529    0.0000 </r>
       <r>    8.9543    0.0000 </r>
       <r>    8.9552    0.0000 </r>
       <r>    8.9572    0.0000 </r>
       <r>    9.4888    0.0000 </r>
       <r>    9.5003    0.0000 </r>
      </set>
      <set comment="kpoint 3">
       <r>  -21.3013    1.0000 </r>
       <r>  -21.3011    1.0000 </r>
       <r>  -21.3009    1.0000 </r>
       <r>  -21.3006    1.0000 </r>
       <r>  -21.3000    1.0000 </r>
       <r>  -21.3000    1.0000 </r>
       <r>  -21.2999    1.0000 </r>
       <r>  -21.2998    1.0000 </r>
       <r>  -21.2950    1.0000 </r>
       <r>  -21.2939    1.0000 </r>
       <r>  -21.2934    1.0000 </r>
       <r>  -21.2931    1.0000 </r>
       <r>  -21.2927    1.0000 </r>
       <r>  -21.2922    1.0000 </r>
       <r>  -21.2920    1.0000 </r>
       <r>  -21.2918    1.0000 </r>
       <r>  -21.2912    1.0000 </r>
       <r>  -21.2911    1.0000 </r>
       <r>  -21.2908    1.0000 </r>
       <r>  -21.2905    1.0000 </r>
       <r>  -21.2898    1.0000 </r>
       <r>  -21.2892    1.0000 </r>
       <r>  -21.2886    1.0000 </r>
       <r>  -21.2886    1.0000 </r>
       <r>  -21.2885    1.0000 </r>
       <r>  -21.2883    1.0000 </r>
       <r>  -21.2883    1.0000 </r>
       <r>  -21.2881    1.0000 </r>
       <r>  -21.2875    1.0000 </r>
       <r>  -21.2864    1.0000 </r>
       <r>  -21.2864    1.0000 </r>
       <r>  -21.2853    1.0000 </r>
       <r>  -21.2844    1.0000 </r>
       <r>  -21.2842    1.0000 </r>
       <r>  -21.2841    1.0000 </r>
       <r>  -21.2841    1.0000 </r>
       <r>  -21.2837    1.0000 </r>
       <r>  -21.2826    1.0000 </r>
       <r>  -21.2825    1.0000 </r>
       <r>  -21.2821    1.0000 </r>
       <r>  -21.2817    1.0000 </r>
       <r>  -21.2814    1.0000 </r>
       <r>  -21.2814    1.0000 </r>
       <r>  -21.2812    1.0000 </r>
       <r>  -21.2805    1.0000 </r>
       <r>  -21.2804    1.0000 </r>
       <r>  -21.2791    1.0000 </r>
       <r>  -21.2791    1.0000 </r>
       <r>  -21.2788    1.0000 </r>
       <r>  -21.2784    1.0000 </r>
       <r>  -21.2781    1.0000 </r>
       <r>  -21.2780    1.0000 </r>
       <r>  -21.2780    1.0000 </r>
       <r>  -21.2776    1.0000 </r>
       <r>  -21.2772    1.0000 </r>
       <r>  -21.2771    1.0000 </r>
       <r>  -21.2771    1.0000 </r>
       <r>  -21.2767    1.0000 </r>
       <r>  -21.2767    1.0000 </r>
       <r>  -21.2766    1.0000 </r>
       <r>  -21.2764    1.0000 </r>
       <r>  -21.2762    1.0000 </r>
       <r>  -21.2757    1.0000 </r>
       <r>  -21.2755    1.0000 </r>
       <r>  -21.2751    1.0000 </r>
       <r>  -21.2750    1.0000 </r>
       <r>  -21.2748    1.0000 </r>
       <r>  -21.2747    1.0000 </r>
       <r>  -21.2745    1.0000 </r>
       <r>  -21.2739    1.0000 </r>
       <r>  -21.2735    1.0000 </r>
       <r>  -21.2734    1.0000 </r>
       <r>  -21.2730    1.0000 </r>
       <r>  -21.2729    1.0000 </r>
       <r>  -21.2726    1.0000 </r>
       <r>  -21.2725    1.0000 </r>
       <r>  -21.2719    1.0000 </r>
       <r>  -21.2716    1.0000 </r>
       <r>  -21.2714    1.0000 </r>
       <r>  -21.2713    1.0000 </r>
       <r>  -21.2708    1.0000 </r>
       <r>  -21.2707    1.0000 </r>
       <r>  -21.2706    1.0000 </r>
       <r>  -21.2705    1.0000 </r>
       <r>  -21.2703    1.0000 </r>
       <r>  -21.2697    1.0000 </r>
       <r>  -21.2694    1.0000 </r>
       <r>  -21.2694    1.0000 </r>
       <r>  -21.2689    1.0000 </r>
       <r>  -21.2688    1.0000 </r>
       <r>  -21.2685    1.0000 </r>
       <r>  -21.2684    1.0000 </r>
       <r>  -21.2679    1.0000 </r>
       <r>  -21.2676    1.0000 </r>
       <r>  -21.2676    1.0000 </r>
       <r>  -21.2676    1.0000 </r>
       <r>  -13.2918    1.0000 </r>
       <r>  -13.2913    1.0000 </r>
       <r>  -13.1062    1.0000 </r>
       <r>  -13.1010    1.0000 </r>
       <r>  -13.0969    1.0000 </r>
       <r>  -13.0969    1.0000 </r>
       <r>  -13.0968    1.0000 </r>
       <r>  -13.0968    1.0000 </r>
       <r>  -13.0940    1.0000 </r>
       <r>  -13.0897    1.0000 </r>
       <r>  -13.0091    1.0000 </r>
       <r>  -13.0022    1.0000 </r>
       <r>  -13.0007    1.0000 </r>
       <r>  -13.0007    1.0000 </r>
       <r>  -13.0006    1.0000 </r>
       <r>  -13.0006    1.0000 </r>
       <r>  -13.0005    1.0000 </r>
       <r>  -13.0005    1.0000 </r>
       <r>  -12.9940    1.0000 </r>
       <r>  -12.9912    1.0000 </r>
       <r>  -12.9504    1.0000 </r>
       <r>  -12.9483    1.0000 </r>
       <r>  -12.9440    1.0000 </r>
       <r>  -12.9438    1.0000 </r>
       <r>  -12.9436    1.0000 </r>
       <r>  -12.9436    1.0000 </r>
       <r>  -12.9419    1.0000 </r>
       <r>  -12.9370    1.0000 </r>
       <r>  -12.9311    1.0000 </r>
       <r>  -12.9310    1.0000 </r>
       <r>  -12.9260    1.0000 </r>
       <r>  -12.9258    1.0000 </r>
       <r>   -2.5050    1.0000 </r>
       <r>   -2.5048    1.0000 </r>
       <r>   -2.5046    1.0000 </r>
       <r>   -2.5046    1.0000 </r>
       <r>   -2.5042    1.0000 </r>
       <r>   -2.5042    1.0000 </r>
       <r>   -2.5042    1.0000 </r>
       <r>   -2.5041    1.0000 </r>
       <r>   -2.2878    1.0000 </r>
       <r>   -2.2877    1.0000 </r>
       <r>   -2.2876    1.0000 </r>
       <r>   -2.2876    1.0000 </r>
       <r>   -2.2744    1.0000 </r>
       <r>   -2.2741    1.0000 </r>
       <r>   -2.1420    1.0000 </r>
       <r>   -2.1388    1.0000 </r>
       <r>   -2.1364    1.0000 </r>
       <r>   -2.1364    1.0000 </r>
       <r>   -2.1364    1.0000 </r>
       <r>   -2.1364    1.0000 </r>
       <r>   -2.1341    1.0000 </r>
       <r>   -2.1307    1.0000 </r>
       <r>   -1.9875    1.0000 </r>
       <r>   -1.9872    1.0000 </r>
       <r>   -1.9858    1.0000 </r>
       <r>   -1.9857    1.0000 </r>
       <r>   -1.9855    1.0000 </r>
       <r>   -1.9853    1.0000 </r>
       <r>   -1.9838    1.0000 </r>
       <r>   -1.9835    1.0000 </r>
       <r>   -1.8100    1.0000 </r>
       <r>   -1.8093    1.0000 </r>
       <r>   -1.8088    1.0000 </r>
       <r>   -1.8087    1.0000 </r>
       <r>   -1.8087    1.0000 </r>
       <r>   -1.8084    1.0000 </r>
       <r>   -1.8082    1.0000 </r>
       <r>   -1.8073    1.0000 </r>
       <r>   -1.4979    1.0000 </r>
       <r>   -1.4979    1.0000 </r>
       <r>   -1.4977    1.0000 </r>
       <r>   -1.4977    1.0000 </r>
       <r>   -1.3807    1.0000 </r>
       <r>   -1.3807    1.0000 </r>
       <r>   -1.3804    1.0000 </r>
       <r>   -1.3804    1.0000 </r>
       <r>   -1.2147    1.0000 </r>
       <r>   -1.2128    1.0000 </r>
       <r>   -1.2128    1.0000 </r>
       <r>   -1.2123    1.0000 </r>
       <r>   -1.1943    1.0000 </r>
       <r>   -1.1937    1.0000 </r>
       <r>   -1.1933    1.0000 </r>
       <r>   -1.1915    1.0000 </r>
       <r>   -1.1909    1.0000 </r>
       <r>   -1.1902    1.0000 </r>
       <r>   -1.1900    1.0000 </r>
       <r>   -1.1890    1.0000 </r>
       <r>   -1.1758    1.0000 </r>
       <r>   -1.1745    1.0000 </r>
       <r>   -1.1743    1.0000 </r>
       <r>   -1.1743    1.0000 </r>
       <r>   -1.1742    1.0000 </r>
       <r>   -1.1739    1.0000 </r>
       <r>   -1.1731    1.0000 </r>
       <r>   -1.1721    1.0000 </r>
       <r>   -1.1606    1.0000 </r>
       <r>   -1.1601    1.0000 </r>
       <r>   -1.1596    1.0000 </r>
       <r>   -1.1592    1.0000 </r>
       <r>   -1.1591    1.0000 </r>
       <r>   -1.1589    1.0000 </r>
       <r>   -1.1576    1.0000 </r>
       <r>   -1.1562    1.0000 </r>
       <r>   -1.0833    1.0000 </r>
       <r>   -1.0830    1.0000 </r>
       <r>   -0.9480    1.0000 </r>
       <r>   -0.9469    1.0000 </r>
       <r>   -0.9469    1.0000 </r>
       <r>   -0.9469    1.0000 </r>
       <r>   -0.9468    1.0000 </r>
       <r>   -0.9467    1.0000 </r>
       <r>   -0.9466    1.0000 </r>
       <r>   -0.9465    1.0000 </r>
       <r>   -0.9381    1.0000 </r>
       <r>   -0.9347    1.0000 </r>
       <r>   -0.9325    1.0000 </r>
       <r>   -0.9324    1.0000 </r>
       <r>   -0.9322    1.0000 </r>
       <r>   -0.9313    1.0000 </r>
       <r>   -0.9298    1.0000 </r>
       <r>   -0.9262    1.0000 </r>
       <r>   -0.7683    1.0000 </r>
       <r>   -0.7683    1.0000 </r>
       <r>   -0.7681    1.0000 </r>
       <r>   -0.7678    1.0000 </r>
       <r>    5.0224    0.0000 </r>
       <r>    5.0224    0.0000 </r>
       <r>    6.7140    0.0000 </r>
       <r>    6.7165    0.0000 </r>
       <r>    6.7182    0.0000 </r>
       <r>    6.7183    0.0000 </r>
       <r>    6.7183    0.0000 </r>
       <r>    6.7185    0.0000 </r>
       <r>    6.7202    0.0000 </r>
       <r>    6.7225    0.0000 </r>
       <r>    6.8423    0.0000 </r>
       <r>    6.8424    0.0000 </r>
       <r>    6.8426    0.0000 </r>
       <r>    6.8427    0.0000 </r>
       <r>    6.8438    0.0000 </r>
       <r>    6.8439    0.0000 </r>
       <r>    6.8440    0.0000 </r>
       <r>    6.8440    0.0000 </r>
       <r>    6.9710    0.0000 </r>
       <r>    6.9711    0.0000 </r>
       <r>    7.3625    0.0000 </r>
       <r>    7.3626    0.0000 </r>
       <r>    7.3626    0.0000 </r>
       <r>    7.3626    0.0000 </r>
       <r>    7.4802    0.0000 </r>
       <r>    7.4803    0.0000 </r>
       <r>    7.7145    0.0000 </r>
       <r>    7.7146    0.0000 </r>
       <r>    7.7146    0.0000 </r>
       <r>    7.7146    0.0000 </r>
       <r>    8.2621    0.0000 </r>
       <r>    8.2639    0.0000 </r>
       <r>    8.2650    0.0000 </r>
       <r>    8.2658    0.0000 </r>
       <r>    8.2659    0.0000 </r>
       <r>    8.2668    0.0000 </r>
       <r>    8.2681    0.0000 </r>
       <r>    8.2697    0.0000 </r>
       <r>    8.5348    0.0000 </r>
       <r>    8.5355    0.0000 </r>
       <r>    8.5361    0.0000 </r>
       <r>    8.5362    0.0000 </r>
       <r>    8.5377    0.0000 </r>
       <r>    8.5381    0.0000 </r>
       <r>    8.5383    0.0000 </r>
       <r>    8.5383    0.0000 </r>
       <r>    8.5383    0.0000 </r>
       <r>    8.5386    0.0000 </r>
       <r>    8.5388    0.0000 </r>
       <r>    8.5395    0.0000 </r>
       <r>    8.5406    0.0000 </r>
       <r>    8.5411    0.0000 </r>
       <r>    8.5412    0.0000 </r>
       <r>    8.5428    0.0000 </r>
       <r>    8.9433    0.0000 </r>
       <r>    8.9474    0.0000 </r>
       <r>    8.9506    0.0000 </r>
       <r>    8.9509    0.0000 </r>
       <r>    8.9509    0.0000 </r>
       <r>    8.9512    0.0000 </r>
       <r>    8.9544    0.0000 </r>
       <r>    8.9585    0.0000 </r>
       <r>    9.4938    0.0000 </r>
       <r>    9.5216    0.0000 </r>
      </set>
      <set comment="kpoint 4">
       <r>  -21.3014    1.0000 </r>
       <r>  -21.3013    1.0000 </r>
       <r>  -21.3008    1.0000 </r>
       <r>  -21.3007    1.0000 </r>
       <r>  -21.3001    1.0000 </r>
       <r>  -21.2999    1.0000 </r>
       <r>  -21.2997    1.0000 </r>
       <r>  -21.2996    1.0000 </r>
       <r>  -21.2950    1.0000 </r>
       <r>  -21.2943    1.0000 </r>
       <r>  -21.2933    1.0000 </r>
       <r>  -21.2929    1.0000 </r>
       <r>  -21.2928    1.0000 </r>
       <r>  -21.2926    1.0000 </r>
       <r>  -21.2922    1.0000 </r>
       <r>  -21.2915    1.0000 </r>
       <r>  -21.2908    1.0000 </r>
       <r>  -21.2907    1.0000 </r>
       <r>  -21.2907    1.0000 </r>
       <r>  -21.2906    1.0000 </r>
       <r>  -21.2898    1.0000 </r>
       <r>  -21.2896    1.0000 </r>
       <r>  -21.2895    1.0000 </r>
       <r>  -21.2887    1.0000 </r>
       <r>  -21.2883    1.0000 </r>
       <r>  -21.2882    1.0000 </r>
       <r>  -21.2880    1.0000 </r>
       <r>  -21.2877    1.0000 </r>
       <r>  -21.2876    1.0000 </r>
       <r>  -21.2863    1.0000 </r>
       <r>  -21.2861    1.0000 </r>
       <r>  -21.2848    1.0000 </r>
       <r>  -21.2842    1.0000 </r>
       <r>  -21.2842    1.0000 </r>
       <r>  -21.2841    1.0000 </r>
       <r>  -21.2840    1.0000 </r>
       <r>  -21.2837    1.0000 </r>
       <r>  -21.2836    1.0000 </r>
       <r>  -21.2820    1.0000 </r>
       <r>  -21.2818    1.0000 </r>
       <r>  -21.2815    1.0000 </r>
       <r>  -21.2814    1.0000 </r>
       <r>  -21.2814    1.0000 </r>
       <r>  -21.2811    1.0000 </r>
       <r>  -21.2810    1.0000 </r>
       <r>  -21.2803    1.0000 </r>
       <r>  -21.2793    1.0000 </r>
       <r>  -21.2792    1.0000 </r>
       <r>  -21.2791    1.0000 </r>
       <r>  -21.2790    1.0000 </r>
       <r>  -21.2788    1.0000 </r>
       <r>  -21.2780    1.0000 </r>
       <r>  -21.2777    1.0000 </r>
       <r>  -21.2777    1.0000 </r>
       <r>  -21.2775    1.0000 </r>
[...]
      </set>
     </set>
    </set>
   </array>
  </eigenvalues>
  <separator name="orbital magnetization" >
   <v name="MAGDIPOLOUT">      0.00000000      0.00000000      0.00000000</v>
  </separator>
  <dos>
   <i name="efermi">     -0.55091992 </i>
   <total>
    <array>
     <dimension dim="1">gridpoints</dimension>
     <dimension dim="2">spin</dimension>
     <field>energy</field>
     <field>total</field>
     <field>integrated</field>
     <set>
      <set comment="spin 1">
       <r>   -22.8461     0.0000     0.0000 </r>
       <r>   -22.7331     0.0000     0.0000 </r>
       <r>   -22.6201     0.0000     0.0000 </r>
       <r>   -22.5071     0.0000     0.0000 </r>
       <r>   -22.3940     0.0000     0.0000 </r>
       <r>   -22.2810     0.0000     0.0000 </r>
       <r>   -22.1680     0.0000     0.0000 </r>
       <r>   -22.0549     0.0000     0.0000 </r>
       <r>   -21.9419     0.0000     0.0000 </r>
       <r>   -21.8289     0.0000     0.0000 </r>
       <r>   -21.7158     0.0000     0.0000 </r>
       <r>   -21.6028     0.0000     0.0000 </r>
       <r>   -21.4898     0.0000     0.0000 </r>
       <r>   -21.3768     0.0000     0.0000 </r>
       <r>   -21.2637  1436.8485   162.4074 </r>
       <r>   -21.1507   261.8110   192.0000 </r>
       <r>   -21.0377     0.0000   192.0000 </r>
       <r>   -20.9246     0.0000   192.0000 </r>
       <r>   -20.8116     0.0000   192.0000 </r>
       <r>   -20.6986     0.0000   192.0000 </r>
       <r>   -20.5855     0.0000   192.0000 </r>
       <r>   -20.4725     0.0000   192.0000 </r>
       <r>   -20.3595     0.0000   192.0000 </r>
       <r>   -20.2465     0.0000   192.0000 </r>
       <r>   -20.1334     0.0000   192.0000 </r>
       <r>   -20.0204     0.0000   192.0000 </r>
       <r>   -19.9074     0.0000   192.0000 </r>
       <r>   -19.7943     0.0000   192.0000 </r>
       <r>   -19.6813     0.0000   192.0000 </r>
       <r>   -19.5683     0.0000   192.0000 </r>
       <r>   -19.4552     0.0000   192.0000 </r>
       <r>   -19.3422     0.0000   192.0000 </r>
       <r>   -19.2292     0.0000   192.0000 </r>
       <r>   -19.1161     0.0000   192.0000 </r>
       <r>   -19.0031     0.0000   192.0000 </r>
       <r>   -18.8901     0.0000   192.0000 </r>
       <r>   -18.7771     0.0000   192.0000 </r>
       <r>   -18.6640     0.0000   192.0000 </r>
       <r>   -18.5510     0.0000   192.0000 </r>
       <r>   -18.4380     0.0000   192.0000 </r>
       <r>   -18.3249     0.0000   192.0000 </r>
       <r>   -18.2119     0.0000   192.0000 </r>
       <r>   -18.0989     0.0000   192.0000 </r>
       <r>   -17.9858     0.0000   192.0000 </r>
       <r>   -17.8728     0.0000   192.0000 </r>
       <r>   -17.7598     0.0000   192.0000 </r>
       <r>   -17.6468     0.0000   192.0000 </r>
       <r>   -17.5337     0.0000   192.0000 </r>
       <r>   -17.4207     0.0000   192.0000 </r>
       <r>   -17.3077     0.0000   192.0000 </r>
       <r>   -17.1946     0.0000   192.0000 </r>
       <r>   -17.0816     0.0000   192.0000 </r>
       <r>   -16.9686     0.0000   192.0000 </r>
       <r>   -16.8555     0.0000   192.0000 </r>
       <r>   -16.7425     0.0000   192.0000 </r>
       <r>   -16.6295     0.0000   192.0000 </r>
       <r>   -16.5165     0.0000   192.0000 </r>
       <r>   -16.4034     0.0000   192.0000 </r>
       <r>   -16.2904     0.0000   192.0000 </r>
       <r>   -16.1774     0.0000   192.0000 </r>
       <r>   -16.0643     0.0000   192.0000 </r>
       <r>   -15.9513     0.0000   192.0000 </r>
       <r>   -15.8383     0.0000   192.0000 </r>
       <r>   -15.7252     0.0000   192.0000 </r>
       <r>   -15.6122     0.0000   192.0000 </r>
       <r>   -15.4992     0.0000   192.0000 </r>
       <r>   -15.3861     0.0000   192.0000 </r>
       <r>   -15.2731     0.0000   192.0000 </r>
       <r>   -15.1601     0.0000   192.0000 </r>
       <r>   -15.0471     0.0000   192.0000 </r>
       <r>   -14.9340     0.0000   192.0000 </r>
       <r>   -14.8210     0.0000   192.0000 </r>
       <r>   -14.7080     0.0000   192.0000 </r>
       <r>   -14.5949     0.0000   192.0000 </r>
       <r>   -14.4819     0.0000   192.0000 </r>
       <r>   -14.3689     0.0000   192.0000 </r>
       <r>   -14.2558     0.0000   192.0000 </r>
       <r>   -14.1428     0.0000   192.0000 </r>
       <r>   -14.0298     0.0000   192.0000 </r>
       <r>   -13.9168     0.0000   192.0000 </r>
       <r>   -13.8037     0.0000   192.0000 </r>
       <r>   -13.6907     0.0000   192.0000 </r>
       <r>   -13.5777     0.0000   192.0000 </r>
       <r>   -13.4646     0.0000   192.0000 </r>
       <r>   -13.3516     1.5029   192.1699 </r>
       <r>   -13.2386    22.5979   194.7241 </r>
       <r>   -13.1255    47.7666   200.1234 </r>
       <r>   -13.0125   134.4621   215.3218 </r>
       <r>   -12.8995   357.5713   255.7387 </r>
       <r>   -12.7865     2.3056   256.0000 </r>
       <r>   -12.6734     0.0000   256.0000 </r>
       <r>   -12.5604     0.0000   256.0000 </r>
       <r>   -12.4474     0.0000   256.0000 </r>
       <r>   -12.3343     0.0000   256.0000 </r>
       <r>   -12.2213     0.0000   256.0000 </r>
       <r>   -12.1083     0.0000   256.0000 </r>
       <r>   -11.9952     0.0000   256.0000 </r>
       <r>   -11.8822     0.0000   256.0000 </r>
       <r>   -11.7692     0.0000   256.0000 </r>
       <r>   -11.6561     0.0000   256.0000 </r>
       <r>   -11.5431     0.0000   256.0000 </r>
       <r>   -11.4301     0.0000   256.0000 </r>
       <r>   -11.3171     0.0000   256.0000 </r>
       <r>   -11.2040     0.0000   256.0000 </r>
       <r>   -11.0910     0.0000   256.0000 </r>
       <r>   -10.9780     0.0000   256.0000 </r>
       <r>   -10.8649     0.0000   256.0000 </r>
       <r>   -10.7519     0.0000   256.0000 </r>
       <r>   -10.6389     0.0000   256.0000 </r>
       <r>   -10.5258     0.0000   256.0000 </r>
       <r>   -10.4128     0.0000   256.0000 </r>
       <r>   -10.2998     0.0000   256.0000 </r>
       <r>   -10.1868     0.0000   256.0000 </r>
       <r>   -10.0737     0.0000   256.0000 </r>
       <r>    -9.9607     0.0000   256.0000 </r>
       <r>    -9.8477     0.0000   256.0000 </r>
       <r>    -9.7346     0.0000   256.0000 </r>
       <r>    -9.6216     0.0000   256.0000 </r>
       <r>    -9.5086     0.0000   256.0000 </r>
       <r>    -9.3955     0.0000   256.0000 </r>
       <r>    -9.2825     0.0000   256.0000 </r>
       <r>    -9.1695     0.0000   256.0000 </r>
       <r>    -9.0565     0.0000   256.0000 </r>
       <r>    -8.9434     0.0000   256.0000 </r>
       <r>    -8.8304     0.0000   256.0000 </r>
       <r>    -8.7174     0.0000   256.0000 </r>
       <r>    -8.6043     0.0000   256.0000 </r>
       <r>    -8.4913     0.0000   256.0000 </r>
       <r>    -8.3783     0.0000   256.0000 </r>
       <r>    -8.2652     0.0000   256.0000 </r>
       <r>    -8.1522     0.0000   256.0000 </r>
       <r>    -8.0392     0.0000   256.0000 </r>
       <r>    -7.9261     0.0000   256.0000 </r>
       <r>    -7.8131     0.0000   256.0000 </r>
       <r>    -7.7001     0.0000   256.0000 </r>
       <r>    -7.5871     0.0000   256.0000 </r>
       <r>    -7.4740     0.0000   256.0000 </r>
       <r>    -7.3610     0.0000   256.0000 </r>
       <r>    -7.2480     0.0000   256.0000 </r>
       <r>    -7.1349     0.0000   256.0000 </r>
       <r>    -7.0219     0.0000   256.0000 </r>
       <r>    -6.9089     0.0000   256.0000 </r>
       <r>    -6.7958     0.0000   256.0000 </r>
       <r>    -6.6828     0.0000   256.0000 </r>
       <r>    -6.5698     0.0000   256.0000 </r>
       <r>    -6.4568     0.0000   256.0000 </r>
       <r>    -6.3437     0.0000   256.0000 </r>
       <r>    -6.2307     0.0000   256.0000 </r>
       <r>    -6.1177     0.0000   256.0000 </r>
       <r>    -6.0046     0.0000   256.0000 </r>
       <r>    -5.8916     0.0000   256.0000 </r>
       <r>    -5.7786     0.0000   256.0000 </r>
       <r>    -5.6655     0.0000   256.0000 </r>
       <r>    -5.5525     0.0000   256.0000 </r>
       <r>    -5.4395     0.0000   256.0000 </r>
       <r>    -5.3265     0.0000   256.0000 </r>
       <r>    -5.2134     0.0000   256.0000 </r>
       <r>    -5.1004     0.0000   256.0000 </r>
       <r>    -4.9874     0.0000   256.0000 </r>
       <r>    -4.8743     0.0000   256.0000 </r>
       <r>    -4.7613     0.0000   256.0000 </r>
       <r>    -4.6483     0.0000   256.0000 </r>
       <r>    -4.5352     0.0000   256.0000 </r>
       <r>    -4.4222     0.0000   256.0000 </r>
       <r>    -4.3092     0.0000   256.0000 </r>
       <r>    -4.1961     0.0000   256.0000 </r>
       <r>    -4.0831     0.0000   256.0000 </r>
       <r>    -3.9701     0.0000   256.0000 </r>
       <r>    -3.8571     0.0000   256.0000 </r>
       <r>    -3.7440     0.0000   256.0000 </r>
       <r>    -3.6310     0.0000   256.0000 </r>
       <r>    -3.5180     0.0000   256.0000 </r>
       <r>    -3.4049     0.0000   256.0000 </r>
       <r>    -3.2919     0.0000   256.0000 </r>
       <r>    -3.1789     0.0000   256.0000 </r>
       <r>    -3.0658     0.0000   256.0000 </r>
       <r>    -2.9528     0.0000   256.0000 </r>
       <r>    -2.8398     0.0000   256.0000 </r>
       <r>    -2.7268     0.2615   256.0296 </r>
       <r>    -2.6137     8.5856   257.0000 </r>
       <r>    -2.5007    32.0327   260.6207 </r>
       <r>    -2.3877    78.7155   269.5179 </r>
       <r>    -2.2746    86.9443   279.3453 </r>
       <r>    -2.1616   152.2925   296.5594 </r>
       <r>    -2.0486    68.0408   304.2500 </r>
       <r>    -1.9355    59.0429   310.9237 </r>
       <r>    -1.8225    67.1841   318.5188 </r>
       <r>    -1.7095    63.9762   325.7500 </r>
       <r>    -1.5965     0.0000   325.7500 </r>
       <r>    -1.4834    90.1991   335.9452 </r>
       <r>    -1.3704   181.4317   356.4525 </r>
       <r>    -1.2574    21.2267   358.8518 </r>
       <r>    -1.1443   262.2980   388.4994 </r>
       <r>    -1.0313   131.5435   403.3687 </r>
       <r>    -0.9183   262.3343   433.0207 </r>
       <r>    -0.8052    59.5403   439.7510 </r>
       <r>    -0.6922    66.5048   447.2680 </r>
       <r>    -0.5792     6.4743   448.0000 </r>
       <r>    -0.4661     0.0000   448.0000 </r>
       <r>    -0.3531     0.0000   448.0000 </r>
       <r>    -0.2401     0.0000   448.0000 </r>
       <r>    -0.1271     0.0000   448.0000 </r>
       <r>    -0.0140     0.0000   448.0000 </r>
       <r>     0.0990     0.0000   448.0000 </r>
       <r>     0.2120     0.0000   448.0000 </r>
       <r>     0.3251     0.0000   448.0000 </r>
       <r>     0.4381     0.0000   448.0000 </r>
       <r>     0.5511     0.0000   448.0000 </r>
       <r>     0.6642     0.0000   448.0000 </r>
       <r>     0.7772     0.0000   448.0000 </r>
       <r>     0.8902     0.0000   448.0000 </r>
       <r>     1.0032     0.0000   448.0000 </r>
       <r>     1.1163     0.0000   448.0000 </r>
       <r>     1.2293     0.0000   448.0000 </r>
       <r>     1.3423     0.0000   448.0000 </r>
       <r>     1.4554     0.0000   448.0000 </r>
       <r>     1.5684     0.0000   448.0000 </r>
       <r>     1.6814     0.0000   448.0000 </r>
       <r>     1.7945     0.0000   448.0000 </r>
       <r>     1.9075     0.0000   448.0000 </r>
       <r>     2.0205     0.0000   448.0000 </r>
       <r>     2.1335     0.0000   448.0000 </r>
       <r>     2.2466     0.0000   448.0000 </r>
       <r>     2.3596     0.0000   448.0000 </r>
       <r>     2.4726     0.0000   448.0000 </r>
       <r>     2.5857     0.0000   448.0000 </r>
       <r>     2.6987     0.0000   448.0000 </r>
       <r>     2.8117     0.0000   448.0000 </r>
       <r>     2.9248     0.0000   448.0000 </r>
       <r>     3.0378     0.0000   448.0000 </r>
       <r>     3.1508     0.0000   448.0000 </r>
       <r>     3.2639     0.0000   448.0000 </r>
       <r>     3.3769     0.0000   448.0000 </r>
       <r>     3.4899     0.0000   448.0000 </r>
       <r>     3.6029     0.0000   448.0000 </r>
       <r>     3.7160     0.0000   448.0000 </r>
       <r>     3.8290     0.0000   448.0000 </r>
       <r>     3.9420     0.0000   448.0000 </r>
       <r>     4.0551     0.0000   448.0000 </r>
       <r>     4.1681     0.0000   448.0000 </r>
       <r>     4.2811     0.0000   448.0000 </r>
       <r>     4.3942     2.2116   448.2500 </r>
       <r>     4.5072     0.0000   448.2500 </r>
       <r>     4.6202     0.0000   448.2500 </r>
       <r>     4.7332     0.0000   448.2500 </r>
       <r>     4.8463     0.0000   448.2500 </r>
       <r>     4.9593     0.0001   448.2500 </r>
       <r>     5.0723    13.2678   449.7497 </r>
       <r>     5.1854     0.0000   449.7500 </r>
       <r>     5.2984     0.0000   449.7500 </r>
       <r>     5.4114     0.0000   449.7500 </r>
       <r>     5.5245     3.9150   450.1925 </r>
       <r>     5.6375    22.6266   452.7500 </r>
       <r>     5.7505     0.0000   452.7500 </r>
       <r>     5.8636    17.4548   454.7229 </r>
       <r>     5.9766     0.2396   454.7500 </r>
       <r>     6.0896     0.0000   454.7500 </r>
       <r>     6.2026     0.0000   454.7500 </r>
       <r>     6.3157     0.0016   454.7502 </r>
       <r>     6.4287    14.4201   456.3801 </r>
       <r>     6.5417     7.6961   457.2500 </r>
       <r>     6.6548    45.8324   462.4304 </r>
       <r>     6.7678    60.3190   469.2483 </r>
       <r>     6.8808    59.5021   475.9747 </r>
       <r>     6.9939    12.7743   477.4187 </r>
       <r>     7.1069     0.7193   477.5000 </r>
       <r>     7.2199     5.4573   478.1168 </r>
       <r>     7.3329     1.6847   478.3073 </r>
       <r>     7.4460    82.4852   487.6306 </r>
       <r>     7.5590   167.7215   506.5889 </r>
       <r>     7.6720     1.4652   506.7545 </r>
       <r>     7.7851    26.5013   509.7500 </r>
       <r>     7.8981     0.3745   509.7923 </r>
       <r>     8.0111    52.7086   515.7500 </r>
       <r>     8.1242     0.0124   515.7514 </r>
       <r>     8.2372    14.4824   517.3883 </r>
       <r>     8.3502    91.6684   527.7497 </r>
       <r>     8.4632     0.0000   527.7500 </r>
       <r>     8.5763   153.5933   545.1107 </r>
       <r>     8.6893     5.6560   545.7500 </r>
       <r>     8.8023     0.0000   545.7500 </r>
       <r>     8.9154    86.5045   555.5276 </r>
       <r>     9.0284   121.4557   569.2558 </r>
       <r>     9.1414     2.1604   569.5000 </r>
       <r>     9.2545    25.9793   572.4365 </r>
       <r>     9.3675    18.2566   574.5000 </r>
       <r>     9.4805     2.0610   574.7330 </r>
       <r>     9.5936    11.2098   576.0000 </r>
       <r>     9.7066     0.0000   576.0000 </r>
       <r>     9.8196     0.0000   576.0000 </r>
       <r>     9.9326     0.0000   576.0000 </r>
       <r>    10.0457     0.0000   576.0000 </r>
       <r>    10.1587     0.0000   576.0000 </r>
       <r>    10.2717     0.0000   576.0000 </r>
       <r>    10.3848     0.0000   576.0000 </r>
       <r>    10.4978     0.0000   576.0000 </r>
       <r>    10.6108     0.0000   576.0000 </r>
       <r>    10.7239     0.0000   576.0000 </r>
       <r>    10.8369     0.0000   576.0000 </r>
       <r>    10.9499     0.0000   576.0000 </r>
       <r>    11.0629     0.0000   576.0000 </r>
      </set>
     </set>
    </array>
   </total>
  </dos>
 </calculation>
 <structure name="finalpos" >
  <crystal>
   <varray name="basis" >
    <v>      11.20400236       0.00000000       0.00000000 </v>
    <v>       0.00000000      11.20400236       0.00000000 </v>
    <v>       0.00000000       0.00000000      11.20400236 </v>
   </varray>
   <i name="volume">   1406.43470641 </i>
   <varray name="rec_basis" >
    <v>       0.08925382       0.00000000       0.00000000 </v>
    <v>       0.00000000       0.08925382       0.00000000 </v>
    <v>       0.00000000       0.00000000       0.08925382 </v>
   </varray>
  </crystal>
  <varray name="positions" >
   <v>       0.00267761       0.00000000       0.00000000 </v>
   <v>       0.25267761       0.25000000       0.00000000 </v>
   <v>       0.25000000       0.00000000       0.25000000 </v>
   <v>       0.00000000       0.25000000       0.25000000 </v>
   <v>       0.00000000       0.00000000       0.50000000 </v>
   <v>       0.25000000       0.25000000       0.50000000 </v>
   <v>       0.25000000       0.00000000       0.75000000 </v>
   <v>       0.00000000       0.25000000       0.75000000 </v>
   <v>       0.00000000       0.50000000       0.00000000 </v>
   <v>       0.25000000       0.75000000       0.00000000 </v>
   <v>       0.25000000       0.50000000       0.25000000 </v>
   <v>       0.00000000       0.75000000       0.25000000 </v>
   <v>       0.00000000       0.50000000       0.50000000 </v>
   <v>       0.25000000       0.75000000       0.50000000 </v>
   <v>       0.25000000       0.50000000       0.75000000 </v>
   <v>       0.00000000       0.75000000       0.75000000 </v>
   <v>       0.50000000       0.00000000       0.00000000 </v>
   <v>       0.75000000       0.25000000       0.00000000 </v>
   <v>       0.75000000       0.00000000       0.25000000 </v>
   <v>       0.50000000       0.25000000       0.25000000 </v>
   <v>       0.50000000       0.00000000       0.50000000 </v>
   <v>       0.75000000       0.25000000       0.50000000 </v>
   <v>       0.75000000       0.00000000       0.75000000 </v>
   <v>       0.50000000       0.25000000       0.75000000 </v>
   <v>       0.50000000       0.50000000       0.00000000 </v>
   <v>       0.75000000       0.75000000       0.00000000 </v>
   <v>       0.75000000       0.50000000       0.25000000 </v>
   <v>       0.50000000       0.75000000       0.25000000 </v>
   <v>       0.50000000       0.50000000       0.50000000 </v>
   <v>       0.75000000       0.75000000       0.50000000 </v>
   <v>       0.75000000       0.50000000       0.75000000 </v>
   <v>       0.50000000       0.75000000       0.75000000 </v>
   <v>       0.25000000       0.25000000       0.25000000 </v>
   <v>       0.00000000       0.00000000       0.25000000 </v>
   <v>       0.00000000       0.25000000       0.00000000 </v>
   <v>       0.25000000       0.00000000       0.00000000 </v>
   <v>       0.25000000       0.25000000       0.75000000 </v>
   <v>       0.00000000       0.00000000       0.75000000 </v>
   <v>       0.00000000       0.25000000       0.50000000 </v>
   <v>       0.25000000       0.00000000       0.50000000 </v>
   <v>       0.25000000       0.75000000       0.25000000 </v>
   <v>       0.00000000       0.50000000       0.25000000 </v>
   <v>       0.00000000       0.75000000       0.00000000 </v>
   <v>       0.25000000       0.50000000       0.00000000 </v>
   <v>       0.25000000       0.75000000       0.75000000 </v>
   <v>       0.00000000       0.50000000       0.75000000 </v>
   <v>       0.00000000       0.75000000       0.50000000 </v>
   <v>       0.25000000       0.50000000       0.50000000 </v>
   <v>       0.75000000       0.25000000       0.25000000 </v>
   <v>       0.50000000       0.00000000       0.25000000 </v>
   <v>       0.50000000       0.25000000       0.00000000 </v>
   <v>       0.75000000       0.00000000       0.00000000 </v>
   <v>       0.75000000       0.25000000       0.75000000 </v>
   <v>       0.50000000       0.00000000       0.75000000 </v>
   <v>       0.50000000       0.25000000       0.50000000 </v>
   <v>       0.75000000       0.00000000       0.50000000 </v>
   <v>       0.75000000       0.75000000       0.25000000 </v>
   <v>       0.50000000       0.50000000       0.25000000 </v>
   <v>       0.50000000       0.75000000       0.00000000 </v>
   <v>       0.75000000       0.50000000       0.00000000 </v>
   <v>       0.75000000       0.75000000       0.75000000 </v>
   <v>       0.50000000       0.50000000       0.75000000 </v>
   <v>       0.50000000       0.75000000       0.50000000 </v>
   <v>       0.75000000       0.50000000       0.50000000 </v>
  </varray>
 </structure>
</modeling>
