  64  64   0   0
  0.2006348E+02  0.1086915E-08  0.1086915E-08  0.1086915E-08  0.5000000E-15
  1.000000000000000E-004
  CAR 
 unknown system                          
     10.09881673     -6.98189852  301      5.89269060      1.00000000
     -6.982  0.0000E+00  0.0000E+00
     -6.925  0.0000E+00  0.0000E+00
     -6.868  0.0000E+00  0.0000E+00
     -6.811  0.0000E+00  0.0000E+00
     -6.754  0.0000E+00  0.0000E+00
     -6.697  0.0000E+00  0.0000E+00
     -6.640  0.0000E+00  0.0000E+00
     -6.583  0.0000E+00  0.0000E+00
     -6.526  0.0000E+00  0.0000E+00
     -6.469  0.0000E+00  0.0000E+00
     -6.413  0.0000E+00  0.0000E+00
     -6.356  0.0000E+00  0.0000E+00
     -6.299  0.9791E-10  0.5575E-11
     -6.242  0.2285E-01  0.1301E-02
     -6.185  0.4054E+01  0.2321E+00
     -6.128  0.3144E+00  0.2500E+00
     -6.071  0.8827E-07  0.2500E+00
     -6.014  0.8897E-07  0.2500E+00
     -5.957  0.1009E+01  0.3074E+00
     -5.900  0.2502E+02  0.1732E+01
     -5.843  0.3179E+00  0.1750E+01
     -5.786  0.4433E-08  0.1750E+01
     -5.729  0.9860E-04  0.1750E+01
     -5.672  0.1446E+02  0.2574E+01
     -5.615  0.3821E+02  0.4749E+01
     -5.559  0.1609E-01  0.4750E+01
     -5.502  0.8006E-10  0.4750E+01
     -5.445  0.6708E-01  0.4754E+01
     -5.388  0.3054E+02  0.6493E+01
     -5.331  0.4516E+01  0.6750E+01
     -5.274  0.4356E-05  0.6750E+01
     -5.217  0.1784E-09  0.6750E+01
     -5.160  0.8174E-01  0.6755E+01
     -5.103  0.2366E+02  0.8102E+01
     -5.046  0.2599E+01  0.8250E+01
     -4.989  0.1404E-05  0.8250E+01
     -4.932  0.1365E-02  0.8250E+01
     -4.875  0.4513E+02  0.1082E+02
     -4.818  0.6024E+02  0.1425E+02
     -4.761  0.6347E-02  0.1425E+02
     -4.704  0.1043E-02  0.1425E+02
     -4.648  0.4265E+02  0.1668E+02
     -4.591  0.6272E+02  0.2025E+02
     -4.534  0.8105E-02  0.2025E+02
     -4.477  0.0000E+00  0.2025E+02
     -4.420  0.0000E+00  0.2025E+02
     -4.363  0.0000E+00  0.2025E+02
     -4.306  0.0000E+00  0.2025E+02
     -4.249  0.8072E-09  0.2025E+02
     -4.192  0.2334E+00  0.2026E+02
     -4.135  0.4827E+02  0.2301E+02
     -4.078  0.4193E+01  0.2325E+02
     -4.021  0.5699E+02  0.2650E+02
     -3.964  0.4838E+02  0.2925E+02
     -3.907  0.1029E-01  0.2925E+02
     -3.850  0.1344E+02  0.3002E+02
     -3.793  0.2532E+02  0.3146E+02
     -3.737  0.5132E+01  0.3175E+02
     -3.680  0.2146E-04  0.3175E+02
     -3.623  0.1160E+02  0.3241E+02
     -3.566  0.9351E+02  0.3773E+02
     -3.509  0.1750E+01  0.3783E+02
     -3.452  0.1004E+03  0.4355E+02
     -3.395  0.3543E+01  0.4375E+02
     -3.338  0.1299E+02  0.4449E+02
     -3.281  0.9217E+02  0.4974E+02
     -3.224  0.2182E+00  0.4975E+02
     -3.167  0.7380E-08  0.4975E+02
     -3.110  0.8736E+00  0.4980E+02
     -3.053  0.9908E+02  0.5544E+02
     -2.996  0.5432E+01  0.5575E+02
     -2.939  0.8164E-06  0.5575E+02
     -2.883  0.0000E+00  0.5575E+02
     -2.826  0.0000E+00  0.5575E+02
     -2.769  0.0000E+00  0.5575E+02
     -2.712  0.0000E+00  0.5575E+02
     -2.655  0.0000E+00  0.5575E+02
     -2.598  0.0000E+00  0.5575E+02
     -2.541  0.2515E-06  0.5575E+02
     -2.484  0.2286E+01  0.5588E+02
     -2.427  0.4986E+02  0.5872E+02
     -2.370  0.5455E+00  0.5875E+02
     -2.313  0.6081E-08  0.5875E+02
     -2.256  0.0000E+00  0.5875E+02
     -2.199  0.0000E+00  0.5875E+02
     -2.142  0.2113E-08  0.5875E+02
     -2.085  0.2348E+00  0.5876E+02
     -2.028  0.2483E+02  0.6018E+02
     -1.972  0.5370E+02  0.6323E+02
     -1.915  0.5360E+02  0.6629E+02
     -1.858  0.5004E+02  0.6913E+02
     -1.801  0.2024E+01  0.6925E+02
     -1.744  0.1795E-06  0.6925E+02
     -1.687  0.0000E+00  0.6925E+02
     -1.630  0.0000E+00  0.6925E+02
     -1.573  0.1609E-12  0.6925E+02
     -1.516  0.4190E-02  0.6925E+02
     -1.459  0.3153E+02  0.7105E+02
     -1.402  0.2116E+02  0.7225E+02
     -1.345  0.5027E-03  0.7225E+02
     -1.288  0.1314E-02  0.7225E+02
     -1.231  0.1041E+02  0.7284E+02
     -1.174  0.7156E+01  0.7325E+02
     -1.118  0.1805E-03  0.7325E+02
     -1.061  0.6099E+01  0.7360E+02
     -1.004  0.9854E+02  0.7921E+02
     -0.947  0.7463E+00  0.7925E+02
     -0.890  0.4933E-07  0.7925E+02
     -0.833  0.1834E+01  0.7935E+02
     -0.776  0.1006E+03  0.8508E+02
     -0.719  0.2921E+01  0.8525E+02
     -0.662  0.2915E+01  0.8542E+02
     -0.605  0.1968E+03  0.9662E+02
     -0.548  0.1103E+02  0.9725E+02
     -0.491  0.3501E-05  0.9725E+02
     -0.434  0.0000E+00  0.9725E+02
     -0.377  0.0000E+00  0.9725E+02
     -0.320  0.0000E+00  0.9725E+02
     -0.263  0.7376E-04  0.9725E+02
     -0.207  0.2235E+02  0.9852E+02
     -0.150  0.8296E+02  0.1032E+03
     -0.093  0.6594E-01  0.1032E+03
     -0.036  0.4008E-03  0.1033E+03
      0.021  0.1166E+02  0.1039E+03
      0.078  0.1468E+02  0.1047E+03
      0.135  0.1367E-02  0.1048E+03
      0.192  0.5306E-08  0.1048E+03
      0.249  0.5159E+00  0.1048E+03
      0.306  0.4979E+02  0.1076E+03
      0.363  0.2390E+01  0.1077E+03
      0.420  0.7280E-01  0.1078E+03
      0.477  0.8381E+02  0.1125E+03
      0.534  0.2150E+02  0.1137E+03
      0.591  0.6393E-04  0.1138E+03
      0.647  0.0000E+00  0.1138E+03
      0.704  0.0000E+00  0.1138E+03
      0.761  0.0000E+00  0.1138E+03
      0.818  0.0000E+00  0.1138E+03
      0.875  0.0000E+00  0.1138E+03
      0.932  0.0000E+00  0.1138E+03
      0.989  0.0000E+00  0.1138E+03
      1.046  0.0000E+00  0.1138E+03
      1.103  0.0000E+00  0.1138E+03
      1.160  0.0000E+00  0.1138E+03
      1.217  0.0000E+00  0.1138E+03
      1.274  0.0000E+00  0.1138E+03
      1.331  0.2756E-07  0.1138E+03
      1.388  0.9977E+00  0.1138E+03
      1.445  0.5224E+02  0.1168E+03
      1.502  0.1779E+03  0.1269E+03
      1.558  0.3236E+02  0.1287E+03
      1.615  0.2129E-03  0.1288E+03
      1.672  0.0000E+00  0.1288E+03
      1.729  0.6921E-09  0.1288E+03
      1.786  0.1734E+00  0.1288E+03
      1.843  0.3359E+02  0.1307E+03
      1.900  0.5297E+02  0.1337E+03
      1.957  0.7657E+01  0.1341E+03
      2.014  0.4601E+02  0.1367E+03
      2.071  0.1067E+00  0.1367E+03
      2.128  0.3192E-04  0.1368E+03
      2.185  0.1767E+02  0.1378E+03
      2.242  0.9415E+02  0.1431E+03
      2.299  0.1119E+03  0.1495E+03
      2.356  0.1310E+03  0.1569E+03
      2.412  0.9293E+02  0.1622E+03
      2.469  0.2297E+00  0.1622E+03
      2.526  0.3223E-09  0.1622E+03
      2.583  0.0000E+00  0.1622E+03
      2.640  0.0000E+00  0.1622E+03
      2.697  0.0000E+00  0.1622E+03
      2.754  0.0000E+00  0.1622E+03
      2.811  0.1899E-08  0.1623E+03
      2.868  0.2247E+00  0.1623E+03
      2.925  0.2479E+02  0.1637E+03
      2.982  0.5010E+02  0.1665E+03
      3.039  0.1451E+03  0.1748E+03
      3.096  0.6485E+02  0.1785E+03
      3.153  0.7166E+02  0.1826E+03
      3.210  0.9110E+02  0.1877E+03
      3.267  0.9213E+01  0.1883E+03
      3.323  0.1109E+03  0.1946E+03
      3.380  0.3794E+02  0.1967E+03
      3.437  0.1399E-01  0.1967E+03
      3.494  0.2042E-02  0.1968E+03
      3.551  0.4921E+02  0.1996E+03
      3.608  0.1495E+03  0.2081E+03
      3.665  0.1203E+02  0.2087E+03
      3.722  0.8898E-05  0.2088E+03
      3.779  0.1460E-07  0.2088E+03
      3.836  0.7766E+00  0.2088E+03
      3.893  0.5403E+02  0.2119E+03
      3.950  0.1019E+03  0.2177E+03
      4.007  0.1358E+01  0.2177E+03
      4.064  0.2782E-02  0.2178E+03
      4.121  0.2946E+02  0.2194E+03
      4.178  0.8595E+02  0.2243E+03
      4.234  0.4266E+02  0.2267E+03
      4.291  0.2239E+00  0.2268E+03
      4.348  0.9231E+02  0.2320E+03
      4.405  0.1416E+02  0.2328E+03
      4.462  0.7556E+02  0.2371E+03
      4.519  0.9716E+02  0.2427E+03
      4.576  0.3394E+02  0.2446E+03
      4.633  0.1158E+02  0.2452E+03
      4.690  0.1392E-03  0.2452E+03
      4.747  0.0000E+00  0.2452E+03
      4.804  0.0000E+00  0.2452E+03
      4.861  0.6320E-09  0.2453E+03
      4.918  0.2099E+00  0.2453E+03
      4.975  0.4869E+02  0.2480E+03
      5.032  0.7085E+02  0.2521E+03
      5.088  0.3195E+01  0.2522E+03
      5.145  0.3822E-06  0.2522E+03
      5.202  0.0000E+00  0.2522E+03
      5.259  0.0000E+00  0.2522E+03
      5.316  0.0000E+00  0.2522E+03
      5.373  0.9769E-12  0.2523E+03
      5.430  0.1034E-01  0.2523E+03
      5.487  0.3607E+02  0.2543E+03
      5.544  0.1661E+02  0.2552E+03
      5.601  0.1733E-03  0.2552E+03
      5.658  0.4387E-14  0.2552E+03
      5.715  0.3478E-03  0.2553E+03
      5.772  0.6497E+01  0.2556E+03
      5.829  0.6675E+01  0.2560E+03
      5.886  0.4015E-03  0.2560E+03
      5.943  0.0000E+00  0.2560E+03
      5.999  0.0000E+00  0.2560E+03
      6.056  0.0000E+00  0.2560E+03
      6.113  0.0000E+00  0.2560E+03
      6.170  0.1287E-12  0.2560E+03
      6.227  0.2671E-02  0.2560E+03
      6.284  0.1638E+02  0.2569E+03
      6.341  0.1102E+02  0.2576E+03
      6.398  0.2499E+02  0.2590E+03
      6.455  0.2994E+00  0.2590E+03
      6.512  0.3823E-08  0.2590E+03
      6.569  0.0000E+00  0.2590E+03
      6.626  0.0000E+00  0.2590E+03
      6.683  0.0000E+00  0.2590E+03
      6.740  0.1701E-04  0.2590E+03
      6.797  0.5466E+01  0.2593E+03
      6.853  0.3095E+02  0.2611E+03
      6.910  0.4258E+02  0.2635E+03
      6.967  0.4250E-01  0.2635E+03
      7.024  0.1844E-10  0.2635E+03
      7.081  0.1536E-11  0.2635E+03
      7.138  0.1931E-01  0.2635E+03
      7.195  0.8500E+02  0.2683E+03
      7.252  0.6290E+02  0.2719E+03
      7.309  0.1375E+01  0.2720E+03
      7.366  0.4603E-06  0.2720E+03
      7.423  0.0000E+00  0.2720E+03
      7.480  0.0000E+00  0.2720E+03
      7.537  0.1017E-08  0.2720E+03
      7.594  0.3934E+00  0.2720E+03
      7.651  0.1619E+03  0.2812E+03
      7.708  0.6018E+02  0.2847E+03
      7.764  0.4965E+02  0.2875E+03
      7.821  0.1256E+00  0.2875E+03
      7.878  0.6794E-03  0.2875E+03
      7.935  0.3883E+02  0.2897E+03
      7.992  0.6654E+02  0.2935E+03
      8.049  0.2391E+02  0.2949E+03
      8.106  0.8233E+02  0.2995E+03
      8.163  0.1436E+03  0.3077E+03
      8.220  0.1358E+02  0.3085E+03
      8.277  0.2952E+01  0.3087E+03
      8.334  0.1057E+03  0.3147E+03
      8.391  0.9922E+01  0.3152E+03
      8.448  0.4840E-05  0.3153E+03
      8.505  0.3460E-01  0.3153E+03
      8.562  0.7711E+02  0.3196E+03
      8.618  0.2824E+02  0.3212E+03
      8.675  0.1793E-03  0.3213E+03
      8.732  0.4863E+00  0.3213E+03
      8.789  0.1123E+03  0.3277E+03
      8.846  0.7147E+02  0.3317E+03
      8.903  0.1618E+00  0.3317E+03
      8.960  0.2039E-08  0.3318E+03
      9.017  0.1117E+00  0.3318E+03
      9.074  0.1237E+02  0.3325E+03
      9.131  0.6938E+00  0.3325E+03
      9.188  0.4277E-01  0.3325E+03
      9.245  0.2947E+02  0.3342E+03
      9.302  0.7847E+01  0.3346E+03
      9.359  0.2401E+02  0.3360E+03
      9.416  0.1102E+00  0.3360E+03
      9.473  0.3869E-09  0.3360E+03
      9.529  0.0000E+00  0.3360E+03
      9.586  0.0000E+00  0.3360E+03
      9.643  0.0000E+00  0.3360E+03
      9.700  0.0000E+00  0.3360E+03
      9.757  0.0000E+00  0.3360E+03
      9.814  0.0000E+00  0.3360E+03
      9.871  0.0000E+00  0.3360E+03
      9.928  0.0000E+00  0.3360E+03
      9.985  0.0000E+00  0.3360E+03
     10.042  0.0000E+00  0.3360E+03
     10.099  0.0000E+00  0.3360E+03
