       N       E                     dE             d eps       ncg     rms          rms(c)
DAV:   1     0.449124309401E+03    0.44912E+03   -0.72727E+04  1352   0.852E+02
DAV:   2    -0.323051812589E+03   -0.77218E+03   -0.72851E+03  1616   0.155E+02
DAV:   3    -0.373485448157E+03   -0.50434E+02   -0.49653E+02  1632   0.364E+01
DAV:   4    -0.374608798192E+03   -0.11234E+01   -0.11164E+01  1640   0.656E+00
DAV:   5    -0.374642348238E+03   -0.33550E-01   -0.33511E-01  1592   0.102E+00    0.285E+01
DAV:   6    -0.369722716128E+03    0.49196E+01   -0.25940E+00  1512   0.242E+00    0.172E+01
DAV:   7    -0.367491694167E+03    0.22310E+01   -0.52398E+00  1480   0.349E+00    0.996E-01
DAV:   8    -0.367498824867E+03   -0.71307E-02   -0.28191E-01  1472   0.966E-01    0.352E-01
DAV:   9    -0.367500293363E+03   -0.14685E-02   -0.71174E-03  1608   0.162E-01    0.309E-01
DAV:  10    -0.367501143227E+03   -0.84986E-03   -0.21157E-03  1464   0.838E-02    0.235E-01
DAV:  11    -0.367501190041E+03   -0.46813E-04   -0.91650E-05  1544   0.191E-02    0.702E-03
DAV:  12    -0.367501192139E+03   -0.20988E-05   -0.30871E-06  1600   0.350E-03    0.969E-03
DAV:  13    -0.367501190604E+03    0.15358E-05   -0.95640E-07  1512   0.196E-03    0.176E-04
DAV:  14    -0.367501190645E+03   -0.41577E-07   -0.78869E-09  1080   0.189E-04    0.145E-04
DAV:  15    -0.367501190693E+03   -0.47799E-07   -0.14614E-09   856   0.855E-05    0.225E-05
DAV:  16    -0.367501190683E+03    0.95624E-08   -0.35810E-10   816   0.360E-05
   1 F= -.36750119E+03 E0= -.36750119E+03  d E =-.625240E-18
