<?xml version="1.0" encoding="ISO-8859-1"?>
<modeling>
 <generator>
  <i name="program" type="string">vasp </i>
  <i name="version" type="string">6.3.2  </i>
  <i name="subversion" type="string">27Jun22 (build Oct 14 2022 12:13:54) complex                          parallel </i>
  <i name="platform" type="string">LinuxIFC </i>
  <i name="date" type="string">2023 04 03 </i>
  <i name="time" type="string">14:30:31 </i>
 </generator>
 <incar>
  <i type="string" name="PREC">Accurate</i>
  <i type="int" name="IALGO">    38</i>
  <i type="logical" name="ADDGRID"> T  </i>
  <i type="int" name="NELMIN">     5</i>
  <i type="int" name="IBRION">    -1</i>
  <i name="EDIFF">      0.00000001</i>
  <i name="ENCUT">    318.00000000</i>
  <i type="logical" name="LREAL"> F  </i>
  <i type="int" name="ISMEAR">     0</i>
  <i name="SIGMA">      0.02000000</i>
  <i type="logical" name="LWAVE"> F  </i>
  <i type="logical" name="LCHARG"> F  </i>
  <i type="string" name="GGA">Ps</i>
 </incar>
 <primitive_cell>
  <structure name="primitive_cell" >
   <crystal>
    <varray name="basis" >
     <v>       2.71728628      -2.71728628       0.00000000 </v>
     <v>       2.71728628       0.00000000       2.71728628 </v>
     <v>       0.00000000      -2.71728628       2.71728628 </v>
    </varray>
    <i name="volume">     40.12695303 </i>
    <varray name="rec_basis" >
     <v>       0.18400711      -0.18400711      -0.18400711 </v>
     <v>       0.18400711       0.18400711       0.18400711 </v>
     <v>      -0.18400711      -0.18400711       0.18400711 </v>
    </varray>
   </crystal>
   <varray name="positions" >
    <v>       0.50000000       0.50000000       0.50000000 </v>
    <v>       0.25000000       0.25000000       0.25000000 </v>
   </varray>
  </structure>
  <varray name="primitive_index" >
   <v type="int" >        1 </v>
   <v type="int" >       33 </v>
  </varray>
 </primitive_cell>
 <kpoints>
  <generation param="Gamma">
   <v type="int" name="divisions">       2        2        2 </v>
   <v name="usershift">      0.00000000       0.00000000       0.00000000 </v>
   <v name="genvec1">      0.50000000      -0.00000000       0.00000000 </v>
   <v name="genvec2">     -0.00000000       0.50000000       0.00000000 </v>
   <v name="genvec3">     -0.00000000       0.00000000       0.50000000 </v>
   <v name="shift">      0.00000000       0.00000000       0.00000000 </v>
  </generation>
  <varray name="kpointlist" >
   <v>       0.00000000       0.00000000       0.00000000 </v>
   <v>       0.50000000       0.00000000       0.00000000 </v>
   <v>       0.50000000       0.50000000       0.00000000 </v>
   <v>       0.50000000       0.50000000       0.50000000 </v>
  </varray>
  <varray name="weights" >
   <v>       0.12500000 </v>
   <v>       0.37500000 </v>
   <v>       0.37500000 </v>
   <v>       0.12500000 </v>
  </varray>
 </kpoints>
 <parameters>
  <separator name="general" >
   <i type="string" name="SYSTEM">unknown system</i>
   <i type="logical" name="LCOMPAT"> F  </i>
  </separator>
  <separator name="electronic" >
   <i type="string" name="PREC">accura</i>
   <i name="ENMAX">    318.00000000</i>
   <i name="ENAUG">    322.06900000</i>
   <i name="EDIFF">      0.00000001</i>
   <i type="int" name="IALGO">    38</i>
   <i type="int" name="IWAVPR">    10</i>
   <i type="int" name="NBANDS">   168</i>
   <i type="int" name="NBANDSLOW">    -1</i>
   <i type="int" name="NBANDSHIGH">    -1</i>
   <i name="NELECT">    256.00000000</i>
   <i type="int" name="TURBO">     0</i>
   <i type="int" name="IRESTART">     0</i>
   <i type="int" name="NREBOOT">     0</i>
   <i type="int" name="NMIN">     0</i>
   <i name="EREF">      0.00000000</i>
   <separator name="electronic smearing" >
    <i type="int" name="ISMEAR">     0</i>
    <i name="SIGMA">      0.02000000</i>
    <i name="KSPACING">      0.50000000</i>
    <i type="logical" name="KGAMMA"> T  </i>
    <i type="logical" name="KBLOWUP"> T  </i>
   </separator>
   <separator name="electronic projectors" >
    <i type="logical" name="LREAL"> F  </i>
    <v name="ROPT">      0.00000000</v>
    <i type="int" name="LMAXPAW">  -100</i>
    <i type="int" name="LMAXMIX">     2</i>
    <i type="logical" name="NLSPLINE"> F  </i>
   </separator>
   <separator name="electronic startup" >
    <i type="int" name="ISTART">     0</i>
    <i type="int" name="ICHARG">     2</i>
    <i type="int" name="INIWAV">     1</i>
   </separator>
   <separator name="electronic spin" >
    <i type="int" name="ISPIN">     1</i>
    <i type="logical" name="LNONCOLLINEAR"> F  </i>
    <v name="MAGMOM">      1.00000000      1.00000000      1.00000000      1.00000000      1.00000000      1.00000000      1.00000000      1.00000000      1.00000000      1.00000000      1.00000000      1.00000000      1.00000000      1.00000000      1.00000000      1.00000000      1.00000000      1.00000000      1.00000000      1.00000000
      1.00000000      1.00000000      1.00000000      1.00000000      1.00000000      1.00000000      1.00000000      1.00000000      1.00000000      1.00000000      1.00000000      1.00000000      1.00000000      1.00000000      1.00000000      1.00000000      1.00000000      1.00000000      1.00000000      1.00000000
      1.00000000      1.00000000      1.00000000      1.00000000      1.00000000      1.00000000      1.00000000      1.00000000      1.00000000      1.00000000      1.00000000      1.00000000      1.00000000      1.00000000      1.00000000      1.00000000      1.00000000      1.00000000      1.00000000      1.00000000
      1.00000000      1.00000000      1.00000000      1.00000000</v>
    <i name="NUPDOWN">     -1.00000000</i>
    <i type="logical" name="LSORBIT"> F  </i>
    <v name="SAXIS">      0.00000000      0.00000000      1.00000000</v>
    <i type="logical" name="LSPIRAL"> F  </i>
    <v name="QSPIRAL">      0.00000000      0.00000000      0.00000000</v>
    <i type="logical" name="LZEROZ"> F  </i>
   </separator>
   <separator name="electronic exchange-correlation" >
    <i type="logical" name="LASPH"> F  </i>
    <i type="logical" name="LMETAGGA"> F  </i>
   </separator>
   <separator name="electronic convergence" >
    <i type="int" name="NELM">    60</i>
    <i type="int" name="NELMDL">    -5</i>
    <i type="int" name="NELMIN">     5</i>
    <i name="ENINI">    318.00000000</i>
    <separator name="electronic convergence detail" >
     <i type="logical" name="LDIAG"> T  </i>
     <i type="logical" name="LSUBROT"> F  </i>
     <i name="WEIMIN">      0.00000000</i>
     <i name="EBREAK">      0.00000000</i>
     <i name="DEPER">      0.30000000</i>
     <i type="int" name="NRMM">     4</i>
     <i name="TIME">      0.40000000</i>
    </separator>
   </separator>
   <separator name="electronic mixer" >
    <i name="AMIX">      0.40000000</i>
    <i name="BMIX">      1.00000000</i>
    <i name="AMIN">      0.10000000</i>
    <i name="AMIX_MAG">      1.60000000</i>
    <i name="BMIX_MAG">      1.00000000</i>
    <separator name="electronic mixer details" >
     <i type="int" name="IMIX">     4</i>
     <i type="logical" name="MIXFIRST"> F  </i>
     <i type="int" name="MAXMIX">   -45</i>
     <i name="WC">    100.00000000</i>
     <i type="int" name="INIMIX">     1</i>
     <i type="int" name="MIXPRE">     1</i>
     <i type="int" name="MREMOVE">     5</i>
    </separator>
   </separator>
   <separator name="electronic dipolcorrection" >
    <i type="logical" name="LDIPOL"> F  </i>
    <i type="logical" name="LMONO"> F  </i>
    <i type="int" name="IDIPOL">     0</i>
    <i name="EPSILON">      1.00000000</i>
    <v name="DIPOL">   -100.00000000   -100.00000000   -100.00000000</v>
    <i name="EFIELD">      0.00000000</i>
   </separator>
  </separator>
  <separator name="grids" >
   <i type="int" name="NGX">    64</i>
   <i type="int" name="NGY">    64</i>
   <i type="int" name="NGZ">    64</i>
   <i type="int" name="NGXF">   128</i>
   <i type="int" name="NGYF">   128</i>
   <i type="int" name="NGZF">   128</i>
   <i type="logical" name="ADDGRID"> T  </i>
  </separator>
  <separator name="ionic" >
   <i type="int" name="NSW">     0</i>
   <i type="int" name="IBRION">    -1</i>
   <i type="int" name="MDALGO">     0</i>
   <i type="int" name="ISIF">     2</i>
   <i name="PSTRESS">      0.00000000</i>
   <i name="EDIFFG">      0.00000010</i>
   <i type="int" name="NFREE">     0</i>
   <i name="POTIM">      0.50000000</i>
   <i name="SMASS">     -3.00000000</i>
   <i name="SCALEE">      1.00000000</i>
  </separator>
  <separator name="ionic md" >
   <i name="TEBEG">      0.00010000</i>
   <i name="TEEND">      0.00010000</i>
   <i type="int" name="NBLOCK">     1</i>
   <i type="int" name="KBLOCK">     1</i>
   <i type="int" name="NPACO">   256</i>
   <i name="APACO">     10.00000000</i>
  </separator>
  <separator name="symmetry" >
   <i type="int" name="ISYM">     2</i>
   <i name="SYMPREC">      0.00001000</i>
  </separator>
  <separator name="dos" >
   <i type="int" name="LORBIT">     0</i>
   <v name="RWIGS">     -1.00000000</v>
   <i type="int" name="NEDOS">   301</i>
   <i name="EMIN">     10.00000000</i>
   <i name="EMAX">    -10.00000000</i>
   <i name="EFERMI">      0.00000000</i>
  </separator>
  <separator name="writing" >
   <i type="int" name="NWRITE">     2</i>
   <i type="logical" name="LWAVE"> F  </i>
   <i type="logical" name="LDOWNSAMPLE"> F  </i>
   <i type="logical" name="LCHARG"> F  </i>
   <i type="logical" name="LPARD"> F  </i>
   <i type="logical" name="LVTOT"> F  </i>
   <i type="logical" name="LVHAR"> F  </i>
   <i type="logical" name="LELF"> F  </i>
   <i type="logical" name="LOPTICS"> F  </i>
   <v name="STM">      0.00000000      0.00000000      0.00000000      0.00000000      0.00000000      0.00000000      0.00000000</v>
  </separator>
  <separator name="performance" >
   <i type="int" name="NPAR">     8</i>
   <i type="int" name="NSIM">     4</i>
   <i type="int" name="NBLK">    -1</i>
   <i type="logical" name="LPLANE"> T  </i>
   <i type="logical" name="LSCALAPACK"> T  </i>
   <i type="logical" name="LSCAAWARE"> F  </i>
   <i type="logical" name="LSCALU"> F  </i>
   <i type="logical" name="LASYNC"> F  </i>
   <i type="logical" name="LORBITALREAL"> F  </i>
  </separator>
  <separator name="miscellaneous" >
   <i type="int" name="IDIOT">     3</i>
   <i type="int" name="PHON_NSTRUCT">    -1</i>
   <i type="logical" name="LMUSIC"> F  </i>
   <v name="POMASS">     28.08500000</v>
   <v name="DARWINR">      0.00000000</v>
   <v name="DARWINV">      1.00000000</v>
   <i type="logical" name="LCORR"> T  </i>
  </separator>
  <i type="logical" name="GGA_COMPAT"> T  </i>
  <i type="logical" name="LBERRY"> F  </i>
  <i type="int" name="ICORELEVEL">     0</i>
  <i type="logical" name="LDAU"> F  </i>
  <i type="int" name="I_CONSTRAINED_M">     0</i>
  <separator name="electronic exchange-correlation" >
   <i type="string" name="GGA">PS</i>
   <i type="int" name="VOSKOWN">     0</i>
   <i type="logical" name="LHFCALC"> F  </i>
   <i type="string" name="PRECFOCK"></i>
   <i type="logical" name="LSYMGRAD"> F  </i>
   <i type="logical" name="LHFONE"> F  </i>
   <i type="logical" name="LRHFCALC"> F  </i>
   <i type="logical" name="LTHOMAS"> F  </i>
   <i type="logical" name="LMODELHF"> F  </i>
   <i type="logical" name="LFOCKACE"> F  </i>
   <i name="ENCUT4O">     -1.00000000</i>
   <i type="int" name="EXXOEP">     0</i>
   <i type="int" name="FOURORBIT">     0</i>
   <i name="AEXX">      0.00000000</i>
   <i name="HFALPHA">      0.00000000</i>
   <i name="MCALPHA">      0.00000000</i>
   <i name="ALDAX">      1.00000000</i>
   <i name="AGGAX">      1.00000000</i>
   <i name="ALDAC">      1.00000000</i>
   <i name="AGGAC">      1.00000000</i>
   <i type="int" name="NKREDX">     1</i>
   <i type="int" name="NKREDY">     1</i>
   <i type="int" name="NKREDZ">     1</i>
   <i type="logical" name="SHIFTRED"> F  </i>
   <i type="logical" name="ODDONLY"> F  </i>
   <i type="logical" name="EVENONLY"> F  </i>
   <i type="int" name="LMAXFOCK">     0</i>
   <i type="int" name="NMAXFOCKAE">     0</i>
   <i type="logical" name="LFOCKAEDFT"> F  </i>
   <i name="HFSCREEN">      0.00000000</i>
   <i name="HFSCREENC">      0.00000000</i>
   <i type="int" name="NBANDSGWLOW">     0</i>
  </separator>
  <separator name="vdW DFT" >
   <i type="logical" name="LUSE_VDW"> F  </i>
   <i name="Zab_VDW">     -0.84910000</i>
   <i name="PARAM1">      0.12340000</i>
   <i name="PARAM2">      1.00000000</i>
   <i name="PARAM3">      0.00000000</i>
  </separator>
  <separator name="model GW" >
   <i type="int" name="MODEL_GW">     0</i>
   <i name="MODEL_EPS0">     12.03808591</i>
   <i name="MODEL_ALPHA">      1.00000000</i>
  </separator>
  <separator name="linear response parameters" >
   <i type="logical" name="LEPSILON"> F  </i>
   <i type="logical" name="LRPA"> F  </i>
   <i type="logical" name="LNABLA"> F  </i>
   <i type="logical" name="LVEL"> F  </i>
   <i name="CSHIFT">      0.10000000</i>
   <i name="OMEGAMAX">     -1.00000000</i>
   <i name="DEG_THRESHOLD">      0.00200000</i>
   <i name="RTIME">     -0.10000000</i>
   <i name="WPLASMAI">      0.00000000</i>
   <v name="DFIELD">      0.00000000      0.00000000      0.00000000</v>
   <v name="WPLASMA">      0.00000000      0.00000000      0.00000000      0.00000000      0.00000000      0.00000000      0.00000000      0.00000000      0.00000000</v>
  </separator>
  <separator name="orbital magnetization" >
   <i type="logical" name="NUCIND"> F  </i>
   <v name="MAGPOS">      0.00000000      0.00000000      0.00000000</v>
   <i type="logical" name="LNICSALL"> T  </i>
   <i type="logical" name="ORBITALMAG"> F  </i>
   <i type="logical" name="LMAGBLOCH"> F  </i>
   <i type="logical" name="LCHIMAG"> F  </i>
   <i type="logical" name="LGAUGE"> T  </i>
   <i type="int" name="MAGATOM">     0</i>
   <v name="MAGDIPOL">      0.00000000      0.00000000      0.00000000</v>
   <v name="AVECCONST">      0.00000000      0.00000000      0.00000000</v>
  </separator>
  <separator name="response functions" >
   <i type="logical" name="LFINITE_TEMPERATURE"> F  </i>
   <i type="logical" name="LADDER"> F  </i>
   <i type="logical" name="LRPAFORCE"> F  </i>
   <i type="logical" name="LFXC"> F  </i>
   <i type="logical" name="LHARTREE"> T  </i>
   <i type="int" name="IBSE">     0</i>
   <v type="int" name="KPOINT">    -1     0     0     0</v>
   <i type="logical" name="LTCTC"> F  </i>
   <i type="logical" name="LTCTE"> F  </i>
   <i type="logical" name="LTETE"> F  </i>
   <i type="logical" name="LTRIPLET"> F  </i>
   <i type="logical" name="LFXCEPS"> F  </i>
   <i type="logical" name="LFXHEG"> F  </i>
   <i type="int" name="NATURALO">     2</i>
   <i type="logical" name="LHOLEGF"> F  </i>
   <i type="logical" name="L2ORDER"> F  </i>
   <i type="logical" name="LDMP1"> F  </i>
   <i type="logical" name="LMP2LT"> F  </i>
   <i type="logical" name="LSMP2LT"> F  </i>
   <i type="logical" name="LGWLF"> F  </i>
   <i name="ENCUTGW">     -2.00000000</i>
   <i name="ENCUTGWSOFT">     -2.00000000</i>
   <i name="ENCUTLF">     -1.00000000</i>
   <i type="logical" name="LESF_SPLINES"> F  </i>
   <i type="int" name="LMAXMP2">    -1</i>
   <i name="SCISSOR">      0.00000000</i>
   <i type="int" name="NOMEGA">     0</i>
   <i type="int" name="NOMEGAR">     0</i>
   <i type="int" name="NBANDSGW">    -1</i>
   <i type="int" name="NBANDSO">    -1</i>
   <i type="int" name="NBANDSV">    -1</i>
   <i type="int" name="NELMGW">     1</i>
   <i type="int" name="NELMHF">     1</i>
   <i type="int" name="DIM">     3</i>
   <i type="int" name="IESPILON">     4</i>
   <i type="int" name="ANTIRES">     0</i>
   <i name="OMEGAMAX">    -30.00000000</i>
   <i name="OMEGAMIN">    -30.00000000</i>
   <i name="OMEGATL">   -200.00000000</i>
   <i type="int" name="OMEGAGRID">     0</i>
   <i name="CSHIFT">     -0.10000000</i>
   <i type="logical" name="LSELFENERGY"> F  </i>
   <i type="logical" name="LSPECTRAL"> F  </i>
   <i type="logical" name="LSPECTRALGW"> F  </i>
   <i type="logical" name="LSINGLES"> F  </i>
   <i type="logical" name="LFERMIGW"> F  </i>
   <i type="logical" name="ODDONLYGW"> F  </i>
   <i type="logical" name="EVENONLYGW"> F  </i>
   <i type="int" name="NKREDLFX">     1</i>
   <i type="int" name="NKREDLFY">     1</i>
   <i type="int" name="NKREDLFZ">     1</i>
   <i type="int" name="MAXMEM">  2800</i>
   <i type="int" name="TELESCOPE">     0</i>
   <i type="int" name="NTAUPAR">    -1</i>
   <i type="int" name="NOMEGAPAR">    -1</i>
   <i name="DAMP_NEWTON">      0.80000001</i>
   <i name="LAMBDA">      1.00000000</i>
  </separator>
  <separator name="External order field" >
   <i name="OFIELD_KAPPA">      0.00000000</i>
   <v name="OFIELD_K">      0.00000000      0.00000000      0.00000000</v>
   <i name="OFIELD_Q6_NEAR">      0.00000000</i>
   <i name="OFIELD_Q6_FAR">      0.00000000</i>
   <i name="OFIELD_A">      0.00000000</i>
  </separator>
  <separator name="optional k-points parameters" >
   <i type="int" name="KPOINTS_OPT_MODE">     1</i>
   <i type="logical" name="LKPOINTS_OPT"> F  </i>
  </separator>
 </parameters>
 <atominfo>
  <atoms>      64 </atoms>
  <types>       1 </types>
  <array name="atoms" >
   <dimension dim="1">ion</dimension>
   <field type="string">element</field>
   <field type="int">atomtype</field>
   <set>
    <rc><c>Si</c><c>   1</c></rc>
    <rc><c>Si</c><c>   1</c></rc>
    <rc><c>Si</c><c>   1</c></rc>
    <rc><c>Si</c><c>   1</c></rc>
    <rc><c>Si</c><c>   1</c></rc>
    <rc><c>Si</c><c>   1</c></rc>
    <rc><c>Si</c><c>   1</c></rc>
    <rc><c>Si</c><c>   1</c></rc>
    <rc><c>Si</c><c>   1</c></rc>
    <rc><c>Si</c><c>   1</c></rc>
    <rc><c>Si</c><c>   1</c></rc>
    <rc><c>Si</c><c>   1</c></rc>
    <rc><c>Si</c><c>   1</c></rc>
    <rc><c>Si</c><c>   1</c></rc>
    <rc><c>Si</c><c>   1</c></rc>
    <rc><c>Si</c><c>   1</c></rc>
    <rc><c>Si</c><c>   1</c></rc>
    <rc><c>Si</c><c>   1</c></rc>
    <rc><c>Si</c><c>   1</c></rc>
    <rc><c>Si</c><c>   1</c></rc>
    <rc><c>Si</c><c>   1</c></rc>
    <rc><c>Si</c><c>   1</c></rc>
    <rc><c>Si</c><c>   1</c></rc>
    <rc><c>Si</c><c>   1</c></rc>
    <rc><c>Si</c><c>   1</c></rc>
    <rc><c>Si</c><c>   1</c></rc>
    <rc><c>Si</c><c>   1</c></rc>
    <rc><c>Si</c><c>   1</c></rc>
    <rc><c>Si</c><c>   1</c></rc>
    <rc><c>Si</c><c>   1</c></rc>
    <rc><c>Si</c><c>   1</c></rc>
    <rc><c>Si</c><c>   1</c></rc>
    <rc><c>Si</c><c>   1</c></rc>
    <rc><c>Si</c><c>   1</c></rc>
    <rc><c>Si</c><c>   1</c></rc>
    <rc><c>Si</c><c>   1</c></rc>
    <rc><c>Si</c><c>   1</c></rc>
    <rc><c>Si</c><c>   1</c></rc>
    <rc><c>Si</c><c>   1</c></rc>
    <rc><c>Si</c><c>   1</c></rc>
    <rc><c>Si</c><c>   1</c></rc>
    <rc><c>Si</c><c>   1</c></rc>
    <rc><c>Si</c><c>   1</c></rc>
    <rc><c>Si</c><c>   1</c></rc>
    <rc><c>Si</c><c>   1</c></rc>
    <rc><c>Si</c><c>   1</c></rc>
    <rc><c>Si</c><c>   1</c></rc>
    <rc><c>Si</c><c>   1</c></rc>
    <rc><c>Si</c><c>   1</c></rc>
    <rc><c>Si</c><c>   1</c></rc>
    <rc><c>Si</c><c>   1</c></rc>
    <rc><c>Si</c><c>   1</c></rc>
    <rc><c>Si</c><c>   1</c></rc>
    <rc><c>Si</c><c>   1</c></rc>
    <rc><c>Si</c><c>   1</c></rc>
    <rc><c>Si</c><c>   1</c></rc>
    <rc><c>Si</c><c>   1</c></rc>
    <rc><c>Si</c><c>   1</c></rc>
    <rc><c>Si</c><c>   1</c></rc>
    <rc><c>Si</c><c>   1</c></rc>
    <rc><c>Si</c><c>   1</c></rc>
    <rc><c>Si</c><c>   1</c></rc>
    <rc><c>Si</c><c>   1</c></rc>
    <rc><c>Si</c><c>   1</c></rc>
   </set>
  </array>
  <array name="atomtypes" >
   <dimension dim="1">type</dimension>
   <field type="int">atomspertype</field>
   <field type="string">element</field>
   <field>mass</field>
   <field>valence</field>
   <field type="string">pseudopotential</field>
   <set>
    <rc><c>  64</c><c>Si</c><c>     28.08500000</c><c>      4.00000000</c><c>  PAW_PBE Si 05Jan2001                  </c></rc>
   </set>
  </array>
 </atominfo>
 <structure name="initialpos" >
  <crystal>
   <varray name="basis" >
    <v>      10.86914512      -0.00000000      -0.00000000 </v>
    <v>      -0.00000000      10.86914512       0.00000000 </v>
    <v>       0.00000000       0.00000000      10.86914512 </v>
   </varray>
   <i name="volume">   1284.06249692 </i>
   <varray name="rec_basis" >
    <v>       0.09200356       0.00000000      -0.00000000 </v>
    <v>       0.00000000       0.09200356      -0.00000000 </v>
    <v>       0.00000000      -0.00000000       0.09200356 </v>
   </varray>
  </crystal>
  <varray name="positions" >
   <v>       0.25000000       0.25000000       0.25000000 </v>
   <v>       0.75000000       0.25000000       0.25000000 </v>
   <v>       0.25000000       0.75000000       0.25000000 </v>
   <v>       0.75000000       0.75000000       0.25000000 </v>
   <v>       0.25000000       0.25000000       0.75000000 </v>
   <v>       0.75000000       0.25000000       0.75000000 </v>
   <v>       0.25000000       0.75000000       0.75000000 </v>
   <v>       0.75000000       0.75000000       0.75000000 </v>
   <v>       0.25000000       0.00000000       0.00000000 </v>
   <v>       0.75000000       0.00000000       0.00000000 </v>
   <v>       0.25000000       0.50000000       0.00000000 </v>
   <v>       0.75000000       0.50000000       0.00000000 </v>
   <v>       0.25000000       0.00000000       0.50000000 </v>
   <v>       0.75000000       0.00000000       0.50000000 </v>
   <v>       0.25000000       0.50000000       0.50000000 </v>
   <v>       0.75000000       0.50000000       0.50000000 </v>
   <v>       0.00000000       0.25000000       0.00000000 </v>
   <v>       0.50000000       0.25000000       0.00000000 </v>
   <v>       0.00000000       0.75000000       0.00000000 </v>
   <v>       0.50000000       0.75000000       0.00000000 </v>
   <v>       0.00000000       0.25000000       0.50000000 </v>
   <v>       0.50000000       0.25000000       0.50000000 </v>
   <v>       0.00000000       0.75000000       0.50000000 </v>
   <v>       0.50000000       0.75000000       0.50000000 </v>
   <v>       0.00000000       0.00000000       0.25000000 </v>
   <v>       0.50000000       0.00000000       0.25000000 </v>
   <v>       0.00000000       0.50000000       0.25000000 </v>
   <v>       0.50000000       0.50000000       0.25000000 </v>
   <v>       0.00000000       0.00000000       0.75000000 </v>
   <v>       0.50000000       0.00000000       0.75000000 </v>
   <v>       0.00000000       0.50000000       0.75000000 </v>
   <v>       0.50000000       0.50000000       0.75000000 </v>
   <v>       0.37500000       0.37500000       0.37500000 </v>
   <v>       0.87500000       0.37500000       0.37500000 </v>
   <v>       0.37500000       0.87500000       0.37500000 </v>
   <v>       0.87500000       0.87500000       0.37500000 </v>
   <v>       0.37500000       0.37500000       0.87500000 </v>
   <v>       0.87500000       0.37500000       0.87500000 </v>
   <v>       0.37500000       0.87500000       0.87500000 </v>
   <v>       0.87500000       0.87500000       0.87500000 </v>
   <v>       0.37500000       0.12500000       0.12500000 </v>
   <v>       0.87500000       0.12500000       0.12500000 </v>
   <v>       0.37500000       0.62500000       0.12500000 </v>
   <v>       0.87500000       0.62500000       0.12500000 </v>
   <v>       0.37500000       0.12500000       0.62500000 </v>
   <v>       0.87500000       0.12500000       0.62500000 </v>
   <v>       0.37500000       0.62500000       0.62500000 </v>
   <v>       0.87500000       0.62500000       0.62500000 </v>
   <v>       0.12500000       0.37500000       0.12500000 </v>
   <v>       0.62500000       0.37500000       0.12500000 </v>
   <v>       0.12500000       0.87500000       0.12500000 </v>
   <v>       0.62500000       0.87500000       0.12500000 </v>
   <v>       0.12500000       0.37500000       0.62500000 </v>
   <v>       0.62500000       0.37500000       0.62500000 </v>
   <v>       0.12500000       0.87500000       0.62500000 </v>
   <v>       0.62500000       0.87500000       0.62500000 </v>
   <v>       0.12500000       0.12500000       0.37500000 </v>
   <v>       0.62500000       0.12500000       0.37500000 </v>
   <v>       0.12500000       0.62500000       0.37500000 </v>
   <v>       0.62500000       0.62500000       0.37500000 </v>
   <v>       0.12500000       0.12500000       0.87500000 </v>
   <v>       0.62500000       0.12500000       0.87500000 </v>
   <v>       0.12500000       0.62500000       0.87500000 </v>
   <v>       0.62500000       0.62500000       0.87500000 </v>
  </varray>
 </structure>
 <calculation>
  <scstep>
   <time name="dav">    1.15    1.15</time>
   <time name="total">    1.19    1.20</time>
   <energy>
    <i name="alphaZ">    107.38120932 </i>
    <i name="ewald">  -7307.88010284 </i>
    <i name="hartreedc">   -353.24838793 </i>
    <i name="XCdc">   -558.85375059 </i>
    <i name="pawpsdc">   5598.62625415 </i>
    <i name="pawaedc">  -4492.17844134 </i>
    <i name="eentropy">     -0.00667638 </i>
    <i name="bandstr">    890.51718082 </i>
    <i name="atom">   6564.76702419 </i>
    <i name="e_fr_energy">    449.12430940 </i>
    <i name="e_wo_entrp">    449.13098578 </i>
    <i name="e_0_energy">    449.12764759 </i>
   </energy>
  </scstep>
  <scstep>
   <time name="dav">    1.30    1.31</time>
   <time name="total">    1.30    1.31</time>
   <energy>
    <i name="e_fr_energy">   -323.05181259 </i>
    <i name="e_wo_entrp">   -323.05181259 </i>
    <i name="e_0_energy">   -323.05181259 </i>
   </energy>
  </scstep>
  <scstep>
   <time name="dav">    1.34    1.34</time>
   <time name="total">    1.34    1.34</time>
   <energy>
    <i name="e_fr_energy">   -373.48544816 </i>
    <i name="e_wo_entrp">   -373.48544816 </i>
    <i name="e_0_energy">   -373.48544816 </i>
   </energy>
  </scstep>
  <scstep>
   <time name="dav">    1.32    1.33</time>
   <time name="total">    1.32    1.33</time>
   <energy>
    <i name="e_fr_energy">   -374.60879819 </i>
    <i name="e_wo_entrp">   -374.60879819 </i>
    <i name="e_0_energy">   -374.60879819 </i>
   </energy>
  </scstep>
  <scstep>
   <time name="dav">    1.31    1.31</time>
   <time name="total">    1.45    1.45</time>
   <energy>
    <i name="e_fr_energy">   -374.64234824 </i>
    <i name="e_wo_entrp">   -374.64234824 </i>
    <i name="e_0_energy">   -374.64234824 </i>
   </energy>
  </scstep>
  <scstep>
   <time name="dav">    1.24    1.25</time>
   <time name="total">    1.42    1.43</time>
   <energy>
    <i name="e_fr_energy">   -369.72271613 </i>
    <i name="e_wo_entrp">   -369.72271613 </i>
    <i name="e_0_energy">   -369.72271613 </i>
   </energy>
  </scstep>
  <scstep>
   <time name="dav">    1.22    1.23</time>
   <time name="total">    1.40    1.41</time>
   <energy>
    <i name="e_fr_energy">   -367.49169417 </i>
    <i name="e_wo_entrp">   -367.49169417 </i>
    <i name="e_0_energy">   -367.49169417 </i>
   </energy>
  </scstep>
  <scstep>
   <time name="dav">    1.22    1.23</time>
   <time name="total">    1.40    1.41</time>
   <energy>
    <i name="e_fr_energy">   -367.49882487 </i>
    <i name="e_wo_entrp">   -367.49882487 </i>
    <i name="e_0_energy">   -367.49882487 </i>
   </energy>
  </scstep>
  <scstep>
   <time name="dav">    1.31    1.31</time>
   <time name="total">    1.48    1.49</time>
   <energy>
    <i name="e_fr_energy">   -367.50029336 </i>
    <i name="e_wo_entrp">   -367.50029336 </i>
    <i name="e_0_energy">   -367.50029336 </i>
   </energy>
  </scstep>
  <scstep>
   <time name="dav">    1.21    1.22</time>
   <time name="total">    1.39    1.40</time>
   <energy>
    <i name="e_fr_energy">   -367.50114323 </i>
    <i name="e_wo_entrp">   -367.50114323 </i>
    <i name="e_0_energy">   -367.50114323 </i>
   </energy>
  </scstep>
  <scstep>
   <time name="dav">    1.26    1.27</time>
   <time name="total">    1.44    1.45</time>
   <energy>
    <i name="e_fr_energy">   -367.50119004 </i>
    <i name="e_wo_entrp">   -367.50119004 </i>
    <i name="e_0_energy">   -367.50119004 </i>
   </energy>
  </scstep>
  <scstep>
   <time name="dav">    1.29    1.30</time>
   <time name="total">    1.47    1.48</time>
   <energy>
    <i name="e_fr_energy">   -367.50119214 </i>
    <i name="e_wo_entrp">   -367.50119214 </i>
    <i name="e_0_energy">   -367.50119214 </i>
   </energy>
  </scstep>
  <scstep>
   <time name="dav">    1.24    1.24</time>
   <time name="total">    1.42    1.42</time>
   <energy>
    <i name="e_fr_energy">   -367.50119060 </i>
    <i name="e_wo_entrp">   -367.50119060 </i>
    <i name="e_0_energy">   -367.50119060 </i>
   </energy>
  </scstep>
  <scstep>
   <time name="dav">    0.98    0.98</time>
   <time name="total">    1.15    1.16</time>
   <energy>
    <i name="e_fr_energy">   -367.50119065 </i>
    <i name="e_wo_entrp">   -367.50119065 </i>
    <i name="e_0_energy">   -367.50119065 </i>
   </energy>
  </scstep>
  <scstep>
   <time name="dav">    0.84    0.84</time>
   <time name="total">    1.02    1.02</time>
   <energy>
    <i name="e_fr_energy">   -367.50119069 </i>
    <i name="e_wo_entrp">   -367.50119069 </i>
    <i name="e_0_energy">   -367.50119069 </i>
   </energy>
  </scstep>
  <scstep>
   <time name="dav">    0.81    0.82</time>
   <time name="total">    0.86    0.86</time>
   <energy>
    <i name="alphaZ">    107.38120932 </i>
    <i name="ewald">  -7307.88010284 </i>
    <i name="hartreedc">   -468.78326552 </i>
    <i name="XCdc">   -539.35384951 </i>
    <i name="pawpsdc">  28474.77335457 </i>
    <i name="pawaedc"> -27375.20006262 </i>
    <i name="eentropy">     -0.00000000 </i>
    <i name="bandstr">    176.79450172 </i>
    <i name="atom">   6564.76702419 </i>
    <i name="e_fr_energy">   -367.50119068 </i>
    <i name="e_wo_entrp">   -367.50119068 </i>
    <i name="e_0_energy">   -367.50119068 </i>
   </energy>
  </scstep>
  <structure>
   <crystal>
    <varray name="basis" >
     <v>      10.86914512      -0.00000000      -0.00000000 </v>
     <v>      -0.00000000      10.86914512       0.00000000 </v>
     <v>       0.00000000       0.00000000      10.86914512 </v>
    </varray>
    <i name="volume">   1284.06249692 </i>
    <varray name="rec_basis" >
     <v>       0.09200356       0.00000000      -0.00000000 </v>
     <v>       0.00000000       0.09200356      -0.00000000 </v>
     <v>       0.00000000      -0.00000000       0.09200356 </v>
    </varray>
   </crystal>
   <varray name="positions" >
    <v>       0.25000000       0.25000000       0.25000000 </v>
    <v>       0.75000000       0.25000000       0.25000000 </v>
    <v>       0.25000000       0.75000000       0.25000000 </v>
    <v>       0.75000000       0.75000000       0.25000000 </v>
    <v>       0.25000000       0.25000000       0.75000000 </v>
    <v>       0.75000000       0.25000000       0.75000000 </v>
    <v>       0.25000000       0.75000000       0.75000000 </v>
    <v>       0.75000000       0.75000000       0.75000000 </v>
    <v>       0.25000000       0.00000000       0.00000000 </v>
    <v>       0.75000000       0.00000000       0.00000000 </v>
    <v>       0.25000000       0.50000000       0.00000000 </v>
    <v>       0.75000000       0.50000000       0.00000000 </v>
    <v>       0.25000000       0.00000000       0.50000000 </v>
    <v>       0.75000000       0.00000000       0.50000000 </v>
    <v>       0.25000000       0.50000000       0.50000000 </v>
    <v>       0.75000000       0.50000000       0.50000000 </v>
    <v>       0.00000000       0.25000000       0.00000000 </v>
    <v>       0.50000000       0.25000000       0.00000000 </v>
    <v>       0.00000000       0.75000000       0.00000000 </v>
    <v>       0.50000000       0.75000000       0.00000000 </v>
    <v>       0.00000000       0.25000000       0.50000000 </v>
    <v>       0.50000000       0.25000000       0.50000000 </v>
    <v>       0.00000000       0.75000000       0.50000000 </v>
    <v>       0.50000000       0.75000000       0.50000000 </v>
    <v>       0.00000000       0.00000000       0.25000000 </v>
    <v>       0.50000000       0.00000000       0.25000000 </v>
    <v>       0.00000000       0.50000000       0.25000000 </v>
    <v>       0.50000000       0.50000000       0.25000000 </v>
    <v>       0.00000000       0.00000000       0.75000000 </v>
    <v>       0.50000000       0.00000000       0.75000000 </v>
    <v>       0.00000000       0.50000000       0.75000000 </v>
    <v>       0.50000000       0.50000000       0.75000000 </v>
    <v>       0.37500000       0.37500000       0.37500000 </v>
    <v>       0.87500000       0.37500000       0.37500000 </v>
    <v>       0.37500000       0.87500000       0.37500000 </v>
    <v>       0.87500000       0.87500000       0.37500000 </v>
    <v>       0.37500000       0.37500000       0.87500000 </v>
    <v>       0.87500000       0.37500000       0.87500000 </v>
    <v>       0.37500000       0.87500000       0.87500000 </v>
    <v>       0.87500000       0.87500000       0.87500000 </v>
    <v>       0.37500000       0.12500000       0.12500000 </v>
    <v>       0.87500000       0.12500000       0.12500000 </v>
    <v>       0.37500000       0.62500000       0.12500000 </v>
    <v>       0.87500000       0.62500000       0.12500000 </v>
    <v>       0.37500000       0.12500000       0.62500000 </v>
    <v>       0.87500000       0.12500000       0.62500000 </v>
    <v>       0.37500000       0.62500000       0.62500000 </v>
    <v>       0.87500000       0.62500000       0.62500000 </v>
    <v>       0.12500000       0.37500000       0.12500000 </v>
    <v>       0.62500000       0.37500000       0.12500000 </v>
    <v>       0.12500000       0.87500000       0.12500000 </v>
    <v>       0.62500000       0.87500000       0.12500000 </v>
    <v>       0.12500000       0.37500000       0.62500000 </v>
    <v>       0.62500000       0.37500000       0.62500000 </v>
    <v>       0.12500000       0.87500000       0.62500000 </v>
    <v>       0.62500000       0.87500000       0.62500000 </v>
    <v>       0.12500000       0.12500000       0.37500000 </v>
    <v>       0.62500000       0.12500000       0.37500000 </v>
    <v>       0.12500000       0.62500000       0.37500000 </v>
    <v>       0.62500000       0.62500000       0.37500000 </v>
    <v>       0.12500000       0.12500000       0.87500000 </v>
    <v>       0.62500000       0.12500000       0.87500000 </v>
    <v>       0.12500000       0.62500000       0.87500000 </v>
    <v>       0.62500000       0.62500000       0.87500000 </v>
   </varray>
  </structure>
  <varray name="forces" >
   <v>       0.00000000      -0.00000000       0.00000000 </v>
   <v>       0.00000000      -0.00000000       0.00000000 </v>
   <v>       0.00000000      -0.00000000       0.00000000 </v>
   <v>       0.00000000      -0.00000000       0.00000000 </v>
   <v>       0.00000000       0.00000000       0.00000000 </v>
   <v>       0.00000000      -0.00000000       0.00000000 </v>
   <v>       0.00000000      -0.00000000       0.00000000 </v>
   <v>       0.00000000      -0.00000000       0.00000000 </v>
   <v>       0.00000000      -0.00000000       0.00000000 </v>
   <v>       0.00000000      -0.00000000       0.00000000 </v>
   <v>       0.00000000      -0.00000000       0.00000000 </v>
   <v>       0.00000000      -0.00000000       0.00000000 </v>
   <v>       0.00000000      -0.00000000       0.00000000 </v>
   <v>       0.00000000      -0.00000000      -0.00000000 </v>
   <v>       0.00000000      -0.00000000       0.00000000 </v>
   <v>       0.00000000       0.00000000       0.00000000 </v>
   <v>       0.00000000      -0.00000000       0.00000000 </v>
   <v>       0.00000000       0.00000000       0.00000000 </v>
   <v>       0.00000000      -0.00000000       0.00000000 </v>
   <v>       0.00000000      -0.00000000       0.00000000 </v>
   <v>       0.00000000       0.00000000       0.00000000 </v>
   <v>       0.00000000      -0.00000000       0.00000000 </v>
   <v>       0.00000000      -0.00000000       0.00000000 </v>
   <v>       0.00000000       0.00000000       0.00000000 </v>
   <v>       0.00000000       0.00000000       0.00000000 </v>
   <v>       0.00000000       0.00000000       0.00000000 </v>
   <v>       0.00000000      -0.00000000       0.00000000 </v>
   <v>       0.00000000       0.00000000       0.00000000 </v>
   <v>       0.00000000      -0.00000000       0.00000000 </v>
   <v>       0.00000000      -0.00000000       0.00000000 </v>
   <v>       0.00000000       0.00000000       0.00000000 </v>
   <v>       0.00000000      -0.00000000       0.00000000 </v>
   <v>      -0.00000000       0.00000000      -0.00000000 </v>
   <v>      -0.00000000       0.00000000      -0.00000000 </v>
   <v>      -0.00000000       0.00000000       0.00000000 </v>
   <v>      -0.00000000      -0.00000000      -0.00000000 </v>
   <v>      -0.00000000       0.00000000      -0.00000000 </v>
   <v>      -0.00000000       0.00000000      -0.00000000 </v>
   <v>      -0.00000000      -0.00000000      -0.00000000 </v>
   <v>      -0.00000000       0.00000000      -0.00000000 </v>
   <v>      -0.00000000      -0.00000000      -0.00000000 </v>
   <v>      -0.00000000       0.00000000       0.00000000 </v>
   <v>      -0.00000000       0.00000000      -0.00000000 </v>
   <v>      -0.00000000       0.00000000      -0.00000000 </v>
   <v>      -0.00000000       0.00000000      -0.00000000 </v>
   <v>      -0.00000000       0.00000000      -0.00000000 </v>
   <v>      -0.00000000       0.00000000      -0.00000000 </v>
   <v>      -0.00000000       0.00000000      -0.00000000 </v>
   <v>       0.00000000       0.00000000      -0.00000000 </v>
   <v>      -0.00000000       0.00000000      -0.00000000 </v>
   <v>      -0.00000000      -0.00000000      -0.00000000 </v>
   <v>      -0.00000000      -0.00000000      -0.00000000 </v>
   <v>      -0.00000000       0.00000000      -0.00000000 </v>
   <v>      -0.00000000       0.00000000      -0.00000000 </v>
   <v>      -0.00000000      -0.00000000      -0.00000000 </v>
   <v>      -0.00000000       0.00000000      -0.00000000 </v>
   <v>      -0.00000000       0.00000000      -0.00000000 </v>
   <v>      -0.00000000       0.00000000      -0.00000000 </v>
   <v>      -0.00000000       0.00000000      -0.00000000 </v>
   <v>      -0.00000000       0.00000000      -0.00000000 </v>
   <v>      -0.00000000      -0.00000000      -0.00000000 </v>
   <v>      -0.00000000       0.00000000      -0.00000000 </v>
   <v>      -0.00000000       0.00000000      -0.00000000 </v>
   <v>      -0.00000000       0.00000000      -0.00000000 </v>
  </varray>
  <varray name="stress" >
   <v>      -0.03264790       0.00000000       0.00000000 </v>
   <v>       0.00000000      -0.03264790      -0.00000000 </v>
   <v>      -0.00000000      -0.00000000      -0.03264790 </v>
  </varray>
  <energy>
   <i name="e_fr_energy">   -367.50119068 </i>
   <i name="e_wo_entrp">   -367.50119068 </i>
   <i name="e_0_energy">   -367.50119068 </i>
  </energy>
  <time name="totalsc">   23.14   23.27</time>
  <eigenvalues>
   <array>
    <dimension dim="1">band</dimension>
    <dimension dim="2">kpoint</dimension>
    <dimension dim="3">spin</dimension>
    <field>eigene</field>
    <field>occ</field>
    <set>
     <set comment="spin 1">
      <set comment="kpoint 1">
       <r>   -6.2055    1.0000 </r>
       <r>   -5.1213    1.0000 </r>
       <r>   -5.1213    1.0000 </r>
       <r>   -5.1213    1.0000 </r>
       <r>   -5.1213    1.0000 </r>
       <r>   -5.1213    1.0000 </r>
       <r>   -5.1213    1.0000 </r>
       <r>   -4.1550    1.0000 </r>
       <r>   -4.1550    1.0000 </r>
       <r>   -4.1550    1.0000 </r>
       <r>   -4.1550    1.0000 </r>
       <r>   -4.1550    1.0000 </r>
       <r>   -4.1550    1.0000 </r>
       <r>   -4.1550    1.0000 </r>
       <r>   -4.1550    1.0000 </r>
       <r>   -4.1550    1.0000 </r>
       <r>   -4.1550    1.0000 </r>
       <r>   -4.1550    1.0000 </r>
       <r>   -4.1550    1.0000 </r>
       <r>   -3.8606    1.0000 </r>
       <r>   -3.8606    1.0000 </r>
       <r>   -3.8606    1.0000 </r>
       <r>   -3.8606    1.0000 </r>
       <r>   -2.0519    1.0000 </r>
       <r>   -2.0519    1.0000 </r>
       <r>   -2.0519    1.0000 </r>
       <r>   -2.0519    1.0000 </r>
       <r>   -2.0519    1.0000 </r>
       <r>   -2.0519    1.0000 </r>
       <r>   -1.8827    1.0000 </r>
       <r>   -1.8827    1.0000 </r>
       <r>   -1.8827    1.0000 </r>
       <r>   -1.8827    1.0000 </r>
       <r>   -1.8827    1.0000 </r>
       <r>   -1.8827    1.0000 </r>
       <r>   -1.8827    1.0000 </r>
       <r>   -1.8827    1.0000 </r>
       <r>   -1.8827    1.0000 </r>
       <r>   -1.8827    1.0000 </r>
       <r>   -1.8827    1.0000 </r>
       <r>   -1.8827    1.0000 </r>
       <r>   -1.2347    1.0000 </r>
       <r>   -1.2347    1.0000 </r>
       <r>   -1.2347    1.0000 </r>
       <r>   -1.2347    1.0000 </r>
       <r>    0.2819    1.0000 </r>
       <r>    0.2819    1.0000 </r>
       <r>    0.2819    1.0000 </r>
       <r>    0.2819    1.0000 </r>
       <r>    0.2819    1.0000 </r>
       <r>    0.2819    1.0000 </r>
       <r>    0.2819    1.0000 </r>
       <r>    0.2819    1.0000 </r>
       <r>    0.2819    1.0000 </r>
       <r>    0.2819    1.0000 </r>
       <r>    0.2819    1.0000 </r>
       <r>    0.2819    1.0000 </r>
       <r>    1.8712    1.0000 </r>
       <r>    1.8712    1.0000 </r>
       <r>    1.8712    1.0000 </r>
       <r>    1.8712    1.0000 </r>
       <r>    1.8712    1.0000 </r>
       <r>    1.8712    1.0000 </r>
       <r>    1.8712    1.0000 </r>
       <r>    1.8712    1.0000 </r>
       <r>    1.8712    1.0000 </r>
       <r>    1.8712    1.0000 </r>
       <r>    1.8712    1.0000 </r>
       <r>    1.8712    1.0000 </r>
       <r>    1.9733    1.0000 </r>
       <r>    1.9733    1.0000 </r>
       <r>    1.9733    1.0000 </r>
       <r>    1.9733    1.0000 </r>
       <r>    1.9733    1.0000 </r>
       <r>    1.9733    1.0000 </r>
       <r>    1.9733    1.0000 </r>
       <r>    1.9733    1.0000 </r>
       <r>    1.9733    1.0000 </r>
       <r>    1.9733    1.0000 </r>
       <r>    1.9733    1.0000 </r>
       <r>    1.9733    1.0000 </r>
       <r>    2.2514    1.0000 </r>
       <r>    2.2514    1.0000 </r>
       <r>    2.2514    1.0000 </r>
       <r>    2.2514    1.0000 </r>
       <r>    2.2514    1.0000 </r>
       <r>    2.2514    1.0000 </r>
       <r>    2.9017    1.0000 </r>
       <r>    2.9017    1.0000 </r>
       <r>    2.9017    1.0000 </r>
       <r>    2.9017    1.0000 </r>
       <r>    2.9017    1.0000 </r>
       <r>    2.9017    1.0000 </r>
       <r>    3.8667    1.0000 </r>
       <r>    3.8667    1.0000 </r>
       <r>    3.8667    1.0000 </r>
       <r>    3.8667    1.0000 </r>
       <r>    3.8667    1.0000 </r>
       <r>    3.8667    1.0000 </r>
       <r>    3.8667    1.0000 </r>
       <r>    3.8667    1.0000 </r>
       <r>    3.8667    1.0000 </r>
       <r>    3.8667    1.0000 </r>
       <r>    3.8667    1.0000 </r>
       <r>    3.8667    1.0000 </r>
       <r>    4.4370    1.0000 </r>
       <r>    4.4370    1.0000 </r>
       <r>    4.4370    1.0000 </r>
       <r>    4.4370    1.0000 </r>
       <r>    4.4370    1.0000 </r>
       <r>    4.4370    1.0000 </r>
       <r>    4.4370    1.0000 </r>
       <r>    4.4370    1.0000 </r>
       <r>    4.4370    1.0000 </r>
       <r>    4.4370    1.0000 </r>
       <r>    4.4370    1.0000 </r>
       <r>    4.4370    1.0000 </r>
       <r>    4.5698    1.0000 </r>
       <r>    4.5698    1.0000 </r>
       <r>    4.5698    1.0000 </r>
       <r>    4.5698    1.0000 </r>
       <r>    4.5698    1.0000 </r>
       <r>    4.5698    1.0000 </r>
       <r>    4.5698    1.0000 </r>
       <r>    4.5698    1.0000 </r>
       <r>    5.7719    1.0000 </r>
       <r>    5.7719    1.0000 </r>
       <r>    5.7719    1.0000 </r>
       <r>    6.3658    0.0000 </r>
       <r>    6.3658    0.0000 </r>
       <r>    6.3658    0.0000 </r>
       <r>    6.3658    0.0000 </r>
       <r>    6.3658    0.0000 </r>
       <r>    6.3658    0.0000 </r>
       <r>    6.8081    0.0000 </r>
       <r>    6.8081    0.0000 </r>
       <r>    6.8081    0.0000 </r>
       <r>    6.8081    0.0000 </r>
       <r>    6.8081    0.0000 </r>
       <r>    6.8081    0.0000 </r>
       <r>    7.2320    0.0000 </r>
       <r>    7.2320    0.0000 </r>
       <r>    7.2320    0.0000 </r>
       <r>    7.2320    0.0000 </r>
       <r>    8.1379    0.0000 </r>
       <r>    8.1379    0.0000 </r>
       <r>    8.1379    0.0000 </r>
       <r>    8.1379    0.0000 </r>
       <r>    8.1379    0.0000 </r>
       <r>    8.1379    0.0000 </r>
       <r>    8.1379    0.0000 </r>
       <r>    8.1379    0.0000 </r>
       <r>    8.1379    0.0000 </r>
       <r>    8.1379    0.0000 </r>
       <r>    8.1379    0.0000 </r>
       <r>    8.1379    0.0000 </r>
       <r>    8.2889    0.0000 </r>
       <r>    8.2889    0.0000 </r>
       <r>    8.2889    0.0000 </r>
       <r>    8.7979    0.0000 </r>
       <r>    8.7979    0.0000 </r>
       <r>    8.7979    0.0000 </r>
       <r>    8.7979    0.0000 </r>
       <r>    8.7979    0.0000 </r>
       <r>    8.7980    0.0000 </r>
       <r>    9.0500    0.0000 </r>
       <r>    9.0500    0.0000 </r>
       <r>    9.0529    0.0000 </r>
      </set>
      <set comment="kpoint 2">
       <r>   -5.9320    1.0000 </r>
       <r>   -5.9320    1.0000 </r>
       <r>   -4.8727    1.0000 </r>
       <r>   -4.8727    1.0000 </r>
       <r>   -4.8727    1.0000 </r>
       <r>   -4.8727    1.0000 </r>
       <r>   -4.8727    1.0000 </r>
       <r>   -4.8727    1.0000 </r>
       <r>   -4.8727    1.0000 </r>
       <r>   -4.8727    1.0000 </r>
       <r>   -4.0227    1.0000 </r>
       <r>   -4.0227    1.0000 </r>
       <r>   -4.0227    1.0000 </r>
       <r>   -4.0227    1.0000 </r>
       <r>   -4.0227    1.0000 </r>
       <r>   -4.0227    1.0000 </r>
       <r>   -4.0227    1.0000 </r>
       <r>   -4.0227    1.0000 </r>
       <r>   -3.8057    1.0000 </r>
       <r>   -3.8057    1.0000 </r>
       <r>   -3.0764    1.0000 </r>
       <r>   -3.0764    1.0000 </r>
       <r>   -3.0764    1.0000 </r>
       <r>   -3.0764    1.0000 </r>
       <r>   -3.0764    1.0000 </r>
       <r>   -3.0764    1.0000 </r>
       <r>   -3.0764    1.0000 </r>
       <r>   -3.0764    1.0000 </r>
       <r>   -1.9715    1.0000 </r>
       <r>   -1.9715    1.0000 </r>
       <r>   -1.9715    1.0000 </r>
       <r>   -1.9715    1.0000 </r>
       <r>   -1.9715    1.0000 </r>
       <r>   -1.9715    1.0000 </r>
       <r>   -1.9715    1.0000 </r>
       <r>   -1.9715    1.0000 </r>
       <r>   -0.8030    1.0000 </r>
       <r>   -0.8030    1.0000 </r>
       <r>   -0.8030    1.0000 </r>
       <r>   -0.8030    1.0000 </r>
       <r>   -0.8030    1.0000 </r>
       <r>   -0.8030    1.0000 </r>
       <r>   -0.8030    1.0000 </r>
       <r>   -0.8030    1.0000 </r>
       <r>   -0.6340    1.0000 </r>
       <r>   -0.6340    1.0000 </r>
       <r>   -0.6340    1.0000 </r>
       <r>   -0.6340    1.0000 </r>
       <r>   -0.6340    1.0000 </r>
       <r>   -0.6340    1.0000 </r>
       <r>   -0.6340    1.0000 </r>
       <r>   -0.6340    1.0000 </r>
       <r>    0.0232    1.0000 </r>
       <r>    0.0232    1.0000 </r>
       <r>    1.4743    1.0000 </r>
       <r>    1.4743    1.0000 </r>
       <r>    1.4743    1.0000 </r>
       <r>    1.4743    1.0000 </r>
       <r>    1.4743    1.0000 </r>
       <r>    1.4743    1.0000 </r>
       <r>    1.4743    1.0000 </r>
       <r>    1.4743    1.0000 </r>
       <r>    1.4933    1.0000 </r>
       <r>    1.4933    1.0000 </r>
       <r>    1.4933    1.0000 </r>
       <r>    1.4933    1.0000 </r>
       <r>    1.4933    1.0000 </r>
       <r>    1.4933    1.0000 </r>
       <r>    1.4933    1.0000 </r>
       <r>    1.4933    1.0000 </r>
       <r>    2.3180    1.0000 </r>
       <r>    2.3180    1.0000 </r>
       <r>    2.3180    1.0000 </r>
       <r>    2.3180    1.0000 </r>
       <r>    2.3180    1.0000 </r>
       <r>    2.3180    1.0000 </r>
       <r>    2.3180    1.0000 </r>
       <r>    2.3180    1.0000 </r>
       <r>    3.0248    1.0000 </r>
       <r>    3.0248    1.0000 </r>
       <r>    3.0248    1.0000 </r>
       <r>    3.0248    1.0000 </r>
       <r>    3.0248    1.0000 </r>
       <r>    3.0248    1.0000 </r>
       <r>    3.0248    1.0000 </r>
       <r>    3.0248    1.0000 </r>
       <r>    3.1481    1.0000 </r>
       <r>    3.1481    1.0000 </r>
       <r>    3.1481    1.0000 </r>
       <r>    3.1481    1.0000 </r>
       <r>    3.1592    1.0000 </r>
       <r>    3.1592    1.0000 </r>
       <r>    3.1592    1.0000 </r>
       <r>    3.1592    1.0000 </r>
       <r>    3.1592    1.0000 </r>
       <r>    3.1592    1.0000 </r>
       <r>    3.1592    1.0000 </r>
       <r>    3.1592    1.0000 </r>
       <r>    3.2857    1.0000 </r>
       <r>    3.2857    1.0000 </r>
       <r>    3.2857    1.0000 </r>
       <r>    3.2857    1.0000 </r>
       <r>    3.2857    1.0000 </r>
       <r>    3.2857    1.0000 </r>
       <r>    3.2857    1.0000 </r>
       <r>    3.2857    1.0000 </r>
       <r>    4.3318    1.0000 </r>
       <r>    4.3318    1.0000 </r>
       <r>    4.3318    1.0000 </r>
       <r>    4.3318    1.0000 </r>
       <r>    4.3318    1.0000 </r>
       <r>    4.3318    1.0000 </r>
       <r>    4.3318    1.0000 </r>
       <r>    4.3318    1.0000 </r>
       <r>    4.4330    1.0000 </r>
       <r>    4.4330    1.0000 </r>
       <r>    4.5009    1.0000 </r>
       <r>    4.5009    1.0000 </r>
       <r>    4.5009    1.0000 </r>
       <r>    4.5009    1.0000 </r>
       <r>    4.5009    1.0000 </r>
       <r>    4.5009    1.0000 </r>
       <r>    4.5009    1.0000 </r>
       <r>    4.5009    1.0000 </r>
       <r>    4.9552    1.0000 </r>
       <r>    4.9552    1.0000 </r>
       <r>    4.9552    1.0000 </r>
       <r>    4.9552    1.0000 </r>
       <r>    6.2797    0.0000 </r>
       <r>    6.2797    0.0000 </r>
       <r>    7.1940    0.0000 </r>
       <r>    7.1940    0.0000 </r>
       <r>    7.6459    0.0000 </r>
       <r>    7.6459    0.0000 </r>
       <r>    7.6459    0.0000 </r>
       <r>    7.6459    0.0000 </r>
       <r>    7.6459    0.0000 </r>
       <r>    7.6459    0.0000 </r>
       <r>    7.6459    0.0000 </r>
       <r>    7.6459    0.0000 </r>
       <r>    7.7141    0.0000 </r>
       <r>    7.7141    0.0000 </r>
       <r>    8.0597    0.0000 </r>
       <r>    8.0597    0.0000 </r>
       <r>    8.0597    0.0000 </r>
       <r>    8.0597    0.0000 </r>
       <r>    8.0597    0.0000 </r>
       <r>    8.0597    0.0000 </r>
       <r>    8.0597    0.0000 </r>
       <r>    8.0597    0.0000 </r>
       <r>    8.1456    0.0000 </r>
       <r>    8.1456    0.0000 </r>
       <r>    8.1456    0.0000 </r>
       <r>    8.1456    0.0000 </r>
       <r>    8.1456    0.0000 </r>
       <r>    8.1456    0.0000 </r>
       <r>    8.1456    0.0000 </r>
       <r>    8.1456    0.0000 </r>
       <r>    8.5528    0.0000 </r>
       <r>    8.5528    0.0000 </r>
       <r>    8.5528    0.0000 </r>
       <r>    8.5528    0.0000 </r>
       <r>    8.5528    0.0000 </r>
       <r>    8.5528    0.0000 </r>
       <r>    8.5528    0.0000 </r>
       <r>    8.5528    0.0000 </r>
       <r>    9.3200    0.0000 </r>
       <r>    9.3224    0.0000 </r>
      </set>
      <set comment="kpoint 3">
       <r>   -5.6639    1.0000 </r>
       <r>   -5.6639    1.0000 </r>
       <r>   -5.6639    1.0000 </r>
       <r>   -5.6639    1.0000 </r>
       <r>   -4.6441    1.0000 </r>
       <r>   -4.6441    1.0000 </r>
       <r>   -4.6441    1.0000 </r>
       <r>   -4.6441    1.0000 </r>
       <r>   -4.6441    1.0000 </r>
       <r>   -4.6441    1.0000 </r>
       <r>   -4.6441    1.0000 </r>
       <r>   -4.6441    1.0000 </r>
       <r>   -3.6054    1.0000 </r>
       <r>   -3.6054    1.0000 </r>
       <r>   -3.6054    1.0000 </r>
       <r>   -3.6054    1.0000 </r>
       <r>   -3.6054    1.0000 </r>
       <r>   -3.6054    1.0000 </r>
       <r>   -3.6054    1.0000 </r>
       <r>   -3.6054    1.0000 </r>
       <r>   -3.3216    1.0000 </r>
       <r>   -3.3216    1.0000 </r>
       <r>   -3.3216    1.0000 </r>
       <r>   -3.3216    1.0000 </r>
       <r>   -3.3216    1.0000 </r>
       <r>   -3.3216    1.0000 </r>
       <r>   -3.3216    1.0000 </r>
       <r>   -3.3216    1.0000 </r>
       <r>   -2.4598    1.0000 </r>
       <r>   -2.4598    1.0000 </r>
       <r>   -2.4598    1.0000 </r>
       <r>   -2.4598    1.0000 </r>
       <r>   -1.4627    1.0000 </r>
       <r>   -1.4627    1.0000 </r>
       <r>   -1.4627    1.0000 </r>
       <r>   -1.4627    1.0000 </r>
       <r>   -1.0383    1.0000 </r>
       <r>   -1.0383    1.0000 </r>
       <r>   -1.0383    1.0000 </r>
       <r>   -1.0383    1.0000 </r>
       <r>   -1.0383    1.0000 </r>
       <r>   -1.0383    1.0000 </r>
       <r>   -1.0383    1.0000 </r>
       <r>   -1.0383    1.0000 </r>
       <r>   -0.1952    1.0000 </r>
       <r>   -0.1952    1.0000 </r>
       <r>   -0.1952    1.0000 </r>
       <r>   -0.1952    1.0000 </r>
       <r>   -0.1952    1.0000 </r>
       <r>   -0.1952    1.0000 </r>
       <r>   -0.1952    1.0000 </r>
       <r>   -0.1952    1.0000 </r>
       <r>    0.4650    1.0000 </r>
       <r>    0.4650    1.0000 </r>
       <r>    0.4650    1.0000 </r>
       <r>    0.4650    1.0000 </r>
       <r>    0.4650    1.0000 </r>
       <r>    0.4650    1.0000 </r>
       <r>    0.4650    1.0000 </r>
       <r>    0.4650    1.0000 </r>
       <r>    1.4170    1.0000 </r>
       <r>    1.4170    1.0000 </r>
       <r>    1.4170    1.0000 </r>
       <r>    1.4170    1.0000 </r>
       <r>    2.2873    1.0000 </r>
       <r>    2.2873    1.0000 </r>
       <r>    2.2873    1.0000 </r>
       <r>    2.2873    1.0000 </r>
       <r>    2.2873    1.0000 </r>
       <r>    2.2873    1.0000 </r>
       <r>    2.2873    1.0000 </r>
       <r>    2.2873    1.0000 </r>
       <r>    2.3722    1.0000 </r>
       <r>    2.3722    1.0000 </r>
       <r>    2.3722    1.0000 </r>
       <r>    2.3722    1.0000 </r>
       <r>    2.3722    1.0000 </r>
       <r>    2.3722    1.0000 </r>
       <r>    2.3722    1.0000 </r>
       <r>    2.3722    1.0000 </r>
       <r>    2.9832    1.0000 </r>
       <r>    2.9832    1.0000 </r>
       <r>    2.9832    1.0000 </r>
       <r>    2.9832    1.0000 </r>
       <r>    2.9832    1.0000 </r>
       <r>    2.9832    1.0000 </r>
       <r>    2.9832    1.0000 </r>
       <r>    2.9832    1.0000 </r>
       <r>    3.0767    1.0000 </r>
       <r>    3.0767    1.0000 </r>
       <r>    3.0767    1.0000 </r>
       <r>    3.0767    1.0000 </r>
       <r>    3.3314    1.0000 </r>
       <r>    3.3314    1.0000 </r>
       <r>    3.3314    1.0000 </r>
       <r>    3.3314    1.0000 </r>
       <r>    3.5911    1.0000 </r>
       <r>    3.5911    1.0000 </r>
       <r>    3.5911    1.0000 </r>
       <r>    3.5911    1.0000 </r>
       <r>    3.5911    1.0000 </r>
       <r>    3.5911    1.0000 </r>
       <r>    3.5911    1.0000 </r>
       <r>    3.5911    1.0000 </r>
       <r>    3.9182    1.0000 </r>
       <r>    3.9182    1.0000 </r>
       <r>    3.9182    1.0000 </r>
       <r>    3.9182    1.0000 </r>
       <r>    3.9182    1.0000 </r>
       <r>    3.9182    1.0000 </r>
       <r>    3.9182    1.0000 </r>
       <r>    3.9182    1.0000 </r>
       <r>    4.1185    1.0000 </r>
       <r>    4.1185    1.0000 </r>
       <r>    4.1185    1.0000 </r>
       <r>    4.1185    1.0000 </r>
       <r>    4.1741    1.0000 </r>
       <r>    4.1741    1.0000 </r>
       <r>    4.1741    1.0000 </r>
       <r>    4.1741    1.0000 </r>
       <r>    4.1741    1.0000 </r>
       <r>    4.1741    1.0000 </r>
       <r>    4.1741    1.0000 </r>
       <r>    4.1741    1.0000 </r>
       <r>    5.4802    1.0000 </r>
       <r>    5.4802    1.0000 </r>
       <r>    5.4802    1.0000 </r>
       <r>    5.4802    1.0000 </r>
       <r>    6.8658    0.0000 </r>
       <r>    6.8658    0.0000 </r>
       <r>    6.8658    0.0000 </r>
       <r>    6.8658    0.0000 </r>
       <r>    7.6316    0.0000 </r>
       <r>    7.6316    0.0000 </r>
       <r>    7.6316    0.0000 </r>
       <r>    7.6316    0.0000 </r>
       <r>    7.6316    0.0000 </r>
       <r>    7.6316    0.0000 </r>
       <r>    7.6316    0.0000 </r>
       <r>    7.6316    0.0000 </r>
       <r>    7.9400    0.0000 </r>
       <r>    7.9400    0.0000 </r>
       <r>    7.9400    0.0000 </r>
       <r>    7.9400    0.0000 </r>
       <r>    7.9400    0.0000 </r>
       <r>    7.9400    0.0000 </r>
       <r>    7.9400    0.0000 </r>
       <r>    7.9400    0.0000 </r>
       <r>    8.3152    0.0000 </r>
       <r>    8.3152    0.0000 </r>
       <r>    8.3152    0.0000 </r>
       <r>    8.3152    0.0000 </r>
       <r>    8.3152    0.0000 </r>
       <r>    8.3152    0.0000 </r>
       <r>    8.3152    0.0000 </r>
       <r>    8.3152    0.0000 </r>
       <r>    8.7651    0.0000 </r>
       <r>    8.7662    0.0000 </r>
       <r>    8.7679    0.0000 </r>
       <r>    8.7698    0.0000 </r>
       <r>    8.7711    0.0000 </r>
       <r>    8.7714    0.0000 </r>
       <r>    8.7742    0.0000 </r>
       <r>    8.7777    0.0000 </r>
       <r>    8.7913    0.0000 </r>
       <r>    8.8009    0.0000 </r>
       <r>    8.8063    0.0000 </r>
       <r>    8.8125    0.0000 </r>
      </set>
      <set comment="kpoint 4">
       <r>   -5.4037    1.0000 </r>
       <r>   -5.4037    1.0000 </r>
       <r>   -5.4037    1.0000 </r>
       <r>   -5.4037    1.0000 </r>
       <r>   -5.4037    1.0000 </r>
       <r>   -5.4037    1.0000 </r>
       <r>   -5.4037    1.0000 </r>
       <r>   -5.4037    1.0000 </r>
       <r>   -3.4778    1.0000 </r>
       <r>   -3.4778    1.0000 </r>
       <r>   -3.4778    1.0000 </r>
       <r>   -3.4778    1.0000 </r>
       <r>   -3.4778    1.0000 </r>
       <r>   -3.4778    1.0000 </r>
       <r>   -3.4778    1.0000 </r>
       <r>   -3.4778    1.0000 </r>
       <r>   -3.4778    1.0000 </r>
       <r>   -3.4778    1.0000 </r>
       <r>   -3.4778    1.0000 </r>
       <r>   -3.4778    1.0000 </r>
       <r>   -3.4778    1.0000 </r>
       <r>   -3.4778    1.0000 </r>
       <r>   -3.4778    1.0000 </r>
       <r>   -3.4778    1.0000 </r>
       <r>   -3.4778    1.0000 </r>
       <r>   -3.4778    1.0000 </r>
       <r>   -3.4778    1.0000 </r>
       <r>   -3.4778    1.0000 </r>
       <r>   -3.4778    1.0000 </r>
       <r>   -3.4778    1.0000 </r>
       <r>   -3.4778    1.0000 </r>
       <r>   -3.4778    1.0000 </r>
       <r>   -0.6246    1.0000 </r>
       <r>   -0.6246    1.0000 </r>
       <r>   -0.6246    1.0000 </r>
       <r>   -0.6246    1.0000 </r>
       <r>   -0.6246    1.0000 </r>
       <r>   -0.6246    1.0000 </r>
       <r>   -0.6246    1.0000 </r>
       <r>   -0.6246    1.0000 </r>
       <r>   -0.6246    1.0000 </r>
       <r>   -0.6246    1.0000 </r>
       <r>   -0.6246    1.0000 </r>
       <r>   -0.6246    1.0000 </r>
       <r>   -0.6246    1.0000 </r>
       <r>   -0.6246    1.0000 </r>
       <r>   -0.6246    1.0000 </r>
       <r>   -0.6246    1.0000 </r>
       <r>   -0.6246    1.0000 </r>
       <r>   -0.6246    1.0000 </r>
       <r>   -0.6246    1.0000 </r>
       <r>   -0.6246    1.0000 </r>
       <r>   -0.6246    1.0000 </r>
       <r>   -0.6246    1.0000 </r>
       <r>   -0.6246    1.0000 </r>
       <r>   -0.6246    1.0000 </r>
       <r>    1.8227    1.0000 </r>
       <r>    1.8227    1.0000 </r>
       <r>    1.8227    1.0000 </r>
       <r>    1.8227    1.0000 </r>
       <r>    1.8227    1.0000 </r>
       <r>    1.8227    1.0000 </r>
       <r>    1.8227    1.0000 </r>
       <r>    1.8227    1.0000 </r>
       <r>    2.1984    1.0000 </r>
       <r>    2.1984    1.0000 </r>
       <r>    2.1984    1.0000 </r>
       <r>    2.1984    1.0000 </r>
       <r>    2.1984    1.0000 </r>
       <r>    2.1984    1.0000 </r>
       <r>    2.1984    1.0000 </r>
       <r>    2.1984    1.0000 </r>
       <r>    2.1984    1.0000 </r>
       <r>    2.1984    1.0000 </r>
       <r>    2.1984    1.0000 </r>
       <r>    2.1984    1.0000 </r>
       <r>    2.1984    1.0000 </r>
       <r>    2.1984    1.0000 </r>
       <r>    2.1984    1.0000 </r>
       <r>    2.1984    1.0000 </r>
       <r>    2.1984    1.0000 </r>
       <r>    2.1984    1.0000 </r>
       <r>    2.1984    1.0000 </r>
       <r>    2.1984    1.0000 </r>
       <r>    2.1984    1.0000 </r>
       <r>    2.1984    1.0000 </r>
       <r>    2.1984    1.0000 </r>
       <r>    2.1984    1.0000 </r>
       <r>    3.5525    1.0000 </r>
       <r>    3.5525    1.0000 </r>
       <r>    3.5525    1.0000 </r>
       <r>    3.5525    1.0000 </r>
       <r>    3.5525    1.0000 </r>
       <r>    3.5525    1.0000 </r>
       <r>    3.5525    1.0000 </r>
       <r>    3.5525    1.0000 </r>
       <r>    3.5525    1.0000 </r>
       <r>    3.5525    1.0000 </r>
       <r>    3.5525    1.0000 </r>
       <r>    3.5525    1.0000 </r>
       <r>    3.5525    1.0000 </r>
       <r>    3.5525    1.0000 </r>
       <r>    3.5525    1.0000 </r>
       <r>    3.5525    1.0000 </r>
       <r>    3.5525    1.0000 </r>
       <r>    3.5525    1.0000 </r>
       <r>    3.5525    1.0000 </r>
       <r>    3.5525    1.0000 </r>
       <r>    3.5525    1.0000 </r>
       <r>    3.5525    1.0000 </r>
       <r>    3.5525    1.0000 </r>
       <r>    3.5525    1.0000 </r>
       <r>    5.0076    1.0000 </r>
       <r>    5.0076    1.0000 </r>
       <r>    5.0076    1.0000 </r>
       <r>    5.0076    1.0000 </r>
       <r>    5.0076    1.0000 </r>
       <r>    5.0076    1.0000 </r>
       <r>    5.0076    1.0000 </r>
       <r>    5.0076    1.0000 </r>
       <r>    5.0076    1.0000 </r>
       <r>    5.0076    1.0000 </r>
       <r>    5.0076    1.0000 </r>
       <r>    5.0076    1.0000 </r>
       <r>    5.0076    1.0000 </r>
       <r>    5.0076    1.0000 </r>
       <r>    5.0076    1.0000 </r>
       <r>    5.0076    1.0000 </r>
       <r>    7.1888    0.0000 </r>
       <r>    7.1888    0.0000 </r>
       <r>    7.1888    0.0000 </r>
       <r>    7.1888    0.0000 </r>
       <r>    7.1888    0.0000 </r>
       <r>    7.1888    0.0000 </r>
       <r>    7.1888    0.0000 </r>
       <r>    7.1888    0.0000 </r>
       <r>    7.1888    0.0000 </r>
       <r>    7.1888    0.0000 </r>
       <r>    7.1888    0.0000 </r>
       <r>    7.1888    0.0000 </r>
       <r>    7.1888    0.0000 </r>
       <r>    7.1888    0.0000 </r>
       <r>    7.1888    0.0000 </r>
       <r>    7.1888    0.0000 </r>
       <r>    7.1888    0.0000 </r>
       <r>    7.1888    0.0000 </r>
       <r>    7.1888    0.0000 </r>
       <r>    7.1888    0.0000 </r>
       <r>    7.1888    0.0000 </r>
       <r>    7.1888    0.0000 </r>
       <r>    7.1888    0.0000 </r>
       <r>    7.1888    0.0000 </r>
       <r>    7.7262    0.0000 </r>
       <r>    7.7262    0.0000 </r>
       <r>    7.7262    0.0000 </r>
       <r>    7.7262    0.0000 </r>
       <r>    7.7262    0.0000 </r>
       <r>    7.7262    0.0000 </r>
       <r>    7.7262    0.0000 </r>
       <r>    7.7262    0.0000 </r>
       <r>    9.2307    0.0000 </r>
       <r>    9.2307    0.0000 </r>
       <r>    9.2307    0.0000 </r>
       <r>    9.2307    0.0000 </r>
       <r>    9.2307    0.0000 </r>
       <r>    9.2307    0.0000 </r>
       <r>    9.2307    0.0000 </r>
       <r>    9.2307    0.0000 </r>
      </set>
     </set>
    </set>
   </array>
  </eigenvalues>
  <separator name="orbital magnetization" >
   <v name="MAGDIPOLOUT">      0.00000000      0.00000000      0.00000000</v>
  </separator>
  <dos>
   <i name="efermi">      5.89269060 </i>
   <total>
    <array>
     <dimension dim="1">gridpoints</dimension>
     <dimension dim="2">spin</dimension>
     <field>energy</field>
     <field>total</field>
     <field>integrated</field>
     <set>
      <set comment="spin 1">
       <r>    -6.9819     0.0000     0.0000 </r>
       <r>    -6.9250     0.0000     0.0000 </r>
       <r>    -6.8680     0.0000     0.0000 </r>
       <r>    -6.8111     0.0000     0.0000 </r>
       <r>    -6.7542     0.0000     0.0000 </r>
       <r>    -6.6972     0.0000     0.0000 </r>
       <r>    -6.6403     0.0000     0.0000 </r>
       <r>    -6.5833     0.0000     0.0000 </r>
       <r>    -6.5264     0.0000     0.0000 </r>
       <r>    -6.4695     0.0000     0.0000 </r>
       <r>    -6.4125     0.0000     0.0000 </r>
       <r>    -6.3556     0.0000     0.0000 </r>
       <r>    -6.2987     0.0000     0.0000 </r>
       <r>    -6.2417     0.0228     0.0013 </r>
       <r>    -6.1848     4.0537     0.2321 </r>
       <r>    -6.1279     0.3144     0.2500 </r>
       <r>    -6.0709     0.0000     0.2500 </r>
       <r>    -6.0140     0.0000     0.2500 </r>
       <r>    -5.9571     1.0086     0.3074 </r>
       <r>    -5.9001    25.0190     1.7319 </r>
       <r>    -5.8432     0.3179     1.7500 </r>
       <r>    -5.7862     0.0000     1.7500 </r>
       <r>    -5.7293     0.0001     1.7500 </r>
       <r>    -5.6724    14.4643     2.5735 </r>
       <r>    -5.6154    38.2105     4.7491 </r>
       <r>    -5.5585     0.0161     4.7500 </r>
       <r>    -5.5016     0.0000     4.7500 </r>
       <r>    -5.4446     0.0671     4.7538 </r>
       <r>    -5.3877    30.5444     6.4929 </r>
       <r>    -5.3308     4.5159     6.7500 </r>
       <r>    -5.2738     0.0000     6.7500 </r>
       <r>    -5.2169     0.0000     6.7500 </r>
       <r>    -5.1600     0.0817     6.7547 </r>
       <r>    -5.1030    23.6645     8.1020 </r>
       <r>    -5.0461     2.5993     8.2500 </r>
       <r>    -4.9891     0.0000     8.2500 </r>
       <r>    -4.9322     0.0014     8.2501 </r>
       <r>    -4.8753    45.1311    10.8196 </r>
       <r>    -4.8183    60.2432    14.2496 </r>
       <r>    -4.7614     0.0063    14.2500 </r>
       <r>    -4.7045     0.0010    14.2501 </r>
       <r>    -4.6475    42.6492    16.6783 </r>
       <r>    -4.5906    62.7237    20.2495 </r>
       <r>    -4.5337     0.0081    20.2500 </r>
       <r>    -4.4767     0.0000    20.2500 </r>
       <r>    -4.4198     0.0000    20.2500 </r>
       <r>    -4.3629     0.0000    20.2500 </r>
       <r>    -4.3059     0.0000    20.2500 </r>
       <r>    -4.2490     0.0000    20.2500 </r>
       <r>    -4.1920     0.2334    20.2633 </r>
       <r>    -4.1351    48.2688    23.0115 </r>
       <r>    -4.0782     4.1935    23.2503 </r>
       <r>    -4.0212    56.9931    26.4952 </r>
       <r>    -3.9643    48.3824    29.2499 </r>
       <r>    -3.9074     0.0103    29.2505 </r>
       <r>    -3.8504    13.4448    30.0160 </r>
       <r>    -3.7935    25.3240    31.4578 </r>
       <r>    -3.7366     5.1320    31.7500 </r>
       <r>    -3.6796     0.0000    31.7500 </r>
       <r>    -3.6227    11.6006    32.4105 </r>
       <r>    -3.5658    93.5120    37.7347 </r>
       <r>    -3.5088     1.7500    37.8343 </r>
       <r>    -3.4519   100.3585    43.5483 </r>
       <r>    -3.3949     3.5428    43.7500 </r>
       <r>    -3.3380    12.9920    44.4897 </r>
       <r>    -3.2811    92.1719    49.7376 </r>
       <r>    -3.2241     0.2182    49.7500 </r>
       <r>    -3.1672     0.0000    49.7500 </r>
       <r>    -3.1103     0.8736    49.7997 </r>
       <r>    -3.0533    99.0764    55.4407 </r>
       <r>    -2.9964     5.4320    55.7500 </r>
       <r>    -2.9395     0.0000    55.7500 </r>
       <r>    -2.8825     0.0000    55.7500 </r>
       <r>    -2.8256     0.0000    55.7500 </r>
       <r>    -2.7687     0.0000    55.7500 </r>
       <r>    -2.7117     0.0000    55.7500 </r>
       <r>    -2.6548     0.0000    55.7500 </r>
       <r>    -2.5978     0.0000    55.7500 </r>
       <r>    -2.5409     0.0000    55.7500 </r>
       <r>    -2.4840     2.2863    55.8802 </r>
       <r>    -2.4270    49.8592    58.7189 </r>
       <r>    -2.3701     0.5455    58.7500 </r>
       <r>    -2.3132     0.0000    58.7500 </r>
       <r>    -2.2562     0.0000    58.7500 </r>
       <r>    -2.1993     0.0000    58.7500 </r>
       <r>    -2.1424     0.0000    58.7500 </r>
       <r>    -2.0854     0.2348    58.7634 </r>
       <r>    -2.0285    24.8284    60.1770 </r>
       <r>    -1.9716    53.6986    63.2344 </r>
       <r>    -1.9146    53.5960    66.2859 </r>
       <r>    -1.8577    50.0371    69.1348 </r>
       <r>    -1.8007     2.0235    69.2500 </r>
       <r>    -1.7438     0.0000    69.2500 </r>
       <r>    -1.6869     0.0000    69.2500 </r>
       <r>    -1.6299     0.0000    69.2500 </r>
       <r>    -1.5730     0.0000    69.2500 </r>
       <r>    -1.5161     0.0042    69.2502 </r>
       <r>    -1.4591    31.5305    71.0455 </r>
       <r>    -1.4022    21.1558    72.2500 </r>
       <r>    -1.3453     0.0005    72.2500 </r>
       <r>    -1.2883     0.0013    72.2501 </r>
       <r>    -1.2314    10.4066    72.8426 </r>
       <r>    -1.1745     7.1556    73.2500 </r>
       <r>    -1.1175     0.0002    73.2500 </r>
       <r>    -1.0606     6.0986    73.5972 </r>
       <r>    -1.0036    98.5370    79.2075 </r>
       <r>    -0.9467     0.7463    79.2500 </r>
       <r>    -0.8898     0.0000    79.2500 </r>
       <r>    -0.8328     1.8345    79.3544 </r>
       <r>    -0.7759   100.6267    85.0837 </r>
       <r>    -0.7190     2.9208    85.2500 </r>
       <r>    -0.6620     2.9153    85.4160 </r>
       <r>    -0.6051   196.8179    96.6220 </r>
       <r>    -0.5482    11.0308    97.2500 </r>
       <r>    -0.4912     0.0000    97.2500 </r>
       <r>    -0.4343     0.0000    97.2500 </r>
       <r>    -0.3774     0.0000    97.2500 </r>
       <r>    -0.3204     0.0000    97.2500 </r>
       <r>    -0.2635     0.0001    97.2500 </r>
       <r>    -0.2065    22.3545    98.5228 </r>
       <r>    -0.1496    82.9615   103.2462 </r>
       <r>    -0.0927     0.0659   103.2500 </r>
       <r>    -0.0357     0.0004   103.2500 </r>
       <r>     0.0212    11.6611   103.9140 </r>
       <r>     0.0781    14.6826   104.7499 </r>
       <r>     0.1351     0.0014   104.7500 </r>
       <r>     0.1920     0.0000   104.7500 </r>
       <r>     0.2489     0.5159   104.7794 </r>
       <r>     0.3059    49.7854   107.6139 </r>
       <r>     0.3628     2.3898   107.7500 </r>
       <r>     0.4197     0.0728   107.7541 </r>
       <r>     0.4767    83.8136   112.5261 </r>
       <r>     0.5336    21.4956   113.7500 </r>
       <r>     0.5906     0.0001   113.7500 </r>
       <r>     0.6475     0.0000   113.7500 </r>
       <r>     0.7044     0.0000   113.7500 </r>
       <r>     0.7614     0.0000   113.7500 </r>
       <r>     0.8183     0.0000   113.7500 </r>
       <r>     0.8752     0.0000   113.7500 </r>
       <r>     0.9322     0.0000   113.7500 </r>
       <r>     0.9891     0.0000   113.7500 </r>
       <r>     1.0460     0.0000   113.7500 </r>
       <r>     1.1030     0.0000   113.7500 </r>
       <r>     1.1599     0.0000   113.7500 </r>
       <r>     1.2168     0.0000   113.7500 </r>
       <r>     1.2738     0.0000   113.7500 </r>
       <r>     1.3307     0.0000   113.7500 </r>
       <r>     1.3877     0.9977   113.8068 </r>
       <r>     1.4446    52.2429   116.7813 </r>
       <r>     1.5015   177.8580   126.9078 </r>
       <r>     1.5585    32.3562   128.7500 </r>
       <r>     1.6154     0.0002   128.7500 </r>
       <r>     1.6723     0.0000   128.7500 </r>
       <r>     1.7293     0.0000   128.7500 </r>
       <r>     1.7862     0.1734   128.7599 </r>
       <r>     1.8431    33.5922   130.6725 </r>
       <r>     1.9001    52.9664   133.6881 </r>
       <r>     1.9570     7.6567   134.1241 </r>
       <r>     2.0139    46.0139   136.7439 </r>
       <r>     2.0709     0.1067   136.7500 </r>
       <r>     2.1278     0.0000   136.7500 </r>
       <r>     2.1848    17.6693   137.7560 </r>
       <r>     2.2417    94.1472   143.1163 </r>
       <r>     2.2986   111.8619   149.4853 </r>
       <r>     2.3556   131.0369   156.9460 </r>
       <r>     2.4125    92.9286   162.2369 </r>
       <r>     2.4694     0.2297   162.2500 </r>
       <r>     2.5264     0.0000   162.2500 </r>
       <r>     2.5833     0.0000   162.2500 </r>
       <r>     2.6402     0.0000   162.2500 </r>
       <r>     2.6972     0.0000   162.2500 </r>
       <r>     2.7541     0.0000   162.2500 </r>
       <r>     2.8110     0.0000   162.2500 </r>
       <r>     2.8680     0.2247   162.2628 </r>
       <r>     2.9249    24.7936   163.6744 </r>
       <r>     2.9819    50.1043   166.5272 </r>
       <r>     3.0388   145.1137   174.7893 </r>
       <r>     3.0957    64.8538   178.4818 </r>
       <r>     3.1527    71.6608   182.5619 </r>
       <r>     3.2096    91.1029   187.7489 </r>
       <r>     3.2665     9.2126   188.2734 </r>
       <r>     3.3235   110.9249   194.5890 </r>
       <r>     3.3804    37.9411   196.7492 </r>
       <r>     3.4373     0.0140   196.7500 </r>
       <r>     3.4943     0.0020   196.7501 </r>
       <r>     3.5512    49.2110   199.5520 </r>
       <r>     3.6081   149.5170   208.0648 </r>
       <r>     3.6651    12.0340   208.7500 </r>
       <r>     3.7220     0.0000   208.7500 </r>
       <r>     3.7790     0.0000   208.7500 </r>
       <r>     3.8359     0.7766   208.7942 </r>
       <r>     3.8928    54.0319   211.8706 </r>
       <r>     3.9498   101.9061   217.6727 </r>
       <r>     4.0067     1.3584   217.7500 </r>
       <r>     4.0636     0.0028   217.7502 </r>
       <r>     4.1206    29.4639   219.4277 </r>
       <r>     4.1775    85.9454   224.3211 </r>
       <r>     4.2344    42.6599   226.7499 </r>
       <r>     4.2914     0.2239   226.7627 </r>
       <r>     4.3483    92.3121   232.0185 </r>
       <r>     4.4052    14.1554   232.8245 </r>
       <r>     4.4622    75.5635   237.1268 </r>
       <r>     4.5191    97.1589   242.6586 </r>
       <r>     4.5761    33.9391   244.5909 </r>
       <r>     4.6330    11.5759   245.2500 </r>
       <r>     4.6899     0.0001   245.2500 </r>
       <r>     4.7469     0.0000   245.2500 </r>
       <r>     4.8038     0.0000   245.2500 </r>
       <r>     4.8607     0.0000   245.2500 </r>
       <r>     4.9177     0.2099   245.2620 </r>
       <r>     4.9746    48.6904   248.0342 </r>
       <r>     5.0315    70.8507   252.0681 </r>
       <r>     5.0885     3.1947   252.2500 </r>
       <r>     5.1454     0.0000   252.2500 </r>
       <r>     5.2023     0.0000   252.2500 </r>
       <r>     5.2593     0.0000   252.2500 </r>
       <r>     5.3162     0.0000   252.2500 </r>
       <r>     5.3732     0.0000   252.2500 </r>
       <r>     5.4301     0.0103   252.2506 </r>
       <r>     5.4870    36.0684   254.3042 </r>
       <r>     5.5440    16.6121   255.2500 </r>
       <r>     5.6009     0.0002   255.2500 </r>
       <r>     5.6578     0.0000   255.2500 </r>
       <r>     5.7148     0.0003   255.2500 </r>
       <r>     5.7717     6.4972   255.6199 </r>
       <r>     5.8286     6.6748   256.0000 </r>
       <r>     5.8856     0.0004   256.0000 </r>
       <r>     5.9425     0.0000   256.0000 </r>
       <r>     5.9994     0.0000   256.0000 </r>
       <r>     6.0564     0.0000   256.0000 </r>
       <r>     6.1133     0.0000   256.0000 </r>
       <r>     6.1703     0.0000   256.0000 </r>
       <r>     6.2272     0.0027   256.0002 </r>
       <r>     6.2841    16.3807   256.9328 </r>
       <r>     6.3411    11.0219   257.5603 </r>
       <r>     6.3980    24.9864   258.9830 </r>
       <r>     6.4549     0.2994   259.0000 </r>
       <r>     6.5119     0.0000   259.0000 </r>
       <r>     6.5688     0.0000   259.0000 </r>
       <r>     6.6257     0.0000   259.0000 </r>
       <r>     6.6827     0.0000   259.0000 </r>
       <r>     6.7396     0.0000   259.0000 </r>
       <r>     6.7965     5.4665   259.3112 </r>
       <r>     6.8535    30.9508   261.0734 </r>
       <r>     6.9104    42.5767   263.4976 </r>
       <r>     6.9674     0.0425   263.5000 </r>
       <r>     7.0243     0.0000   263.5000 </r>
       <r>     7.0812     0.0000   263.5000 </r>
       <r>     7.1382     0.0193   263.5011 </r>
       <r>     7.1951    84.9997   268.3406 </r>
       <r>     7.2520    62.8969   271.9217 </r>
       <r>     7.3090     1.3753   272.0000 </r>
       <r>     7.3659     0.0000   272.0000 </r>
       <r>     7.4228     0.0000   272.0000 </r>
       <r>     7.4798     0.0000   272.0000 </r>
       <r>     7.5367     0.0000   272.0000 </r>
       <r>     7.5936     0.3934   272.0224 </r>
       <r>     7.6506   161.8890   281.2397 </r>
       <r>     7.7075    60.1768   284.6659 </r>
       <r>     7.7645    49.6521   287.4928 </r>
       <r>     7.8214     0.1256   287.5000 </r>
       <r>     7.8783     0.0007   287.5000 </r>
       <r>     7.9353    38.8284   289.7108 </r>
       <r>     7.9922    66.5412   293.4993 </r>
       <r>     8.0491    23.9132   294.8608 </r>
       <r>     8.1061    82.3341   299.5486 </r>
       <r>     8.1630   143.6368   307.7267 </r>
       <r>     8.2199    13.5827   308.5000 </r>
       <r>     8.2769     2.9517   308.6681 </r>
       <r>     8.3338   105.6813   314.6851 </r>
       <r>     8.3907     9.9218   315.2500 </r>
       <r>     8.4477     0.0000   315.2500 </r>
       <r>     8.5046     0.0346   315.2520 </r>
       <r>     8.5616    77.1069   319.6421 </r>
       <r>     8.6185    28.2403   321.2500 </r>
       <r>     8.6754     0.0002   321.2500 </r>
       <r>     8.7324     0.4863   321.2777 </r>
       <r>     8.7893   112.2960   327.6713 </r>
       <r>     8.8462    71.4744   331.7408 </r>
       <r>     8.9032     0.1618   331.7500 </r>
       <r>     8.9601     0.0000   331.7500 </r>
       <r>     9.0170     0.1117   331.7564 </r>
       <r>     9.0740    12.3673   332.4605 </r>
       <r>     9.1309     0.6938   332.5000 </r>
       <r>     9.1878     0.0428   332.5024 </r>
       <r>     9.2448    29.4661   334.1801 </r>
       <r>     9.3017     7.8470   334.6269 </r>
       <r>     9.3587    24.0067   335.9937 </r>
       <r>     9.4156     0.1102   336.0000 </r>
       <r>     9.4725     0.0000   336.0000 </r>
       <r>     9.5295     0.0000   336.0000 </r>
       <r>     9.5864     0.0000   336.0000 </r>
       <r>     9.6433     0.0000   336.0000 </r>
       <r>     9.7003     0.0000   336.0000 </r>
       <r>     9.7572     0.0000   336.0000 </r>
       <r>     9.8141     0.0000   336.0000 </r>
       <r>     9.8711     0.0000   336.0000 </r>
       <r>     9.9280     0.0000   336.0000 </r>
       <r>     9.9849     0.0000   336.0000 </r>
       <r>    10.0419     0.0000   336.0000 </r>
       <r>    10.0988     0.0000   336.0000 </r>
      </set>
     </set>
    </array>
   </total>
  </dos>
 </calculation>
 <structure name="finalpos" >
  <crystal>
   <varray name="basis" >
    <v>      10.86914512      -0.00000000      -0.00000000 </v>
    <v>      -0.00000000      10.86914512       0.00000000 </v>
    <v>       0.00000000       0.00000000      10.86914512 </v>
   </varray>
   <i name="volume">   1284.06249692 </i>
   <varray name="rec_basis" >
    <v>       0.09200356       0.00000000      -0.00000000 </v>
    <v>       0.00000000       0.09200356      -0.00000000 </v>
    <v>       0.00000000      -0.00000000       0.09200356 </v>
   </varray>
  </crystal>
  <varray name="positions" >
   <v>       0.25000000       0.25000000       0.25000000 </v>
   <v>       0.75000000       0.25000000       0.25000000 </v>
   <v>       0.25000000       0.75000000       0.25000000 </v>
   <v>       0.75000000       0.75000000       0.25000000 </v>
   <v>       0.25000000       0.25000000       0.75000000 </v>
   <v>       0.75000000       0.25000000       0.75000000 </v>
   <v>       0.25000000       0.75000000       0.75000000 </v>
   <v>       0.75000000       0.75000000       0.75000000 </v>
   <v>       0.25000000       0.00000000       0.00000000 </v>
   <v>       0.75000000       0.00000000       0.00000000 </v>
   <v>       0.25000000       0.50000000       0.00000000 </v>
   <v>       0.75000000       0.50000000       0.00000000 </v>
   <v>       0.25000000       0.00000000       0.50000000 </v>
   <v>       0.75000000       0.00000000       0.50000000 </v>
   <v>       0.25000000       0.50000000       0.50000000 </v>
   <v>       0.75000000       0.50000000       0.50000000 </v>
   <v>       0.00000000       0.25000000       0.00000000 </v>
   <v>       0.50000000       0.25000000       0.00000000 </v>
   <v>       0.00000000       0.75000000       0.00000000 </v>
   <v>       0.50000000       0.75000000       0.00000000 </v>
   <v>       0.00000000       0.25000000       0.50000000 </v>
   <v>       0.50000000       0.25000000       0.50000000 </v>
   <v>       0.00000000       0.75000000       0.50000000 </v>
   <v>       0.50000000       0.75000000       0.50000000 </v>
   <v>       0.00000000       0.00000000       0.25000000 </v>
   <v>       0.50000000       0.00000000       0.25000000 </v>
   <v>       0.00000000       0.50000000       0.25000000 </v>
   <v>       0.50000000       0.50000000       0.25000000 </v>
   <v>       0.00000000       0.00000000       0.75000000 </v>
   <v>       0.50000000       0.00000000       0.75000000 </v>
   <v>       0.00000000       0.50000000       0.75000000 </v>
   <v>       0.50000000       0.50000000       0.75000000 </v>
   <v>       0.37500000       0.37500000       0.37500000 </v>
   <v>       0.87500000       0.37500000       0.37500000 </v>
   <v>       0.37500000       0.87500000       0.37500000 </v>
   <v>       0.87500000       0.87500000       0.37500000 </v>
   <v>       0.37500000       0.37500000       0.87500000 </v>
   <v>       0.87500000       0.37500000       0.87500000 </v>
   <v>       0.37500000       0.87500000       0.87500000 </v>
   <v>       0.87500000       0.87500000       0.87500000 </v>
   <v>       0.37500000       0.12500000       0.12500000 </v>
   <v>       0.87500000       0.12500000       0.12500000 </v>
   <v>       0.37500000       0.62500000       0.12500000 </v>
   <v>       0.87500000       0.62500000       0.12500000 </v>
   <v>       0.37500000       0.12500000       0.62500000 </v>
   <v>       0.87500000       0.12500000       0.62500000 </v>
   <v>       0.37500000       0.62500000       0.62500000 </v>
   <v>       0.87500000       0.62500000       0.62500000 </v>
   <v>       0.12500000       0.37500000       0.12500000 </v>
   <v>       0.62500000       0.37500000       0.12500000 </v>
   <v>       0.12500000       0.87500000       0.12500000 </v>
   <v>       0.62500000       0.87500000       0.12500000 </v>
   <v>       0.12500000       0.37500000       0.62500000 </v>
   <v>       0.62500000       0.37500000       0.62500000 </v>
   <v>       0.12500000       0.87500000       0.62500000 </v>
   <v>       0.62500000       0.87500000       0.62500000 </v>
   <v>       0.12500000       0.12500000       0.37500000 </v>
   <v>       0.62500000       0.12500000       0.37500000 </v>
   <v>       0.12500000       0.62500000       0.37500000 </v>
   <v>       0.62500000       0.62500000       0.37500000 </v>
   <v>       0.12500000       0.12500000       0.87500000 </v>
   <v>       0.62500000       0.12500000       0.87500000 </v>
   <v>       0.12500000       0.62500000       0.87500000 </v>
   <v>       0.62500000       0.62500000       0.87500000 </v>
  </varray>
 </structure>
</modeling>
