  64  64   0   0
  0.2197554E+02  0.1120400E-08  0.1120400E-08  0.1120400E-08  0.5000000E-15
  1.000000000000000E-004
  CAR 
 unknown system                          
     11.06206138    -22.85292478  301     -0.55382138      1.00000000
    -22.853  0.0000E+00  0.0000E+00
    -22.740  0.0000E+00  0.0000E+00
    -22.627  0.0000E+00  0.0000E+00
    -22.514  0.0000E+00  0.0000E+00
    -22.401  0.0000E+00  0.0000E+00
    -22.288  0.0000E+00  0.0000E+00
    -22.175  0.0000E+00  0.0000E+00
    -22.062  0.0000E+00  0.0000E+00
    -21.949  0.0000E+00  0.0000E+00
    -21.835  0.0000E+00  0.0000E+00
    -21.722  0.0000E+00  0.0000E+00
    -21.609  0.0000E+00  0.0000E+00
    -21.496  0.0000E+00  0.0000E+00
    -21.383  0.7316E-05  0.8270E-06
    -21.270  0.1238E+04  0.1400E+03
    -21.157  0.4600E+03  0.1920E+03
    -21.044  0.0000E+00  0.1920E+03
    -20.931  0.0000E+00  0.1920E+03
    -20.818  0.0000E+00  0.1920E+03
    -20.705  0.0000E+00  0.1920E+03
    -20.592  0.0000E+00  0.1920E+03
    -20.479  0.0000E+00  0.1920E+03
    -20.366  0.0000E+00  0.1920E+03
    -20.253  0.0000E+00  0.1920E+03
    -20.140  0.0000E+00  0.1920E+03
    -20.027  0.0000E+00  0.1920E+03
    -19.914  0.0000E+00  0.1920E+03
    -19.801  0.0000E+00  0.1920E+03
    -19.688  0.0000E+00  0.1920E+03
    -19.574  0.0000E+00  0.1920E+03
    -19.461  0.0000E+00  0.1920E+03
    -19.348  0.0000E+00  0.1920E+03
    -19.235  0.0000E+00  0.1920E+03
    -19.122  0.0000E+00  0.1920E+03
    -19.009  0.0000E+00  0.1920E+03
    -18.896  0.0000E+00  0.1920E+03
    -18.783  0.0000E+00  0.1920E+03
    -18.670  0.0000E+00  0.1920E+03
    -18.557  0.0000E+00  0.1920E+03
    -18.444  0.0000E+00  0.1920E+03
    -18.331  0.0000E+00  0.1920E+03
    -18.218  0.0000E+00  0.1920E+03
    -18.105  0.0000E+00  0.1920E+03
    -17.992  0.0000E+00  0.1920E+03
    -17.879  0.0000E+00  0.1920E+03
    -17.766  0.0000E+00  0.1920E+03
    -17.653  0.0000E+00  0.1920E+03
    -17.540  0.0000E+00  0.1920E+03
    -17.427  0.0000E+00  0.1920E+03
    -17.313  0.0000E+00  0.1920E+03
    -17.200  0.0000E+00  0.1920E+03
    -17.087  0.0000E+00  0.1920E+03
    -16.974  0.0000E+00  0.1920E+03
    -16.861  0.0000E+00  0.1920E+03
    -16.748  0.0000E+00  0.1920E+03
    -16.635  0.0000E+00  0.1920E+03
    -16.522  0.0000E+00  0.1920E+03
    -16.409  0.0000E+00  0.1920E+03
    -16.296  0.0000E+00  0.1920E+03
    -16.183  0.0000E+00  0.1920E+03
    -16.070  0.0000E+00  0.1920E+03
    -15.957  0.0000E+00  0.1920E+03
    -15.844  0.0000E+00  0.1920E+03
    -15.731  0.0000E+00  0.1920E+03
    -15.618  0.0000E+00  0.1920E+03
    -15.505  0.0000E+00  0.1920E+03
    -15.392  0.0000E+00  0.1920E+03
    -15.279  0.0000E+00  0.1920E+03
    -15.166  0.0000E+00  0.1920E+03
    -15.052  0.0000E+00  0.1920E+03
    -14.939  0.0000E+00  0.1920E+03
    -14.826  0.0000E+00  0.1920E+03
    -14.713  0.0000E+00  0.1920E+03
    -14.600  0.0000E+00  0.1920E+03
    -14.487  0.0000E+00  0.1920E+03
    -14.374  0.0000E+00  0.1920E+03
    -14.261  0.0000E+00  0.1920E+03
    -14.148  0.0000E+00  0.1920E+03
    -14.035  0.0000E+00  0.1920E+03
    -13.922  0.0000E+00  0.1920E+03
    -13.809  0.0000E+00  0.1920E+03
    -13.696  0.0000E+00  0.1920E+03
    -13.583  0.0000E+00  0.1920E+03
    -13.470  0.2946E-14  0.1920E+03
    -13.357  0.1183E+01  0.1921E+03
    -13.244  0.1961E+02  0.1944E+03
    -13.131  0.4846E+02  0.1998E+03
    -13.018  0.1263E+03  0.2141E+03
    -12.905  0.3668E+03  0.2556E+03
    -12.791  0.3743E+01  0.2560E+03
    -12.678  0.0000E+00  0.2560E+03
    -12.565  0.0000E+00  0.2560E+03
    -12.452  0.0000E+00  0.2560E+03
    -12.339  0.0000E+00  0.2560E+03
    -12.226  0.0000E+00  0.2560E+03
    -12.113  0.0000E+00  0.2560E+03
    -12.000  0.0000E+00  0.2560E+03
    -11.887  0.0000E+00  0.2560E+03
    -11.774  0.0000E+00  0.2560E+03
    -11.661  0.0000E+00  0.2560E+03
    -11.548  0.0000E+00  0.2560E+03
    -11.435  0.0000E+00  0.2560E+03
    -11.322  0.0000E+00  0.2560E+03
    -11.209  0.0000E+00  0.2560E+03
    -11.096  0.0000E+00  0.2560E+03
    -10.983  0.0000E+00  0.2560E+03
    -10.870  0.0000E+00  0.2560E+03
    -10.757  0.0000E+00  0.2560E+03
    -10.644  0.0000E+00  0.2560E+03
    -10.530  0.0000E+00  0.2560E+03
    -10.417  0.0000E+00  0.2560E+03
    -10.304  0.0000E+00  0.2560E+03
    -10.191  0.0000E+00  0.2560E+03
    -10.078  0.0000E+00  0.2560E+03
     -9.965  0.0000E+00  0.2560E+03
     -9.852  0.0000E+00  0.2560E+03
     -9.739  0.0000E+00  0.2560E+03
     -9.626  0.0000E+00  0.2560E+03
     -9.513  0.0000E+00  0.2560E+03
     -9.400  0.0000E+00  0.2560E+03
     -9.287  0.0000E+00  0.2560E+03
     -9.174  0.0000E+00  0.2560E+03
     -9.061  0.0000E+00  0.2560E+03
     -8.948  0.0000E+00  0.2560E+03
     -8.835  0.0000E+00  0.2560E+03
     -8.722  0.0000E+00  0.2560E+03
     -8.609  0.0000E+00  0.2560E+03
     -8.496  0.0000E+00  0.2560E+03
     -8.383  0.0000E+00  0.2560E+03
     -8.269  0.0000E+00  0.2560E+03
     -8.156  0.0000E+00  0.2560E+03
     -8.043  0.0000E+00  0.2560E+03
     -7.930  0.0000E+00  0.2560E+03
     -7.817  0.0000E+00  0.2560E+03
     -7.704  0.0000E+00  0.2560E+03
     -7.591  0.0000E+00  0.2560E+03
     -7.478  0.0000E+00  0.2560E+03
     -7.365  0.0000E+00  0.2560E+03
     -7.252  0.0000E+00  0.2560E+03
     -7.139  0.0000E+00  0.2560E+03
     -7.026  0.0000E+00  0.2560E+03
     -6.913  0.0000E+00  0.2560E+03
     -6.800  0.0000E+00  0.2560E+03
     -6.687  0.0000E+00  0.2560E+03
     -6.574  0.0000E+00  0.2560E+03
     -6.461  0.0000E+00  0.2560E+03
     -6.348  0.0000E+00  0.2560E+03
     -6.235  0.0000E+00  0.2560E+03
     -6.122  0.0000E+00  0.2560E+03
     -6.008  0.0000E+00  0.2560E+03
     -5.895  0.0000E+00  0.2560E+03
     -5.782  0.0000E+00  0.2560E+03
     -5.669  0.0000E+00  0.2560E+03
     -5.556  0.0000E+00  0.2560E+03
     -5.443  0.0000E+00  0.2560E+03
     -5.330  0.0000E+00  0.2560E+03
     -5.217  0.0000E+00  0.2560E+03
     -5.104  0.0000E+00  0.2560E+03
     -4.991  0.0000E+00  0.2560E+03
     -4.878  0.0000E+00  0.2560E+03
     -4.765  0.0000E+00  0.2560E+03
     -4.652  0.0000E+00  0.2560E+03
     -4.539  0.0000E+00  0.2560E+03
     -4.426  0.0000E+00  0.2560E+03
     -4.313  0.0000E+00  0.2560E+03
     -4.200  0.0000E+00  0.2560E+03
     -4.087  0.0000E+00  0.2560E+03
     -3.974  0.0000E+00  0.2560E+03
     -3.861  0.0000E+00  0.2560E+03
     -3.747  0.0000E+00  0.2560E+03
     -3.634  0.0000E+00  0.2560E+03
     -3.521  0.0000E+00  0.2560E+03
     -3.408  0.0000E+00  0.2560E+03
     -3.295  0.0000E+00  0.2560E+03
     -3.182  0.0000E+00  0.2560E+03
     -3.069  0.0000E+00  0.2560E+03
     -2.956  0.0000E+00  0.2560E+03
     -2.843  0.0000E+00  0.2560E+03
     -2.730  0.1479E+00  0.2560E+03
     -2.617  0.8698E+01  0.2570E+03
     -2.504  0.2711E+02  0.2601E+03
     -2.391  0.8241E+02  0.2694E+03
     -2.278  0.8348E+02  0.2788E+03
     -2.165  0.1539E+03  0.2962E+03
     -2.052  0.7110E+02  0.3043E+03
     -1.939  0.5736E+02  0.3107E+03
     -1.826  0.6401E+02  0.3180E+03
     -1.713  0.6881E+02  0.3257E+03
     -1.600  0.6551E-09  0.3258E+03
     -1.486  0.7771E+02  0.3345E+03
     -1.373  0.1915E+03  0.3562E+03
     -1.260  0.2307E+02  0.3588E+03
     -1.147  0.2569E+03  0.3878E+03
     -1.034  0.1345E+03  0.4030E+03
     -0.921  0.2611E+03  0.4326E+03
     -0.808  0.6090E+02  0.4394E+03
     -0.695  0.6912E+02  0.4473E+03
     -0.582  0.6553E+01  0.4480E+03
     -0.469  0.0000E+00  0.4480E+03
     -0.356  0.0000E+00  0.4480E+03
     -0.243  0.0000E+00  0.4480E+03
     -0.130  0.0000E+00  0.4480E+03
     -0.017  0.0000E+00  0.4480E+03
      0.096  0.0000E+00  0.4480E+03
      0.209  0.0000E+00  0.4480E+03
      0.322  0.0000E+00  0.4480E+03
      0.435  0.0000E+00  0.4480E+03
      0.548  0.0000E+00  0.4480E+03
      0.661  0.0000E+00  0.4480E+03
      0.775  0.0000E+00  0.4480E+03
      0.888  0.0000E+00  0.4480E+03
      1.001  0.0000E+00  0.4480E+03
      1.114  0.0000E+00  0.4480E+03
      1.227  0.0000E+00  0.4480E+03
      1.340  0.0000E+00  0.4480E+03
      1.453  0.0000E+00  0.4480E+03
      1.566  0.0000E+00  0.4480E+03
      1.679  0.0000E+00  0.4480E+03
      1.792  0.0000E+00  0.4480E+03
      1.905  0.0000E+00  0.4480E+03
      2.018  0.0000E+00  0.4480E+03
      2.131  0.0000E+00  0.4480E+03
      2.244  0.0000E+00  0.4480E+03
      2.357  0.0000E+00  0.4480E+03
      2.470  0.0000E+00  0.4480E+03
      2.583  0.0000E+00  0.4480E+03
      2.696  0.0000E+00  0.4480E+03
      2.809  0.0000E+00  0.4480E+03
      2.922  0.0000E+00  0.4480E+03
      3.036  0.0000E+00  0.4480E+03
      3.149  0.0000E+00  0.4480E+03
      3.262  0.0000E+00  0.4480E+03
      3.375  0.0000E+00  0.4480E+03
      3.488  0.0000E+00  0.4480E+03
      3.601  0.0000E+00  0.4480E+03
      3.714  0.0000E+00  0.4480E+03
      3.827  0.0000E+00  0.4480E+03
      3.940  0.0000E+00  0.4480E+03
      4.053  0.0000E+00  0.4480E+03
      4.166  0.0000E+00  0.4480E+03
      4.279  0.1671E-04  0.4480E+03
      4.392  0.2211E+01  0.4482E+03
      4.505  0.0000E+00  0.4482E+03
      4.618  0.0000E+00  0.4482E+03
      4.731  0.0000E+00  0.4482E+03
      4.844  0.0000E+00  0.4482E+03
      4.957  0.4406E-04  0.4483E+03
      5.070  0.1326E+02  0.4497E+03
      5.183  0.3603E-02  0.4498E+03
      5.297  0.0000E+00  0.4498E+03
      5.410  0.0000E+00  0.4498E+03
      5.523  0.3462E+01  0.4501E+03
      5.636  0.2307E+02  0.4527E+03
      5.749  0.5616E-06  0.4528E+03
      5.862  0.1727E+02  0.4547E+03
      5.975  0.4246E+00  0.4548E+03
      6.088  0.0000E+00  0.4548E+03
      6.201  0.0000E+00  0.4548E+03
      6.314  0.1615E-02  0.4548E+03
      6.427  0.1420E+02  0.4564E+03
      6.540  0.7916E+01  0.4573E+03
      6.653  0.4398E+02  0.4622E+03
      6.766  0.6213E+02  0.4692E+03
      6.879  0.5933E+02  0.4760E+03
      6.992  0.1274E+02  0.4774E+03
      7.105  0.9357E+00  0.4775E+03
      7.218  0.5257E+01  0.4781E+03
      7.331  0.1814E+01  0.4783E+03
      7.444  0.8249E+02  0.4876E+03
      7.558  0.1671E+03  0.5065E+03
      7.671  0.2117E+01  0.5068E+03
      7.784  0.2651E+02  0.5097E+03
      7.897  0.3230E+00  0.5098E+03
      8.010  0.5275E+02  0.5157E+03
      8.123  0.1121E-01  0.5158E+03
      8.236  0.1444E+02  0.5174E+03
      8.349  0.9169E+02  0.5277E+03
      8.462  0.2114E-02  0.5278E+03
      8.575  0.1504E+03  0.5447E+03
      8.688  0.8848E+01  0.5458E+03
      8.801  0.4009E-05  0.5458E+03
      8.914  0.8471E+02  0.5553E+03
      9.027  0.1223E+03  0.5692E+03
      9.140  0.3046E+01  0.5695E+03
      9.253  0.2444E+02  0.5723E+03
      9.366  0.1945E+02  0.5745E+03
      9.479  0.1347E+01  0.5746E+03
      9.592  0.1226E+02  0.5760E+03
      9.705  0.0000E+00  0.5760E+03
      9.819  0.0000E+00  0.5760E+03
      9.932  0.0000E+00  0.5760E+03
     10.045  0.0000E+00  0.5760E+03
     10.158  0.0000E+00  0.5760E+03
     10.271  0.0000E+00  0.5760E+03
     10.384  0.0000E+00  0.5760E+03
     10.497  0.0000E+00  0.5760E+03
     10.610  0.0000E+00  0.5760E+03
     10.723  0.0000E+00  0.5760E+03
     10.836  0.0000E+00  0.5760E+03
     10.949  0.0000E+00  0.5760E+03
     11.062  0.0000E+00  0.5760E+03
