       N       E                     dE             d eps       ncg     rms          rms(c)
DAV:   1     0.439875994123E+04    0.43988E+04   -0.17102E+05  4864   0.125E+03
DAV:   2     0.367031939818E+03   -0.40317E+04   -0.38329E+04  5152   0.367E+02
DAV:   3    -0.204880934102E+03   -0.57191E+03   -0.56748E+03  5568   0.156E+02
DAV:   4    -0.228128610124E+03   -0.23248E+02   -0.23132E+02  5536   0.335E+01
DAV:   5    -0.229000466339E+03   -0.87186E+00   -0.87023E+00  5824   0.633E+00    0.106E+01
DAV:   6    -0.224140443275E+03    0.48600E+01   -0.94337E+00  5664   0.533E+00    0.774E+00
DAV:   7    -0.223777677631E+03    0.36277E+00   -0.20898E+00  6304   0.235E+00    0.533E+00
DAV:   8    -0.223903283861E+03   -0.12561E+00   -0.26966E-01  5312   0.125E+00    0.147E+00
DAV:   9    -0.223897308604E+03    0.59753E-02   -0.11318E-02  5728   0.260E-01    0.639E-01
DAV:  10    -0.223901454217E+03   -0.41456E-02   -0.19917E-02  5440   0.232E-01    0.302E-01
DAV:  11    -0.223900636211E+03    0.81801E-03   -0.18811E-03  5920   0.842E-02    0.920E-02
DAV:  12    -0.223900596138E+03    0.40073E-04   -0.14910E-04  5920   0.238E-02    0.189E-02
DAV:  13    -0.223900593041E+03    0.30972E-05   -0.27668E-05  5472   0.866E-03    0.360E-03
DAV:  14    -0.223900594346E+03   -0.13052E-05   -0.23278E-06  5472   0.364E-03    0.847E-03
DAV:  15    -0.223900595643E+03   -0.12973E-05   -0.36135E-07  5536   0.174E-03    0.300E-03
DAV:  16    -0.223900596100E+03   -0.45668E-06   -0.13772E-07  5824   0.948E-04    0.597E-04
DAV:  17    -0.223900596101E+03   -0.10841E-08   -0.94976E-09  3808   0.568E-04
   1 F= -.22390060E+03 E0= -.22390060E+03  d E =-.172085E-15
