<?xml version="1.0" encoding="ISO-8859-1"?>
<modeling>
 <generator>
  <i name="program" type="string">vasp </i>
  <i name="version" type="string">6.3.2  </i>
  <i name="subversion" type="string">27Jun22 (build Oct 14 2022 12:13:54) complex                          parallel </i>
  <i name="platform" type="string">LinuxIFC </i>
  <i name="date" type="string">2025 08 28 </i>
  <i name="time" type="string">22:10:37 </i>
 </generator>
 <incar>
  <i type="string" name="PREC">Accurate</i>
  <i type="int" name="IALGO">    38</i>
  <i type="logical" name="ADDGRID"> T  </i>
  <i type="int" name="NELMIN">     5</i>
  <i type="int" name="IBRION">    -1</i>
  <i name="EDIFF">      0.00000001</i>
  <i name="ENCUT">    341.21360000</i>
  <i type="logical" name="LREAL"> F  </i>
  <i type="int" name="ISMEAR">     0</i>
  <i name="SIGMA">      0.02000000</i>
  <i type="logical" name="LWAVE"> F  </i>
  <i type="logical" name="LCHARG"> F  </i>
  <i type="string" name="GGA">PS</i>
 </incar>
 <primitive_cell>
  <structure name="primitive_cell" >
   <crystal>
    <varray name="basis" >
     <v>      11.20400236       0.00000000       0.00000000 </v>
     <v>       0.00000000      11.20400236       0.00000000 </v>
     <v>       0.00000000       0.00000000      11.20400236 </v>
    </varray>
    <i name="volume">   1406.43470641 </i>
    <varray name="rec_basis" >
     <v>       0.08925382       0.00000000       0.00000000 </v>
     <v>       0.00000000       0.08925382       0.00000000 </v>
     <v>       0.00000000       0.00000000       0.08925382 </v>
    </varray>
   </crystal>
   <varray name="positions" >
    <v>       0.00000000       0.00000000       0.00000000 </v>
    <v>       0.25000000       0.25000000       0.00000000 </v>
    <v>       0.25000000       0.00000000       0.25000000 </v>
    <v>       0.00000000       0.25000000       0.25000000 </v>
    <v>       0.00000000       0.00000000       0.50000000 </v>
    <v>       0.25000000       0.25000000       0.50000000 </v>
    <v>       0.25000000       0.00000000       0.75000000 </v>
    <v>       0.00000000       0.25000000       0.75000000 </v>
    <v>       0.00000000       0.50000000       0.00000000 </v>
    <v>       0.25000000       0.75000000       0.00000000 </v>
    <v>       0.25000000       0.50000000       0.25000000 </v>
    <v>       0.00000000       0.75000000       0.25000000 </v>
    <v>       0.00000000       0.50000000       0.50000000 </v>
    <v>       0.25000000       0.75000000       0.50000000 </v>
    <v>       0.25000000       0.50000000       0.75000000 </v>
    <v>       0.00000000       0.75000000       0.75000000 </v>
    <v>       0.50000000       0.00000000       0.00000000 </v>
    <v>       0.75000000       0.25000000       0.00000000 </v>
    <v>       0.75000000       0.00000000       0.25000000 </v>
    <v>       0.50000000       0.25000000       0.25000000 </v>
    <v>       0.50000000       0.00000000       0.50000000 </v>
    <v>       0.75000000       0.25000000       0.50000000 </v>
    <v>       0.75000000       0.00000000       0.75000000 </v>
    <v>       0.50000000       0.25000000       0.75000000 </v>
    <v>       0.50000000       0.50000000       0.00000000 </v>
    <v>       0.75000000       0.75000000       0.00000000 </v>
    <v>       0.75000000       0.50000000       0.25000000 </v>
    <v>       0.50000000       0.75000000       0.25000000 </v>
    <v>       0.50000000       0.50000000       0.50000000 </v>
    <v>       0.75000000       0.75000000       0.50000000 </v>
    <v>       0.75000000       0.50000000       0.75000000 </v>
    <v>       0.50000000       0.75000000       0.75000000 </v>
    <v>       0.25267761       0.25000000       0.25000000 </v>
    <v>       0.00000000       0.00267761       0.25000000 </v>
    <v>       0.00000000       0.25000000       0.00000000 </v>
    <v>       0.25000000       0.00000000       0.00000000 </v>
    <v>       0.25000000       0.25000000       0.75000000 </v>
    <v>       0.00000000       0.00000000       0.75000000 </v>
    <v>       0.00000000       0.25000000       0.50000000 </v>
    <v>       0.25000000       0.00000000       0.50000000 </v>
    <v>       0.25000000       0.75000000       0.25000000 </v>
    <v>       0.00000000       0.50000000       0.25000000 </v>
    <v>       0.00000000       0.75000000       0.00000000 </v>
    <v>       0.25000000       0.50000000       0.00000000 </v>
    <v>       0.25000000       0.75000000       0.75000000 </v>
    <v>       0.00000000       0.50000000       0.75000000 </v>
    <v>       0.00000000       0.75000000       0.50000000 </v>
    <v>       0.25000000       0.50000000       0.50000000 </v>
    <v>       0.75000000       0.25000000       0.25000000 </v>
    <v>       0.50000000       0.00000000       0.25000000 </v>
    <v>       0.50000000       0.25000000       0.00000000 </v>
    <v>       0.75000000       0.00000000       0.00000000 </v>
    <v>       0.75000000       0.25000000       0.75000000 </v>
    <v>       0.50000000       0.00000000       0.75000000 </v>
    <v>       0.50000000       0.25000000       0.50000000 </v>
    <v>       0.75000000       0.00000000       0.50000000 </v>
    <v>       0.75000000       0.75000000       0.25000000 </v>
    <v>       0.50000000       0.50000000       0.25000000 </v>
    <v>       0.50000000       0.75000000       0.00000000 </v>
    <v>       0.75000000       0.50000000       0.00000000 </v>
    <v>       0.75000000       0.75000000       0.75000000 </v>
    <v>       0.50000000       0.50000000       0.75000000 </v>
    <v>       0.50000000       0.75000000       0.50000000 </v>
    <v>       0.75000000       0.50000000       0.50000000 </v>
   </varray>
  </structure>
  <varray name="primitive_index" >
   <v type="int" >        1 </v>
   <v type="int" >        2 </v>
   <v type="int" >        3 </v>
   <v type="int" >        4 </v>
   <v type="int" >        5 </v>
   <v type="int" >        6 </v>
   <v type="int" >        7 </v>
   <v type="int" >        8 </v>
   <v type="int" >        9 </v>
   <v type="int" >       10 </v>
   <v type="int" >       11 </v>
   <v type="int" >       12 </v>
   <v type="int" >       13 </v>
   <v type="int" >       14 </v>
   <v type="int" >       15 </v>
   <v type="int" >       16 </v>
   <v type="int" >       17 </v>
   <v type="int" >       18 </v>
   <v type="int" >       19 </v>
   <v type="int" >       20 </v>
   <v type="int" >       21 </v>
   <v type="int" >       22 </v>
   <v type="int" >       23 </v>
   <v type="int" >       24 </v>
   <v type="int" >       25 </v>
   <v type="int" >       26 </v>
   <v type="int" >       27 </v>
   <v type="int" >       28 </v>
   <v type="int" >       29 </v>
   <v type="int" >       30 </v>
   <v type="int" >       31 </v>
   <v type="int" >       32 </v>
   <v type="int" >       33 </v>
   <v type="int" >       34 </v>
   <v type="int" >       35 </v>
   <v type="int" >       36 </v>
   <v type="int" >       37 </v>
   <v type="int" >       38 </v>
   <v type="int" >       39 </v>
   <v type="int" >       40 </v>
   <v type="int" >       41 </v>
   <v type="int" >       42 </v>
   <v type="int" >       43 </v>
   <v type="int" >       44 </v>
   <v type="int" >       45 </v>
   <v type="int" >       46 </v>
   <v type="int" >       47 </v>
   <v type="int" >       48 </v>
   <v type="int" >       49 </v>
   <v type="int" >       50 </v>
   <v type="int" >       51 </v>
   <v type="int" >       52 </v>
   <v type="int" >       53 </v>
   <v type="int" >       54 </v>
   <v type="int" >       55 </v>
   <v type="int" >       56 </v>
   <v type="int" >       57 </v>
   <v type="int" >       58 </v>
   <v type="int" >       59 </v>
   <v type="int" >       60 </v>
   <v type="int" >       61 </v>
   <v type="int" >       62 </v>
   <v type="int" >       63 </v>
   <v type="int" >       64 </v>
  </varray>
 </primitive_cell>
 <kpoints>
  <generation param="Gamma">
   <v type="int" name="divisions">       2        2        2 </v>
   <v name="usershift">      0.00000000       0.00000000       0.00000000 </v>
   <v name="genvec1">      0.50000000       0.00000000       0.00000000 </v>
   <v name="genvec2">      0.00000000       0.50000000       0.00000000 </v>
   <v name="genvec3">      0.00000000       0.00000000       0.50000000 </v>
   <v name="shift">      0.00000000       0.00000000       0.00000000 </v>
  </generation>
  <varray name="kpointlist" >
   <v>       0.00000000       0.00000000       0.00000000 </v>
   <v>       0.50000000       0.00000000       0.00000000 </v>
   <v>       0.00000000       0.50000000       0.00000000 </v>
   <v>       0.00000000       0.00000000       0.50000000 </v>
   <v>       0.50000000       0.50000000       0.00000000 </v>
   <v>       0.00000000       0.50000000       0.50000000 </v>
   <v>       0.50000000       0.00000000       0.50000000 </v>
   <v>       0.50000000       0.50000000       0.50000000 </v>
  </varray>
  <varray name="weights" >
   <v>       0.12500000 </v>
   <v>       0.12500000 </v>
   <v>       0.12500000 </v>
   <v>       0.12500000 </v>
   <v>       0.12500000 </v>
   <v>       0.12500000 </v>
   <v>       0.12500000 </v>
   <v>       0.12500000 </v>
  </varray>
 </kpoints>
 <parameters>
  <separator name="general" >
   <i type="string" name="SYSTEM">unknown system</i>
   <i type="logical" name="LCOMPAT"> F  </i>
  </separator>
  <separator name="electronic" >
   <i type="string" name="PREC">accura</i>
   <i name="ENMAX">    341.21360000</i>
   <i name="ENAUG">    368.05600000</i>
   <i name="EDIFF">      0.00000001</i>
   <i type="int" name="IALGO">    38</i>
   <i type="int" name="IWAVPR">    10</i>
   <i type="int" name="NBANDS">   288</i>
   <i type="int" name="NBANDSLOW">    -1</i>
   <i type="int" name="NBANDSHIGH">    -1</i>
   <i name="NELECT">    448.00000000</i>
   <i type="int" name="TURBO">     0</i>
   <i type="int" name="IRESTART">     0</i>
   <i type="int" name="NREBOOT">     0</i>
   <i type="int" name="NMIN">     0</i>
   <i name="EREF">      0.00000000</i>
   <separator name="electronic smearing" >
    <i type="int" name="ISMEAR">     0</i>
    <i name="SIGMA">      0.02000000</i>
    <i name="KSPACING">      0.50000000</i>
    <i type="logical" name="KGAMMA"> T  </i>
    <i type="logical" name="KBLOWUP"> T  </i>
   </separator>
   <separator name="electronic projectors" >
    <i type="logical" name="LREAL"> F  </i>
    <v name="ROPT">      0.00000000      0.00000000</v>
    <i type="int" name="LMAXPAW">  -100</i>
    <i type="int" name="LMAXMIX">     2</i>
    <i type="logical" name="NLSPLINE"> F  </i>
   </separator>
   <separator name="electronic startup" >
    <i type="int" name="ISTART">     0</i>
    <i type="int" name="ICHARG">     2</i>
    <i type="int" name="INIWAV">     1</i>
   </separator>
   <separator name="electronic spin" >
    <i type="int" name="ISPIN">     1</i>
    <i type="logical" name="LNONCOLLINEAR"> F  </i>
    <v name="MAGMOM">      1.00000000      1.00000000      1.00000000      1.00000000      1.00000000      1.00000000      1.00000000      1.00000000      1.00000000      1.00000000      1.00000000      1.00000000      1.00000000      1.00000000      1.00000000      1.00000000      1.00000000      1.00000000      1.00000000      1.00000000
      1.00000000      1.00000000      1.00000000      1.00000000      1.00000000      1.00000000      1.00000000      1.00000000      1.00000000      1.00000000      1.00000000      1.00000000      1.00000000      1.00000000      1.00000000      1.00000000      1.00000000      1.00000000      1.00000000      1.00000000
      1.00000000      1.00000000      1.00000000      1.00000000      1.00000000      1.00000000      1.00000000      1.00000000      1.00000000      1.00000000      1.00000000      1.00000000      1.00000000      1.00000000      1.00000000      1.00000000      1.00000000      1.00000000      1.00000000      1.00000000
      1.00000000      1.00000000      1.00000000      1.00000000</v>
    <i name="NUPDOWN">     -1.00000000</i>
    <i type="logical" name="LSORBIT"> F  </i>
    <v name="SAXIS">      0.00000000      0.00000000      1.00000000</v>
    <i type="logical" name="LSPIRAL"> F  </i>
    <v name="QSPIRAL">      0.00000000      0.00000000      0.00000000</v>
    <i type="logical" name="LZEROZ"> F  </i>
   </separator>
   <separator name="electronic exchange-correlation" >
    <i type="logical" name="LASPH"> F  </i>
    <i type="logical" name="LMETAGGA"> F  </i>
   </separator>
   <separator name="electronic convergence" >
    <i type="int" name="NELM">    60</i>
    <i type="int" name="NELMDL">    -5</i>
    <i type="int" name="NELMIN">     5</i>
    <i name="ENINI">    341.21360000</i>
    <separator name="electronic convergence detail" >
     <i type="logical" name="LDIAG"> T  </i>
     <i type="logical" name="LSUBROT"> F  </i>
     <i name="WEIMIN">      0.00000000</i>
     <i name="EBREAK">      0.00000000</i>
     <i name="DEPER">      0.30000000</i>
     <i type="int" name="NRMM">     4</i>
     <i name="TIME">      0.40000000</i>
    </separator>
   </separator>
   <separator name="electronic mixer" >
    <i name="AMIX">      0.40000000</i>
    <i name="BMIX">      1.00000000</i>
    <i name="AMIN">      0.10000000</i>
    <i name="AMIX_MAG">      1.60000000</i>
    <i name="BMIX_MAG">      1.00000000</i>
    <separator name="electronic mixer details" >
     <i type="int" name="IMIX">     4</i>
     <i type="logical" name="MIXFIRST"> F  </i>
     <i type="int" name="MAXMIX">   -45</i>
     <i name="WC">    100.00000000</i>
     <i type="int" name="INIMIX">     1</i>
     <i type="int" name="MIXPRE">     1</i>
     <i type="int" name="MREMOVE">     5</i>
    </separator>
   </separator>
   <separator name="electronic dipolcorrection" >
    <i type="logical" name="LDIPOL"> F  </i>
    <i type="logical" name="LMONO"> F  </i>
    <i type="int" name="IDIPOL">     0</i>
    <i name="EPSILON">      1.00000000</i>
    <v name="DIPOL">   -100.00000000   -100.00000000   -100.00000000</v>
    <i name="EFIELD">      0.00000000</i>
   </separator>
  </separator>
  <separator name="grids" >
   <i type="int" name="NGX">    70</i>
   <i type="int" name="NGY">    70</i>
   <i type="int" name="NGZ">    70</i>
   <i type="int" name="NGXF">   140</i>
   <i type="int" name="NGYF">   140</i>
   <i type="int" name="NGZF">   140</i>
   <i type="logical" name="ADDGRID"> T  </i>
  </separator>
  <separator name="ionic" >
   <i type="int" name="NSW">     0</i>
   <i type="int" name="IBRION">    -1</i>
   <i type="int" name="MDALGO">     0</i>
   <i type="int" name="ISIF">     2</i>
   <i name="PSTRESS">      0.00000000</i>
   <i name="EDIFFG">      0.00000010</i>
   <i type="int" name="NFREE">     0</i>
   <i name="POTIM">      0.50000000</i>
   <i name="SMASS">     -3.00000000</i>
   <i name="SCALEE">      1.00000000</i>
  </separator>
  <separator name="ionic md" >
   <i name="TEBEG">      0.00010000</i>
   <i name="TEEND">      0.00010000</i>
   <i type="int" name="NBLOCK">     1</i>
   <i type="int" name="KBLOCK">     1</i>
   <i type="int" name="NPACO">   256</i>
   <i name="APACO">     10.00000000</i>
  </separator>
  <separator name="symmetry" >
   <i type="int" name="ISYM">     2</i>
   <i name="SYMPREC">      0.00001000</i>
  </separator>
  <separator name="dos" >
   <i type="int" name="LORBIT">     0</i>
   <v name="RWIGS">     -1.00000000     -1.00000000</v>
   <i type="int" name="NEDOS">   301</i>
   <i name="EMIN">     10.00000000</i>
   <i name="EMAX">    -10.00000000</i>
   <i name="EFERMI">      0.00000000</i>
  </separator>
  <separator name="writing" >
   <i type="int" name="NWRITE">     2</i>
   <i type="logical" name="LWAVE"> F  </i>
   <i type="logical" name="LDOWNSAMPLE"> F  </i>
   <i type="logical" name="LCHARG"> F  </i>
   <i type="logical" name="LPARD"> F  </i>
   <i type="logical" name="LVTOT"> F  </i>
   <i type="logical" name="LVHAR"> F  </i>
   <i type="logical" name="LELF"> F  </i>
   <i type="logical" name="LOPTICS"> F  </i>
   <v name="STM">      0.00000000      0.00000000      0.00000000      0.00000000      0.00000000      0.00000000      0.00000000</v>
  </separator>
  <separator name="performance" >
   <i type="int" name="NPAR">    32</i>
   <i type="int" name="NSIM">     4</i>
   <i type="int" name="NBLK">    -1</i>
   <i type="logical" name="LPLANE"> T  </i>
   <i type="logical" name="LSCALAPACK"> T  </i>
   <i type="logical" name="LSCAAWARE"> F  </i>
   <i type="logical" name="LSCALU"> F  </i>
   <i type="logical" name="LASYNC"> F  </i>
   <i type="logical" name="LORBITALREAL"> F  </i>
  </separator>
  <separator name="miscellaneous" >
   <i type="int" name="IDIOT">     3</i>
   <i type="int" name="PHON_NSTRUCT">    -1</i>
   <i type="logical" name="LMUSIC"> F  </i>
   <v name="POMASS">     22.99000000     35.45300000</v>
   <v name="DARWINR">      0.00000000      0.00000000</v>
   <v name="DARWINV">      1.00000000      1.00000000</v>
   <i type="logical" name="LCORR"> T  </i>
  </separator>
  <i type="logical" name="GGA_COMPAT"> T  </i>
  <i type="logical" name="LBERRY"> F  </i>
  <i type="int" name="ICORELEVEL">     0</i>
  <i type="logical" name="LDAU"> F  </i>
  <i type="int" name="I_CONSTRAINED_M">     0</i>
  <separator name="electronic exchange-correlation" >
   <i type="string" name="GGA">PS</i>
   <i type="int" name="VOSKOWN">     0</i>
   <i type="logical" name="LHFCALC"> F  </i>
   <i type="string" name="PRECFOCK"></i>
   <i type="logical" name="LSYMGRAD"> F  </i>
   <i type="logical" name="LHFONE"> F  </i>
   <i type="logical" name="LRHFCALC"> F  </i>
   <i type="logical" name="LTHOMAS"> F  </i>
   <i type="logical" name="LMODELHF"> F  </i>
   <i type="logical" name="LFOCKACE"> F  </i>
   <i name="ENCUT4O">     -1.00000000</i>
   <i type="int" name="EXXOEP">     0</i>
   <i type="int" name="FOURORBIT">     0</i>
   <i name="AEXX">      0.00000000</i>
   <i name="HFALPHA">      0.00000000</i>
   <i name="MCALPHA">      0.00000000</i>
   <i name="ALDAX">      1.00000000</i>
   <i name="AGGAX">      1.00000000</i>
   <i name="ALDAC">      1.00000000</i>
   <i name="AGGAC">      1.00000000</i>
   <i type="int" name="NKREDX">     1</i>
   <i type="int" name="NKREDY">     1</i>
   <i type="int" name="NKREDZ">     1</i>
   <i type="logical" name="SHIFTRED"> F  </i>
   <i type="logical" name="ODDONLY"> F  </i>
   <i type="logical" name="EVENONLY"> F  </i>
   <i type="int" name="LMAXFOCK">     0</i>
   <i type="int" name="NMAXFOCKAE">     0</i>
   <i type="logical" name="LFOCKAEDFT"> F  </i>
   <i name="HFSCREEN">      0.00000000</i>
   <i name="HFSCREENC">      0.00000000</i>
   <i type="int" name="NBANDSGWLOW">     0</i>
  </separator>
  <separator name="vdW DFT" >
   <i type="logical" name="LUSE_VDW"> F  </i>
   <i name="Zab_VDW">     -0.84910000</i>
   <i name="PARAM1">      0.12340000</i>
   <i name="PARAM2">      1.00000000</i>
   <i name="PARAM3">      0.00000000</i>
  </separator>
  <separator name="model GW" >
   <i type="int" name="MODEL_GW">     0</i>
   <i name="MODEL_EPS0">     13.18532537</i>
   <i name="MODEL_ALPHA">      1.00000000</i>
  </separator>
  <separator name="linear response parameters" >
   <i type="logical" name="LEPSILON"> F  </i>
   <i type="logical" name="LRPA"> F  </i>
   <i type="logical" name="LNABLA"> F  </i>
   <i type="logical" name="LVEL"> F  </i>
   <i name="CSHIFT">      0.10000000</i>
   <i name="OMEGAMAX">     -1.00000000</i>
   <i name="DEG_THRESHOLD">      0.00200000</i>
   <i name="RTIME">     -0.10000000</i>
   <i name="WPLASMAI">      0.00000000</i>
   <v name="DFIELD">      0.00000000      0.00000000      0.00000000</v>
   <v name="WPLASMA">      0.00000000      0.00000000      0.00000000      0.00000000      0.00000000      0.00000000      0.00000000      0.00000000      0.00000000</v>
  </separator>
  <separator name="orbital magnetization" >
   <i type="logical" name="NUCIND"> F  </i>
   <v name="MAGPOS">      0.00000000      0.00000000      0.00000000</v>
   <i type="logical" name="LNICSALL"> T  </i>
   <i type="logical" name="ORBITALMAG"> F  </i>
   <i type="logical" name="LMAGBLOCH"> F  </i>
   <i type="logical" name="LCHIMAG"> F  </i>
   <i type="logical" name="LGAUGE"> T  </i>
   <i type="int" name="MAGATOM">     0</i>
   <v name="MAGDIPOL">      0.00000000      0.00000000      0.00000000</v>
   <v name="AVECCONST">      0.00000000      0.00000000      0.00000000</v>
  </separator>
  <separator name="response functions" >
   <i type="logical" name="LFINITE_TEMPERATURE"> F  </i>
   <i type="logical" name="LADDER"> F  </i>
   <i type="logical" name="LRPAFORCE"> F  </i>
   <i type="logical" name="LFXC"> F  </i>
   <i type="logical" name="LHARTREE"> T  </i>
   <i type="int" name="IBSE">     0</i>
   <v type="int" name="KPOINT">    -1     0     0     0</v>
   <i type="logical" name="LTCTC"> F  </i>
   <i type="logical" name="LTCTE"> F  </i>
   <i type="logical" name="LTETE"> F  </i>
   <i type="logical" name="LTRIPLET"> F  </i>
   <i type="logical" name="LFXCEPS"> F  </i>
   <i type="logical" name="LFXHEG"> F  </i>
   <i type="int" name="NATURALO">     2</i>
   <i type="logical" name="LHOLEGF"> F  </i>
   <i type="logical" name="L2ORDER"> F  </i>
   <i type="logical" name="LDMP1"> F  </i>
   <i type="logical" name="LMP2LT"> F  </i>
   <i type="logical" name="LSMP2LT"> F  </i>
   <i type="logical" name="LGWLF"> F  </i>
   <i name="ENCUTGW">     -2.00000000</i>
   <i name="ENCUTGWSOFT">     -2.00000000</i>
   <i name="ENCUTLF">     -1.00000000</i>
   <i type="logical" name="LESF_SPLINES"> F  </i>
   <i type="int" name="LMAXMP2">    -1</i>
   <i name="SCISSOR">      0.00000000</i>
   <i type="int" name="NOMEGA">     0</i>
   <i type="int" name="NOMEGAR">     0</i>
   <i type="int" name="NBANDSGW">    -1</i>
   <i type="int" name="NBANDSO">    -1</i>
   <i type="int" name="NBANDSV">    -1</i>
   <i type="int" name="NELMGW">     1</i>
   <i type="int" name="NELMHF">     1</i>
   <i type="int" name="DIM">     3</i>
   <i type="int" name="IESPILON">     4</i>
   <i type="int" name="ANTIRES">     0</i>
   <i name="OMEGAMAX">    -30.00000000</i>
   <i name="OMEGAMIN">    -30.00000000</i>
   <i name="OMEGATL">   -200.00000000</i>
   <i type="int" name="OMEGAGRID">     0</i>
   <i name="CSHIFT">     -0.10000000</i>
   <i type="logical" name="LSELFENERGY"> F  </i>
   <i type="logical" name="LSPECTRAL"> F  </i>
   <i type="logical" name="LSPECTRALGW"> F  </i>
   <i type="logical" name="LSINGLES"> F  </i>
   <i type="logical" name="LFERMIGW"> F  </i>
   <i type="logical" name="ODDONLYGW"> F  </i>
   <i type="logical" name="EVENONLYGW"> F  </i>
   <i type="int" name="NKREDLFX">     1</i>
   <i type="int" name="NKREDLFY">     1</i>
   <i type="int" name="NKREDLFZ">     1</i>
   <i type="int" name="MAXMEM">  2800</i>
   <i type="int" name="TELESCOPE">     0</i>
   <i type="int" name="NTAUPAR">    -1</i>
   <i type="int" name="NOMEGAPAR">    -1</i>
   <i name="DAMP_NEWTON">      0.80000001</i>
   <i name="LAMBDA">      1.00000000</i>
  </separator>
  <separator name="External order field" >
   <i name="OFIELD_KAPPA">      0.00000000</i>
   <v name="OFIELD_K">      0.00000000      0.00000000      0.00000000</v>
   <i name="OFIELD_Q6_NEAR">      0.00000000</i>
   <i name="OFIELD_Q6_FAR">      0.00000000</i>
   <i name="OFIELD_A">      0.00000000</i>
  </separator>
  <separator name="optional k-points parameters" >
   <i type="int" name="KPOINTS_OPT_MODE">     1</i>
   <i type="logical" name="LKPOINTS_OPT"> F  </i>
  </separator>
 </parameters>
 <atominfo>
  <atoms>      64 </atoms>
  <types>       2 </types>
  <array name="atoms" >
   <dimension dim="1">ion</dimension>
   <field type="string">element</field>
   <field type="int">atomtype</field>
   <set>
    <rc><c>Na</c><c>   1</c></rc>
    <rc><c>Na</c><c>   1</c></rc>
    <rc><c>Na</c><c>   1</c></rc>
    <rc><c>Na</c><c>   1</c></rc>
    <rc><c>Na</c><c>   1</c></rc>
    <rc><c>Na</c><c>   1</c></rc>
    <rc><c>Na</c><c>   1</c></rc>
    <rc><c>Na</c><c>   1</c></rc>
    <rc><c>Na</c><c>   1</c></rc>
    <rc><c>Na</c><c>   1</c></rc>
    <rc><c>Na</c><c>   1</c></rc>
    <rc><c>Na</c><c>   1</c></rc>
    <rc><c>Na</c><c>   1</c></rc>
    <rc><c>Na</c><c>   1</c></rc>
    <rc><c>Na</c><c>   1</c></rc>
    <rc><c>Na</c><c>   1</c></rc>
    <rc><c>Na</c><c>   1</c></rc>
    <rc><c>Na</c><c>   1</c></rc>
    <rc><c>Na</c><c>   1</c></rc>
    <rc><c>Na</c><c>   1</c></rc>
    <rc><c>Na</c><c>   1</c></rc>
    <rc><c>Na</c><c>   1</c></rc>
    <rc><c>Na</c><c>   1</c></rc>
    <rc><c>Na</c><c>   1</c></rc>
    <rc><c>Na</c><c>   1</c></rc>
    <rc><c>Na</c><c>   1</c></rc>
    <rc><c>Na</c><c>   1</c></rc>
    <rc><c>Na</c><c>   1</c></rc>
    <rc><c>Na</c><c>   1</c></rc>
    <rc><c>Na</c><c>   1</c></rc>
    <rc><c>Na</c><c>   1</c></rc>
    <rc><c>Na</c><c>   1</c></rc>
    <rc><c>Cl</c><c>   2</c></rc>
    <rc><c>Cl</c><c>   2</c></rc>
    <rc><c>Cl</c><c>   2</c></rc>
    <rc><c>Cl</c><c>   2</c></rc>
    <rc><c>Cl</c><c>   2</c></rc>
    <rc><c>Cl</c><c>   2</c></rc>
    <rc><c>Cl</c><c>   2</c></rc>
    <rc><c>Cl</c><c>   2</c></rc>
    <rc><c>Cl</c><c>   2</c></rc>
    <rc><c>Cl</c><c>   2</c></rc>
    <rc><c>Cl</c><c>   2</c></rc>
    <rc><c>Cl</c><c>   2</c></rc>
    <rc><c>Cl</c><c>   2</c></rc>
    <rc><c>Cl</c><c>   2</c></rc>
    <rc><c>Cl</c><c>   2</c></rc>
    <rc><c>Cl</c><c>   2</c></rc>
    <rc><c>Cl</c><c>   2</c></rc>
    <rc><c>Cl</c><c>   2</c></rc>
    <rc><c>Cl</c><c>   2</c></rc>
    <rc><c>Cl</c><c>   2</c></rc>
    <rc><c>Cl</c><c>   2</c></rc>
    <rc><c>Cl</c><c>   2</c></rc>
    <rc><c>Cl</c><c>   2</c></rc>
    <rc><c>Cl</c><c>   2</c></rc>
    <rc><c>Cl</c><c>   2</c></rc>
    <rc><c>Cl</c><c>   2</c></rc>
    <rc><c>Cl</c><c>   2</c></rc>
    <rc><c>Cl</c><c>   2</c></rc>
    <rc><c>Cl</c><c>   2</c></rc>
    <rc><c>Cl</c><c>   2</c></rc>
    <rc><c>Cl</c><c>   2</c></rc>
    <rc><c>Cl</c><c>   2</c></rc>
   </set>
  </array>
  <array name="atomtypes" >
   <dimension dim="1">type</dimension>
   <field type="int">atomspertype</field>
   <field type="string">element</field>
   <field>mass</field>
   <field>valence</field>
   <field type="string">pseudopotential</field>
   <set>
    <rc><c>  32</c><c>Na</c><c>     22.99000000</c><c>      7.00000000</c><c>  PAW_PBE Na_pv 19Sep2006               </c></rc>
    <rc><c>  32</c><c>Cl</c><c>     35.45300000</c><c>      7.00000000</c><c>  PAW_PBE Cl 06Sep2000                  </c></rc>
   </set>
  </array>
 </atominfo>
 <structure name="initialpos" >
  <crystal>
   <varray name="basis" >
    <v>      11.20400236       0.00000000       0.00000000 </v>
    <v>       0.00000000      11.20400236       0.00000000 </v>
    <v>       0.00000000       0.00000000      11.20400236 </v>
   </varray>
   <i name="volume">   1406.43470641 </i>
   <varray name="rec_basis" >
    <v>       0.08925382       0.00000000       0.00000000 </v>
    <v>       0.00000000       0.08925382       0.00000000 </v>
    <v>       0.00000000       0.00000000       0.08925382 </v>
   </varray>
  </crystal>
  <varray name="positions" >
   <v>       0.00000000       0.00000000       0.00000000 </v>
   <v>       0.25000000       0.25000000       0.00000000 </v>
   <v>       0.25000000       0.00000000       0.25000000 </v>
   <v>       0.00000000       0.25000000       0.25000000 </v>
   <v>       0.00000000       0.00000000       0.50000000 </v>
   <v>       0.25000000       0.25000000       0.50000000 </v>
   <v>       0.25000000       0.00000000       0.75000000 </v>
   <v>       0.00000000       0.25000000       0.75000000 </v>
   <v>       0.00000000       0.50000000       0.00000000 </v>
   <v>       0.25000000       0.75000000       0.00000000 </v>
   <v>       0.25000000       0.50000000       0.25000000 </v>
   <v>       0.00000000       0.75000000       0.25000000 </v>
   <v>       0.00000000       0.50000000       0.50000000 </v>
   <v>       0.25000000       0.75000000       0.50000000 </v>
   <v>       0.25000000       0.50000000       0.75000000 </v>
   <v>       0.00000000       0.75000000       0.75000000 </v>
   <v>       0.50000000       0.00000000       0.00000000 </v>
   <v>       0.75000000       0.25000000       0.00000000 </v>
   <v>       0.75000000       0.00000000       0.25000000 </v>
   <v>       0.50000000       0.25000000       0.25000000 </v>
   <v>       0.50000000       0.00000000       0.50000000 </v>
   <v>       0.75000000       0.25000000       0.50000000 </v>
   <v>       0.75000000       0.00000000       0.75000000 </v>
   <v>       0.50000000       0.25000000       0.75000000 </v>
   <v>       0.50000000       0.50000000       0.00000000 </v>
   <v>       0.75000000       0.75000000       0.00000000 </v>
   <v>       0.75000000       0.50000000       0.25000000 </v>
   <v>       0.50000000       0.75000000       0.25000000 </v>
   <v>       0.50000000       0.50000000       0.50000000 </v>
   <v>       0.75000000       0.75000000       0.50000000 </v>
   <v>       0.75000000       0.50000000       0.75000000 </v>
   <v>       0.50000000       0.75000000       0.75000000 </v>
   <v>       0.25267761       0.25000000       0.25000000 </v>
   <v>       0.00000000       0.00267761       0.25000000 </v>
   <v>       0.00000000       0.25000000       0.00000000 </v>
   <v>       0.25000000       0.00000000       0.00000000 </v>
   <v>       0.25000000       0.25000000       0.75000000 </v>
   <v>       0.00000000       0.00000000       0.75000000 </v>
   <v>       0.00000000       0.25000000       0.50000000 </v>
   <v>       0.25000000       0.00000000       0.50000000 </v>
   <v>       0.25000000       0.75000000       0.25000000 </v>
   <v>       0.00000000       0.50000000       0.25000000 </v>
   <v>       0.00000000       0.75000000       0.00000000 </v>
   <v>       0.25000000       0.50000000       0.00000000 </v>
   <v>       0.25000000       0.75000000       0.75000000 </v>
   <v>       0.00000000       0.50000000       0.75000000 </v>
   <v>       0.00000000       0.75000000       0.50000000 </v>
   <v>       0.25000000       0.50000000       0.50000000 </v>
   <v>       0.75000000       0.25000000       0.25000000 </v>
   <v>       0.50000000       0.00000000       0.25000000 </v>
   <v>       0.50000000       0.25000000       0.00000000 </v>
   <v>       0.75000000       0.00000000       0.00000000 </v>
   <v>       0.75000000       0.25000000       0.75000000 </v>
   <v>       0.50000000       0.00000000       0.75000000 </v>
   <v>       0.50000000       0.25000000       0.50000000 </v>
   <v>       0.75000000       0.00000000       0.50000000 </v>
   <v>       0.75000000       0.75000000       0.25000000 </v>
   <v>       0.50000000       0.50000000       0.25000000 </v>
   <v>       0.50000000       0.75000000       0.00000000 </v>
   <v>       0.75000000       0.50000000       0.00000000 </v>
   <v>       0.75000000       0.75000000       0.75000000 </v>
   <v>       0.50000000       0.50000000       0.75000000 </v>
   <v>       0.50000000       0.75000000       0.50000000 </v>
   <v>       0.75000000       0.50000000       0.50000000 </v>
  </varray>
 </structure>
 <calculation>
  <scstep>
   <time name="dav">    9.87    9.93</time>
   <time name="total">    9.94   10.00</time>
   <energy>
    <i name="alphaZ">    751.52672365 </i>
    <i name="ewald"> -22871.35446968 </i>
    <i name="hartreedc">  -8992.23392883 </i>
    <i name="XCdc">   1456.53426719 </i>
    <i name="pawpsdc">  26466.43774078 </i>
    <i name="pawaedc"> -29286.08056155 </i>
    <i name="eentropy">     -0.00455457 </i>
    <i name="bandstr">   -658.24474569 </i>
    <i name="atom">  37532.17946992 </i>
    <i name="e_fr_energy">   4398.75994123 </i>
    <i name="e_wo_entrp">   4398.76449580 </i>
    <i name="e_0_energy">   4398.76221851 </i>
   </energy>
  </scstep>
  <scstep>
   <time name="dav">   10.32   10.38</time>
   <time name="total">   10.32   10.38</time>
   <energy>
    <i name="e_fr_energy">    367.03193982 </i>
    <i name="e_wo_entrp">    367.03193982 </i>
    <i name="e_0_energy">    367.03193982 </i>
   </energy>
  </scstep>
  <scstep>
   <time name="dav">   11.01   11.07</time>
   <time name="total">   11.01   11.07</time>
   <energy>
    <i name="e_fr_energy">   -204.88093410 </i>
    <i name="e_wo_entrp">   -204.88093410 </i>
    <i name="e_0_energy">   -204.88093410 </i>
   </energy>
  </scstep>
  <scstep>
   <time name="dav">   10.96   11.03</time>
   <time name="total">   10.96   11.03</time>
   <energy>
    <i name="e_fr_energy">   -228.12861012 </i>
    <i name="e_wo_entrp">   -228.12861012 </i>
    <i name="e_0_energy">   -228.12861012 </i>
   </energy>
  </scstep>
  <scstep>
   <time name="dav">   11.41   11.48</time>
   <time name="total">   11.75   11.83</time>
   <energy>
    <i name="e_fr_energy">   -229.00046634 </i>
    <i name="e_wo_entrp">   -229.00046634 </i>
    <i name="e_0_energy">   -229.00046634 </i>
   </energy>
  </scstep>
  <scstep>
   <time name="dav">   11.15   11.21</time>
   <time name="total">   11.56   11.62</time>
   <energy>
    <i name="e_fr_energy">   -224.14044327 </i>
    <i name="e_wo_entrp">   -224.14044327 </i>
    <i name="e_0_energy">   -224.14044327 </i>
   </energy>
  </scstep>
  <scstep>
   <time name="dav">   12.22   12.28</time>
   <time name="total">   12.62   12.69</time>
   <energy>
    <i name="e_fr_energy">   -223.77767763 </i>
    <i name="e_wo_entrp">   -223.77767763 </i>
    <i name="e_0_energy">   -223.77767763 </i>
   </energy>
  </scstep>
  <scstep>
   <time name="dav">   10.61   10.67</time>
   <time name="total">   11.02   11.08</time>
   <energy>
    <i name="e_fr_energy">   -223.90328386 </i>
    <i name="e_wo_entrp">   -223.90328386 </i>
    <i name="e_0_energy">   -223.90328386 </i>
   </energy>
  </scstep>
  <scstep>
   <time name="dav">   11.31   11.37</time>
   <time name="total">   11.72   11.78</time>
   <energy>
    <i name="e_fr_energy">   -223.89730860 </i>
    <i name="e_wo_entrp">   -223.89730860 </i>
    <i name="e_0_energy">   -223.89730860 </i>
   </energy>
  </scstep>
  <scstep>
   <time name="dav">   10.86   10.92</time>
   <time name="total">   11.27   11.34</time>
   <energy>
    <i name="e_fr_energy">   -223.90145422 </i>
    <i name="e_wo_entrp">   -223.90145422 </i>
    <i name="e_0_energy">   -223.90145422 </i>
   </energy>
  </scstep>
  <scstep>
   <time name="dav">   11.60   11.66</time>
   <time name="total">   12.01   12.08</time>
   <energy>
    <i name="e_fr_energy">   -223.90063621 </i>
    <i name="e_wo_entrp">   -223.90063621 </i>
    <i name="e_0_energy">   -223.90063621 </i>
   </energy>
  </scstep>
  <scstep>
   <time name="dav">   11.63   11.70</time>
   <time name="total">   12.05   12.12</time>
   <energy>
    <i name="e_fr_energy">   -223.90059614 </i>
    <i name="e_wo_entrp">   -223.90059614 </i>
    <i name="e_0_energy">   -223.90059614 </i>
   </energy>
  </scstep>
  <scstep>
   <time name="dav">   10.90   10.96</time>
   <time name="total">   11.31   11.37</time>
   <energy>
    <i name="e_fr_energy">   -223.90059304 </i>
    <i name="e_wo_entrp">   -223.90059304 </i>
    <i name="e_0_energy">   -223.90059304 </i>
   </energy>
  </scstep>
  <scstep>
   <time name="dav">   10.94   11.01</time>
   <time name="total">   11.35   11.43</time>
   <energy>
    <i name="e_fr_energy">   -223.90059435 </i>
    <i name="e_wo_entrp">   -223.90059435 </i>
    <i name="e_0_energy">   -223.90059435 </i>
   </energy>
  </scstep>
  <scstep>
   <time name="dav">   10.97   11.04</time>
   <time name="total">   11.39   11.46</time>
   <energy>
    <i name="e_fr_energy">   -223.90059564 </i>
    <i name="e_wo_entrp">   -223.90059564 </i>
    <i name="e_0_energy">   -223.90059564 </i>
   </energy>
  </scstep>
  <scstep>
   <time name="dav">   11.46   11.53</time>
   <time name="total">   11.88   11.95</time>
   <energy>
    <i name="e_fr_energy">   -223.90059610 </i>
    <i name="e_wo_entrp">   -223.90059610 </i>
    <i name="e_0_energy">   -223.90059610 </i>
   </energy>
  </scstep>
  <scstep>
   <time name="dav">    8.35    8.40</time>
   <time name="total">    8.42    8.47</time>
   <energy>
    <i name="alphaZ">    751.52672365 </i>
    <i name="ewald"> -22871.35446968 </i>
    <i name="hartreedc">  -9078.15261574 </i>
    <i name="XCdc">   1472.51346967 </i>
    <i name="pawpsdc">  29498.32051453 </i>
    <i name="pawaedc"> -32317.68543719 </i>
    <i name="eentropy">     -0.00000000 </i>
    <i name="bandstr">  -5211.24825128 </i>
    <i name="atom">  37532.17946992 </i>
    <i name="e_fr_energy">   -223.90059610 </i>
    <i name="e_wo_entrp">   -223.90059610 </i>
    <i name="e_0_energy">   -223.90059610 </i>
   </energy>
  </scstep>
  <structure>
   <crystal>
    <varray name="basis" >
     <v>      11.20400236       0.00000000       0.00000000 </v>
     <v>       0.00000000      11.20400236       0.00000000 </v>
     <v>       0.00000000       0.00000000      11.20400236 </v>
    </varray>
    <i name="volume">   1406.43470641 </i>
    <varray name="rec_basis" >
     <v>       0.08925382       0.00000000       0.00000000 </v>
     <v>       0.00000000       0.08925382       0.00000000 </v>
     <v>       0.00000000       0.00000000       0.08925382 </v>
    </varray>
   </crystal>
   <varray name="positions" >
    <v>       0.00000000       0.00000000       0.00000000 </v>
    <v>       0.25000000       0.25000000       0.00000000 </v>
    <v>       0.25000000       0.00000000       0.25000000 </v>
    <v>       0.00000000       0.25000000       0.25000000 </v>
    <v>       0.00000000       0.00000000       0.50000000 </v>
    <v>       0.25000000       0.25000000       0.50000000 </v>
    <v>       0.25000000       0.00000000       0.75000000 </v>
    <v>       0.00000000       0.25000000       0.75000000 </v>
    <v>       0.00000000       0.50000000       0.00000000 </v>
    <v>       0.25000000       0.75000000       0.00000000 </v>
    <v>       0.25000000       0.50000000       0.25000000 </v>
    <v>       0.00000000       0.75000000       0.25000000 </v>
    <v>       0.00000000       0.50000000       0.50000000 </v>
    <v>       0.25000000       0.75000000       0.50000000 </v>
    <v>       0.25000000       0.50000000       0.75000000 </v>
    <v>       0.00000000       0.75000000       0.75000000 </v>
    <v>       0.50000000       0.00000000       0.00000000 </v>
    <v>       0.75000000       0.25000000       0.00000000 </v>
    <v>       0.75000000       0.00000000       0.25000000 </v>
    <v>       0.50000000       0.25000000       0.25000000 </v>
    <v>       0.50000000       0.00000000       0.50000000 </v>
    <v>       0.75000000       0.25000000       0.50000000 </v>
    <v>       0.75000000       0.00000000       0.75000000 </v>
    <v>       0.50000000       0.25000000       0.75000000 </v>
    <v>       0.50000000       0.50000000       0.00000000 </v>
    <v>       0.75000000       0.75000000       0.00000000 </v>
    <v>       0.75000000       0.50000000       0.25000000 </v>
    <v>       0.50000000       0.75000000       0.25000000 </v>
    <v>       0.50000000       0.50000000       0.50000000 </v>
    <v>       0.75000000       0.75000000       0.50000000 </v>
    <v>       0.75000000       0.50000000       0.75000000 </v>
    <v>       0.50000000       0.75000000       0.75000000 </v>
    <v>       0.25267761       0.25000000       0.25000000 </v>
    <v>       0.00000000       0.00267761       0.25000000 </v>
    <v>       0.00000000       0.25000000       0.00000000 </v>
    <v>       0.25000000       0.00000000       0.00000000 </v>
    <v>       0.25000000       0.25000000       0.75000000 </v>
    <v>       0.00000000       0.00000000       0.75000000 </v>
    <v>       0.00000000       0.25000000       0.50000000 </v>
    <v>       0.25000000       0.00000000       0.50000000 </v>
    <v>       0.25000000       0.75000000       0.25000000 </v>
    <v>       0.00000000       0.50000000       0.25000000 </v>
    <v>       0.00000000       0.75000000       0.00000000 </v>
    <v>       0.25000000       0.50000000       0.00000000 </v>
    <v>       0.25000000       0.75000000       0.75000000 </v>
    <v>       0.00000000       0.50000000       0.75000000 </v>
    <v>       0.00000000       0.75000000       0.50000000 </v>
    <v>       0.25000000       0.50000000       0.50000000 </v>
    <v>       0.75000000       0.25000000       0.25000000 </v>
    <v>       0.50000000       0.00000000       0.25000000 </v>
    <v>       0.50000000       0.25000000       0.00000000 </v>
    <v>       0.75000000       0.00000000       0.00000000 </v>
    <v>       0.75000000       0.25000000       0.75000000 </v>
    <v>       0.50000000       0.00000000       0.75000000 </v>
    <v>       0.50000000       0.25000000       0.50000000 </v>
    <v>       0.75000000       0.00000000       0.50000000 </v>
    <v>       0.75000000       0.75000000       0.25000000 </v>
    <v>       0.50000000       0.50000000       0.25000000 </v>
    <v>       0.50000000       0.75000000       0.00000000 </v>
    <v>       0.75000000       0.50000000       0.00000000 </v>
    <v>       0.75000000       0.75000000       0.75000000 </v>
    <v>       0.50000000       0.50000000       0.75000000 </v>
    <v>       0.50000000       0.75000000       0.50000000 </v>
    <v>       0.75000000       0.50000000       0.50000000 </v>
   </varray>
  </structure>
  <varray name="forces" >
   <v>      -0.00022701       0.00372364      -0.00120682 </v>
   <v>       0.00369849      -0.00022147       0.00138110 </v>
   <v>       0.00489518       0.00511278      -0.00000000 </v>
   <v>       0.01621635       0.02026816      -0.00000000 </v>
   <v>      -0.00022701       0.00372364       0.00120682 </v>
   <v>       0.00369849      -0.00022147      -0.00138110 </v>
   <v>       0.00059866       0.00060383      -0.00000000 </v>
   <v>       0.00015075       0.00016818      -0.00000000 </v>
   <v>      -0.00023769      -0.00154307      -0.00128768 </v>
   <v>       0.00189170      -0.00023287      -0.00128800 </v>
   <v>       0.00500143      -0.00289776      -0.00000000 </v>
   <v>       0.00015298       0.01619285      -0.00000000 </v>
   <v>      -0.00023769      -0.00154307       0.00128768 </v>
   <v>       0.00189170      -0.00023287       0.00128800 </v>
   <v>       0.00059831      -0.00066734      -0.00000000 </v>
   <v>      -0.00000353       0.00015149      -0.00000000 </v>
   <v>      -0.00021582       0.00190063       0.00129970 </v>
   <v>      -0.00152714      -0.00021042       0.00130005 </v>
   <v>      -0.00275710       0.00500620      -0.00000000 </v>
   <v>       0.02029196       0.00016557      -0.00000000 </v>
   <v>      -0.00021582       0.00190063      -0.00129970 </v>
   <v>      -0.00152714      -0.00021042      -0.00130005 </v>
   <v>      -0.00066134       0.00060585      -0.00000000 </v>
   <v>       0.00016746       0.00000539      -0.00000000 </v>
   <v>      -0.00021144      -0.00196390       0.00130029 </v>
   <v>      -0.00195407      -0.00023753      -0.00128777 </v>
   <v>      -0.00282193      -0.00283186      -0.00000000 </v>
   <v>       0.00016685       0.00015259      -0.00000000 </v>
   <v>      -0.00021144      -0.00196390      -0.00130029 </v>
   <v>      -0.00195407      -0.00023753       0.00128777 </v>
   <v>      -0.00066028      -0.00066831      -0.00000000 </v>
   <v>       0.00000552      -0.00000375      -0.00000000 </v>
   <v>      -0.07029891       0.00373854      -0.00000000 </v>
   <v>       0.00404312      -0.07014964      -0.00000000 </v>
   <v>       0.00384934       0.00392990      -0.00018015 </v>
   <v>      -0.00234469      -0.00229225       0.00005581 </v>
   <v>      -0.00095172      -0.00005006      -0.00000000 </v>
   <v>      -0.00003855      -0.00096437      -0.00000000 </v>
   <v>       0.00384934       0.00392990       0.00018015 </v>
   <v>      -0.00234469      -0.00229225      -0.00005581 </v>
   <v>      -0.00726450       0.00386193      -0.00000000 </v>
   <v>       0.00385904      -0.00190205      -0.00000000 </v>
   <v>      -0.00003920       0.00386391       0.00630299 </v>
   <v>      -0.00231068       0.00149422       0.00003190 </v>
   <v>      -0.00106626      -0.00003951      -0.00000000 </v>
   <v>      -0.00003534       0.00137457      -0.00000000 </v>
   <v>      -0.00003920       0.00386391      -0.00630299 </v>
   <v>      -0.00231068       0.00149422      -0.00003190 </v>
   <v>      -0.00206607       0.00391698      -0.00000000 </v>
   <v>       0.00392292      -0.00741687      -0.00000000 </v>
   <v>       0.00391503      -0.00005263      -0.00646008 </v>
   <v>       0.00156028      -0.00232433       0.00003361 </v>
   <v>       0.00136306      -0.00005585      -0.00000000 </v>
   <v>      -0.00005020      -0.00107768      -0.00000000 </v>
   <v>       0.00391503      -0.00005263       0.00646008 </v>
   <v>       0.00156028      -0.00232433      -0.00003361 </v>
   <v>       0.00767480       0.00386499      -0.00000000 </v>
   <v>       0.00391521       0.00782445      -0.00000000 </v>
   <v>      -0.00005214      -0.00003883      -0.00000840 </v>
   <v>       0.00152142       0.00153454      -0.00000461 </v>
   <v>       0.00107475      -0.00003642      -0.00000000 </v>
   <v>      -0.00005537       0.00108802      -0.00000000 </v>
   <v>      -0.00005214      -0.00003883       0.00000840 </v>
   <v>       0.00152142       0.00153454       0.00000461 </v>
  </varray>
  <varray name="stress" >
   <v>      -0.36512953      -0.00042181       0.00000000 </v>
   <v>      -0.00042173      -0.36513956       0.00000000 </v>
   <v>       0.00000000       0.00000000      -0.37647839 </v>
  </varray>
  <energy>
   <i name="e_fr_energy">   -223.90059610 </i>
   <i name="e_wo_entrp">   -223.90059610 </i>
   <i name="e_0_energy">   -223.90059610 </i>
  </energy>
  <time name="totalsc">  205.50  206.71</time>
  <eigenvalues>
   <array>
    <dimension dim="1">band</dimension>
    <dimension dim="2">kpoint</dimension>
    <dimension dim="3">spin</dimension>
    <field>eigene</field>
    <field>occ</field>
    <set>
     <set comment="spin 1">
      <set comment="kpoint 1">
       <r>  -21.3113    1.0000 </r>
       <r>  -21.3113    1.0000 </r>
       <r>  -21.3109    1.0000 </r>
       <r>  -21.3038    1.0000 </r>
       <r>  -21.3007    1.0000 </r>
       <r>  -21.3006    1.0000 </r>
       <r>  -21.2999    1.0000 </r>
       <r>  -21.2937    1.0000 </r>
       <r>  -21.2936    1.0000 </r>
       <r>  -21.2934    1.0000 </r>
       <r>  -21.2933    1.0000 </r>
       <r>  -21.2933    1.0000 </r>
       <r>  -21.2933    1.0000 </r>
       <r>  -21.2931    1.0000 </r>
       <r>  -21.2931    1.0000 </r>
       <r>  -21.2930    1.0000 </r>
       <r>  -21.2926    1.0000 </r>
       <r>  -21.2921    1.0000 </r>
       <r>  -21.2921    1.0000 </r>
       <r>  -21.2890    1.0000 </r>
       <r>  -21.2889    1.0000 </r>
       <r>  -21.2888    1.0000 </r>
       <r>  -21.2864    1.0000 </r>
       <r>  -21.2863    1.0000 </r>
       <r>  -21.2862    1.0000 </r>
       <r>  -21.2862    1.0000 </r>
       <r>  -21.2861    1.0000 </r>
       <r>  -21.2859    1.0000 </r>
       <r>  -21.2854    1.0000 </r>
       <r>  -21.2853    1.0000 </r>
       <r>  -21.2851    1.0000 </r>
       <r>  -21.2841    1.0000 </r>
       <r>  -21.2836    1.0000 </r>
       <r>  -21.2836    1.0000 </r>
       <r>  -21.2836    1.0000 </r>
       <r>  -21.2833    1.0000 </r>
       <r>  -21.2831    1.0000 </r>
       <r>  -21.2828    1.0000 </r>
       <r>  -21.2827    1.0000 </r>
       <r>  -21.2816    1.0000 </r>
       <r>  -21.2813    1.0000 </r>
       <r>  -21.2811    1.0000 </r>
       <r>  -21.2808    1.0000 </r>
       <r>  -21.2808    1.0000 </r>
       <r>  -21.2807    1.0000 </r>
       <r>  -21.2807    1.0000 </r>
       <r>  -21.2802    1.0000 </r>
       <r>  -21.2800    1.0000 </r>
       <r>  -21.2800    1.0000 </r>
       <r>  -21.2799    1.0000 </r>
       <r>  -21.2799    1.0000 </r>
       <r>  -21.2799    1.0000 </r>
       <r>  -21.2799    1.0000 </r>
       <r>  -21.2798    1.0000 </r>
       <r>  -21.2798    1.0000 </r>
       <r>  -21.2791    1.0000 </r>
       <r>  -21.2790    1.0000 </r>
       <r>  -21.2790    1.0000 </r>
       <r>  -21.2789    1.0000 </r>
       <r>  -21.2765    1.0000 </r>
       <r>  -21.2763    1.0000 </r>
       <r>  -21.2753    1.0000 </r>
       <r>  -21.2753    1.0000 </r>
       <r>  -21.2752    1.0000 </r>
       <r>  -21.2751    1.0000 </r>
       <r>  -21.2741    1.0000 </r>
       <r>  -21.2740    1.0000 </r>
       <r>  -21.2740    1.0000 </r>
       <r>  -21.2740    1.0000 </r>
       <r>  -21.2739    1.0000 </r>
       <r>  -21.2737    1.0000 </r>
       <r>  -21.2735    1.0000 </r>
       <r>  -21.2734    1.0000 </r>
       <r>  -21.2733    1.0000 </r>
       <r>  -21.2732    1.0000 </r>
       <r>  -21.2730    1.0000 </r>
       <r>  -21.2723    1.0000 </r>
       <r>  -21.2715    1.0000 </r>
       <r>  -21.2715    1.0000 </r>
       <r>  -21.2715    1.0000 </r>
       <r>  -21.2714    1.0000 </r>
       <r>  -21.2714    1.0000 </r>
       <r>  -21.2710    1.0000 </r>
       <r>  -21.2710    1.0000 </r>
       <r>  -21.2710    1.0000 </r>
       <r>  -21.2709    1.0000 </r>
       <r>  -21.2705    1.0000 </r>
       <r>  -21.2704    1.0000 </r>
       <r>  -21.2704    1.0000 </r>
       <r>  -21.2696    1.0000 </r>
       <r>  -21.2688    1.0000 </r>
       <r>  -21.2687    1.0000 </r>
       <r>  -21.2683    1.0000 </r>
       <r>  -21.2528    1.0000 </r>
       <r>  -21.2527    1.0000 </r>
       <r>  -21.2523    1.0000 </r>
       <r>  -13.3580    1.0000 </r>
       <r>  -13.1388    1.0000 </r>
       <r>  -13.1380    1.0000 </r>
       <r>  -13.1375    1.0000 </r>
       <r>  -13.1374    1.0000 </r>
       <r>  -13.1368    1.0000 </r>
       <r>  -13.1360    1.0000 </r>
       <r>  -13.0149    1.0000 </r>
       <r>  -13.0145    1.0000 </r>
       <r>  -13.0129    1.0000 </r>
       <r>  -13.0123    1.0000 </r>
       <r>  -13.0115    1.0000 </r>
       <r>  -13.0112    1.0000 </r>
       <r>  -13.0112    1.0000 </r>
       <r>  -13.0112    1.0000 </r>
       <r>  -13.0111    1.0000 </r>
       <r>  -13.0101    1.0000 </r>
       <r>  -13.0087    1.0000 </r>
       <r>  -13.0083    1.0000 </r>
       <r>  -12.9901    1.0000 </r>
       <r>  -12.9891    1.0000 </r>
       <r>  -12.9891    1.0000 </r>
       <r>  -12.9883    1.0000 </r>
       <r>  -12.9421    1.0000 </r>
       <r>  -12.9410    1.0000 </r>
       <r>  -12.9408    1.0000 </r>
       <r>  -12.9232    1.0000 </r>
       <r>  -12.9213    1.0000 </r>
       <r>  -12.9213    1.0000 </r>
       <r>  -12.9213    1.0000 </r>
       <r>  -12.9198    1.0000 </r>
       <r>  -12.9189    1.0000 </r>
       <r>   -2.7000    1.0000 </r>
       <r>   -2.7000    1.0000 </r>
       <r>   -2.7000    1.0000 </r>
       <r>   -2.6999    1.0000 </r>
       <r>   -2.4240    1.0000 </r>
       <r>   -2.4240    1.0000 </r>
       <r>   -2.4239    1.0000 </r>
       <r>   -2.2057    1.0000 </r>
       <r>   -2.2050    1.0000 </r>
       <r>   -2.2049    1.0000 </r>
       <r>   -2.2048    1.0000 </r>
       <r>   -2.2048    1.0000 </r>
       <r>   -2.2043    1.0000 </r>
       <r>   -2.2042    1.0000 </r>
       <r>   -2.2037    1.0000 </r>
       <r>   -2.2036    1.0000 </r>
       <r>   -2.2036    1.0000 </r>
       <r>   -2.2035    1.0000 </r>
       <r>   -2.2029    1.0000 </r>
       <r>   -1.9269    1.0000 </r>
       <r>   -1.9268    1.0000 </r>
       <r>   -1.9265    1.0000 </r>
       <r>   -1.9265    1.0000 </r>
       <r>   -1.9247    1.0000 </r>
       <r>   -1.9247    1.0000 </r>
       <r>   -1.9247    1.0000 </r>
       <r>   -1.9246    1.0000 </r>
       <r>   -1.9228    1.0000 </r>
       <r>   -1.9228    1.0000 </r>
       <r>   -1.9226    1.0000 </r>
       <r>   -1.9225    1.0000 </r>
       <r>   -1.7970    1.0000 </r>
       <r>   -1.7969    1.0000 </r>
       <r>   -1.7966    1.0000 </r>
       <r>   -1.7966    1.0000 </r>
       <r>   -1.7963    1.0000 </r>
       <r>   -1.7963    1.0000 </r>
       <r>   -1.5095    1.0000 </r>
       <r>   -1.5078    1.0000 </r>
       <r>   -1.5077    1.0000 </r>
       <r>   -1.5075    1.0000 </r>
       <r>   -1.5056    1.0000 </r>
       <r>   -1.5053    1.0000 </r>
       <r>   -1.5052    1.0000 </r>
       <r>   -1.5050    1.0000 </r>
       <r>   -1.5033    1.0000 </r>
       <r>   -1.5031    1.0000 </r>
       <r>   -1.5030    1.0000 </r>
       <r>   -1.5016    1.0000 </r>
       <r>   -1.4647    1.0000 </r>
       <r>   -1.4630    1.0000 </r>
       <r>   -1.4628    1.0000 </r>
       <r>   -1.4627    1.0000 </r>
       <r>   -1.4624    1.0000 </r>
       <r>   -1.4609    1.0000 </r>
       <r>   -1.2947    1.0000 </r>
       <r>   -1.2947    1.0000 </r>
       <r>   -1.2947    1.0000 </r>
       <r>   -1.2946    1.0000 </r>
       <r>   -1.2945    1.0000 </r>
       <r>   -1.2945    1.0000 </r>
       <r>   -1.0036    1.0000 </r>
       <r>   -1.0035    1.0000 </r>
       <r>   -1.0023    1.0000 </r>
       <r>   -1.0023    1.0000 </r>
       <r>   -1.0010    1.0000 </r>
       <r>   -1.0008    1.0000 </r>
       <r>   -1.0007    1.0000 </r>
       <r>   -1.0007    1.0000 </r>
       <r>   -0.9992    1.0000 </r>
       <r>   -0.9992    1.0000 </r>
       <r>   -0.9981    1.0000 </r>
       <r>   -0.9980    1.0000 </r>
       <r>   -0.9531    1.0000 </r>
       <r>   -0.9519    1.0000 </r>
       <r>   -0.9511    1.0000 </r>
       <r>   -0.9508    1.0000 </r>
       <r>   -0.9486    1.0000 </r>
       <r>   -0.9479    1.0000 </r>
       <r>   -0.9478    1.0000 </r>
       <r>   -0.9478    1.0000 </r>
       <r>   -0.9477    1.0000 </r>
       <r>   -0.9474    1.0000 </r>
       <r>   -0.9471    1.0000 </r>
       <r>   -0.9467    1.0000 </r>
       <r>   -0.9459    1.0000 </r>
       <r>   -0.9458    1.0000 </r>
       <r>   -0.9458    1.0000 </r>
       <r>   -0.9453    1.0000 </r>
       <r>   -0.9425    1.0000 </r>
       <r>   -0.9421    1.0000 </r>
       <r>   -0.9421    1.0000 </r>
       <r>   -0.9406    1.0000 </r>
       <r>   -0.6649    1.0000 </r>
       <r>   -0.6649    1.0000 </r>
       <r>   -0.6648    1.0000 </r>
       <r>    4.3403    0.0000 </r>
       <r>    6.3609    0.0000 </r>
       <r>    6.3669    0.0000 </r>
       <r>    6.3680    0.0000 </r>
       <r>    6.3681    0.0000 </r>
       <r>    6.3691    0.0000 </r>
       <r>    6.3748    0.0000 </r>
       <r>    6.4446    0.0000 </r>
       <r>    6.4446    0.0000 </r>
       <r>    6.4448    0.0000 </r>
       <r>    6.4449    0.0000 </r>
       <r>    6.8280    0.0000 </r>
       <r>    6.8280    0.0000 </r>
       <r>    6.8281    0.0000 </r>
       <r>    7.2068    0.0000 </r>
       <r>    7.2068    0.0000 </r>
       <r>    7.2069    0.0000 </r>
       <r>    7.4511    0.0000 </r>
       <r>    7.4586    0.0000 </r>
       <r>    7.4603    0.0000 </r>
       <r>    7.4608    0.0000 </r>
       <r>    7.4608    0.0000 </r>
       <r>    7.4641    0.0000 </r>
       <r>    7.4642    0.0000 </r>
       <r>    7.4676    0.0000 </r>
       <r>    7.4677    0.0000 </r>
       <r>    7.4679    0.0000 </r>
       <r>    7.4696    0.0000 </r>
       <r>    7.4767    0.0000 </r>
       <r>    8.1629    0.0000 </r>
       <r>    8.1679    0.0000 </r>
       <r>    8.1680    0.0000 </r>
       <r>    8.1683    0.0000 </r>
       <r>    8.1685    0.0000 </r>
       <r>    8.1741    0.0000 </r>
       <r>    8.2777    0.0000 </r>
       <r>    8.2782    0.0000 </r>
       <r>    8.2797    0.0000 </r>
       <r>    8.2798    0.0000 </r>
       <r>    8.2808    0.0000 </r>
       <r>    8.2816    0.0000 </r>
       <r>    8.8881    0.0000 </r>
       <r>    8.8931    0.0000 </r>
       <r>    8.8934    0.0000 </r>
       <r>    8.8936    0.0000 </r>
       <r>    8.8999    0.0000 </r>
       <r>    8.9008    0.0000 </r>
       <r>    8.9018    0.0000 </r>
       <r>    8.9025    0.0000 </r>
       <r>    8.9034    0.0000 </r>
       <r>    8.9036    0.0000 </r>
       <r>    8.9049    0.0000 </r>
       <r>    8.9067    0.0000 </r>
       <r>    8.9126    0.0000 </r>
       <r>    8.9126    0.0000 </r>
       <r>    8.9131    0.0000 </r>
       <r>    8.9148    0.0000 </r>
       <r>    8.9165    0.0000 </r>
       <r>    8.9169    0.0000 </r>
       <r>    8.9172    0.0000 </r>
       <r>    8.9208    0.0000 </r>
       <r>    8.9250    0.0000 </r>
       <r>    8.9257    0.0000 </r>
       <r>    8.9284    0.0000 </r>
      </set>
      <set comment="kpoint 2">
       <r>  -21.3110    1.0000 </r>
       <r>  -21.3108    1.0000 </r>
       <r>  -21.3102    1.0000 </r>
       <r>  -21.3001    1.0000 </r>
       <r>  -21.2988    1.0000 </r>
       <r>  -21.2987    1.0000 </r>
       <r>  -21.2979    1.0000 </r>
       <r>  -21.2976    1.0000 </r>
       <r>  -21.2973    1.0000 </r>
       <r>  -21.2972    1.0000 </r>
       <r>  -21.2966    1.0000 </r>
       <r>  -21.2925    1.0000 </r>
       <r>  -21.2922    1.0000 </r>
       <r>  -21.2919    1.0000 </r>
       <r>  -21.2918    1.0000 </r>
       <r>  -21.2917    1.0000 </r>
       <r>  -21.2916    1.0000 </r>
       <r>  -21.2915    1.0000 </r>
       <r>  -21.2906    1.0000 </r>
       <r>  -21.2901    1.0000 </r>
       <r>  -21.2899    1.0000 </r>
       <r>  -21.2893    1.0000 </r>
       <r>  -21.2890    1.0000 </r>
       <r>  -21.2885    1.0000 </r>
       <r>  -21.2884    1.0000 </r>
       <r>  -21.2882    1.0000 </r>
       <r>  -21.2873    1.0000 </r>
       <r>  -21.2873    1.0000 </r>
       <r>  -21.2870    1.0000 </r>
       <r>  -21.2863    1.0000 </r>
       <r>  -21.2861    1.0000 </r>
       <r>  -21.2860    1.0000 </r>
       <r>  -21.2859    1.0000 </r>
       <r>  -21.2857    1.0000 </r>
       <r>  -21.2848    1.0000 </r>
       <r>  -21.2836    1.0000 </r>
       <r>  -21.2830    1.0000 </r>
       <r>  -21.2828    1.0000 </r>
       <r>  -21.2827    1.0000 </r>
       <r>  -21.2823    1.0000 </r>
       <r>  -21.2820    1.0000 </r>
       <r>  -21.2805    1.0000 </r>
       <r>  -21.2805    1.0000 </r>
       <r>  -21.2804    1.0000 </r>
       <r>  -21.2800    1.0000 </r>
       <r>  -21.2800    1.0000 </r>
       <r>  -21.2797    1.0000 </r>
       <r>  -21.2793    1.0000 </r>
       <r>  -21.2783    1.0000 </r>
       <r>  -21.2779    1.0000 </r>
       <r>  -21.2775    1.0000 </r>
       <r>  -21.2775    1.0000 </r>
       <r>  -21.2771    1.0000 </r>
       <r>  -21.2771    1.0000 </r>
       <r>  -21.2770    1.0000 </r>
       <r>  -21.2770    1.0000 </r>
       <r>  -21.2770    1.0000 </r>
       <r>  -21.2765    1.0000 </r>
       <r>  -21.2764    1.0000 </r>
       <r>  -21.2756    1.0000 </r>
       <r>  -21.2754    1.0000 </r>
       <r>  -21.2753    1.0000 </r>
       <r>  -21.2752    1.0000 </r>
       <r>  -21.2752    1.0000 </r>
       <r>  -21.2751    1.0000 </r>
       <r>  -21.2750    1.0000 </r>
       <r>  -21.2749    1.0000 </r>
       <r>  -21.2746    1.0000 </r>
       <r>  -21.2743    1.0000 </r>
       <r>  -21.2742    1.0000 </r>
       <r>  -21.2741    1.0000 </r>
       <r>  -21.2739    1.0000 </r>
       <r>  -21.2739    1.0000 </r>
       <r>  -21.2736    1.0000 </r>
       <r>  -21.2735    1.0000 </r>
       <r>  -21.2732    1.0000 </r>
       <r>  -21.2729    1.0000 </r>
       <r>  -21.2727    1.0000 </r>
       <r>  -21.2725    1.0000 </r>
       <r>  -21.2720    1.0000 </r>
       <r>  -21.2716    1.0000 </r>
       <r>  -21.2714    1.0000 </r>
       <r>  -21.2713    1.0000 </r>
       <r>  -21.2712    1.0000 </r>
       <r>  -21.2711    1.0000 </r>
       <r>  -21.2711    1.0000 </r>
       <r>  -21.2709    1.0000 </r>
       <r>  -21.2707    1.0000 </r>
       <r>  -21.2705    1.0000 </r>
       <r>  -21.2703    1.0000 </r>
       <r>  -21.2702    1.0000 </r>
       <r>  -21.2690    1.0000 </r>
       <r>  -21.2688    1.0000 </r>
       <r>  -21.2529    1.0000 </r>
       <r>  -21.2527    1.0000 </r>
       <r>  -21.2524    1.0000 </r>
       <r>  -13.2930    1.0000 </r>
       <r>  -13.2894    1.0000 </r>
       <r>  -13.1002    1.0000 </r>
       <r>  -13.0992    1.0000 </r>
       <r>  -13.0988    1.0000 </r>
       <r>  -13.0975    1.0000 </r>
       <r>  -13.0963    1.0000 </r>
       <r>  -13.0948    1.0000 </r>
       <r>  -13.0947    1.0000 </r>
       <r>  -13.0941    1.0000 </r>
       <r>  -13.0051    1.0000 </r>
       <r>  -13.0050    1.0000 </r>
       <r>  -13.0015    1.0000 </r>
       <r>  -13.0012    1.0000 </r>
       <r>  -13.0007    1.0000 </r>
       <r>  -13.0006    1.0000 </r>
       <r>  -12.9972    1.0000 </r>
       <r>  -12.9962    1.0000 </r>
       <r>  -12.9962    1.0000 </r>
       <r>  -12.9928    1.0000 </r>
       <r>  -12.9473    1.0000 </r>
       <r>  -12.9458    1.0000 </r>
       <r>  -12.9458    1.0000 </r>
       <r>  -12.9457    1.0000 </r>
       <r>  -12.9435    1.0000 </r>
       <r>  -12.9415    1.0000 </r>
       <r>  -12.9413    1.0000 </r>
       <r>  -12.9394    1.0000 </r>
       <r>  -12.9348    1.0000 </r>
       <r>  -12.9307    1.0000 </r>
       <r>  -12.9306    1.0000 </r>
       <r>  -12.9262    1.0000 </r>
       <r>   -2.5075    1.0000 </r>
       <r>   -2.5068    1.0000 </r>
       <r>   -2.5047    1.0000 </r>
       <r>   -2.5046    1.0000 </r>
       <r>   -2.5040    1.0000 </r>
       <r>   -2.5039    1.0000 </r>
       <r>   -2.5019    1.0000 </r>
       <r>   -2.5012    1.0000 </r>
       <r>   -2.2890    1.0000 </r>
       <r>   -2.2890    1.0000 </r>
       <r>   -2.2864    1.0000 </r>
       <r>   -2.2863    1.0000 </r>
       <r>   -2.2761    1.0000 </r>
       <r>   -2.2721    1.0000 </r>
       <r>   -2.1399    1.0000 </r>
       <r>   -2.1373    1.0000 </r>
       <r>   -2.1367    1.0000 </r>
       <r>   -2.1367    1.0000 </r>
       <r>   -2.1361    1.0000 </r>
       <r>   -2.1357    1.0000 </r>
       <r>   -2.1351    1.0000 </r>
       <r>   -2.1337    1.0000 </r>
       <r>   -1.9869    1.0000 </r>
       <r>   -1.9865    1.0000 </r>
       <r>   -1.9865    1.0000 </r>
       <r>   -1.9863    1.0000 </r>
       <r>   -1.9847    1.0000 </r>
       <r>   -1.9843    1.0000 </r>
       <r>   -1.9843    1.0000 </r>
       <r>   -1.9838    1.0000 </r>
       <r>   -1.8142    1.0000 </r>
       <r>   -1.8103    1.0000 </r>
       <r>   -1.8096    1.0000 </r>
       <r>   -1.8079    1.0000 </r>
       <r>   -1.8079    1.0000 </r>
       <r>   -1.8070    1.0000 </r>
       <r>   -1.8068    1.0000 </r>
       <r>   -1.8065    1.0000 </r>
       <r>   -1.5010    1.0000 </r>
       <r>   -1.5009    1.0000 </r>
       <r>   -1.4946    1.0000 </r>
       <r>   -1.4945    1.0000 </r>
       <r>   -1.3843    1.0000 </r>
       <r>   -1.3808    1.0000 </r>
       <r>   -1.3802    1.0000 </r>
       <r>   -1.3763    1.0000 </r>
       <r>   -1.2145    1.0000 </r>
       <r>   -1.2140    1.0000 </r>
       <r>   -1.2109    1.0000 </r>
       <r>   -1.2106    1.0000 </r>
       <r>   -1.1953    1.0000 </r>
       <r>   -1.1918    1.0000 </r>
       <r>   -1.1917    1.0000 </r>
       <r>   -1.1915    1.0000 </r>
       <r>   -1.1911    1.0000 </r>
       <r>   -1.1904    1.0000 </r>
       <r>   -1.1899    1.0000 </r>
       <r>   -1.1884    1.0000 </r>
       <r>   -1.1790    1.0000 </r>
       <r>   -1.1783    1.0000 </r>
       <r>   -1.1762    1.0000 </r>
       <r>   -1.1754    1.0000 </r>
       <r>   -1.1734    1.0000 </r>
       <r>   -1.1705    1.0000 </r>
       <r>   -1.1701    1.0000 </r>
       <r>   -1.1697    1.0000 </r>
       <r>   -1.1649    1.0000 </r>
       <r>   -1.1630    1.0000 </r>
       <r>   -1.1625    1.0000 </r>
       <r>   -1.1593    1.0000 </r>
       <r>   -1.1579    1.0000 </r>
       <r>   -1.1574    1.0000 </r>
       <r>   -1.1551    1.0000 </r>
       <r>   -1.1548    1.0000 </r>
       <r>   -1.0856    1.0000 </r>
       <r>   -1.0809    1.0000 </r>
       <r>   -0.9518    1.0000 </r>
       <r>   -0.9508    1.0000 </r>
       <r>   -0.9470    1.0000 </r>
       <r>   -0.9469    1.0000 </r>
       <r>   -0.9469    1.0000 </r>
       <r>   -0.9466    1.0000 </r>
       <r>   -0.9426    1.0000 </r>
       <r>   -0.9424    1.0000 </r>
       <r>   -0.9356    1.0000 </r>
       <r>   -0.9340    1.0000 </r>
       <r>   -0.9339    1.0000 </r>
       <r>   -0.9330    1.0000 </r>
       <r>   -0.9316    1.0000 </r>
       <r>   -0.9307    1.0000 </r>
       <r>   -0.9306    1.0000 </r>
       <r>   -0.9288    1.0000 </r>
       <r>   -0.7711    1.0000 </r>
       <r>   -0.7711    1.0000 </r>
       <r>   -0.7654    1.0000 </r>
       <r>   -0.7654    1.0000 </r>
       <r>    5.0187    0.0000 </r>
       <r>    5.0259    0.0000 </r>
       <r>    6.7076    0.0000 </r>
       <r>    6.7141    0.0000 </r>
       <r>    6.7144    0.0000 </r>
       <r>    6.7178    0.0000 </r>
       <r>    6.7189    0.0000 </r>
       <r>    6.7218    0.0000 </r>
       <r>    6.7219    0.0000 </r>
       <r>    6.7277    0.0000 </r>
       <r>    6.8369    0.0000 </r>
       <r>    6.8372    0.0000 </r>
       <r>    6.8402    0.0000 </r>
       <r>    6.8428    0.0000 </r>
       <r>    6.8454    0.0000 </r>
       <r>    6.8477    0.0000 </r>
       <r>    6.8482    0.0000 </r>
       <r>    6.8483    0.0000 </r>
       <r>    6.9683    0.0000 </r>
       <r>    6.9740    0.0000 </r>
       <r>    7.3563    0.0000 </r>
       <r>    7.3625    0.0000 </r>
       <r>    7.3626    0.0000 </r>
       <r>    7.3689    0.0000 </r>
       <r>    7.4789    0.0000 </r>
       <r>    7.4816    0.0000 </r>
       <r>    7.7110    0.0000 </r>
       <r>    7.7111    0.0000 </r>
       <r>    7.7182    0.0000 </r>
       <r>    7.7182    0.0000 </r>
       <r>    8.2573    0.0000 </r>
       <r>    8.2605    0.0000 </r>
       <r>    8.2637    0.0000 </r>
       <r>    8.2659    0.0000 </r>
       <r>    8.2668    0.0000 </r>
       <r>    8.2680    0.0000 </r>
       <r>    8.2682    0.0000 </r>
       <r>    8.2754    0.0000 </r>
       <r>    8.5267    0.0000 </r>
       <r>    8.5274    0.0000 </r>
       <r>    8.5293    0.0000 </r>
       <r>    8.5346    0.0000 </r>
       <r>    8.5349    0.0000 </r>
       <r>    8.5372    0.0000 </r>
       <r>    8.5382    0.0000 </r>
       <r>    8.5389    0.0000 </r>
       <r>    8.5390    0.0000 </r>
       <r>    8.5397    0.0000 </r>
       <r>    8.5401    0.0000 </r>
       <r>    8.5409    0.0000 </r>
       <r>    8.5413    0.0000 </r>
       <r>    8.5476    0.0000 </r>
       <r>    8.5504    0.0000 </r>
       <r>    8.5507    0.0000 </r>
       <r>    8.9395    0.0000 </r>
       <r>    8.9467    0.0000 </r>
       <r>    8.9480    0.0000 </r>
       <r>    8.9516    0.0000 </r>
       <r>    8.9522    0.0000 </r>
       <r>    8.9553    0.0000 </r>
       <r>    8.9554    0.0000 </r>
       <r>    8.9593    0.0000 </r>
       <r>    9.4934    0.0000 </r>
       <r>    9.5163    0.0000 </r>
      </set>
      <set comment="kpoint 3">
       <r>  -21.3108    1.0000 </r>
       <r>  -21.3107    1.0000 </r>
       <r>  -21.3105    1.0000 </r>
       <r>  -21.3001    1.0000 </r>
       <r>  -21.2988    1.0000 </r>
       <r>  -21.2987    1.0000 </r>
       <r>  -21.2978    1.0000 </r>
       <r>  -21.2977    1.0000 </r>
       <r>  -21.2973    1.0000 </r>
       <r>  -21.2972    1.0000 </r>
       <r>  -21.2966    1.0000 </r>
       <r>  -21.2924    1.0000 </r>
       <r>  -21.2922    1.0000 </r>
       <r>  -21.2919    1.0000 </r>
       <r>  -21.2918    1.0000 </r>
       <r>  -21.2917    1.0000 </r>
       <r>  -21.2917    1.0000 </r>
       <r>  -21.2915    1.0000 </r>
       <r>  -21.2906    1.0000 </r>
       <r>  -21.2901    1.0000 </r>
       <r>  -21.2899    1.0000 </r>
       <r>  -21.2892    1.0000 </r>
       <r>  -21.2890    1.0000 </r>
       <r>  -21.2884    1.0000 </r>
       <r>  -21.2883    1.0000 </r>
       <r>  -21.2882    1.0000 </r>
       <r>  -21.2875    1.0000 </r>
       <r>  -21.2873    1.0000 </r>
       <r>  -21.2870    1.0000 </r>
       <r>  -21.2862    1.0000 </r>
       <r>  -21.2860    1.0000 </r>
       <r>  -21.2860    1.0000 </r>
       <r>  -21.2858    1.0000 </r>
       <r>  -21.2857    1.0000 </r>
       <r>  -21.2849    1.0000 </r>
       <r>  -21.2837    1.0000 </r>
       <r>  -21.2831    1.0000 </r>
       <r>  -21.2828    1.0000 </r>
       <r>  -21.2827    1.0000 </r>
       <r>  -21.2823    1.0000 </r>
       <r>  -21.2820    1.0000 </r>
       <r>  -21.2805    1.0000 </r>
       <r>  -21.2805    1.0000 </r>
       <r>  -21.2804    1.0000 </r>
       <r>  -21.2800    1.0000 </r>
       <r>  -21.2800    1.0000 </r>
       <r>  -21.2796    1.0000 </r>
       <r>  -21.2794    1.0000 </r>
       <r>  -21.2783    1.0000 </r>
       <r>  -21.2779    1.0000 </r>
       <r>  -21.2775    1.0000 </r>
       <r>  -21.2773    1.0000 </r>
       <r>  -21.2772    1.0000 </r>
       <r>  -21.2771    1.0000 </r>
       <r>  -21.2770    1.0000 </r>
       <r>  -21.2769    1.0000 </r>
       <r>  -21.2768    1.0000 </r>
       <r>  -21.2764    1.0000 </r>
       <r>  -21.2763    1.0000 </r>
       <r>  -21.2756    1.0000 </r>
       <r>  -21.2755    1.0000 </r>
       <r>  -21.2753    1.0000 </r>
       <r>  -21.2752    1.0000 </r>
       <r>  -21.2752    1.0000 </r>
       <r>  -21.2751    1.0000 </r>
       <r>  -21.2750    1.0000 </r>
       <r>  -21.2749    1.0000 </r>
       <r>  -21.2746    1.0000 </r>
       <r>  -21.2744    1.0000 </r>
       <r>  -21.2742    1.0000 </r>
       <r>  -21.2742    1.0000 </r>
       <r>  -21.2741    1.0000 </r>
       <r>  -21.2738    1.0000 </r>
       <r>  -21.2737    1.0000 </r>
       <r>  -21.2733    1.0000 </r>
       <r>  -21.2731    1.0000 </r>
       <r>  -21.2729    1.0000 </r>
       <r>  -21.2727    1.0000 </r>
       <r>  -21.2726    1.0000 </r>
       <r>  -21.2720    1.0000 </r>
       <r>  -21.2716    1.0000 </r>
       <r>  -21.2713    1.0000 </r>
       <r>  -21.2712    1.0000 </r>
       <r>  -21.2712    1.0000 </r>
       <r>  -21.2711    1.0000 </r>
       <r>  -21.2711    1.0000 </r>
       <r>  -21.2708    1.0000 </r>
       <r>  -21.2707    1.0000 </r>
       <r>  -21.2705    1.0000 </r>
       <r>  -21.2703    1.0000 </r>
       <r>  -21.2701    1.0000 </r>
       <r>  -21.2690    1.0000 </r>
       <r>  -21.2688    1.0000 </r>
       <r>  -21.2530    1.0000 </r>
       <r>  -21.2527    1.0000 </r>
       <r>  -21.2523    1.0000 </r>
       <r>  -13.2930    1.0000 </r>
       <r>  -13.2894    1.0000 </r>
       <r>  -13.0996    1.0000 </r>
       <r>  -13.0992    1.0000 </r>
       <r>  -13.0991    1.0000 </r>
       <r>  -13.0977    1.0000 </r>
       <r>  -13.0966    1.0000 </r>
       <r>  -13.0949    1.0000 </r>
       <r>  -13.0947    1.0000 </r>
       <r>  -13.0937    1.0000 </r>
       <r>  -13.0051    1.0000 </r>
       <r>  -13.0051    1.0000 </r>
       <r>  -13.0017    1.0000 </r>
       <r>  -13.0013    1.0000 </r>
       <r>  -13.0007    1.0000 </r>
       <r>  -13.0006    1.0000 </r>
       <r>  -12.9972    1.0000 </r>
       <r>  -12.9962    1.0000 </r>
       <r>  -12.9960    1.0000 </r>
       <r>  -12.9928    1.0000 </r>
       <r>  -12.9480    1.0000 </r>
       <r>  -12.9459    1.0000 </r>
       <r>  -12.9458    1.0000 </r>
       <r>  -12.9451    1.0000 </r>
       <r>  -12.9426    1.0000 </r>
       <r>  -12.9414    1.0000 </r>
       <r>  -12.9413    1.0000 </r>
       <r>  -12.9402    1.0000 </r>
       <r>  -12.9349    1.0000 </r>
       <r>  -12.9307    1.0000 </r>
       <r>  -12.9306    1.0000 </r>
       <r>  -12.9260    1.0000 </r>
       <r>   -2.5074    1.0000 </r>
       <r>   -2.5068    1.0000 </r>
       <r>   -2.5047    1.0000 </r>
       <r>   -2.5047    1.0000 </r>
       <r>   -2.5041    1.0000 </r>
       <r>   -2.5039    1.0000 </r>
       <r>   -2.5019    1.0000 </r>
       <r>   -2.5011    1.0000 </r>
       <r>   -2.2891    1.0000 </r>
       <r>   -2.2890    1.0000 </r>
       <r>   -2.2863    1.0000 </r>
       <r>   -2.2863    1.0000 </r>
       <r>   -2.2762    1.0000 </r>
       <r>   -2.2721    1.0000 </r>
       <r>   -2.1391    1.0000 </r>
       <r>   -2.1376    1.0000 </r>
       <r>   -2.1371    1.0000 </r>
       <r>   -2.1367    1.0000 </r>
       <r>   -2.1361    1.0000 </r>
       <r>   -2.1361    1.0000 </r>
       <r>   -2.1355    1.0000 </r>
       <r>   -2.1330    1.0000 </r>
       <r>   -1.9870    1.0000 </r>
       <r>   -1.9865    1.0000 </r>
       <r>   -1.9865    1.0000 </r>
       <r>   -1.9862    1.0000 </r>
       <r>   -1.9845    1.0000 </r>
       <r>   -1.9843    1.0000 </r>
       <r>   -1.9843    1.0000 </r>
       <r>   -1.9840    1.0000 </r>
       <r>   -1.8110    1.0000 </r>
       <r>   -1.8107    1.0000 </r>
       <r>   -1.8106    1.0000 </r>
       <r>   -1.8097    1.0000 </r>
       <r>   -1.8096    1.0000 </r>
       <r>   -1.8078    1.0000 </r>
       <r>   -1.8072    1.0000 </r>
       <r>   -1.8035    1.0000 </r>
       <r>   -1.5010    1.0000 </r>
       <r>   -1.5010    1.0000 </r>
       <r>   -1.4945    1.0000 </r>
       <r>   -1.4945    1.0000 </r>
       <r>   -1.3844    1.0000 </r>
       <r>   -1.3809    1.0000 </r>
       <r>   -1.3801    1.0000 </r>
       <r>   -1.3763    1.0000 </r>
       <r>   -1.2141    1.0000 </r>
       <r>   -1.2139    1.0000 </r>
       <r>   -1.2114    1.0000 </r>
       <r>   -1.2107    1.0000 </r>
       <r>   -1.1955    1.0000 </r>
       <r>   -1.1923    1.0000 </r>
       <r>   -1.1920    1.0000 </r>
       <r>   -1.1910    1.0000 </r>
       <r>   -1.1910    1.0000 </r>
       <r>   -1.1908    1.0000 </r>
       <r>   -1.1905    1.0000 </r>
       <r>   -1.1871    1.0000 </r>
       <r>   -1.1782    1.0000 </r>
       <r>   -1.1772    1.0000 </r>
       <r>   -1.1769    1.0000 </r>
       <r>   -1.1754    1.0000 </r>
       <r>   -1.1733    1.0000 </r>
       <r>   -1.1714    1.0000 </r>
       <r>   -1.1703    1.0000 </r>
       <r>   -1.1699    1.0000 </r>
       <r>   -1.1634    1.0000 </r>
       <r>   -1.1623    1.0000 </r>
       <r>   -1.1618    1.0000 </r>
       <r>   -1.1617    1.0000 </r>
       <r>   -1.1599    1.0000 </r>
       <r>   -1.1567    1.0000 </r>
       <r>   -1.1551    1.0000 </r>
       <r>   -1.1538    1.0000 </r>
       <r>   -1.0858    1.0000 </r>
       <r>   -1.0807    1.0000 </r>
       <r>   -0.9516    1.0000 </r>
       <r>   -0.9510    1.0000 </r>
       <r>   -0.9473    1.0000 </r>
       <r>   -0.9470    1.0000 </r>
       <r>   -0.9469    1.0000 </r>
       <r>   -0.9468    1.0000 </r>
       <r>   -0.9424    1.0000 </r>
       <r>   -0.9421    1.0000 </r>
       <r>   -0.9357    1.0000 </r>
       <r>   -0.9338    1.0000 </r>
       <r>   -0.9337    1.0000 </r>
       <r>   -0.9329    1.0000 </r>
       <r>   -0.9317    1.0000 </r>
       <r>   -0.9308    1.0000 </r>
       <r>   -0.9308    1.0000 </r>
       <r>   -0.9287    1.0000 </r>
       <r>   -0.7712    1.0000 </r>
       <r>   -0.7712    1.0000 </r>
       <r>   -0.7654    1.0000 </r>
       <r>   -0.7654    1.0000 </r>
       <r>    5.0188    0.0000 </r>
       <r>    5.0258    0.0000 </r>
       <r>    6.7081    0.0000 </r>
       <r>    6.7144    0.0000 </r>
       <r>    6.7144    0.0000 </r>
       <r>    6.7169    0.0000 </r>
       <r>    6.7188    0.0000 </r>
       <r>    6.7218    0.0000 </r>
       <r>    6.7222    0.0000 </r>
       <r>    6.7277    0.0000 </r>
       <r>    6.8383    0.0000 </r>
       <r>    6.8387    0.0000 </r>
       <r>    6.8388    0.0000 </r>
       <r>    6.8410    0.0000 </r>
       <r>    6.8437    0.0000 </r>
       <r>    6.8465    0.0000 </r>
       <r>    6.8498    0.0000 </r>
       <r>    6.8499    0.0000 </r>
       <r>    6.9683    0.0000 </r>
       <r>    6.9741    0.0000 </r>
       <r>    7.3562    0.0000 </r>
       <r>    7.3625    0.0000 </r>
       <r>    7.3626    0.0000 </r>
       <r>    7.3690    0.0000 </r>
       <r>    7.4789    0.0000 </r>
       <r>    7.4816    0.0000 </r>
       <r>    7.7109    0.0000 </r>
       <r>    7.7110    0.0000 </r>
       <r>    7.7183    0.0000 </r>
       <r>    7.7183    0.0000 </r>
       <r>    8.2554    0.0000 </r>
       <r>    8.2632    0.0000 </r>
       <r>    8.2637    0.0000 </r>
       <r>    8.2649    0.0000 </r>
       <r>    8.2657    0.0000 </r>
       <r>    8.2680    0.0000 </r>
       <r>    8.2707    0.0000 </r>
       <r>    8.2741    0.0000 </r>
       <r>    8.5268    0.0000 </r>
       <r>    8.5269    0.0000 </r>
       <r>    8.5300    0.0000 </r>
       <r>    8.5356    0.0000 </r>
       <r>    8.5359    0.0000 </r>
       <r>    8.5370    0.0000 </r>
       <r>    8.5374    0.0000 </r>
       <r>    8.5381    0.0000 </r>
       <r>    8.5385    0.0000 </r>
       <r>    8.5387    0.0000 </r>
       <r>    8.5401    0.0000 </r>
       <r>    8.5422    0.0000 </r>
       <r>    8.5423    0.0000 </r>
       <r>    8.5482    0.0000 </r>
       <r>    8.5494    0.0000 </r>
       <r>    8.5497    0.0000 </r>
       <r>    8.9427    0.0000 </r>
       <r>    8.9467    0.0000 </r>
       <r>    8.9468    0.0000 </r>
       <r>    8.9496    0.0000 </r>
       <r>    8.9502    0.0000 </r>
       <r>    8.9540    0.0000 </r>
       <r>    8.9552    0.0000 </r>
       <r>    8.9627    0.0000 </r>
       <r>    9.4929    0.0000 </r>
       <r>    9.5136    0.0000 </r>
      </set>
      <set comment="kpoint 4">
       <r>  -21.3108    1.0000 </r>
       <r>  -21.3104    1.0000 </r>
       <r>  -21.3103    1.0000 </r>
       <r>  -21.3000    1.0000 </r>
       <r>  -21.2996    1.0000 </r>
       <r>  -21.2996    1.0000 </r>
       <r>  -21.2995    1.0000 </r>
       <r>  -21.2995    1.0000 </r>
       <r>  -21.2962    1.0000 </r>
       <r>  -21.2951    1.0000 </r>
       <r>  -21.2950    1.0000 </r>
       <r>  -21.2928    1.0000 </r>
       <r>  -21.2918    1.0000 </r>
       <r>  -21.2918    1.0000 </r>
       <r>  -21.2915    1.0000 </r>
       <r>  -21.2914    1.0000 </r>
       <r>  -21.2911    1.0000 </r>
       <r>  -21.2911    1.0000 </r>
       <r>  -21.2910    1.0000 </r>
       <r>  -21.2910    1.0000 </r>
       <r>  -21.2896    1.0000 </r>
       <r>  -21.2889    1.0000 </r>
       <r>  -21.2886    1.0000 </r>
       <r>  -21.2886    1.0000 </r>
       <r>  -21.2881    1.0000 </r>
       <r>  -21.2878    1.0000 </r>
       <r>  -21.2878    1.0000 </r>
       <r>  -21.2877    1.0000 </r>
       <r>  -21.2871    1.0000 </r>
       <r>  -21.2871    1.0000 </r>
       <r>  -21.2868    1.0000 </r>
       <r>  -21.2867    1.0000 </r>
       <r>  -21.2844    1.0000 </r>
       <r>  -21.2843    1.0000 </r>
       <r>  -21.2841    1.0000 </r>
       <r>  -21.2841    1.0000 </r>
       <r>  -21.2840    1.0000 </r>
       <r>  -21.2839    1.0000 </r>
       <r>  -21.2823    1.0000 </r>
       <r>  -21.2819    1.0000 </r>
       <r>  -21.2818    1.0000 </r>
       <r>  -21.2816    1.0000 </r>
       <r>  -21.2816    1.0000 </r>
       <r>  -21.2804    1.0000 </r>
       <r>  -21.2804    1.0000 </r>
       <r>  -21.2803    1.0000 </r>
       <r>  -21.2785    1.0000 </r>
       <r>  -21.2784    1.0000 </r>
       <r>  -21.2781    1.0000 </r>
       <r>  -21.2778    1.0000 </r>
       <r>  -21.2778    1.0000 </r>
       <r>  -21.2774    1.0000 </r>
       <r>  -21.2768    1.0000 </r>
       <r>  -21.2767    1.0000 </r>
       <r>  -21.2766    1.0000 </r>
       <r>  -21.2766    1.0000 </r>
       <r>  -21.2766    1.0000 </r>
       <r>  -21.2765    1.0000 </r>
       <r>  -21.2764    1.0000 </r>
       <r>  -21.2763    1.0000 </r>
       <r>  -21.2761    1.0000 </r>
       <r>  -21.2761    1.0000 </r>
       <r>  -21.2758    1.0000 </r>
       <r>  -21.2757    1.0000 </r>
       <r>  -21.2757    1.0000 </r>
       <r>  -21.2756    1.0000 </r>
       <r>  -21.2755    1.0000 </r>
       <r>  -21.2755    1.0000 </r>
       <r>  -21.2742    1.0000 </r>
       <r>  -21.2742    1.0000 </r>
[...]
      </set>
     </set>
    </set>
   </array>
  </eigenvalues>
  <separator name="orbital magnetization" >
   <v name="MAGDIPOLOUT">      0.00000000      0.00000000      0.00000000</v>
  </separator>
  <dos>
   <i name="efermi">     -0.55382138 </i>
   <total>
    <array>
     <dimension dim="1">gridpoints</dimension>
     <dimension dim="2">spin</dimension>
     <field>energy</field>
     <field>total</field>
     <field>integrated</field>
     <set>
      <set comment="spin 1">
       <r>   -22.8529     0.0000     0.0000 </r>
       <r>   -22.7399     0.0000     0.0000 </r>
       <r>   -22.6268     0.0000     0.0000 </r>
       <r>   -22.5138     0.0000     0.0000 </r>
       <r>   -22.4007     0.0000     0.0000 </r>
       <r>   -22.2877     0.0000     0.0000 </r>
       <r>   -22.1746     0.0000     0.0000 </r>
       <r>   -22.0616     0.0000     0.0000 </r>
       <r>   -21.9485     0.0000     0.0000 </r>
       <r>   -21.8355     0.0000     0.0000 </r>
       <r>   -21.7224     0.0000     0.0000 </r>
       <r>   -21.6094     0.0000     0.0000 </r>
       <r>   -21.4963     0.0000     0.0000 </r>
       <r>   -21.3833     0.0000     0.0000 </r>
       <r>   -21.2702  1238.3165   139.9916 </r>
       <r>   -21.1572   460.0477   192.0000 </r>
       <r>   -21.0441     0.0000   192.0000 </r>
       <r>   -20.9311     0.0000   192.0000 </r>
       <r>   -20.8180     0.0000   192.0000 </r>
       <r>   -20.7050     0.0000   192.0000 </r>
       <r>   -20.5919     0.0000   192.0000 </r>
       <r>   -20.4789     0.0000   192.0000 </r>
       <r>   -20.3658     0.0000   192.0000 </r>
       <r>   -20.2528     0.0000   192.0000 </r>
       <r>   -20.1397     0.0000   192.0000 </r>
       <r>   -20.0267     0.0000   192.0000 </r>
       <r>   -19.9136     0.0000   192.0000 </r>
       <r>   -19.8006     0.0000   192.0000 </r>
       <r>   -19.6875     0.0000   192.0000 </r>
       <r>   -19.5745     0.0000   192.0000 </r>
       <r>   -19.4614     0.0000   192.0000 </r>
       <r>   -19.3484     0.0000   192.0000 </r>
       <r>   -19.2353     0.0000   192.0000 </r>
       <r>   -19.1223     0.0000   192.0000 </r>
       <r>   -19.0092     0.0000   192.0000 </r>
       <r>   -18.8962     0.0000   192.0000 </r>
       <r>   -18.7831     0.0000   192.0000 </r>
       <r>   -18.6701     0.0000   192.0000 </r>
       <r>   -18.5570     0.0000   192.0000 </r>
       <r>   -18.4440     0.0000   192.0000 </r>
       <r>   -18.3309     0.0000   192.0000 </r>
       <r>   -18.2179     0.0000   192.0000 </r>
       <r>   -18.1048     0.0000   192.0000 </r>
       <r>   -17.9918     0.0000   192.0000 </r>
       <r>   -17.8787     0.0000   192.0000 </r>
       <r>   -17.7657     0.0000   192.0000 </r>
       <r>   -17.6526     0.0000   192.0000 </r>
       <r>   -17.5396     0.0000   192.0000 </r>
       <r>   -17.4265     0.0000   192.0000 </r>
       <r>   -17.3135     0.0000   192.0000 </r>
       <r>   -17.2004     0.0000   192.0000 </r>
       <r>   -17.0874     0.0000   192.0000 </r>
       <r>   -16.9743     0.0000   192.0000 </r>
       <r>   -16.8613     0.0000   192.0000 </r>
       <r>   -16.7482     0.0000   192.0000 </r>
       <r>   -16.6352     0.0000   192.0000 </r>
       <r>   -16.5221     0.0000   192.0000 </r>
       <r>   -16.4091     0.0000   192.0000 </r>
       <r>   -16.2960     0.0000   192.0000 </r>
       <r>   -16.1830     0.0000   192.0000 </r>
       <r>   -16.0699     0.0000   192.0000 </r>
       <r>   -15.9569     0.0000   192.0000 </r>
       <r>   -15.8438     0.0000   192.0000 </r>
       <r>   -15.7308     0.0000   192.0000 </r>
       <r>   -15.6177     0.0000   192.0000 </r>
       <r>   -15.5047     0.0000   192.0000 </r>
       <r>   -15.3916     0.0000   192.0000 </r>
       <r>   -15.2786     0.0000   192.0000 </r>
       <r>   -15.1655     0.0000   192.0000 </r>
       <r>   -15.0525     0.0000   192.0000 </r>
       <r>   -14.9394     0.0000   192.0000 </r>
       <r>   -14.8264     0.0000   192.0000 </r>
       <r>   -14.7133     0.0000   192.0000 </r>
       <r>   -14.6003     0.0000   192.0000 </r>
       <r>   -14.4872     0.0000   192.0000 </r>
       <r>   -14.3742     0.0000   192.0000 </r>
       <r>   -14.2611     0.0000   192.0000 </r>
       <r>   -14.1481     0.0000   192.0000 </r>
       <r>   -14.0350     0.0000   192.0000 </r>
       <r>   -13.9220     0.0000   192.0000 </r>
       <r>   -13.8089     0.0000   192.0000 </r>
       <r>   -13.6959     0.0000   192.0000 </r>
       <r>   -13.5828     0.0000   192.0000 </r>
       <r>   -13.4698     0.0000   192.0000 </r>
       <r>   -13.3567     1.1832   192.1338 </r>
       <r>   -13.2437    19.6111   194.3508 </r>
       <r>   -13.1306    48.4646   199.8300 </r>
       <r>   -13.0176   126.2894   214.1073 </r>
       <r>   -12.9045   366.8055   255.5757 </r>
       <r>   -12.7915     3.7434   256.0000 </r>
       <r>   -12.6784     0.0000   256.0000 </r>
       <r>   -12.5654     0.0000   256.0000 </r>
       <r>   -12.4523     0.0000   256.0000 </r>
       <r>   -12.3393     0.0000   256.0000 </r>
       <r>   -12.2262     0.0000   256.0000 </r>
       <r>   -12.1132     0.0000   256.0000 </r>
       <r>   -12.0001     0.0000   256.0000 </r>
       <r>   -11.8871     0.0000   256.0000 </r>
       <r>   -11.7740     0.0000   256.0000 </r>
       <r>   -11.6610     0.0000   256.0000 </r>
       <r>   -11.5479     0.0000   256.0000 </r>
       <r>   -11.4349     0.0000   256.0000 </r>
       <r>   -11.3218     0.0000   256.0000 </r>
       <r>   -11.2088     0.0000   256.0000 </r>
       <r>   -11.0957     0.0000   256.0000 </r>
       <r>   -10.9827     0.0000   256.0000 </r>
       <r>   -10.8696     0.0000   256.0000 </r>
       <r>   -10.7566     0.0000   256.0000 </r>
       <r>   -10.6435     0.0000   256.0000 </r>
       <r>   -10.5305     0.0000   256.0000 </r>
       <r>   -10.4174     0.0000   256.0000 </r>
       <r>   -10.3044     0.0000   256.0000 </r>
       <r>   -10.1913     0.0000   256.0000 </r>
       <r>   -10.0783     0.0000   256.0000 </r>
       <r>    -9.9652     0.0000   256.0000 </r>
       <r>    -9.8522     0.0000   256.0000 </r>
       <r>    -9.7391     0.0000   256.0000 </r>
       <r>    -9.6261     0.0000   256.0000 </r>
       <r>    -9.5130     0.0000   256.0000 </r>
       <r>    -9.4000     0.0000   256.0000 </r>
       <r>    -9.2869     0.0000   256.0000 </r>
       <r>    -9.1739     0.0000   256.0000 </r>
       <r>    -9.0608     0.0000   256.0000 </r>
       <r>    -8.9478     0.0000   256.0000 </r>
       <r>    -8.8347     0.0000   256.0000 </r>
       <r>    -8.7217     0.0000   256.0000 </r>
       <r>    -8.6086     0.0000   256.0000 </r>
       <r>    -8.4956     0.0000   256.0000 </r>
       <r>    -8.3825     0.0000   256.0000 </r>
       <r>    -8.2695     0.0000   256.0000 </r>
       <r>    -8.1564     0.0000   256.0000 </r>
       <r>    -8.0434     0.0000   256.0000 </r>
       <r>    -7.9303     0.0000   256.0000 </r>
       <r>    -7.8173     0.0000   256.0000 </r>
       <r>    -7.7042     0.0000   256.0000 </r>
       <r>    -7.5912     0.0000   256.0000 </r>
       <r>    -7.4781     0.0000   256.0000 </r>
       <r>    -7.3651     0.0000   256.0000 </r>
       <r>    -7.2520     0.0000   256.0000 </r>
       <r>    -7.1390     0.0000   256.0000 </r>
       <r>    -7.0259     0.0000   256.0000 </r>
       <r>    -6.9129     0.0000   256.0000 </r>
       <r>    -6.7998     0.0000   256.0000 </r>
       <r>    -6.6868     0.0000   256.0000 </r>
       <r>    -6.5737     0.0000   256.0000 </r>
       <r>    -6.4607     0.0000   256.0000 </r>
       <r>    -6.3476     0.0000   256.0000 </r>
       <r>    -6.2346     0.0000   256.0000 </r>
       <r>    -6.1215     0.0000   256.0000 </r>
       <r>    -6.0085     0.0000   256.0000 </r>
       <r>    -5.8954     0.0000   256.0000 </r>
       <r>    -5.7824     0.0000   256.0000 </r>
       <r>    -5.6693     0.0000   256.0000 </r>
       <r>    -5.5563     0.0000   256.0000 </r>
       <r>    -5.4432     0.0000   256.0000 </r>
       <r>    -5.3302     0.0000   256.0000 </r>
       <r>    -5.2171     0.0000   256.0000 </r>
       <r>    -5.1041     0.0000   256.0000 </r>
       <r>    -4.9910     0.0000   256.0000 </r>
       <r>    -4.8780     0.0000   256.0000 </r>
       <r>    -4.7649     0.0000   256.0000 </r>
       <r>    -4.6519     0.0000   256.0000 </r>
       <r>    -4.5388     0.0000   256.0000 </r>
       <r>    -4.4258     0.0000   256.0000 </r>
       <r>    -4.3127     0.0000   256.0000 </r>
       <r>    -4.1997     0.0000   256.0000 </r>
       <r>    -4.0866     0.0000   256.0000 </r>
       <r>    -3.9736     0.0000   256.0000 </r>
       <r>    -3.8605     0.0000   256.0000 </r>
       <r>    -3.7475     0.0000   256.0000 </r>
       <r>    -3.6344     0.0000   256.0000 </r>
       <r>    -3.5214     0.0000   256.0000 </r>
       <r>    -3.4083     0.0000   256.0000 </r>
       <r>    -3.2953     0.0000   256.0000 </r>
       <r>    -3.1822     0.0000   256.0000 </r>
       <r>    -3.0692     0.0000   256.0000 </r>
       <r>    -2.9561     0.0000   256.0000 </r>
       <r>    -2.8431     0.0000   256.0000 </r>
       <r>    -2.7300     0.1479   256.0167 </r>
       <r>    -2.6170     8.6978   257.0000 </r>
       <r>    -2.5039    27.1118   260.0650 </r>
       <r>    -2.3909    82.4115   269.3816 </r>
       <r>    -2.2778    83.4752   278.8185 </r>
       <r>    -2.1648   153.8548   296.2125 </r>
       <r>    -2.0517    71.0965   304.2500 </r>
       <r>    -1.9387    57.3584   310.7344 </r>
       <r>    -1.8256    64.0053   317.9709 </r>
       <r>    -1.7126    68.8114   325.7500 </r>
       <r>    -1.5995     0.0000   325.7500 </r>
       <r>    -1.4865    77.7058   334.5346 </r>
       <r>    -1.3734   191.5480   356.1891 </r>
       <r>    -1.2604    23.0667   358.7968 </r>
       <r>    -1.1473   256.8848   387.8376 </r>
       <r>    -1.0343   134.5267   403.0461 </r>
       <r>    -0.9212   261.0635   432.5595 </r>
       <r>    -0.8082    60.9021   439.4452 </r>
       <r>    -0.6951    69.1199   447.2592 </r>
       <r>    -0.5821     6.5530   448.0000 </r>
       <r>    -0.4690     0.0000   448.0000 </r>
       <r>    -0.3560     0.0000   448.0000 </r>
       <r>    -0.2429     0.0000   448.0000 </r>
       <r>    -0.1299     0.0000   448.0000 </r>
       <r>    -0.0168     0.0000   448.0000 </r>
       <r>     0.0962     0.0000   448.0000 </r>
       <r>     0.2093     0.0000   448.0000 </r>
       <r>     0.3223     0.0000   448.0000 </r>
       <r>     0.4354     0.0000   448.0000 </r>
       <r>     0.5484     0.0000   448.0000 </r>
       <r>     0.6615     0.0000   448.0000 </r>
       <r>     0.7745     0.0000   448.0000 </r>
       <r>     0.8876     0.0000   448.0000 </r>
       <r>     1.0006     0.0000   448.0000 </r>
       <r>     1.1137     0.0000   448.0000 </r>
       <r>     1.2267     0.0000   448.0000 </r>
       <r>     1.3398     0.0000   448.0000 </r>
       <r>     1.4528     0.0000   448.0000 </r>
       <r>     1.5659     0.0000   448.0000 </r>
       <r>     1.6789     0.0000   448.0000 </r>
       <r>     1.7920     0.0000   448.0000 </r>
       <r>     1.9050     0.0000   448.0000 </r>
       <r>     2.0181     0.0000   448.0000 </r>
       <r>     2.1311     0.0000   448.0000 </r>
       <r>     2.2442     0.0000   448.0000 </r>
       <r>     2.3572     0.0000   448.0000 </r>
       <r>     2.4703     0.0000   448.0000 </r>
       <r>     2.5833     0.0000   448.0000 </r>
       <r>     2.6964     0.0000   448.0000 </r>
       <r>     2.8094     0.0000   448.0000 </r>
       <r>     2.9225     0.0000   448.0000 </r>
       <r>     3.0355     0.0000   448.0000 </r>
       <r>     3.1486     0.0000   448.0000 </r>
       <r>     3.2616     0.0000   448.0000 </r>
       <r>     3.3747     0.0000   448.0000 </r>
       <r>     3.4877     0.0000   448.0000 </r>
       <r>     3.6008     0.0000   448.0000 </r>
       <r>     3.7138     0.0000   448.0000 </r>
       <r>     3.8269     0.0000   448.0000 </r>
       <r>     3.9399     0.0000   448.0000 </r>
       <r>     4.0530     0.0000   448.0000 </r>
       <r>     4.1660     0.0000   448.0000 </r>
       <r>     4.2791     0.0000   448.0000 </r>
       <r>     4.3921     2.2111   448.2500 </r>
       <r>     4.5052     0.0000   448.2500 </r>
       <r>     4.6182     0.0000   448.2500 </r>
       <r>     4.7313     0.0000   448.2500 </r>
       <r>     4.8443     0.0000   448.2500 </r>
       <r>     4.9574     0.0000   448.2500 </r>
       <r>     5.0704    13.2628   449.7494 </r>
       <r>     5.1835     0.0036   449.7500 </r>
       <r>     5.2965     0.0000   449.7500 </r>
       <r>     5.4096     0.0000   449.7500 </r>
       <r>     5.5226     3.4620   450.1414 </r>
       <r>     5.6357    23.0749   452.7500 </r>
       <r>     5.7487     0.0000   452.7500 </r>
       <r>     5.8618    17.2667   454.7020 </r>
       <r>     5.9748     0.4246   454.7500 </r>
       <r>     6.0879     0.0000   454.7500 </r>
       <r>     6.2009     0.0000   454.7500 </r>
       <r>     6.3140     0.0016   454.7502 </r>
       <r>     6.4270    14.1957   456.3550 </r>
       <r>     6.5401     7.9164   457.2500 </r>
       <r>     6.6531    43.9835   462.2223 </r>
       <r>     6.7662    62.1311   469.2463 </r>
       <r>     6.8792    59.3287   475.9540 </r>
       <r>     6.9923    12.7383   477.3942 </r>
       <r>     7.1053     0.9357   477.5000 </r>
       <r>     7.2184     5.2568   478.0943 </r>
       <r>     7.3314     1.8137   478.2993 </r>
       <r>     7.4445    82.4941   487.6253 </r>
       <r>     7.5575   167.0814   506.5141 </r>
       <r>     7.6706     2.1171   506.7534 </r>
       <r>     7.7836    26.5067   509.7500 </r>
       <r>     7.8967     0.3230   509.7865 </r>
       <r>     8.0097    52.7508   515.7500 </r>
       <r>     8.1228     0.0112   515.7513 </r>
       <r>     8.2358    14.4422   517.3840 </r>
       <r>     8.3489    91.6889   527.7494 </r>
       <r>     8.4619     0.0021   527.7500 </r>
       <r>     8.5750   150.3706   544.7494 </r>
       <r>     8.6880     8.8480   545.7500 </r>
       <r>     8.8011     0.0000   545.7500 </r>
       <r>     8.9141    84.7089   555.3263 </r>
       <r>     9.0272   122.3291   569.1556 </r>
       <r>     9.1402     3.0461   569.5000 </r>
       <r>     9.2533    24.4393   572.2629 </r>
       <r>     9.3663    19.4547   574.4622 </r>
       <r>     9.4794     1.3469   574.6145 </r>
       <r>     9.5924    12.2557   576.0000 </r>
       <r>     9.7055     0.0000   576.0000 </r>
       <r>     9.8185     0.0000   576.0000 </r>
       <r>     9.9316     0.0000   576.0000 </r>
       <r>    10.0446     0.0000   576.0000 </r>
       <r>    10.1577     0.0000   576.0000 </r>
       <r>    10.2707     0.0000   576.0000 </r>
       <r>    10.3838     0.0000   576.0000 </r>
       <r>    10.4968     0.0000   576.0000 </r>
       <r>    10.6099     0.0000   576.0000 </r>
       <r>    10.7229     0.0000   576.0000 </r>
       <r>    10.8360     0.0000   576.0000 </r>
       <r>    10.9490     0.0000   576.0000 </r>
       <r>    11.0621     0.0000   576.0000 </r>
      </set>
     </set>
    </array>
   </total>
  </dos>
 </calculation>
 <structure name="finalpos" >
  <crystal>
   <varray name="basis" >
    <v>      11.20400236       0.00000000       0.00000000 </v>
    <v>       0.00000000      11.20400236       0.00000000 </v>
    <v>       0.00000000       0.00000000      11.20400236 </v>
   </varray>
   <i name="volume">   1406.43470641 </i>
   <varray name="rec_basis" >
    <v>       0.08925382       0.00000000       0.00000000 </v>
    <v>       0.00000000       0.08925382       0.00000000 </v>
    <v>       0.00000000       0.00000000       0.08925382 </v>
   </varray>
  </crystal>
  <varray name="positions" >
   <v>       0.00000000       0.00000000       0.00000000 </v>
   <v>       0.25000000       0.25000000       0.00000000 </v>
   <v>       0.25000000       0.00000000       0.25000000 </v>
   <v>       0.00000000       0.25000000       0.25000000 </v>
   <v>       0.00000000       0.00000000       0.50000000 </v>
   <v>       0.25000000       0.25000000       0.50000000 </v>
   <v>       0.25000000       0.00000000       0.75000000 </v>
   <v>       0.00000000       0.25000000       0.75000000 </v>
   <v>       0.00000000       0.50000000       0.00000000 </v>
   <v>       0.25000000       0.75000000       0.00000000 </v>
   <v>       0.25000000       0.50000000       0.25000000 </v>
   <v>       0.00000000       0.75000000       0.25000000 </v>
   <v>       0.00000000       0.50000000       0.50000000 </v>
   <v>       0.25000000       0.75000000       0.50000000 </v>
   <v>       0.25000000       0.50000000       0.75000000 </v>
   <v>       0.00000000       0.75000000       0.75000000 </v>
   <v>       0.50000000       0.00000000       0.00000000 </v>
   <v>       0.75000000       0.25000000       0.00000000 </v>
   <v>       0.75000000       0.00000000       0.25000000 </v>
   <v>       0.50000000       0.25000000       0.25000000 </v>
   <v>       0.50000000       0.00000000       0.50000000 </v>
   <v>       0.75000000       0.25000000       0.50000000 </v>
   <v>       0.75000000       0.00000000       0.75000000 </v>
   <v>       0.50000000       0.25000000       0.75000000 </v>
   <v>       0.50000000       0.50000000       0.00000000 </v>
   <v>       0.75000000       0.75000000       0.00000000 </v>
   <v>       0.75000000       0.50000000       0.25000000 </v>
   <v>       0.50000000       0.75000000       0.25000000 </v>
   <v>       0.50000000       0.50000000       0.50000000 </v>
   <v>       0.75000000       0.75000000       0.50000000 </v>
   <v>       0.75000000       0.50000000       0.75000000 </v>
   <v>       0.50000000       0.75000000       0.75000000 </v>
   <v>       0.25267761       0.25000000       0.25000000 </v>
   <v>       0.00000000       0.00267761       0.25000000 </v>
   <v>       0.00000000       0.25000000       0.00000000 </v>
   <v>       0.25000000       0.00000000       0.00000000 </v>
   <v>       0.25000000       0.25000000       0.75000000 </v>
   <v>       0.00000000       0.00000000       0.75000000 </v>
   <v>       0.00000000       0.25000000       0.50000000 </v>
   <v>       0.25000000       0.00000000       0.50000000 </v>
   <v>       0.25000000       0.75000000       0.25000000 </v>
   <v>       0.00000000       0.50000000       0.25000000 </v>
   <v>       0.00000000       0.75000000       0.00000000 </v>
   <v>       0.25000000       0.50000000       0.00000000 </v>
   <v>       0.25000000       0.75000000       0.75000000 </v>
   <v>       0.00000000       0.50000000       0.75000000 </v>
   <v>       0.00000000       0.75000000       0.50000000 </v>
   <v>       0.25000000       0.50000000       0.50000000 </v>
   <v>       0.75000000       0.25000000       0.25000000 </v>
   <v>       0.50000000       0.00000000       0.25000000 </v>
   <v>       0.50000000       0.25000000       0.00000000 </v>
   <v>       0.75000000       0.00000000       0.00000000 </v>
   <v>       0.75000000       0.25000000       0.75000000 </v>
   <v>       0.50000000       0.00000000       0.75000000 </v>
   <v>       0.50000000       0.25000000       0.50000000 </v>
   <v>       0.75000000       0.00000000       0.50000000 </v>
   <v>       0.75000000       0.75000000       0.25000000 </v>
   <v>       0.50000000       0.50000000       0.25000000 </v>
   <v>       0.50000000       0.75000000       0.00000000 </v>
   <v>       0.75000000       0.50000000       0.00000000 </v>
   <v>       0.75000000       0.75000000       0.75000000 </v>
   <v>       0.50000000       0.50000000       0.75000000 </v>
   <v>       0.50000000       0.75000000       0.50000000 </v>
   <v>       0.75000000       0.50000000       0.50000000 </v>
  </varray>
 </structure>
</modeling>
