  64  64   0   0
  0.2006348E+02  0.1086915E-08  0.1086915E-08  0.1086915E-08  0.5000000E-15
  1.000000000000000E-004
  CAR 
 unknown system                          
     10.10011962     -6.98197838  301      5.89365299      1.00000000
     -6.982  0.0000E+00  0.0000E+00
     -6.925  0.0000E+00  0.0000E+00
     -6.868  0.0000E+00  0.0000E+00
     -6.811  0.0000E+00  0.0000E+00
     -6.754  0.0000E+00  0.0000E+00
     -6.697  0.0000E+00  0.0000E+00
     -6.640  0.0000E+00  0.0000E+00
     -6.583  0.0000E+00  0.0000E+00
     -6.526  0.0000E+00  0.0000E+00
     -6.470  0.0000E+00  0.0000E+00
     -6.413  0.0000E+00  0.0000E+00
     -6.356  0.0000E+00  0.0000E+00
     -6.299  0.9755E-10  0.5555E-11
     -6.242  0.2283E-01  0.1300E-02
     -6.185  0.4053E+01  0.2321E+00
     -6.128  0.3143E+00  0.2500E+00
     -6.071  0.8804E-07  0.2500E+00
     -6.014  0.9211E-07  0.2500E+00
     -5.957  0.1015E+01  0.3078E+00
     -5.900  0.2501E+02  0.1732E+01
     -5.843  0.3179E+00  0.1750E+01
     -5.786  0.4514E-08  0.1750E+01
     -5.729  0.1075E-03  0.1750E+01
     -5.672  0.1455E+02  0.2579E+01
     -5.615  0.3812E+02  0.4749E+01
     -5.558  0.1646E-01  0.4750E+01
     -5.502  0.1554E-09  0.4750E+01
     -5.445  0.7545E-01  0.4754E+01
     -5.388  0.3048E+02  0.6490E+01
     -5.331  0.4564E+01  0.6750E+01
     -5.274  0.5273E-05  0.6750E+01
     -5.217  0.2735E-09  0.6750E+01
     -5.160  0.8904E-01  0.6755E+01
     -5.103  0.2364E+02  0.8101E+01
     -5.046  0.2614E+01  0.8250E+01
     -4.989  0.1654E-05  0.8250E+01
     -4.932  0.1866E-02  0.8250E+01
     -4.875  0.4553E+02  0.1084E+02
     -4.818  0.5983E+02  0.1425E+02
     -4.761  0.7527E-02  0.1425E+02
     -4.704  0.1337E-02  0.1425E+02
     -4.647  0.4308E+02  0.1670E+02
     -4.590  0.6229E+02  0.2025E+02
     -4.534  0.8741E-02  0.2025E+02
     -4.477  0.0000E+00  0.2025E+02
     -4.420  0.0000E+00  0.2025E+02
     -4.363  0.0000E+00  0.2025E+02
     -4.306  0.0000E+00  0.2025E+02
     -4.249  0.2340E-08  0.2025E+02
     -4.192  0.2781E+00  0.2027E+02
     -4.135  0.4813E+02  0.2301E+02
     -4.078  0.4286E+01  0.2325E+02
     -4.021  0.5747E+02  0.2652E+02
     -3.964  0.4790E+02  0.2925E+02
     -3.907  0.1124E-01  0.2925E+02
     -3.850  0.1349E+02  0.3002E+02
     -3.793  0.2534E+02  0.3146E+02
     -3.736  0.5067E+01  0.3175E+02
     -3.679  0.2511E-04  0.3175E+02
     -3.622  0.1216E+02  0.3244E+02
     -3.566  0.9293E+02  0.3773E+02
     -3.509  0.2176E+01  0.3786E+02
     -3.452  0.9955E+02  0.4353E+02
     -3.395  0.3925E+01  0.4375E+02
     -3.338  0.1354E+02  0.4452E+02
     -3.281  0.9160E+02  0.4974E+02
     -3.224  0.2264E+00  0.4975E+02
     -3.167  0.1354E-07  0.4975E+02
     -3.110  0.9859E+00  0.4981E+02
     -3.053  0.9895E+02  0.5544E+02
     -2.996  0.5442E+01  0.5575E+02
     -2.939  0.1017E-05  0.5575E+02
     -2.882  0.0000E+00  0.5575E+02
     -2.825  0.0000E+00  0.5575E+02
     -2.768  0.0000E+00  0.5575E+02
     -2.711  0.0000E+00  0.5575E+02
     -2.655  0.0000E+00  0.5575E+02
     -2.598  0.0000E+00  0.5575E+02
     -2.541  0.3314E-06  0.5575E+02
     -2.484  0.2430E+01  0.5589E+02
     -2.427  0.4972E+02  0.5872E+02
     -2.370  0.5335E+00  0.5875E+02
     -2.313  0.6602E-08  0.5875E+02
     -2.256  0.0000E+00  0.5875E+02
     -2.199  0.0000E+00  0.5875E+02
     -2.142  0.3434E-08  0.5875E+02
     -2.085  0.2648E+00  0.5877E+02
     -2.028  0.2483E+02  0.6018E+02
     -1.971  0.5463E+02  0.6329E+02
     -1.914  0.5273E+02  0.6629E+02
     -1.857  0.4989E+02  0.6913E+02
     -1.800  0.2053E+01  0.6925E+02
     -1.743  0.2575E-06  0.6925E+02
     -1.687  0.0000E+00  0.6925E+02
     -1.630  0.0000E+00  0.6925E+02
     -1.573  0.2708E-12  0.6925E+02
     -1.516  0.5029E-02  0.6925E+02
     -1.459  0.3204E+02  0.7107E+02
     -1.402  0.2064E+02  0.7225E+02
     -1.345  0.4851E-03  0.7225E+02
     -1.288  0.1557E-02  0.7225E+02
     -1.231  0.1058E+02  0.7285E+02
     -1.174  0.6981E+01  0.7325E+02
     -1.117  0.1743E-03  0.7325E+02
     -1.060  0.6627E+01  0.7363E+02
     -1.003  0.9801E+02  0.7921E+02
     -0.946  0.7315E+00  0.7925E+02
     -0.889  0.8092E-07  0.7925E+02
     -0.832  0.2073E+01  0.7937E+02
     -0.775  0.1005E+03  0.8509E+02
     -0.719  0.2827E+01  0.8525E+02
     -0.662  0.3356E+01  0.8544E+02
     -0.605  0.1963E+03  0.9662E+02
     -0.548  0.1112E+02  0.9725E+02
     -0.491  0.7393E-05  0.9725E+02
     -0.434  0.0000E+00  0.9725E+02
     -0.377  0.0000E+00  0.9725E+02
     -0.320  0.0000E+00  0.9725E+02
     -0.263  0.1071E-03  0.9725E+02
     -0.206  0.2360E+02  0.9859E+02
     -0.149  0.8171E+02  0.1032E+03
     -0.092  0.6485E-01  0.1032E+03
     -0.035  0.4712E-03  0.1033E+03
      0.022  0.1202E+02  0.1039E+03
      0.079  0.1433E+02  0.1047E+03
      0.136  0.1202E-02  0.1048E+03
      0.193  0.1087E-07  0.1048E+03
      0.249  0.6120E+00  0.1048E+03
      0.306  0.4976E+02  0.1076E+03
      0.363  0.2316E+01  0.1077E+03
      0.420  0.8980E-01  0.1078E+03
      0.477  0.8467E+02  0.1126E+03
      0.534  0.2062E+02  0.1137E+03
      0.591  0.6544E-04  0.1138E+03
      0.648  0.0000E+00  0.1138E+03
      0.705  0.0000E+00  0.1138E+03
      0.762  0.0000E+00  0.1138E+03
      0.819  0.0000E+00  0.1138E+03
      0.876  0.0000E+00  0.1138E+03
      0.933  0.0000E+00  0.1138E+03
      0.990  0.0000E+00  0.1138E+03
      1.047  0.0000E+00  0.1138E+03
      1.104  0.0000E+00  0.1138E+03
      1.160  0.0000E+00  0.1138E+03
      1.217  0.0000E+00  0.1138E+03
      1.274  0.0000E+00  0.1138E+03
      1.331  0.3759E-07  0.1138E+03
      1.388  0.1112E+01  0.1138E+03
      1.445  0.5264E+02  0.1168E+03
      1.502  0.1785E+03  0.1270E+03
      1.559  0.3119E+02  0.1287E+03
      1.616  0.2074E-03  0.1288E+03
      1.673  0.0000E+00  0.1288E+03
      1.730  0.1337E-08  0.1288E+03
      1.787  0.2106E+00  0.1288E+03
      1.844  0.3390E+02  0.1307E+03
      1.901  0.5270E+02  0.1337E+03
      1.958  0.8126E+01  0.1342E+03
      2.015  0.4546E+02  0.1367E+03
      2.072  0.9759E-01  0.1367E+03
      2.128  0.6402E-04  0.1368E+03
      2.185  0.1933E+02  0.1379E+03
      2.242  0.9292E+02  0.1431E+03
      2.299  0.1137E+03  0.1496E+03
      2.356  0.1299E+03  0.1570E+03
      2.413  0.9182E+02  0.1622E+03
      2.470  0.2031E+00  0.1622E+03
      2.527  0.2631E-09  0.1622E+03
      2.584  0.0000E+00  0.1622E+03
      2.641  0.0000E+00  0.1622E+03
      2.698  0.0000E+00  0.1622E+03
      2.755  0.0000E+00  0.1622E+03
      2.812  0.2789E-08  0.1623E+03
      2.869  0.2597E+00  0.1623E+03
      2.926  0.2489E+02  0.1637E+03
      2.983  0.5223E+02  0.1667E+03
      3.040  0.1442E+03  0.1749E+03
      3.096  0.6392E+02  0.1785E+03
      3.153  0.7438E+02  0.1827E+03
      3.210  0.8799E+02  0.1877E+03
      3.267  0.1022E+02  0.1883E+03
      3.324  0.1110E+03  0.1946E+03
      3.381  0.3689E+02  0.1967E+03
      3.438  0.1185E-01  0.1967E+03
      3.495  0.3581E-02  0.1968E+03
      3.552  0.5157E+02  0.1997E+03
      3.609  0.1481E+03  0.2081E+03
      3.666  0.1106E+02  0.2087E+03
      3.723  0.7447E-05  0.2088E+03
      3.780  0.3135E-07  0.2088E+03
      3.837  0.9470E+00  0.2088E+03
      3.894  0.5461E+02  0.2119E+03
      3.951  0.1013E+03  0.2177E+03
      4.008  0.1221E+01  0.2177E+03
      4.064  0.3563E-02  0.2178E+03
      4.121  0.3070E+02  0.2195E+03
      4.178  0.8680E+02  0.2244E+03
      4.235  0.4055E+02  0.2267E+03
      4.292  0.2897E+00  0.2268E+03
      4.349  0.9329E+02  0.2321E+03
      4.406  0.1337E+02  0.2328E+03
      4.463  0.7562E+02  0.2371E+03
      4.520  0.9763E+02  0.2427E+03
      4.577  0.3380E+02  0.2446E+03
      4.634  0.1092E+02  0.2452E+03
      4.691  0.1287E-03  0.2452E+03
      4.748  0.0000E+00  0.2452E+03
      4.805  0.0000E+00  0.2452E+03
      4.862  0.1182E-08  0.2453E+03
      4.919  0.2600E+00  0.2453E+03
      4.975  0.4930E+02  0.2481E+03
      5.032  0.7032E+02  0.2521E+03
      5.089  0.3055E+01  0.2522E+03
      5.146  0.6181E-06  0.2522E+03
      5.203  0.0000E+00  0.2522E+03
      5.260  0.0000E+00  0.2522E+03
      5.317  0.0000E+00  0.2522E+03
      5.374  0.2364E-11  0.2523E+03
      5.431  0.1447E-01  0.2523E+03
      5.488  0.3718E+02  0.2544E+03
      5.545  0.1550E+02  0.2552E+03
      5.602  0.1507E-03  0.2552E+03
      5.659  0.1219E-13  0.2552E+03
      5.716  0.5181E-03  0.2553E+03
      5.773  0.6841E+01  0.2556E+03
      5.830  0.6330E+01  0.2560E+03
      5.887  0.3432E-03  0.2560E+03
      5.943  0.0000E+00  0.2560E+03
      6.000  0.0000E+00  0.2560E+03
      6.057  0.0000E+00  0.2560E+03
      6.114  0.0000E+00  0.2560E+03
      6.171  0.2364E-12  0.2560E+03
      6.228  0.3570E-02  0.2560E+03
      6.285  0.1708E+02  0.2570E+03
      6.342  0.1051E+02  0.2576E+03
      6.399  0.2483E+02  0.2590E+03
      6.456  0.2545E+00  0.2590E+03
      6.513  0.2891E-08  0.2590E+03
      6.570  0.0000E+00  0.2590E+03
      6.627  0.0000E+00  0.2590E+03
      6.684  0.0000E+00  0.2590E+03
      6.741  0.2842E-04  0.2590E+03
      6.798  0.6077E+01  0.2593E+03
      6.855  0.3149E+02  0.2611E+03
      6.911  0.4143E+02  0.2635E+03
      6.968  0.3376E-01  0.2635E+03
      7.025  0.1095E-10  0.2635E+03
      7.082  0.1586E-10  0.2635E+03
      7.139  0.3588E-01  0.2635E+03
      7.196  0.8821E+02  0.2685E+03
      7.253  0.5985E+02  0.2719E+03
      7.310  0.1190E+01  0.2720E+03
      7.367  0.3004E-06  0.2720E+03
      7.424  0.0000E+00  0.2720E+03
      7.481  0.0000E+00  0.2720E+03
      7.538  0.2147E-08  0.2720E+03
      7.595  0.5182E+00  0.2720E+03
      7.652  0.1660E+03  0.2815E+03
      7.709  0.5717E+02  0.2847E+03
      7.766  0.4841E+02  0.2875E+03
      7.823  0.1029E+00  0.2875E+03
      7.879  0.1081E-02  0.2875E+03
      7.936  0.4213E+02  0.2899E+03
      7.993  0.6323E+02  0.2935E+03
      8.050  0.2671E+02  0.2950E+03
      8.107  0.7982E+02  0.2996E+03
      8.164  0.1450E+03  0.3078E+03
      8.221  0.1191E+02  0.3085E+03
      8.278  0.3379E+01  0.3087E+03
      8.335  0.1066E+03  0.3148E+03
      8.392  0.8607E+01  0.3152E+03
      8.449  0.3382E-05  0.3153E+03
      8.506  0.4991E-01  0.3153E+03
      8.563  0.7978E+02  0.3198E+03
      8.620  0.2554E+02  0.3212E+03
      8.677  0.1345E-03  0.3213E+03
      8.734  0.6196E+00  0.3213E+03
      8.790  0.1200E+03  0.3281E+03
      8.847  0.6362E+02  0.3317E+03
      8.904  0.1275E+00  0.3317E+03
      8.961  0.2539E-08  0.3318E+03
      9.018  0.1390E+00  0.3318E+03
      9.075  0.1243E+02  0.3325E+03
      9.132  0.6004E+00  0.3325E+03
      9.189  0.6079E-01  0.3325E+03
      9.246  0.3014E+02  0.3342E+03
      9.303  0.7381E+01  0.3346E+03
      9.360  0.2379E+02  0.3360E+03
      9.417  0.9780E-01  0.3360E+03
      9.474  0.3166E-09  0.3360E+03
      9.531  0.0000E+00  0.3360E+03
      9.588  0.0000E+00  0.3360E+03
      9.645  0.0000E+00  0.3360E+03
      9.702  0.0000E+00  0.3360E+03
      9.758  0.0000E+00  0.3360E+03
      9.815  0.0000E+00  0.3360E+03
      9.872  0.0000E+00  0.3360E+03
      9.929  0.0000E+00  0.3360E+03
      9.986  0.0000E+00  0.3360E+03
     10.043  0.0000E+00  0.3360E+03
     10.100  0.0000E+00  0.3360E+03
