 vasp.6.3.2 27Jun22 (build Oct 14 2022 12:13:54) complex                        
  
 executed on             LinuxIFC date 2023.04.03  14:51:44
 running on   32 total cores
 distrk:  each k-point on   32 cores,    1 groups
 distr:  one band on NCORE=   4 cores,    8 groups


--------------------------------------------------------------------------------------------------------


 INCAR:
   ADDGRID = True
   EDIFF = 1e-08
   ENCUT = 318
   GGA = Ps
   IALGO = 38
   IBRION = -1
   ISMEAR = 0
   LCHARG = False
   LREAL = False
   LWAVE = False
   NELMIN = 5
   NPAR = 8
   PREC = Accurate
   SIGMA = 0.02

 POTCAR:    PAW_PBE Si 05Jan2001                  
 POTCAR:    PAW_PBE Si 05Jan2001                  
   SHA256 =  79d9987ad8750f624c4d6acb2a16d13abf6a777132adc04dc6c8399be72b42bb Si/POTCAR             
   COPYR  = (c) Copyright 05Jan2001 Georg Kresse                                                    
   COPYR  = This file is part of the software VASP. Any use, copying, and all other rights are regul
   COPYR  = If you do not have a valid VASP license, you may not use, copy or distribute this file. 
   VRHFIN =Si: s2p2                                                                                 
   LEXCH  = PE                                                                                      
   EATOM  =   103.0669 eV,    7.5752 Ry                                                             
                                                                                                    
   TITEL  = PAW_PBE Si 05Jan2001                                                                    
   LULTRA =        F    use ultrasoft PP ?                                                          
   IUNSCR =        1    unscreen: 0-lin 1-nonlin 2-no                                               
   RPACOR =    1.500    partial core radius                                                         
   POMASS =   28.085; ZVAL   =    4.000    mass and valenz                                          
   RCORE  =    1.900    outmost cutoff radius                                                       
   RWIGS  =    2.480; RWIGS  =    1.312    wigner-seitz radius (au A)                               
   ENMAX  =  245.345; ENMIN  =  184.009 eV                                                          
   ICORE  =        2    local potential                                                             
   LCOR   =        T    correct aug charges                                                         
   LPAW   =        T    paw PP                                                                      
   EAUG   =  322.069                                                                                
   DEXC   =    0.000                                                                                
   RMAX   =    1.950    core radius for proj-oper                                                   
   RAUG   =    1.300    factor for augmentation sphere                                              
   RDEP   =    1.993    radius for radial grids                                                     
   RDEPT  =    1.837    core radius for aug-charge                                                  
                                                                                                    
   Atomic configuration                                                                             
    6 entries                                                                                       
     n  l   j            E        occ.                                                              
     1  0  0.50     -1785.8828   2.0000                                                             
     2  0  0.50      -139.4969   2.0000                                                             
     2  1  1.50       -95.5546   6.0000                                                             
     3  0  0.50       -10.8127   2.0000                                                             
     3  1  0.50        -4.0811   2.0000                                                             
     3  2  1.50        -4.0817   0.0000                                                             
   Description                                                                                      
     l       E           TYP  RCUT    TYP  RCUT                                                     
     0    -10.8127223     23  1.900                                                                 
     0     -7.6451159     23  1.900                                                                 
     1     -4.0811372     23  1.900                                                                 
     1      2.4879257     23  1.900                                                                 
     2     -4.0817478      7  1.900                                                                 
  local pseudopotential read in
  partial core-charges read in
  partial kinetic energy density read in
  atomic valenz-charges read in
  non local Contribution for L=           0  read in
    real space projection operators read in
  non local Contribution for L=           0  read in
    real space projection operators read in
  non local Contribution for L=           1  read in
    real space projection operators read in
  non local Contribution for L=           1  read in
    real space projection operators read in
    PAW grid and wavefunctions read in
 
   number of l-projection  operators is LMAX  =           4
   number of lm-projection operators is LMMAX =           8
 
 -----------------------------------------------------------------------------
|                                                                             |
|               ----> ADVICE to this user running VASP <----                  |
|                                                                             |
|     You have a (more or less) 'large supercell' and for larger cells it     |
|     might be more efficient to use real-space projection operators.         |
|     Therefore, try LREAL= Auto in the INCAR file.                           |
|     Mind: For very accurate calculation, you might also keep the            |
|     reciprocal projection scheme (i.e. LREAL=.FALSE.).                      |
|                                                                             |
 -----------------------------------------------------------------------------

 -----------------------------------------------------------------------------
|                                                                             |
|               ----> ADVICE to this user running VASP <----                  |
|                                                                             |
|     You enforced a specific xc type in the INCAR file but a different       |
|     type was found in the POTCAR file.                                      |
|     I HOPE YOU KNOW WHAT YOU ARE DOING!                                     |
|                                                                             |
 -----------------------------------------------------------------------------

  PAW_PBE Si 05Jan2001                  :
 energy of atom  1       EATOM= -103.0669
 kinetic energy error for atom=    0.0016 (will be added to EATOM!!)
 
 
 POSCAR: Si
  positions in cartesian coordinates
  No initial velocities read in
 exchange correlation table for  LEXCH =       14
   RHO(1)=    0.500       N(1)  =     2000
   RHO(2)=  100.500       N(2)  =     4000
 


--------------------------------------------------------------------------------------------------------


 ion  position               nearest neighbor table
   1  0.249  0.250  0.250-  49 2.35  57 2.35  33 2.36  41 2.36
   2  0.750  0.250  0.250-  34 2.35  42 2.35  50 2.35  58 2.35
   3  0.250  0.750  0.250-  35 2.35  43 2.35  51 2.35  59 2.35
   4  0.750  0.750  0.250-  36 2.35  44 2.35  52 2.35  60 2.35
   5  0.250  0.250  0.750-  37 2.35  45 2.35  53 2.35  61 2.35
   6  0.750  0.250  0.750-  38 2.35  46 2.35  54 2.35  62 2.35
   7  0.250  0.750  0.750-  39 2.35  47 2.35  55 2.35  63 2.35
   8  0.750  0.750  0.750-  40 2.35  48 2.35  56 2.35  64 2.35
   9  0.250  0.000  0.000-  39 2.35  41 2.35  51 2.35  61 2.35
  10  0.750  0.000  0.000-  40 2.35  42 2.35  52 2.35  62 2.35
  11  0.250  0.500  0.000-  37 2.35  43 2.35  49 2.35  63 2.35
  12  0.750  0.500  0.000-  38 2.35  44 2.35  50 2.35  64 2.35
  13  0.250  0.000  0.500-  35 2.35  45 2.35  55 2.35  57 2.35
  14  0.750  0.000  0.500-  36 2.35  46 2.35  56 2.35  58 2.35
  15  0.250  0.500  0.500-  33 2.35  47 2.35  53 2.35  59 2.35
  16  0.750  0.500  0.500-  34 2.35  48 2.35  54 2.35  60 2.35
  17  0.000  0.250  0.001-  42 2.35  49 2.35  38 2.36  61 2.36
  18  0.500  0.250  0.000-  37 2.35  41 2.35  50 2.35  62 2.35
  19  0.000  0.750  0.000-  40 2.35  44 2.35  51 2.35  63 2.35
  20  0.500  0.750  0.000-  39 2.35  43 2.35  52 2.35  64 2.35
  21  0.000  0.250  0.500-  34 2.35  46 2.35  53 2.35  57 2.35
  22  0.500  0.250  0.500-  33 2.35  45 2.35  54 2.35  58 2.35
  23  0.000  0.750  0.500-  36 2.35  48 2.35  55 2.35  59 2.35
  24  0.500  0.750  0.500-  35 2.35  47 2.35  56 2.35  60 2.35
  25  0.000  0.000  0.250-  36 2.35  42 2.35  51 2.35  57 2.35
  26  0.500  0.000  0.250-  35 2.35  41 2.35  52 2.35  58 2.35
  27  0.000  0.500  0.250-  34 2.35  44 2.35  49 2.35  59 2.35
  28  0.500  0.500  0.250-  33 2.35  43 2.35  50 2.35  60 2.35
  29  0.000  0.000  0.750-  40 2.35  46 2.35  55 2.35  61 2.35
  30  0.500  0.000  0.750-  39 2.35  45 2.35  56 2.35  62 2.35
  31  0.000  0.500  0.750-  38 2.35  48 2.35  53 2.35  63 2.35
  32  0.500  0.500  0.750-  37 2.35  47 2.35  54 2.35  64 2.35
  33  0.375  0.375  0.375-  15 2.35  22 2.35  28 2.35   1 2.36
  34  0.875  0.375  0.375-   2 2.35  16 2.35  21 2.35  27 2.35
  35  0.375  0.875  0.375-   3 2.35  13 2.35  24 2.35  26 2.35
  36  0.875  0.875  0.375-   4 2.35  14 2.35  23 2.35  25 2.35
  37  0.375  0.375  0.875-   5 2.35  11 2.35  18 2.35  32 2.35
  38  0.875  0.375  0.875-   6 2.35  12 2.35  31 2.35  17 2.36
  39  0.375  0.875  0.875-   7 2.35   9 2.35  20 2.35  30 2.35
  40  0.875  0.875  0.875-   8 2.35  10 2.35  19 2.35  29 2.35
  41  0.375  0.125  0.125-   9 2.35  18 2.35  26 2.35   1 2.36
  42  0.875  0.125  0.125-  17 2.35  10 2.35   2 2.35  25 2.35
  43  0.375  0.625  0.125-   3 2.35  11 2.35  20 2.35  28 2.35
  44  0.875  0.625  0.125-   4 2.35  12 2.35  19 2.35  27 2.35
  45  0.375  0.125  0.625-   5 2.35  13 2.35  22 2.35  30 2.35
  46  0.875  0.125  0.625-   6 2.35  14 2.35  21 2.35  29 2.35
  47  0.375  0.625  0.625-   7 2.35  15 2.35  24 2.35  32 2.35
  48  0.875  0.625  0.625-   8 2.35  16 2.35  23 2.35  31 2.35
  49  0.125  0.375  0.125-   1 2.35  17 2.35  11 2.35  27 2.35
  50  0.625  0.375  0.125-   2 2.35  12 2.35  18 2.35  28 2.35
  51  0.125  0.875  0.125-   3 2.35   9 2.35  19 2.35  25 2.35
  52  0.625  0.875  0.125-   4 2.35  10 2.35  20 2.35  26 2.35
  53  0.125  0.375  0.625-   5 2.35  15 2.35  21 2.35  31 2.35
  54  0.625  0.375  0.625-   6 2.35  16 2.35  22 2.35  32 2.35
  55  0.125  0.875  0.625-   7 2.35  13 2.35  23 2.35  29 2.35
  56  0.625  0.875  0.625-   8 2.35  14 2.35  24 2.35  30 2.35
  57  0.125  0.125  0.375-   1 2.35  13 2.35  21 2.35  25 2.35
  58  0.625  0.125  0.375-   2 2.35  14 2.35  22 2.35  26 2.35
  59  0.125  0.625  0.375-   3 2.35  15 2.35  23 2.35  27 2.35
  60  0.625  0.625  0.375-   4 2.35  16 2.35  24 2.35  28 2.35
  61  0.125  0.125  0.875-   5 2.35   9 2.35  29 2.35  17 2.36
  62  0.625  0.125  0.875-   6 2.35  10 2.35  18 2.35  30 2.35
  63  0.125  0.625  0.875-   7 2.35  11 2.35  19 2.35  31 2.35
  64  0.625  0.625  0.875-   8 2.35  12 2.35  20 2.35  32 2.35
 
  LATTYP: Found a simple cubic cell.
 ALAT       =    10.8691451200
  
  Lattice vectors:
  
 A1 = (  10.8691451200,  -0.0000000000,  -0.0000000000)
 A2 = (  -0.0000000000,  10.8691451200,   0.0000000000)
 A3 = (   0.0000000000,   0.0000000000,  10.8691451200)


Analysis of symmetry for initial positions (statically):
=====================================================================
 Subroutine PRICEL returns:
 Original cell was already a primitive cell.
 

 Routine SETGRP: Setting up the symmetry group for a 
 simple cubic supercell.


 Subroutine GETGRP returns: Found  2 space group operations
 (whereof  1 operations were pure point group operations)
 out of a pool of 48 trial point group operations.


The static configuration has the point symmetry C_1 .
 The point group associated with its full space group is C_1h.


Analysis of symmetry for dynamics (positions and initial velocities):
=====================================================================
 Subroutine PRICEL returns:
 Original cell was already a primitive cell.
 

 Routine SETGRP: Setting up the symmetry group for a 
 simple cubic supercell.


 Subroutine GETGRP returns: Found  2 space group operations
 (whereof  1 operations were pure point group operations)
 out of a pool of 48 trial point group operations.


The dynamic configuration has the point symmetry C_1 .
 The point group associated with its full space group is C_1h.


 Subroutine INISYM returns: Found  2 space group operations
 (whereof  1 operations are pure point group operations),
 and found     1 'primitive' translations


----------------------------------------------------------------------------------------

                                     Primitive cell                                     

  volume of cell :    1284.0625

  direct lattice vectors                    reciprocal lattice vectors
    10.869145120 -0.000000000 -0.000000000     0.092003556  0.000000000 -0.000000000
    -0.000000000 10.869145120  0.000000000     0.000000000  0.092003556 -0.000000000
     0.000000000  0.000000000 10.869145120     0.000000000 -0.000000000  0.092003556

  length of vectors
    10.869145120 10.869145120 10.869145120     0.092003556  0.092003556  0.092003556

  position of ions in fractional coordinates (direct lattice)
     0.249079964  0.250000000  0.250000000
     0.750000000  0.250000000  0.250000000
     0.250000000  0.750000000  0.250000000
     0.750000000  0.750000000  0.250000000
     0.250000000  0.250000000  0.750000000
     0.750000000  0.250000000  0.750000000
     0.250000000  0.750000000  0.750000000
     0.750000000  0.750000000  0.750000000
     0.250000000  1.000000000  1.000000000
     0.750000000  1.000000000  1.000000000
     0.250000000  0.500000000  0.000000000
     0.750000000  0.500000000  1.000000000
     0.250000000  0.000000000  0.500000000
     0.750000000  1.000000000  0.500000000
     0.250000000  0.500000000  0.500000000
     0.750000000  0.500000000  0.500000000
     1.000000000  0.250000000  0.000920036
     0.500000000  0.250000000  1.000000000
     1.000000000  0.750000000  0.000000000
     0.500000000  0.750000000  0.000000000
     0.000000000  0.250000000  0.500000000
     0.500000000  0.250000000  0.500000000
     1.000000000  0.750000000  0.500000000
     0.500000000  0.750000000  0.500000000
     0.000000000  0.000000000  0.250000000
     0.500000000  1.000000000  0.250000000
     1.000000000  0.500000000  0.250000000
     0.500000000  0.500000000  0.250000000
     0.000000000  0.000000000  0.750000000
     0.500000000  0.000000000  0.750000000
     0.000000000  0.500000000  0.750000000
     0.500000000  0.500000000  0.750000000
     0.375000000  0.375000000  0.375000000
     0.875000000  0.375000000  0.375000000
     0.375000000  0.875000000  0.375000000
     0.875000000  0.875000000  0.375000000
     0.375000000  0.375000000  0.875000000
     0.875000000  0.375000000  0.875000000
     0.375000000  0.875000000  0.875000000
     0.875000000  0.875000000  0.875000000
     0.375000000  0.125000000  0.125000000
     0.875000000  0.125000000  0.125000000
     0.375000000  0.625000000  0.125000000
     0.875000000  0.625000000  0.125000000
     0.375000000  0.125000000  0.625000000
     0.875000000  0.125000000  0.625000000
     0.375000000  0.625000000  0.625000000
     0.875000000  0.625000000  0.625000000
     0.125000000  0.375000000  0.125000000
     0.625000000  0.375000000  0.125000000
     0.125000000  0.875000000  0.125000000
     0.625000000  0.875000000  0.125000000
     0.125000000  0.375000000  0.625000000
     0.625000000  0.375000000  0.625000000
     0.125000000  0.875000000  0.625000000
     0.625000000  0.875000000  0.625000000
     0.125000000  0.125000000  0.375000000
     0.625000000  0.125000000  0.375000000
     0.125000000  0.625000000  0.375000000
     0.625000000  0.625000000  0.375000000
     0.125000000  0.125000000  0.875000000
     0.625000000  0.125000000  0.875000000
     0.125000000  0.625000000  0.875000000
     0.625000000  0.625000000  0.875000000

  ion indices of the primitive-cell ions
   primitive index   ion index
                 1           1
                 2           2
                 3           3
                 4           4
                 5           5
                 6           6
                 7           7
                 8           8
                 9           9
                10          10
                11          11
                12          12
                13          13
                14          14
                15          15
                16          16
                17          17
                18          18
                19          19
                20          20
                21          21
                22          22
                23          23
                24          24
                25          25
                26          26
                27          27
                28          28
                29          29
                30          30
                31          31
                32          32
                33          33
                34          34
                35          35
                36          36
                37          37
                38          38
                39          39
                40          40
                41          41
                42          42
                43          43
                44          44
                45          45
                46          46
                47          47
                48          48
                49          49
                50          50
                51          51
                52          52
                53          53
                54          54
                55          55
                56          56
                57          57
                58          58
                59          59
                60          60
                61          61
                62          62
                63          63
                64          64

----------------------------------------------------------------------------------------

 
 
 KPOINTS: KPOINTS created by Atomic Simulation Env

Automatic generation of k-mesh.
 Grid dimensions read from file:
 generate k-points for:    2    2    2

 Generating k-lattice:

  Cartesian coordinates                     Fractional coordinates (reciprocal lattice)
     0.046001778  0.000000000 -0.000000000     0.500000000 -0.000000000  0.000000000
     0.000000000  0.046001778 -0.000000000    -0.000000000  0.500000000  0.000000000
     0.000000000 -0.000000000  0.046001778    -0.000000000  0.000000000  0.500000000

  Length of vectors
     0.046001778  0.046001778  0.046001778

  Shift w.r.t. Gamma in fractional coordinates (k-lattice)
     0.000000000  0.000000000  0.000000000

 
 Subroutine IBZKPT returns following result:
 ===========================================
 
 Found      6 irreducible k-points:
 
 Following reciprocal coordinates:
            Coordinates               Weight
  0.000000  0.000000  0.000000      1.000000
  0.500000  0.000000  0.000000      2.000000
 -0.000000  0.500000  0.000000      1.000000
  0.500000  0.500000  0.000000      2.000000
  0.500000 -0.000000  0.500000      1.000000
  0.500000  0.500000  0.500000      1.000000
 
 Following cartesian coordinates:
            Coordinates               Weight
  0.000000  0.000000  0.000000      1.000000
  0.046002  0.000000  0.000000      2.000000
  0.000000  0.046002  0.000000      1.000000
  0.046002  0.046002  0.000000      2.000000
  0.046002  0.000000  0.046002      1.000000
  0.046002  0.046002  0.046002      1.000000
 


--------------------------------------------------------------------------------------------------------




 Dimension of arrays:
   k-points           NKPTS =      6   k-points in BZ     NKDIM =      6   number of bands    NBANDS=    168
   number of dos      NEDOS =    301   number of ions     NIONS =     64
   non local maximal  LDIM  =      4   non local SUM 2l+1 LMDIM =      8
   total plane-waves  NPLWV = 262144
   max r-space proj   IRMAX =      1   max aug-charges    IRDMAX=  54800
   dimension x,y,z NGX =    64 NGY =   64 NGZ =   64
   dimension x,y,z NGXF=   128 NGYF=  128 NGZF=  128
   support grid    NGXF=   256 NGYF=  256 NGZF=  256
   ions per type =              64
   NGX,Y,Z   is equivalent  to a cutoff of   9.79,  9.79,  9.79 a.u.
   NGXF,Y,Z  is equivalent  to a cutoff of  19.58, 19.58, 19.58 a.u.

 SYSTEM =  unknown system                          
 POSCAR =  Si                                      

 Startparameter for this run:
   NWRITE =      2    write-flag & timer
   PREC   = accura    normal or accurate (medium, high low for compatibility)
   ISTART =      0    job   : 0-new  1-cont  2-samecut
   ICHARG =      2    charge: 1-file 2-atom 10-const
   ISPIN  =      1    spin polarized calculation?
   LNONCOLLINEAR =      F non collinear calculations
   LSORBIT =      F    spin-orbit coupling
   INIWAV =      1    electr: 0-lowe 1-rand  2-diag
   LASPH  =      F    aspherical Exc in radial PAW
 Electronic Relaxation 1
   ENCUT  =  318.0 eV  23.37 Ry    4.83 a.u.  15.80 15.80 15.80*2*pi/ulx,y,z
   ENINI  =  318.0     initial cutoff
   ENAUG  =  322.1 eV  augmentation charge cutoff
   NELM   =     60;   NELMIN=  5; NELMDL= -5     # of ELM steps 
   EDIFF  = 0.1E-07   stopping-criterion for ELM
   LREAL  =      F    real-space projection
   NLSPLINE    = F    spline interpolate recip. space projectors
   LCOMPAT=      F    compatible to vasp.4.4
   GGA_COMPAT  = T    GGA compatible to vasp.4.4-vasp.4.6
   LMAXPAW     = -100 max onsite density
   LMAXMIX     =    2 max onsite mixed and CHGCAR
   VOSKOWN=      0    Vosko Wilk Nusair interpolation
   ROPT   =    0.00000
 Ionic relaxation
   EDIFFG = 0.1E-06   stopping-criterion for IOM
   NSW    =      0    number of steps for IOM
   NBLOCK =      1;   KBLOCK =      1    inner block; outer block 
   IBRION =     -1    ionic relax: 0-MD 1-quasi-New 2-CG
   NFREE  =      0    steps in history (QN), initial steepest desc. (CG)
   ISIF   =      2    stress and relaxation
   IWAVPR =     10    prediction:  0-non 1-charg 2-wave 3-comb
   ISYM   =      2    0-nonsym 1-usesym 2-fastsym
   LCORR  =      T    Harris-Foulkes like correction to forces

   POTIM  = 0.5000    time-step for ionic-motion
   TEIN   =    0.0    initial temperature
   TEBEG  =    0.0;   TEEND  =   0.0 temperature during run
   SMASS  =  -3.00    Nose mass-parameter (am)
   estimated Nose-frequenzy (Omega)   =  0.10E-29 period in steps = 0.13E+47 mass=  -0.270E-26a.u.
   SCALEE = 1.0000    scale energy and forces
   NPACO  =    256;   APACO  = 10.0  distance and # of slots for P.C.
   PSTRESS=    0.0 pullay stress

  Mass of Ions in am
   POMASS =  28.09
  Ionic Valenz
   ZVAL   =   4.00
  Atomic Wigner-Seitz radii
   RWIGS  =  -1.00
  virtual crystal weights 
   VCA    =   1.00
   NELECT =     256.0000    total number of electrons
   NUPDOWN=      -1.0000    fix difference up-down

 DOS related values:
   EMIN   =  10.00;   EMAX   =-10.00  energy-range for DOS
   EFERMI =   0.00
   ISMEAR =     0;   SIGMA  =   0.02  broadening in eV -4-tet -1-fermi 0-gaus

 Electronic relaxation 2 (details)
   IALGO  =     38    algorithm
   LDIAG  =      T    sub-space diagonalisation (order eigenvalues)
   LSUBROT=      F    optimize rotation matrix (better conditioning)
   TURBO    =      0    0=normal 1=particle mesh
   IRESTART =      0    0=no restart 2=restart with 2 vectors
   NREBOOT  =      0    no. of reboots
   NMIN     =      0    reboot dimension
   EREF     =   0.00    reference energy to select bands
   IMIX   =      4    mixing-type and parameters
     AMIX     =   0.40;   BMIX     =  1.00
     AMIX_MAG =   1.60;   BMIX_MAG =  1.00
     AMIN     =   0.10
     WC   =   100.;   INIMIX=   1;  MIXPRE=   1;  MAXMIX= -45

 Intra band minimization:
   WEIMIN = 0.0000     energy-eigenvalue tresh-hold
   EBREAK =  0.15E-10  absolut break condition
   DEPER  =   0.30     relativ break condition  

   TIME   =   0.40     timestep for ELM

  volume/ion in A,a.u.               =      20.06       135.40
  Fermi-wavevector in a.u.,A,eV,Ry     =   0.956370  1.807278 12.444490  0.914644
  Thomas-Fermi vector in A             =   2.085292
 
 Write flags
   LWAVE        =      F    write WAVECAR
   LDOWNSAMPLE  =      F    k-point downsampling of WAVECAR
   LCHARG       =      F    write CHGCAR
   LVTOT        =      F    write LOCPOT, total local potential
   LVHAR        =      F    write LOCPOT, Hartree potential only
   LELF         =      F    write electronic localiz. function (ELF)
   LORBIT       =      0    0 simple, 1 ext, 2 COOP (PROOUT), +10 PAW based schemes


 Dipole corrections
   LMONO  =      F    monopole corrections only (constant potential shift)
   LDIPOL =      F    correct potential (dipole corrections)
   IDIPOL =      0    1-x, 2-y, 3-z, 4-all directions 
   EPSILON=  1.0000000 bulk dielectric constant

 Exchange correlation treatment:
   GGA     =    PS    GGA type
   LEXCH   =    14    internal setting for exchange type
   LIBXC   =     F    Libxc                    
   VOSKOWN =     0    Vosko Wilk Nusair interpolation
   LHFCALC =     F    Hartree Fock is set to
   LHFONE  =     F    Hartree Fock one center treatment
   AEXX    =    0.0000 exact exchange contribution

 Linear response parameters
   LEPSILON=     F    determine dielectric tensor
   LRPA    =     F    only Hartree local field effects (RPA)
   LNABLA  =     F    use nabla operator in PAW spheres
   LVEL    =     F    velocity operator in full k-point grid
   CSHIFT  =0.1000    complex shift for real part using Kramers Kronig
   OMEGAMAX=  -1.0    maximum frequency
   DEG_THRESHOLD= 0.2000000E-02 threshold for treating states as degnerate
   RTIME   =   -0.100 relaxation time in fs
  (WPLASMAI=    0.000 imaginary part of plasma frequency in eV, 0.658/RTIME)
   DFIELD  = 0.0000000 0.0000000 0.0000000 field for delta impulse in time
 
  Optional k-point grid parameters
   LKPOINTS_OPT  =     F    use optional k-point grid
   KPOINTS_OPT_MODE=     1    mode for optional k-point grid
 
 Orbital magnetization related:
   ORBITALMAG=     F  switch on orbital magnetization
   LCHIMAG   =     F  perturbation theory with respect to B field
   DQ        =  0.001000  dq finite difference perturbation B field
   LLRAUG    =     F  two centre corrections for induced B field



--------------------------------------------------------------------------------------------------------


 Static calculation
 charge density and potential will be updated during run
 non-spin polarized calculation
 Variant of blocked Davidson
 Davidson routine will perform the subspace rotation
 perform sub-space diagonalisation
    after iterative eigenvector-optimisation
 modified Broyden-mixing scheme, WC =      100.0
 initial mixing is a Kerker type mixing with AMIX =  0.4000 and BMIX =      1.0000
 Hartree-type preconditioning will be used
 using additional bands           40
 reciprocal scheme for non local part
 use partial core corrections
 calculate Harris-corrections to forces 
   (improved forces if not selfconsistent)
 use gradient corrections 
 use of overlap-Matrix (Vanderbilt PP)
 Gauss-broadening in eV      SIGMA  =   0.02


--------------------------------------------------------------------------------------------------------


  energy-cutoff  :      318.00
  volume of cell :     1284.06
      direct lattice vectors                 reciprocal lattice vectors
    10.869145120 -0.000000000 -0.000000000     0.092003556  0.000000000 -0.000000000
    -0.000000000 10.869145120  0.000000000     0.000000000  0.092003556 -0.000000000
     0.000000000  0.000000000 10.869145120     0.000000000 -0.000000000  0.092003556

  length of vectors
    10.869145120 10.869145120 10.869145120     0.092003556  0.092003556  0.092003556


 
 k-points in units of 2pi/SCALE and weight: KPOINTS created by Atomic Simulation Env
   0.00000000  0.00000000  0.00000000       0.125
   0.04600178  0.00000000  0.00000000       0.250
   0.00000000  0.04600178  0.00000000       0.125
   0.04600178  0.04600178  0.00000000       0.250
   0.04600178  0.00000000  0.04600178       0.125
   0.04600178  0.04600178  0.04600178       0.125
 
 k-points in reciprocal lattice and weights: KPOINTS created by Atomic Simulation Env
   0.00000000  0.00000000  0.00000000       0.125
   0.50000000  0.00000000  0.00000000       0.250
  -0.00000000  0.50000000  0.00000000       0.125
   0.50000000  0.50000000  0.00000000       0.250
   0.50000000 -0.00000000  0.50000000       0.125
   0.50000000  0.50000000  0.50000000       0.125
 
 position of ions in fractional coordinates (direct lattice) 
   0.24907996  0.25000000  0.25000000
   0.75000000  0.25000000  0.25000000
   0.25000000  0.75000000  0.25000000
   0.75000000  0.75000000  0.25000000
   0.25000000  0.25000000  0.75000000
   0.75000000  0.25000000  0.75000000
   0.25000000  0.75000000  0.75000000
   0.75000000  0.75000000  0.75000000
   0.25000000  0.00000000  0.00000000
   0.75000000  0.00000000  0.00000000
   0.25000000  0.50000000  0.00000000
   0.75000000  0.50000000  0.00000000
   0.25000000  0.00000000  0.50000000
   0.75000000  0.00000000  0.50000000
   0.25000000  0.50000000  0.50000000
   0.75000000  0.50000000  0.50000000
   0.00000000  0.25000000  0.00092004
   0.50000000  0.25000000  0.00000000
   0.00000000  0.75000000  0.00000000
   0.50000000  0.75000000  0.00000000
   0.00000000  0.25000000  0.50000000
   0.50000000  0.25000000  0.50000000
   0.00000000  0.75000000  0.50000000
   0.50000000  0.75000000  0.50000000
   0.00000000  0.00000000  0.25000000
   0.50000000  0.00000000  0.25000000
   0.00000000  0.50000000  0.25000000
   0.50000000  0.50000000  0.25000000
   0.00000000  0.00000000  0.75000000
   0.50000000  0.00000000  0.75000000
   0.00000000  0.50000000  0.75000000
   0.50000000  0.50000000  0.75000000
   0.37500000  0.37500000  0.37500000
   0.87500000  0.37500000  0.37500000
   0.37500000  0.87500000  0.37500000
   0.87500000  0.87500000  0.37500000
   0.37500000  0.37500000  0.87500000
   0.87500000  0.37500000  0.87500000
   0.37500000  0.87500000  0.87500000
   0.87500000  0.87500000  0.87500000
   0.37500000  0.12500000  0.12500000
   0.87500000  0.12500000  0.12500000
   0.37500000  0.62500000  0.12500000
   0.87500000  0.62500000  0.12500000
   0.37500000  0.12500000  0.62500000
   0.87500000  0.12500000  0.62500000
   0.37500000  0.62500000  0.62500000
   0.87500000  0.62500000  0.62500000
   0.12500000  0.37500000  0.12500000
   0.62500000  0.37500000  0.12500000
   0.12500000  0.87500000  0.12500000
   0.62500000  0.87500000  0.12500000
   0.12500000  0.37500000  0.62500000
   0.62500000  0.37500000  0.62500000
   0.12500000  0.87500000  0.62500000
   0.62500000  0.87500000  0.62500000
   0.12500000  0.12500000  0.37500000
   0.62500000  0.12500000  0.37500000
   0.12500000  0.62500000  0.37500000
   0.62500000  0.62500000  0.37500000
   0.12500000  0.12500000  0.87500000
   0.62500000  0.12500000  0.87500000
   0.12500000  0.62500000  0.87500000
   0.62500000  0.62500000  0.87500000
 
 position of ions in cartesian coordinates  (Angst):
   2.70728628  2.71728628  2.71728628
   8.15185884  2.71728628  2.71728628
   2.71728628  8.15185884  2.71728628
   8.15185884  8.15185884  2.71728628
   2.71728628  2.71728628  8.15185884
   8.15185884  2.71728628  8.15185884
   2.71728628  8.15185884  8.15185884
   8.15185884  8.15185884  8.15185884
   2.71728628 -0.00000000 -0.00000000
   8.15185884 -0.00000000 -0.00000000
   2.71728628  5.43457256  0.00000000
   8.15185884  5.43457256 -0.00000000
   2.71728628  0.00000000  5.43457256
   8.15185884 -0.00000000  5.43457256
   2.71728628  5.43457256  5.43457256
   8.15185884  5.43457256  5.43457256
  -0.00000000  2.71728628  0.01000000
   5.43457256  2.71728628 -0.00000000
  -0.00000000  8.15185884  0.00000000
   5.43457256  8.15185884  0.00000000
   0.00000000  2.71728628  5.43457256
   5.43457256  2.71728628  5.43457256
  -0.00000000  8.15185884  5.43457256
   5.43457256  8.15185884  5.43457256
   0.00000000  0.00000000  2.71728628
   5.43457256 -0.00000000  2.71728628
  -0.00000000  5.43457256  2.71728628
   5.43457256  5.43457256  2.71728628
   0.00000000  0.00000000  8.15185884
   5.43457256  0.00000000  8.15185884
   0.00000000  5.43457256  8.15185884
   5.43457256  5.43457256  8.15185884
   4.07592942  4.07592942  4.07592942
   9.51050198  4.07592942  4.07592942
   4.07592942  9.51050198  4.07592942
   9.51050198  9.51050198  4.07592942
   4.07592942  4.07592942  9.51050198
   9.51050198  4.07592942  9.51050198
   4.07592942  9.51050198  9.51050198
   9.51050198  9.51050198  9.51050198
   4.07592942  1.35864314  1.35864314
   9.51050198  1.35864314  1.35864314
   4.07592942  6.79321570  1.35864314
   9.51050198  6.79321570  1.35864314
   4.07592942  1.35864314  6.79321570
   9.51050198  1.35864314  6.79321570
   4.07592942  6.79321570  6.79321570
   9.51050198  6.79321570  6.79321570
   1.35864314  4.07592942  1.35864314
   6.79321570  4.07592942  1.35864314
   1.35864314  9.51050198  1.35864314
   6.79321570  9.51050198  1.35864314
   1.35864314  4.07592942  6.79321570
   6.79321570  4.07592942  6.79321570
   1.35864314  9.51050198  6.79321570
   6.79321570  9.51050198  6.79321570
   1.35864314  1.35864314  4.07592942
   6.79321570  1.35864314  4.07592942
   1.35864314  6.79321570  4.07592942
   6.79321570  6.79321570  4.07592942
   1.35864314  1.35864314  9.51050198
   6.79321570  1.35864314  9.51050198
   1.35864314  6.79321570  9.51050198
   6.79321570  6.79321570  9.51050198
 


--------------------------------------------------------------------------------------------------------


 k-point   1 :   0.0000 0.0000 0.0000  plane waves:   16519
 k-point   2 :   0.5000 0.0000 0.0000  plane waves:   16488
 k-point   3 :  -0.0000 0.5000 0.0000  plane waves:   16488
 k-point   4 :   0.5000 0.5000 0.0000  plane waves:   16588
 k-point   5 :   0.5000-0.0000 0.5000  plane waves:   16588
 k-point   6 :   0.5000 0.5000 0.5000  plane waves:   16560

 maximum and minimum number of plane-waves per node :      4164     4106

 maximum number of plane-waves:     16588
 maximum index in each direction: 
   IXMAX=   15   IYMAX=   15   IZMAX=   15
   IXMIN=  -16   IYMIN=  -16   IZMIN=  -16


 parallel 3D FFT for wavefunctions:
    minimum data exchange during FFTs selected (reduces bandwidth)
 parallel 3D FFT for charge:
    minimum data exchange during FFTs selected (reduces bandwidth)


 total amount of memory used by VASP MPI-rank0    61966. kBytes
=======================================================================

   base      :      30000. kBytes
   nonl-proj :       5868. kBytes
   fftplans  :      11573. kBytes
   grid      :       5816. kBytes
   one-center:         49. kBytes
   wavefun   :       8660. kBytes
 
     INWAV:  cpu time      0.0000: real time      0.0000
 Broyden mixing: mesh for mixing (old mesh)
   NGX = 31   NGY = 31   NGZ = 31
  (NGX  =128   NGY  =128   NGZ  =128)
  gives a total of  29791 points

 initial charge density was supplied:
 charge density of overlapping atoms calculated
 number of electron     256.0000000 magnetization 
 keeping initial charge density in first step


--------------------------------------------------------------------------------------------------------


 Maximum index for augmentation-charges         1707 (set IRDMAX)


--------------------------------------------------------------------------------------------------------


 First call to EWALD:  gamma=   0.163
 Maximum number of real-space cells 3x 3x 3
 Maximum number of reciprocal cells 3x 3x 3

    FEWALD:  cpu time      0.0015: real time      0.0015


--------------------------------------- Iteration      1(   1)  ---------------------------------------


    POTLOK:  cpu time      0.0230: real time      0.0232
    SETDIJ:  cpu time      0.0225: real time      0.0227
     EDDAV:  cpu time      1.6676: real time      1.6760
       DOS:  cpu time      0.0006: real time      0.0006
    --------------------------------------------
      LOOP:  cpu time      1.7137: real time      1.7225

 eigenvalue-minimisations  :  2016
 total energy-change (2. order) : 0.4551178E+03  (-0.7274152E+04)
 number of electron     256.0000000 magnetization 
 augmentation part      256.0000000 magnetization 

 Free energy of the ion-electron system (eV)
  ---------------------------------------------------
  alpha Z        PSCENC =       107.38120932
  Ewald energy   TEWEN  =     -7307.87479886
  -Hartree energ DENC   =      -353.25145309
  -exchange      EXHF   =         0.00000000
  -V(xc)+E(xc)   XCENC  =      -558.85370365
  PAW double counting   =      5598.62625415    -4492.17844134
  entropy T*S    EENTRO =        -0.00591153
  eigenvalues    EBANDS =       896.50761246
  atomic energy  EATOM  =      6564.76702419
  Solvation  Ediel_sol  =         0.00000000
  ---------------------------------------------------
  free energy    TOTEN  =       455.11779164 eV

  energy without entropy =      455.12370317  energy(sigma->0) =      455.12074740


--------------------------------------------------------------------------------------------------------




--------------------------------------- Iteration      1(   2)  ---------------------------------------


     EDDAV:  cpu time      1.9191: real time      1.9303
       DOS:  cpu time      0.0002: real time      0.0002
    --------------------------------------------
      LOOP:  cpu time      1.9194: real time      1.9305

 eigenvalue-minimisations  :  2424
 total energy-change (2. order) :-0.7767609E+03  (-0.7329472E+03)
 number of electron     256.0000000 magnetization 
 augmentation part      256.0000000 magnetization 

 Free energy of the ion-electron system (eV)
  ---------------------------------------------------
  alpha Z        PSCENC =       107.38120932
  Ewald energy   TEWEN  =     -7307.87479886
  -Hartree energ DENC   =      -353.25145309
  -exchange      EXHF   =         0.00000000
  -V(xc)+E(xc)   XCENC  =      -558.85370365
  PAW double counting   =      5598.62625415    -4492.17844134
  entropy T*S    EENTRO =        -0.00000000
  eigenvalues    EBANDS =       119.74079818
  atomic energy  EATOM  =      6564.76702419
  Solvation  Ediel_sol  =         0.00000000
  ---------------------------------------------------
  free energy    TOTEN  =      -321.64311112 eV

  energy without entropy =     -321.64311112  energy(sigma->0) =     -321.64311112


--------------------------------------------------------------------------------------------------------




--------------------------------------- Iteration      1(   3)  ---------------------------------------


     EDDAV:  cpu time      1.9528: real time      1.9634
       DOS:  cpu time      0.0002: real time      0.0002
    --------------------------------------------
      LOOP:  cpu time      1.9530: real time      1.9636

 eigenvalue-minimisations  :  2480
 total energy-change (2. order) :-0.5179729E+02  (-0.5099117E+02)
 number of electron     256.0000000 magnetization 
 augmentation part      256.0000000 magnetization 

 Free energy of the ion-electron system (eV)
  ---------------------------------------------------
  alpha Z        PSCENC =       107.38120932
  Ewald energy   TEWEN  =     -7307.87479886
  -Hartree energ DENC   =      -353.25145309
  -exchange      EXHF   =         0.00000000
  -V(xc)+E(xc)   XCENC  =      -558.85370365
  PAW double counting   =      5598.62625415    -4492.17844134
  entropy T*S    EENTRO =        -0.00000000
  eigenvalues    EBANDS =        67.94351136
  atomic energy  EATOM  =      6564.76702419
  Solvation  Ediel_sol  =         0.00000000
  ---------------------------------------------------
  free energy    TOTEN  =      -373.44039794 eV

  energy without entropy =     -373.44039794  energy(sigma->0) =     -373.44039794


--------------------------------------------------------------------------------------------------------




--------------------------------------- Iteration      1(   4)  ---------------------------------------


     EDDAV:  cpu time      1.9165: real time      1.9269
       DOS:  cpu time      0.0002: real time      0.0002
    --------------------------------------------
      LOOP:  cpu time      1.9167: real time      1.9271

 eigenvalue-minimisations  :  2424
 total energy-change (2. order) :-0.1160806E+01  (-0.1152681E+01)
 number of electron     256.0000000 magnetization 
 augmentation part      256.0000000 magnetization 

 Free energy of the ion-electron system (eV)
  ---------------------------------------------------
  alpha Z        PSCENC =       107.38120932
  Ewald energy   TEWEN  =     -7307.87479886
  -Hartree energ DENC   =      -353.25145309
  -exchange      EXHF   =         0.00000000
  -V(xc)+E(xc)   XCENC  =      -558.85370365
  PAW double counting   =      5598.62625415    -4492.17844134
  entropy T*S    EENTRO =        -0.00000000
  eigenvalues    EBANDS =        66.78270548
  atomic energy  EATOM  =      6564.76702419
  Solvation  Ediel_sol  =         0.00000000
  ---------------------------------------------------
  free energy    TOTEN  =      -374.60120382 eV

  energy without entropy =     -374.60120382  energy(sigma->0) =     -374.60120382


--------------------------------------------------------------------------------------------------------




--------------------------------------- Iteration      1(   5)  ---------------------------------------


     EDDAV:  cpu time      1.8862: real time      1.8976
       DOS:  cpu time      0.0002: real time      0.0002
    CHARGE:  cpu time      0.0856: real time      0.0860
    MIXING:  cpu time      0.0013: real time      0.0013
    --------------------------------------------
      LOOP:  cpu time      1.9733: real time      1.9851

 eigenvalue-minimisations  :  2376
 total energy-change (2. order) :-0.3957390E-01  (-0.3952305E-01)
 number of electron     255.9999994 magnetization 
 augmentation part      -14.9588530 magnetization 

 Broyden mixing:
  rms(total) = 0.28467E+01    rms(broyden)= 0.28467E+01
  rms(prec ) = 0.31323E+01
  weight for this iteration     100.00

 Free energy of the ion-electron system (eV)
  ---------------------------------------------------
  alpha Z        PSCENC =       107.38120932
  Ewald energy   TEWEN  =     -7307.87479886
  -Hartree energ DENC   =      -353.25145309
  -exchange      EXHF   =         0.00000000
  -V(xc)+E(xc)   XCENC  =      -558.85370365
  PAW double counting   =      5598.62625415    -4492.17844134
  entropy T*S    EENTRO =        -0.00000000
  eigenvalues    EBANDS =        66.74313158
  atomic energy  EATOM  =      6564.76702419
  Solvation  Ediel_sol  =         0.00000000
  ---------------------------------------------------
  free energy    TOTEN  =      -374.64077771 eV

  energy without entropy =     -374.64077771  energy(sigma->0) =     -374.64077771


--------------------------------------------------------------------------------------------------------




--------------------------------------- Iteration      1(   6)  ---------------------------------------


    POTLOK:  cpu time      0.0227: real time      0.0229
    SETDIJ:  cpu time      0.0220: real time      0.0221
     EDDAV:  cpu time      1.8227: real time      1.8323
       DOS:  cpu time      0.0005: real time      0.0005
    CHARGE:  cpu time      0.0851: real time      0.0855
    MIXING:  cpu time      0.0015: real time      0.0015
    --------------------------------------------
      LOOP:  cpu time      1.9545: real time      1.9648

 eigenvalue-minimisations  :  2272
 total energy-change (2. order) : 0.4919130E+01  (-0.2590614E+00)
 number of electron     255.9999994 magnetization 
 augmentation part      -14.7997086 magnetization 

 Broyden mixing:
  rms(total) = 0.17163E+01    rms(broyden)= 0.17163E+01
  rms(prec ) = 0.18754E+01
  weight for this iteration     100.00

 eigenvalues of (default mixing * dielectric matrix)
  average eigenvalue GAMMA=   2.5108
  2.5108

 Free energy of the ion-electron system (eV)
  ---------------------------------------------------
  alpha Z        PSCENC =       107.38120932
  Ewald energy   TEWEN  =     -7307.87479886
  -Hartree energ DENC   =      -399.23486580
  -exchange      EXHF   =         0.00000000
  -V(xc)+E(xc)   XCENC  =      -551.57554727
  PAW double counting   =     12483.28812550   -11380.08574802
  entropy T*S    EENTRO =        -0.00000000
  eigenvalues    EBANDS =       113.61295355
  atomic energy  EATOM  =      6564.76702419
  Solvation  Ediel_sol  =         0.00000000
  ---------------------------------------------------
  free energy    TOTEN  =      -369.72164739 eV

  energy without entropy =     -369.72164739  energy(sigma->0) =     -369.72164739


--------------------------------------------------------------------------------------------------------




--------------------------------------- Iteration      1(   7)  ---------------------------------------


    POTLOK:  cpu time      0.0227: real time      0.0229
    SETDIJ:  cpu time      0.0220: real time      0.0221
     EDDAV:  cpu time      1.8088: real time      1.8184
       DOS:  cpu time      0.0002: real time      0.0002
    CHARGE:  cpu time      0.0843: real time      0.0847
    MIXING:  cpu time      0.0015: real time      0.0015
    --------------------------------------------
      LOOP:  cpu time      1.9395: real time      1.9498

 eigenvalue-minimisations  :  2256
 total energy-change (2. order) : 0.2231336E+01  (-0.5240091E+00)
 number of electron     255.9999994 magnetization 
 augmentation part      -14.5985684 magnetization 

 Broyden mixing:
  rms(total) = 0.99610E-01    rms(broyden)= 0.99610E-01
  rms(prec ) = 0.12385E+00
  weight for this iteration     100.00

 eigenvalues of (default mixing * dielectric matrix)
  average eigenvalue GAMMA=   2.2521
  2.2521  2.2521

 Free energy of the ion-electron system (eV)
  ---------------------------------------------------
  alpha Z        PSCENC =       107.38120932
  Ewald energy   TEWEN  =     -7307.87479886
  -Hartree energ DENC   =      -473.64687262
  -exchange      EXHF   =         0.00000000
  -V(xc)+E(xc)   XCENC  =      -539.13796845
  PAW double counting   =     29121.26075218   -28022.43007418
  entropy T*S    EENTRO =        -0.00000000
  eigenvalues    EBANDS =       182.19041682
  atomic energy  EATOM  =      6564.76702419
  Solvation  Ediel_sol  =         0.00000000
  ---------------------------------------------------
  free energy    TOTEN  =      -367.49031161 eV

  energy without entropy =     -367.49031161  energy(sigma->0) =     -367.49031161


--------------------------------------------------------------------------------------------------------




--------------------------------------- Iteration      1(   8)  ---------------------------------------


    POTLOK:  cpu time      0.0215: real time      0.0217
    SETDIJ:  cpu time      0.0225: real time      0.0226
     EDDAV:  cpu time      1.8427: real time      1.8526
       DOS:  cpu time      0.0002: real time      0.0002
    CHARGE:  cpu time      0.0851: real time      0.0855
    MIXING:  cpu time      0.0010: real time      0.0010
    --------------------------------------------
      LOOP:  cpu time      1.9730: real time      1.9836

 eigenvalue-minimisations  :  2304
 total energy-change (2. order) :-0.7179984E-02  (-0.2830891E-01)
 number of electron     255.9999994 magnetization 
 augmentation part      -14.6403632 magnetization 

 Broyden mixing:
  rms(total) = 0.35185E-01    rms(broyden)= 0.35184E-01
  rms(prec ) = 0.40524E-01
  weight for this iteration     100.00

 eigenvalues of (default mixing * dielectric matrix)
  average eigenvalue GAMMA=   2.4237
  2.8047  2.2331  2.2331

 Free energy of the ion-electron system (eV)
  ---------------------------------------------------
  alpha Z        PSCENC =       107.38120932
  Ewald energy   TEWEN  =     -7307.87479886
  -Hartree energ DENC   =      -466.68560272
  -exchange      EXHF   =         0.00000000
  -V(xc)+E(xc)   XCENC  =      -539.74293509
  PAW double counting   =     28623.76342633   -27524.13188331
  entropy T*S    EENTRO =        -0.00000000
  eigenvalues    EBANDS =       175.02606855
  atomic energy  EATOM  =      6564.76702419
  Solvation  Ediel_sol  =         0.00000000
  ---------------------------------------------------
  free energy    TOTEN  =      -367.49749159 eV

  energy without entropy =     -367.49749159  energy(sigma->0) =     -367.49749159


--------------------------------------------------------------------------------------------------------




--------------------------------------- Iteration      1(   9)  ---------------------------------------


    POTLOK:  cpu time      0.0216: real time      0.0218
    SETDIJ:  cpu time      0.0220: real time      0.0221
     EDDAV:  cpu time      1.9455: real time      1.9558
       DOS:  cpu time      0.0002: real time      0.0002
    CHARGE:  cpu time      0.0848: real time      0.0851
    MIXING:  cpu time      0.0010: real time      0.0010
    --------------------------------------------
      LOOP:  cpu time      2.0751: real time      2.0860

 eigenvalue-minimisations  :  2480
 total energy-change (2. order) :-0.1457977E-02  (-0.7236872E-03)
 number of electron     255.9999994 magnetization 
 augmentation part      -14.6409519 magnetization 

 Broyden mixing:
  rms(total) = 0.30937E-01    rms(broyden)= 0.30937E-01
  rms(prec ) = 0.32052E-01
  weight for this iteration     100.00

 eigenvalues of (default mixing * dielectric matrix)
  average eigenvalue GAMMA=   2.3579
  3.8051  2.3891  2.3891  0.8481

 Free energy of the ion-electron system (eV)
  ---------------------------------------------------
  alpha Z        PSCENC =       107.38120932
  Ewald energy   TEWEN  =     -7307.87479886
  -Hartree energ DENC   =      -468.63847940
  -exchange      EXHF   =         0.00000000
  -V(xc)+E(xc)   XCENC  =      -539.41525288
  PAW double counting   =     28767.36055843   -27667.83395804
  entropy T*S    EENTRO =        -0.00000000
  eigenvalues    EBANDS =       176.75474768
  atomic energy  EATOM  =      6564.76702419
  Solvation  Ediel_sol  =         0.00000000
  ---------------------------------------------------
  free energy    TOTEN  =      -367.49894957 eV

  energy without entropy =     -367.49894957  energy(sigma->0) =     -367.49894957


--------------------------------------------------------------------------------------------------------




--------------------------------------- Iteration      1(  10)  ---------------------------------------


    POTLOK:  cpu time      0.0214: real time      0.0216
    SETDIJ:  cpu time      0.0220: real time      0.0221
     EDDAV:  cpu time      1.7982: real time      1.8079
       DOS:  cpu time      0.0002: real time      0.0002
    CHARGE:  cpu time      0.0847: real time      0.0851
    MIXING:  cpu time      0.0016: real time      0.0016
    --------------------------------------------
      LOOP:  cpu time      1.9282: real time      1.9385

 eigenvalue-minimisations  :  2232
 total energy-change (2. order) :-0.8640063E-03  (-0.2089033E-03)
 number of electron     255.9999994 magnetization 
 augmentation part      -14.6429388 magnetization 

 Broyden mixing:
  rms(total) = 0.22647E-01    rms(broyden)= 0.22647E-01
  rms(prec ) = 0.22763E-01
  weight for this iteration     100.00

 eigenvalues of (default mixing * dielectric matrix)
  average eigenvalue GAMMA=   1.8663
  2.8562  2.2478  2.2478  0.9898  0.9898

 Free energy of the ion-electron system (eV)
  ---------------------------------------------------
  alpha Z        PSCENC =       107.38120932
  Ewald energy   TEWEN  =     -7307.87479886
  -Hartree energ DENC   =      -468.87723996
  -exchange      EXHF   =         0.00000000
  -V(xc)+E(xc)   XCENC  =      -539.34082898
  PAW double counting   =     28256.02093500   -27156.46300506
  entropy T*S    EENTRO =        -0.00000000
  eigenvalues    EBANDS =       176.88689077
  atomic energy  EATOM  =      6564.76702419
  Solvation  Ediel_sol  =         0.00000000
  ---------------------------------------------------
  free energy    TOTEN  =      -367.49981358 eV

  energy without entropy =     -367.49981358  energy(sigma->0) =     -367.49981358


--------------------------------------------------------------------------------------------------------




--------------------------------------- Iteration      1(  11)  ---------------------------------------


    POTLOK:  cpu time      0.0218: real time      0.0220
    SETDIJ:  cpu time      0.0221: real time      0.0222
     EDDAV:  cpu time      1.8569: real time      1.8669
       DOS:  cpu time      0.0005: real time      0.0005
    CHARGE:  cpu time      0.0843: real time      0.0847
    MIXING:  cpu time      0.0032: real time      0.0032
    --------------------------------------------
      LOOP:  cpu time      1.9889: real time      1.9995

 eigenvalue-minimisations  :  2320
 total energy-change (2. order) :-0.3578858E-04  (-0.8723263E-05)
 number of electron     255.9999994 magnetization 
 augmentation part      -14.6438062 magnetization 

 Broyden mixing:
  rms(total) = 0.95147E-03    rms(broyden)= 0.95145E-03
  rms(prec ) = 0.10432E-02
  weight for this iteration     100.00

 eigenvalues of (default mixing * dielectric matrix)
  average eigenvalue GAMMA=   1.7438
  2.8905  2.2549  2.2549  1.1563  1.1563  0.7502

 Free energy of the ion-electron system (eV)
  ---------------------------------------------------
  alpha Z        PSCENC =       107.38120932
  Ewald energy   TEWEN  =     -7307.87479886
  -Hartree energ DENC   =      -468.75119749
  -exchange      EXHF   =         0.00000000
  -V(xc)+E(xc)   XCENC  =      -539.35270989
  PAW double counting   =     28480.86784667   -27381.29799398
  entropy T*S    EENTRO =        -0.00000000
  eigenvalues    EBANDS =       176.76077067
  atomic energy  EATOM  =      6564.76702419
  Solvation  Ediel_sol  =         0.00000000
  ---------------------------------------------------
  free energy    TOTEN  =      -367.49984936 eV

  energy without entropy =     -367.49984936  energy(sigma->0) =     -367.49984936


--------------------------------------------------------------------------------------------------------




--------------------------------------- Iteration      1(  12)  ---------------------------------------


    POTLOK:  cpu time      0.0212: real time      0.0213
    SETDIJ:  cpu time      0.0221: real time      0.0222
     EDDAV:  cpu time      1.9171: real time      1.9277
       DOS:  cpu time      0.0002: real time      0.0002
    CHARGE:  cpu time      0.0842: real time      0.0846
    MIXING:  cpu time      0.0032: real time      0.0032
    --------------------------------------------
      LOOP:  cpu time      2.0480: real time      2.0592

 eigenvalue-minimisations  :  2424
 total energy-change (2. order) :-0.2406592E-05  (-0.3413636E-06)
 number of electron     255.9999994 magnetization 
 augmentation part      -14.6437002 magnetization 

 Broyden mixing:
  rms(total) = 0.80190E-03    rms(broyden)= 0.80190E-03
  rms(prec ) = 0.83266E-03
  weight for this iteration     100.00

 eigenvalues of (default mixing * dielectric matrix)
  average eigenvalue GAMMA=   1.8514
  2.9960  2.5052  2.5052  2.1824  0.9897  0.8906  0.8906

 Free energy of the ion-electron system (eV)
  ---------------------------------------------------
  alpha Z        PSCENC =       107.38120932
  Ewald energy   TEWEN  =     -7307.87479886
  -Hartree energ DENC   =      -468.78302127
  -exchange      EXHF   =         0.00000000
  -V(xc)+E(xc)   XCENC  =      -539.35103297
  PAW double counting   =     28481.40002806   -27381.82942081
  entropy T*S    EENTRO =        -0.00000000
  eigenvalues    EBANDS =       176.79016058
  atomic energy  EATOM  =      6564.76702419
  Solvation  Ediel_sol  =         0.00000000
  ---------------------------------------------------
  free energy    TOTEN  =      -367.49985177 eV

  energy without entropy =     -367.49985177  energy(sigma->0) =     -367.49985177


--------------------------------------------------------------------------------------------------------




--------------------------------------- Iteration      1(  13)  ---------------------------------------


    POTLOK:  cpu time      0.0210: real time      0.0212
    SETDIJ:  cpu time      0.0220: real time      0.0221
     EDDAV:  cpu time      1.8229: real time      1.8327
       DOS:  cpu time      0.0002: real time      0.0002
    CHARGE:  cpu time      0.0820: real time      0.0824
    MIXING:  cpu time      0.0029: real time      0.0029
    --------------------------------------------
      LOOP:  cpu time      1.9511: real time      1.9615

 eigenvalue-minimisations  :  2272
 total energy-change (2. order) : 0.9405485E-06  (-0.8226079E-07)
 number of electron     255.9999994 magnetization 
 augmentation part      -14.6436574 magnetization 

 Broyden mixing:
  rms(total) = 0.22376E-03    rms(broyden)= 0.22376E-03
  rms(prec ) = 0.23055E-03
  weight for this iteration     100.00

 eigenvalues of (default mixing * dielectric matrix)
  average eigenvalue GAMMA=   1.7711
  3.0642  2.6137  2.3444  2.2318  0.9585  0.9585  0.9987  0.9987

 Free energy of the ion-electron system (eV)
  ---------------------------------------------------
  alpha Z        PSCENC =       107.38120932
  Ewald energy   TEWEN  =     -7307.87479886
  -Hartree energ DENC   =      -468.78737969
  -exchange      EXHF   =         0.00000000
  -V(xc)+E(xc)   XCENC  =      -539.35321239
  PAW double counting   =     28476.82940459   -27377.25638142
  entropy T*S    EENTRO =        -0.00000000
  eigenvalues    EBANDS =       176.79428343
  atomic energy  EATOM  =      6564.76702419
  Solvation  Ediel_sol  =         0.00000000
  ---------------------------------------------------
  free energy    TOTEN  =      -367.49985083 eV

  energy without entropy =     -367.49985083  energy(sigma->0) =     -367.49985083


--------------------------------------------------------------------------------------------------------




--------------------------------------- Iteration      1(  14)  ---------------------------------------


    POTLOK:  cpu time      0.0221: real time      0.0223
    SETDIJ:  cpu time      0.0220: real time      0.0221
     EDDAV:  cpu time      1.6974: real time      1.7067
       DOS:  cpu time      0.0002: real time      0.0002
    CHARGE:  cpu time      0.0836: real time      0.0840
    MIXING:  cpu time      0.0031: real time      0.0031
    --------------------------------------------
      LOOP:  cpu time      1.8285: real time      1.8384

 eigenvalue-minimisations  :  2056
 total energy-change (2. order) : 0.2040342E-06  (-0.3531313E-08)
 number of electron     255.9999994 magnetization 
 augmentation part      -14.6436501 magnetization 

 Broyden mixing:
  rms(total) = 0.48286E-04    rms(broyden)= 0.48280E-04
  rms(prec ) = 0.50868E-04
  weight for this iteration     100.00

 eigenvalues of (default mixing * dielectric matrix)
  average eigenvalue GAMMA=   1.7648
  3.0687  2.4910  2.4910  2.1714  1.6186  1.2405  0.9887  0.9067  0.9067

 Free energy of the ion-electron system (eV)
  ---------------------------------------------------
  alpha Z        PSCENC =       107.38120932
  Ewald energy   TEWEN  =     -7307.87479886
  -Hartree energ DENC   =      -468.78710315
  -exchange      EXHF   =         0.00000000
  -V(xc)+E(xc)   XCENC  =      -539.35373133
  PAW double counting   =     28475.00095463   -27375.42766511
  entropy T*S    EENTRO =        -0.00000000
  eigenvalues    EBANDS =       176.79425969
  atomic energy  EATOM  =      6564.76702419
  Solvation  Ediel_sol  =         0.00000000
  ---------------------------------------------------
  free energy    TOTEN  =      -367.49985063 eV

  energy without entropy =     -367.49985063  energy(sigma->0) =     -367.49985063


--------------------------------------------------------------------------------------------------------




--------------------------------------- Iteration      1(  15)  ---------------------------------------


    POTLOK:  cpu time      0.0211: real time      0.0213
    SETDIJ:  cpu time      0.0219: real time      0.0220
     EDDAV:  cpu time      1.2848: real time      1.2915
       DOS:  cpu time      0.0002: real time      0.0002
    --------------------------------------------
      LOOP:  cpu time      1.3280: real time      1.3350

 eigenvalue-minimisations  :  1360
 total energy-change (2. order) : 0.6957634E-08  (-0.8655624E-09)
 number of electron     255.9999994 magnetization 
 augmentation part      -14.6436501 magnetization 

 Free energy of the ion-electron system (eV)
  ---------------------------------------------------
  alpha Z        PSCENC =       107.38120932
  Ewald energy   TEWEN  =     -7307.87479886
  -Hartree energ DENC   =      -468.78668477
  -exchange      EXHF   =         0.00000000
  -V(xc)+E(xc)   XCENC  =      -539.35377878
  PAW double counting   =     28474.93901335   -27375.36576560
  entropy T*S    EENTRO =        -0.00000000
  eigenvalues    EBANDS =       176.79393054
  atomic energy  EATOM  =      6564.76702419
  Solvation  Ediel_sol  =         0.00000000
  ---------------------------------------------------
  free energy    TOTEN  =      -367.49985062 eV

  energy without entropy =     -367.49985062  energy(sigma->0) =     -367.49985062


--------------------------------------------------------------------------------------------------------




 average (electrostatic) potential at core
  the test charge radii are     0.9892
  (the norm of the test charge is              1.0000)
       1 -83.0573       2 -83.0572       3 -83.0574       4 -83.0574       5 -83.0574
       6 -83.0574       7 -83.0572       8 -83.0572       9 -83.0531      10 -83.0597
      11 -83.0615      12 -83.0549      13 -83.0597      14 -83.0567      15 -83.0549
      16 -83.0579      17 -83.0573      18 -83.0574      19 -83.0574      20 -83.0572
      21 -83.0572      22 -83.0574      23 -83.0574      24 -83.0572      25 -83.0572
      26 -83.0575      27 -83.0572      28 -83.0575      29 -83.0575      30 -83.0571
      31 -83.0575      32 -83.0571      33 -83.0573      34 -83.0579      35 -83.0577
      36 -83.0568      37 -83.0577      38 -83.0573      39 -83.0547      40 -83.0577
      41 -83.0573      42 -83.0574      43 -83.0588      44 -83.0568      45 -83.0578
      46 -83.0567      47 -83.0559      48 -83.0577      49 -83.0569      50 -83.0568
      51 -83.0569      52 -83.0589      53 -83.0568      54 -83.0578      55 -83.0589
      56 -83.0570      57 -83.0574      58 -83.0567      59 -83.0568      60 -83.0577
      61 -83.0573      62 -83.0578      63 -83.0588      64 -83.0559
 
 
 
 E-fermi :   5.8937     XC(G=0):  -9.5445     alpha+bet :-11.9543

 Fermi energy:         5.8936529888

 k-point     1 :       0.0000    0.0000    0.0000
  band No.  band energies     occupation 
      1      -6.2055      2.00000
      2      -5.1245      2.00000
      3      -5.1219      2.00000
      4      -5.1217      2.00000
      5      -5.1208      2.00000
      6      -5.1201      2.00000
      7      -5.1187      2.00000
      8      -4.1616      2.00000
      9      -4.1569      2.00000
     10      -4.1567      2.00000
     11      -4.1553      2.00000
     12      -4.1552      2.00000
     13      -4.1551      2.00000
     14      -4.1550      2.00000
     15      -4.1548      2.00000
     16      -4.1538      2.00000
     17      -4.1537      2.00000
     18      -4.1519      2.00000
     19      -4.1505      2.00000
     20      -3.8624      2.00000
     21      -3.8606      2.00000
     22      -3.8606      2.00000
     23      -3.8588      2.00000
     24      -2.0542      2.00000
     25      -2.0542      2.00000
     26      -2.0520      2.00000
     27      -2.0519      2.00000
     28      -2.0498      2.00000
     29      -2.0497      2.00000
     30      -1.8876      2.00000
     31      -1.8872      2.00000
     32      -1.8843      2.00000
     33      -1.8831      2.00000
     34      -1.8830      2.00000
     35      -1.8827      2.00000
     36      -1.8826      2.00000
     37      -1.8824      2.00000
     38      -1.8817      2.00000
     39      -1.8797      2.00000
     40      -1.8795      2.00000
     41      -1.8787      2.00000
     42      -1.2366      2.00000
     43      -1.2347      2.00000
     44      -1.2347      2.00000
     45      -1.2328      2.00000
     46       0.2783      2.00000
     47       0.2786      2.00000
     48       0.2793      2.00000
     49       0.2816      2.00000
     50       0.2819      2.00000
     51       0.2819      2.00000
     52       0.2821      2.00000
     53       0.2822      2.00000
     54       0.2826      2.00000
     55       0.2840      2.00000
     56       0.2848      2.00000
     57       0.2860      2.00000
     58       1.8671      2.00000
     59       1.8701      2.00000
     60       1.8704      2.00000
     61       1.8705      2.00000
     62       1.8709      2.00000
     63       1.8712      2.00000
     64       1.8714      2.00000
     65       1.8717      2.00000
     66       1.8720      2.00000
     67       1.8721      2.00000
     68       1.8728      2.00000
     69       1.8738      2.00000
     70       1.9707      2.00000
     71       1.9714      2.00000
     72       1.9715      2.00000
     73       1.9727      2.00000
     74       1.9730      2.00000
     75       1.9733      2.00000
     76       1.9735      2.00000
     77       1.9739      2.00000
     78       1.9743      2.00000
     79       1.9744      2.00000
     80       1.9755      2.00000
     81       1.9757      2.00000
     82       2.2487      2.00000
     83       2.2501      2.00000
     84       2.2510      2.00000
     85       2.2515      2.00000
     86       2.2532      2.00000
     87       2.2542      2.00000
     88       2.9005      2.00000
     89       2.9016      2.00000
     90       2.9017      2.00000
     91       2.9017      2.00000
     92       2.9019      2.00000
     93       2.9030      2.00000
     94       3.8629      2.00000
     95       3.8634      2.00000
     96       3.8659      2.00000
     97       3.8662      2.00000
     98       3.8666      2.00000
     99       3.8666      2.00000
    100       3.8667      2.00000
    101       3.8668      2.00000
    102       3.8672      2.00000
    103       3.8675      2.00000
    104       3.8699      2.00000
    105       3.8704      2.00000
    106       4.4329      2.00000
    107       4.4339      2.00000
    108       4.4351      2.00000
    109       4.4363      2.00000
    110       4.4368      2.00000
    111       4.4368      2.00000
    112       4.4372      2.00000
    113       4.4376      2.00000
    114       4.4377      2.00000
    115       4.4388      2.00000
    116       4.4396      2.00000
    117       4.4414      2.00000
    118       4.5670      2.00000
    119       4.5676      2.00000
    120       4.5690      2.00000
    121       4.5697      2.00000
    122       4.5700      2.00000
    123       4.5707      2.00000
    124       4.5722      2.00000
    125       4.5729      2.00000
    126       5.7698      2.00000
    127       5.7720      2.00000
    128       5.7741      2.00000
    129       6.3634      0.00000
    130       6.3654      0.00000
    131       6.3657      0.00000
    132       6.3658      0.00000
    133       6.3662      0.00000
    134       6.3681      0.00000
    135       6.8058      0.00000
    136       6.8064      0.00000
    137       6.8079      0.00000
    138       6.8086      0.00000
    139       6.8096      0.00000
    140       6.8101      0.00000
    141       7.2316      0.00000
    142       7.2320      0.00000
    143       7.2320      0.00000
    144       7.2324      0.00000
    145       8.1343      0.00000
    146       8.1351      0.00000
    147       8.1358      0.00000
    148       8.1371      0.00000
    149       8.1376      0.00000
    150       8.1379      0.00000
    151       8.1381      0.00000
    152       8.1381      0.00000
    153       8.1397      0.00000
    154       8.1400      0.00000
    155       8.1404      0.00000
    156       8.1409      0.00000
    157       8.2877      0.00000
    158       8.2889      0.00000
    159       8.2902      0.00000
    160       8.7963      0.00000
    161       8.7975      0.00000
    162       8.7979      0.00000
    163       8.7979      0.00000
    164       8.7984      0.00000
    165       8.7996      0.00000
    166       9.0491      0.00000
    167       9.0508      0.00000
    168       9.0534      0.00000

 k-point     2 :       0.5000    0.0000    0.0000
  band No.  band energies     occupation 
      1      -5.9327      2.00000
      2      -5.9313      2.00000
      3      -4.8774      2.00000
      4      -4.8743      2.00000
      5      -4.8734      2.00000
      6      -4.8728      2.00000
      7      -4.8722      2.00000
      8      -4.8713      2.00000
      9      -4.8707      2.00000
     10      -4.8697      2.00000
     11      -4.0267      2.00000
     12      -4.0240      2.00000
     13      -4.0229      2.00000
     14      -4.0227      2.00000
     15      -4.0224      2.00000
     16      -4.0217      2.00000
     17      -4.0208      2.00000
     18      -4.0205      2.00000
     19      -3.8068      2.00000
     20      -3.8045      2.00000
     21      -3.0808      2.00000
     22      -3.0783      2.00000
     23      -3.0768      2.00000
     24      -3.0766      2.00000
     25      -3.0759      2.00000
     26      -3.0751      2.00000
     27      -3.0741      2.00000
     28      -3.0733      2.00000
     29      -1.9754      2.00000
     30      -1.9725      2.00000
     31      -1.9717      2.00000
     32      -1.9714      2.00000
     33      -1.9713      2.00000
     34      -1.9712      2.00000
     35      -1.9693      2.00000
     36      -1.9689      2.00000
     37      -0.8059      2.00000
     38      -0.8047      2.00000
     39      -0.8042      2.00000
     40      -0.8033      2.00000
     41      -0.8024      2.00000
     42      -0.8018      2.00000
     43      -0.8011      2.00000
     44      -0.8007      2.00000
     45      -0.6368      2.00000
     46      -0.6362      2.00000
     47      -0.6349      2.00000
     48      -0.6339      2.00000
     49      -0.6336      2.00000
     50      -0.6333      2.00000
     51      -0.6325      2.00000
     52      -0.6305      2.00000
     53       0.0225      2.00000
     54       0.0239      2.00000
     55       1.4703      2.00000
     56       1.4725      2.00000
     57       1.4727      2.00000
     58       1.4739      2.00000
     59       1.4745      2.00000
     60       1.4752      2.00000
     61       1.4762      2.00000
     62       1.4777      2.00000
     63       1.4906      2.00000
     64       1.4923      2.00000
     65       1.4927      2.00000
     66       1.4933      2.00000
     67       1.4936      2.00000
     68       1.4943      2.00000
     69       1.4954      2.00000
     70       1.4957      2.00000
     71       2.3167      2.00000
     72       2.3170      2.00000
     73       2.3176      2.00000
     74       2.3180      2.00000
     75       2.3184      2.00000
     76       2.3185      2.00000
     77       2.3191      2.00000
     78       2.3192      2.00000
     79       3.0220      2.00000
     80       3.0240      2.00000
     81       3.0241      2.00000
     82       3.0248      2.00000
     83       3.0250      2.00000
     84       3.0253      2.00000
     85       3.0256      2.00000
     86       3.0276      2.00000
     87       3.1465      2.00000
     88       3.1477      2.00000
     89       3.1484      2.00000
     90       3.1494      2.00000
     91       3.1566      2.00000
     92       3.1578      2.00000
     93       3.1586      2.00000
     94       3.1593      2.00000
     95       3.1597      2.00000
     96       3.1601      2.00000
     97       3.1604      2.00000
     98       3.1615      2.00000
     99       3.2834      2.00000
    100       3.2843      2.00000
    101       3.2851      2.00000
    102       3.2856      2.00000
    103       3.2861      2.00000
    104       3.2865      2.00000
    105       3.2871      2.00000
    106       3.2881      2.00000
    107       4.3293      2.00000
    108       4.3310      2.00000
    109       4.3312      2.00000
    110       4.3316      2.00000
    111       4.3320      2.00000
    112       4.3323      2.00000
    113       4.3326      2.00000
    114       4.3345      2.00000
    115       4.4329      2.00000
    116       4.4330      2.00000
    117       4.4963      2.00000
    118       4.4997      2.00000
    119       4.5008      2.00000
    120       4.5009      2.00000
    121       4.5010      2.00000
    122       4.5016      2.00000
    123       4.5020      2.00000
    124       4.5051      2.00000
    125       4.9528      2.00000
    126       4.9547      2.00000
    127       4.9557      2.00000
    128       4.9577      2.00000
    129       6.2790      0.00000
    130       6.2804      0.00000
    131       7.1933      0.00000
    132       7.1946      0.00000
    133       7.6434      0.00000
    134       7.6449      0.00000
    135       7.6450      0.00000
    136       7.6454      0.00000
    137       7.6456      0.00000
    138       7.6467      0.00000
    139       7.6473      0.00000
    140       7.6485      0.00000
    141       7.7139      0.00000
    142       7.7144      0.00000
    143       8.0571      0.00000
    144       8.0590      0.00000
    145       8.0591      0.00000
    146       8.0597      0.00000
    147       8.0598      0.00000
    148       8.0601      0.00000
    149       8.0604      0.00000
    150       8.0622      0.00000
    151       8.1435      0.00000
    152       8.1449      0.00000
    153       8.1451      0.00000
    154       8.1453      0.00000
    155       8.1460      0.00000
    156       8.1462      0.00000
    157       8.1465      0.00000
    158       8.1478      0.00000
    159       8.5502      0.00000
    160       8.5514      0.00000
    161       8.5517      0.00000
    162       8.5521      0.00000
    163       8.5536      0.00000
    164       8.5539      0.00000
    165       8.5542      0.00000
    166       8.5552      0.00000
    167       9.3199      0.00000
    168       9.3237      0.00000

 k-point     3 :      -0.0000    0.5000    0.0000
  band No.  band energies     occupation 
      1      -5.9320      2.00000
      2      -5.9320      2.00000
      3      -4.8778      2.00000
      4      -4.8743      2.00000
      5      -4.8735      2.00000
      6      -4.8729      2.00000
      7      -4.8726      2.00000
      8      -4.8720      2.00000
      9      -4.8712      2.00000
     10      -4.8677      2.00000
     11      -4.0267      2.00000
     12      -4.0230      2.00000
     13      -4.0227      2.00000
     14      -4.0227      2.00000
     15      -4.0227      2.00000
     16      -4.0227      2.00000
     17      -4.0224      2.00000
     18      -4.0187      2.00000
     19      -3.8057      2.00000
     20      -3.8057      2.00000
     21      -3.0796      2.00000
     22      -3.0781      2.00000
     23      -3.0778      2.00000
     24      -3.0767      2.00000
     25      -3.0761      2.00000
     26      -3.0750      2.00000
     27      -3.0747      2.00000
     28      -3.0732      2.00000
     29      -1.9758      2.00000
     30      -1.9718      2.00000
     31      -1.9715      2.00000
     32      -1.9715      2.00000
     33      -1.9715      2.00000
     34      -1.9714      2.00000
     35      -1.9711      2.00000
     36      -1.9671      2.00000
     37      -0.8061      2.00000
     38      -0.8059      2.00000
     39      -0.8045      2.00000
     40      -0.8032      2.00000
     41      -0.8028      2.00000
     42      -0.8016      2.00000
     43      -0.8002      2.00000
     44      -0.8000      2.00000
     45      -0.6374      2.00000
     46      -0.6350      2.00000
     47      -0.6340      2.00000
     48      -0.6340      2.00000
     49      -0.6340      2.00000
     50      -0.6340      2.00000
     51      -0.6329      2.00000
     52      -0.6304      2.00000
     53       0.0232      2.00000
     54       0.0232      2.00000
     55       1.4719      2.00000
     56       1.4720      2.00000
     57       1.4730      2.00000
     58       1.4740      2.00000
     59       1.4745      2.00000
     60       1.4751      2.00000
     61       1.4763      2.00000
     62       1.4764      2.00000
     63       1.4910      2.00000
     64       1.4926      2.00000
     65       1.4931      2.00000
     66       1.4934      2.00000
     67       1.4936      2.00000
     68       1.4936      2.00000
     69       1.4941      2.00000
     70       1.4960      2.00000
     71       2.3165      2.00000
     72       2.3167      2.00000
     73       2.3177      2.00000
     74       2.3179      2.00000
     75       2.3182      2.00000
     76       2.3184      2.00000
     77       2.3193      2.00000
     78       2.3196      2.00000
     79       3.0239      2.00000
     80       3.0240      2.00000
     81       3.0244      2.00000
     82       3.0245      2.00000
     83       3.0251      2.00000
     84       3.0252      2.00000
     85       3.0256      2.00000
     86       3.0257      2.00000
     87       3.1480      2.00000
     88       3.1480      2.00000
     89       3.1481      2.00000
     90       3.1481      2.00000
     91       3.1570      2.00000
     92       3.1576      2.00000
     93       3.1581      2.00000
     94       3.1590      2.00000
     95       3.1593      2.00000
     96       3.1603      2.00000
     97       3.1609      2.00000
     98       3.1614      2.00000
     99       3.2826      2.00000
    100       3.2846      2.00000
    101       3.2857      2.00000
    102       3.2857      2.00000
    103       3.2858      2.00000
    104       3.2858      2.00000
    105       3.2870      2.00000
    106       3.2889      2.00000
    107       4.3281      2.00000
    108       4.3285      2.00000
    109       4.3312      2.00000
    110       4.3314      2.00000
    111       4.3322      2.00000
    112       4.3325      2.00000
    113       4.3350      2.00000
    114       4.3354      2.00000
    115       4.4330      2.00000
    116       4.4331      2.00000
    117       4.4986      2.00000
    118       4.5008      2.00000
    119       4.5009      2.00000
    120       4.5009      2.00000
    121       4.5009      2.00000
    122       4.5009      2.00000
    123       4.5012      2.00000
    124       4.5032      2.00000
    125       4.9552      2.00000
    126       4.9552      2.00000
    127       4.9552      2.00000
    128       4.9553      2.00000
[...]
         0         1         2         3         4         5         6         7         8         9
 total charge-density along one line
 
 pseudopotential strength for first ion, spin component:           1
 18.404  25.676  -0.000  -0.000  -0.000  -0.000  -0.000  -0.000
 25.676  35.825  -0.000  -0.000  -0.000  -0.000  -0.000  -0.001
 -0.000  -0.000   4.177  -0.000   0.000   7.782  -0.000   0.000
 -0.000  -0.000  -0.000   4.177   0.000  -0.000   7.782   0.000
 -0.000  -0.000   0.000   0.000   4.177   0.000   0.000   7.782
 -0.000  -0.000   7.782  -0.000   0.000  14.509  -0.000   0.000
 -0.000  -0.000  -0.000   7.782   0.000  -0.000  14.509   0.000
 -0.000  -0.001   0.000   0.000   7.782   0.000   0.000  14.509
 total augmentation occupancy for first ion, spin component:           1
  5.948  -2.288  -0.000  -0.000  -0.019   0.000   0.000   0.006
 -2.288   0.989   0.000  -0.000   0.009  -0.000  -0.000  -0.003
 -0.000   0.000   3.001  -0.022   0.000  -0.682   0.006  -0.000
 -0.000  -0.000  -0.022   3.001  -0.000   0.006  -0.681   0.000
 -0.019   0.009   0.000  -0.000   3.000  -0.000   0.000  -0.681
  0.000  -0.000  -0.682   0.006  -0.000   0.164  -0.002   0.000
  0.000  -0.000   0.006  -0.681   0.000  -0.002   0.164  -0.000
  0.006  -0.003  -0.000   0.000  -0.681   0.000  -0.000   0.164


------------------------ aborting loop because EDIFF is reached ----------------------------------------


    CHARGE:  cpu time      0.0848: real time      0.0852
    FORLOC:  cpu time      0.0099: real time      0.0101
    FORNL :  cpu time      0.8248: real time      0.8278
    STRESS:  cpu time      1.6835: real time      1.6915
    FORCOR:  cpu time      0.0284: real time      0.0285
    FORHAR:  cpu time      0.0115: real time      0.0116
    MIXING:  cpu time      0.0009: real time      0.0009
    OFIELD:  cpu time      0.0000: real time      0.0000

  FORCE on cell =-STRESS in cart. coord.  units (eV):
  Direction    XX          YY          ZZ          XY          YZ          ZX
  --------------------------------------------------------------------------------------
  Alpha Z   107.38121   107.38121   107.38121
  Ewald   -2435.97667 -2435.96733 -2435.97667     0.78458    -0.78458     0.00067
  Hartree   156.26149   156.26338   156.26149     0.08694    -0.08694     0.00025
  E(xc)    -817.39782  -817.39795  -817.39782    -0.01015     0.01015     0.00000
  Local    -931.45714  -931.46790  -931.45714    -0.81826     0.81826    -0.00092
  n-local  2483.30719  2483.02635  2482.74158     0.16212    -0.16337    -0.00000
  augment  -368.16898  -368.16908  -368.16898    -0.00718     0.00718    -0.00000
  Kinetic  1807.67143  1806.30833  1804.94607    -0.10005     0.09966     0.00003
  Fock        0.00000     0.00000     0.00000     0.00000     0.00000     0.00000
  -------------------------------------------------------------------------------------
  Total      -0.02478    -0.02299    -0.02478     0.09881    -0.09881     0.00002
  in kB      -0.03092    -0.02868    -0.03092     0.12329    -0.12329     0.00003
  external pressure =       -0.03 kB  Pullay stress =        0.00 kB


 VOLUME and BASIS-vectors are now :
 -----------------------------------------------------------------------------
  energy-cutoff  :      318.00
  volume of cell :     1284.06
      direct lattice vectors                 reciprocal lattice vectors
    10.869145120 -0.000000000 -0.000000000     0.092003556  0.000000000 -0.000000000
    -0.000000000 10.869145120  0.000000000     0.000000000  0.092003556 -0.000000000
     0.000000000  0.000000000 10.869145120     0.000000000 -0.000000000  0.092003556

  length of vectors
    10.869145120 10.869145120 10.869145120     0.092003556  0.092003556  0.092003556


 FORCES acting on ions
    electron-ion (+dipol)            ewald-force                    non-local-force                 convergence-correction
 -----------------------------------------------------------------------------------------------
   -.577E+00 0.173E-02 -.303E-01   0.531E+00 -.622E-14 0.299E-01   0.181E+00 -.759E-03 0.226E-02   -.290E-05 -.114E-04 -.972E-05
   0.117E+00 -.171E-02 -.299E-01   -.118E+00 -.102E-13 0.296E-01   -.705E-03 0.768E-03 0.224E-02   -.796E-05 -.138E-04 -.172E-05
   -.269E-01 0.500E-03 -.588E-03   0.241E-01 -.107E-13 0.911E-03   0.164E-02 -.427E-03 0.821E-05   0.486E-05 0.510E-05 -.465E-05
   0.223E-01 -.512E-03 -.594E-03   -.200E-01 -.107E-13 0.911E-03   -.177E-02 0.426E-03 0.896E-05   0.929E-06 0.937E-05 0.203E-05
   0.349E-01 0.166E-02 -.301E-01   -.369E-01 -.622E-14 0.297E-01   -.342E-03 -.701E-03 0.222E-02   0.753E-05 -.157E-04 0.195E-05
   -.395E-01 -.165E-02 -.301E-01   0.411E-01 -.622E-14 0.297E-01   0.224E-03 0.727E-03 0.223E-02   -.113E-04 -.203E-04 -.203E-05
   0.857E-02 0.503E-03 -.678E-03   0.338E-02 -.622E-14 0.980E-03   -.744E-02 -.433E-03 0.151E-04   0.246E-04 0.788E-05 0.980E-05
   0.950E-03 -.516E-03 -.669E-03   -.285E-02 -.142E-13 0.980E-03   0.110E-02 0.427E-03 0.120E-04   -.231E-04 0.132E-04 0.446E-05
   -.312E-01 0.940E-02 0.312E-01   0.366E-01 0.212E-03 -.366E-01   -.179E-03 -.115E-01 0.179E-03   0.145E-04 0.129E-04 -.145E-04
   0.152E-01 -.502E-02 0.265E-01   -.206E-01 0.744E-04 -.368E-01   0.639E-02 0.581E-02 0.595E-02   -.769E-05 0.177E-04 -.168E-04
   -.216E-01 0.992E-02 0.216E-01   0.366E-01 -.212E-03 -.366E-01   -.117E-01 -.116E-01 0.117E-01   0.395E-05 -.100E-04 -.395E-05
   0.248E-01 -.480E-02 0.267E-01   -.206E-01 -.744E-04 -.368E-01   -.516E-02 0.574E-02 0.592E-02   -.100E-04 -.744E-05 -.118E-04
   -.265E-01 -.502E-02 -.152E-01   0.368E-01 0.744E-04 0.206E-01   -.595E-02 0.581E-02 -.639E-02   0.168E-04 0.177E-04 0.769E-05
   0.202E-01 0.219E-03 -.202E-01   -.207E-01 -.637E-04 0.207E-01   0.576E-03 -.156E-04 -.576E-03   -.134E-04 0.141E-04 0.134E-04
   -.267E-01 -.480E-02 -.248E-01   0.368E-01 -.744E-04 0.206E-01   -.592E-02 0.574E-02 0.516E-02   0.118E-04 -.744E-05 0.100E-04
   0.201E-01 0.106E-03 -.201E-01   -.207E-01 0.637E-04 0.207E-01   0.588E-03 -.266E-05 -.588E-03   -.922E-05 -.143E-04 0.922E-05
   0.303E-01 0.173E-02 0.577E+00   -.299E-01 -.111E-13 -.531E+00   -.226E-02 -.759E-03 -.181E+00   0.972E-05 -.114E-04 0.290E-05
   0.301E-01 0.166E-02 -.349E-01   -.297E-01 0.000E+00 0.369E-01   -.222E-02 -.701E-03 0.342E-03   -.195E-05 -.157E-04 -.753E-05
   0.588E-03 0.500E-03 0.269E-01   -.911E-03 -.577E-14 -.241E-01   -.821E-05 -.427E-03 -.164E-02   0.465E-05 0.510E-05 -.486E-05
   0.678E-03 0.503E-03 -.857E-02   -.980E-03 -.355E-14 -.338E-02   -.151E-04 -.433E-03 0.744E-02   -.980E-05 0.788E-05 -.246E-04
   0.299E-01 -.171E-02 -.117E+00   -.296E-01 -.755E-14 0.118E+00   -.224E-02 0.768E-03 0.705E-03   0.172E-05 -.138E-04 0.796E-05
   0.301E-01 -.165E-02 0.395E-01   -.297E-01 -.400E-14 -.411E-01   -.223E-02 0.727E-03 -.224E-03   0.203E-05 -.203E-04 0.113E-04
   0.594E-03 -.512E-03 -.223E-01   -.911E-03 -.131E-13 0.200E-01   -.896E-05 0.426E-03 0.177E-02   -.203E-05 0.937E-05 -.929E-06
   0.669E-03 -.516E-03 -.950E-03   -.980E-03 0.311E-14 0.285E-02   -.120E-04 0.427E-03 -.110E-02   -.446E-05 0.132E-04 0.231E-04
   0.282E-01 0.112E+00 -.282E-01   -.296E-01 -.113E+00 0.296E-01   -.148E-02 -.239E-02 0.148E-02   0.118E-05 0.193E-04 -.118E-05
   0.296E-01 -.496E-01 0.106E-02   -.297E-01 0.517E-01 0.911E-03   -.179E-02 0.370E-03 -.701E-03   -.516E-05 0.204E-04 0.291E-05
   0.316E-01 -.112E+00 -.316E-01   -.296E-01 0.113E+00 0.296E-01   -.299E-02 0.237E-02 0.299E-02   0.803E-05 -.150E-04 -.803E-05
   0.306E-01 0.497E-01 -.224E-02   -.297E-01 -.517E-01 0.911E-03   -.265E-02 -.381E-03 0.723E-03   -.403E-05 -.120E-04 -.513E-05
   -.106E-02 -.496E-01 -.296E-01   -.911E-03 0.517E-01 0.297E-01   0.701E-03 0.370E-03 0.179E-02   -.291E-05 0.204E-04 0.516E-05
   0.160E-03 -.121E-01 -.160E-03   -.980E-03 0.932E-02 0.980E-03   0.417E-03 0.160E-02 -.417E-03   -.195E-05 0.581E-05 0.195E-05
   0.224E-02 0.497E-01 -.306E-01   -.911E-03 -.517E-01 0.297E-01   -.723E-03 -.381E-03 0.265E-02   0.513E-05 -.120E-04 0.403E-05
   0.118E-02 0.121E-01 -.118E-02   -.980E-03 -.932E-02 0.980E-03   -.453E-03 -.161E-02 0.453E-03   -.139E-05 0.274E-05 0.139E-05
   0.177E-02 0.198E+00 0.186E+00   -.274E-03 -.172E+00 -.160E+00   -.335E-01 -.487E-01 -.479E-01   0.533E-05 -.208E-04 0.139E-05
   0.693E-01 -.349E-01 -.693E-01   -.692E-01 0.337E-01 0.692E-01   0.306E-03 0.551E-03 -.306E-03   -.495E-06 -.118E-04 0.495E-06
   -.152E-01 -.157E-01 -.236E-02   0.174E-01 0.142E-01 0.799E-03   -.146E-02 0.953E-03 0.960E-03   0.282E-05 0.187E-04 0.132E-04
   0.192E-01 0.177E-01 -.192E-01   -.186E-01 -.162E-01 0.186E-01   -.549E-03 -.189E-02 0.549E-03   -.426E-05 0.190E-04 0.426E-05
   0.491E-02 0.105E-01 -.491E-02   -.201E-02 -.134E-01 0.201E-02   -.205E-02 0.210E-02 0.205E-02   0.265E-05 -.689E-05 -.265E-05
   -.186E+00 0.198E+00 -.177E-02   0.160E+00 -.172E+00 0.274E-03   0.479E-01 -.487E-01 0.335E-01   -.139E-05 -.208E-04 -.533E-05
   -.128E-01 -.170E-02 0.128E-01   0.386E-02 0.725E-02 -.386E-02   0.714E-02 -.607E-02 -.714E-02   0.968E-05 0.132E-04 -.968E-05
   0.236E-02 -.157E-01 0.152E-01   -.799E-03 0.142E-01 -.174E-01   -.960E-03 0.953E-03 0.146E-02   -.132E-04 0.187E-04 -.282E-05
   -.722E-02 -.196E+00 -.188E+00   0.834E-02 0.169E+00 0.160E+00   -.336E-01 0.497E-01 0.499E-01   0.893E-06 0.311E-05 -.982E-05
   0.254E+00 0.220E+00 0.893E-02   -.229E+00 -.193E+00 -.102E-01   -.487E-01 -.496E-01 0.341E-01   0.240E-07 0.287E-05 -.937E-05
   -.138E-01 0.171E-01 0.850E-02   0.184E-01 -.132E-01 -.838E-03   -.430E-02 -.380E-02 -.515E-02   -.286E-05 -.244E-05 -.173E-04
   0.207E-01 -.267E-01 0.169E-01   -.217E-01 0.248E-01 -.186E-01   0.388E-03 0.171E-02 0.138E-02   0.102E-04 -.234E-05 -.395E-05
   -.423E-02 -.896E-02 0.241E-02   0.673E-02 0.103E-01 -.174E-02   -.221E-02 -.118E-02 -.123E-03   0.864E-05 -.708E-05 0.594E-05
   -.185E-02 -.135E-01 -.605E-01   0.166E-02 0.130E-01 0.603E-01   -.374E-03 0.382E-03 0.343E-03   -.101E-04 0.239E-05 0.952E-05
   -.115E-01 0.300E-02 -.679E-02   0.488E-02 -.623E-02 0.391E-02   0.430E-02 0.321E-02 0.294E-02   0.166E-04 0.502E-05 0.196E-04
   0.388E-02 0.659E-02 -.177E-01   -.389E-02 -.542E-02 0.177E-01   -.511E-04 -.111E-02 0.466E-03   -.124E-04 -.380E-05 0.788E-05
   -.194E+00 -.405E+00 0.194E+00   0.170E+00 0.353E+00 -.170E+00   0.149E-01 0.986E-01 -.149E-01   0.630E-05 -.149E-04 -.630E-05
   0.695E-01 0.121E-01 -.414E-02   -.689E-01 -.100E-01 0.174E-02   -.171E-03 -.132E-02 0.155E-02   -.111E-04 -.225E-04 -.481E-05
   -.184E-01 0.357E-01 0.184E-01   0.216E-01 -.335E-01 -.216E-01   -.233E-02 -.154E-02 0.233E-02   0.807E-05 0.115E-04 -.807E-05
   0.163E-01 -.793E-02 0.100E-01   -.187E-01 0.444E-02 -.393E-02   0.237E-02 0.394E-02 -.423E-02   -.908E-05 0.199E-04 -.181E-04
   0.414E-02 0.121E-01 -.695E-01   -.174E-02 -.100E-01 0.689E-01   -.155E-02 -.132E-02 0.171E-03   0.481E-05 -.225E-04 0.111E-04
   0.672E-02 0.745E-02 -.672E-02   -.700E-02 -.721E-02 0.700E-02   0.282E-03 0.270E-03 -.282E-03   -.910E-05 -.139E-04 0.910E-05
   -.100E-01 -.793E-02 -.163E-01   0.393E-02 0.444E-02 0.187E-01   0.423E-02 0.394E-02 -.237E-02   0.181E-04 0.199E-04 0.908E-05
   0.549E-02 -.432E-02 -.549E-02   -.493E-02 0.522E-02 0.493E-02   -.988E-04 -.373E-03 0.988E-04   -.142E-04 0.165E-04 0.142E-04
   -.893E-02 0.220E+00 -.254E+00   0.102E-01 -.193E+00 0.229E+00   -.341E-01 -.496E-01 0.487E-01   0.937E-05 0.287E-05 -.240E-07
   0.605E-01 -.135E-01 0.185E-02   -.603E-01 0.130E-01 -.166E-02   -.343E-03 0.382E-03 0.374E-03   -.952E-05 0.239E-05 0.101E-04
   -.169E-01 -.267E-01 -.207E-01   0.186E-01 0.248E-01 0.217E-01   -.138E-02 0.171E-02 -.388E-03   0.395E-05 -.234E-05 -.102E-04
   0.177E-01 0.659E-02 -.388E-02   -.177E-01 -.542E-02 0.389E-02   -.466E-03 -.111E-02 0.511E-04   -.788E-05 -.380E-05 0.124E-04
   0.188E+00 -.196E+00 0.722E-02   -.160E+00 0.169E+00 -.834E-02   -.499E-01 0.497E-01 0.336E-01   0.982E-05 0.311E-05 -.893E-06
   -.241E-02 -.896E-02 0.423E-02   0.174E-02 0.103E-01 -.673E-02   0.123E-03 -.118E-02 0.221E-02   -.594E-05 -.708E-05 -.864E-05
   -.850E-02 0.171E-01 0.138E-01   0.838E-03 -.132E-01 -.184E-01   0.515E-02 -.380E-02 0.430E-02   0.173E-04 -.244E-05 0.286E-05
   0.679E-02 0.300E-02 0.115E-01   -.391E-02 -.623E-02 -.488E-02   -.294E-02 0.321E-02 -.430E-02   -.196E-04 0.502E-05 -.166E-04
 -----------------------------------------------------------------------------------------------
   -.299E-04 -.705E-05 0.299E-04   -.225E-13 -.187E-13 0.253E-13   0.209E-04 0.364E-05 -.209E-04   0.153E-05 0.766E-06 -.153E-05
 
 
 POSITION                                       TOTAL-FORCE (eV/Angst)
 -----------------------------------------------------------------------------------
      2.70729      2.71729      2.71729         0.134013      0.000960      0.001895
      8.15186      2.71729      2.71729        -0.002046     -0.000955      0.001876
      2.71729      8.15186      2.71729        -0.001082      0.000078      0.000326
      8.15186      8.15186      2.71729         0.000553     -0.000076      0.000328
      2.71729      2.71729      8.15186        -0.002332      0.000942      0.001860
      8.15186      2.71729      8.15186         0.001804     -0.000941      0.001859
      2.71729      8.15186      8.15186         0.004532      0.000078      0.000327
      8.15186      8.15186      8.15186        -0.000830     -0.000076      0.000327
      2.71729     -0.00000     -0.00000         0.005209     -0.001880     -0.005209
      8.15186     -0.00000     -0.00000         0.000990      0.000878     -0.004355
      2.71729      5.43457      0.00000         0.003325     -0.001900     -0.003325
      8.15186      5.43457     -0.00000        -0.000904      0.000864     -0.004192
      2.71729      0.00000      5.43457         0.004355      0.000878     -0.000990
      8.15186     -0.00000      5.43457         0.000115      0.000154     -0.000115
      2.71729      5.43457      5.43457         0.004192      0.000864      0.000904
      8.15186      5.43457      5.43457        -0.000041      0.000153      0.000041
     -0.00000      2.71729      0.01000        -0.001895      0.000960     -0.134013
      5.43457      2.71729     -0.00000        -0.001860      0.000942      0.002332
     -0.00000      8.15186      0.00000        -0.000326      0.000078      0.001082
      5.43457      8.15186      0.00000        -0.000327      0.000078     -0.004532
      0.00000      2.71729      5.43457        -0.001876     -0.000955      0.002046
      5.43457      2.71729      5.43457        -0.001859     -0.000941     -0.001804
     -0.00000      8.15186      5.43457        -0.000328     -0.000076     -0.000553
      5.43457      8.15186      5.43457        -0.000327     -0.000076      0.000830
      0.00000      0.00000      2.71729        -0.002830     -0.003729      0.002830
      5.43457     -0.00000      2.71729        -0.001937      0.002456      0.001270
     -0.00000      5.43457      2.71729        -0.000927      0.003731      0.000927
      5.43457      5.43457      2.71729        -0.001784     -0.002454     -0.000615
      0.00000      0.00000      8.15186        -0.001270      0.002456      0.001937
      5.43457      0.00000      8.15186        -0.000404     -0.001206      0.000404
      0.00000      5.43457      8.15186         0.000615     -0.002454      0.001784
      5.43457      5.43457      8.15186        -0.000250      0.001206      0.000250
      4.07593      4.07593      4.07593        -0.031963     -0.022661     -0.022176
      9.51050      4.07593      4.07593         0.000428     -0.000682     -0.000428
      4.07593      9.51050      4.07593         0.000781     -0.000607     -0.000588
      9.51050      9.51050      4.07593         0.000032     -0.000430     -0.000032
      4.07593      4.07593      9.51050         0.000850     -0.000820     -0.000850
      9.51050      4.07593      9.51050         0.022176     -0.022661      0.031963
      4.07593      9.51050      9.51050        -0.001826     -0.000504      0.001826
      9.51050      9.51050      9.51050         0.000588     -0.000607     -0.000781
      4.07593      1.35864      1.35864        -0.032526      0.021991      0.021880
      9.51050      1.35864      1.35864        -0.022916     -0.022663      0.032828
      4.07593      6.79322      1.35864         0.000258      0.000085      0.002497
      9.51050      6.79322      1.35864        -0.000630     -0.000128     -0.000262
      4.07593      1.35864      6.79322         0.000299      0.000160      0.000558
      9.51050      1.35864      6.79322        -0.000566     -0.000086      0.000128
      4.07593      6.79322      6.79322        -0.002351     -0.000019      0.000074
      9.51050      6.79322      6.79322        -0.000072      0.000057      0.000489
      1.35864      4.07593      1.35864        -0.009482      0.045991      0.009482
      6.79322      4.07593      1.35864         0.000431      0.000747     -0.000857
      1.35864      9.51050      1.35864         0.000923      0.000688     -0.000923
      6.79322      9.51050      1.35864         0.000034      0.000466      0.001837
      1.35864      4.07593      6.79322         0.000857      0.000747     -0.000431
      6.79322      4.07593      6.79322        -0.000007      0.000496      0.000007
      1.35864      9.51050      6.79322        -0.001837      0.000466     -0.000034
      6.79322      9.51050      6.79322         0.000448      0.000543     -0.000448
      1.35864      1.35864      4.07593        -0.032828     -0.022663      0.022916
      6.79322      1.35864      4.07593        -0.000128     -0.000086      0.000566
      1.35864      6.79322      4.07593         0.000262     -0.000128      0.000630
      6.79322      6.79322      4.07593        -0.000489      0.000057      0.000072
      1.35864      1.35864      9.51050        -0.021880      0.021991      0.032526
      6.79322      1.35864      9.51050        -0.000558      0.000160     -0.000299
      1.35864      6.79322      9.51050        -0.002497      0.000085     -0.000258
      6.79322      6.79322      9.51050        -0.000074     -0.000019      0.002351
 -----------------------------------------------------------------------------------
    total drift:                               -0.000007     -0.000003      0.000007


--------------------------------------------------------------------------------------------------------



  FREE ENERGIE OF THE ION-ELECTRON SYSTEM (eV)
  ---------------------------------------------------
  free  energy   TOTEN  =      -367.49985062 eV

  energy  without entropy=     -367.49985062  energy(sigma->0) =     -367.49985062
 


--------------------------------------------------------------------------------------------------------


    POTLOK:  cpu time      0.0424: real time      0.0430


--------------------------------------------------------------------------------------------------------


     LOOP+:  cpu time     31.2045: real time     31.3787
    4ORBIT:  cpu time      0.0000: real time      0.0000

 total amount of memory used by VASP MPI-rank0    61966. kBytes
=======================================================================

   base      :      30000. kBytes
   nonl-proj :       5868. kBytes
   fftplans  :      11573. kBytes
   grid      :       5816. kBytes
   one-center:         49. kBytes
   wavefun   :       8660. kBytes
 
  
  
 General timing and accounting informations for this job:
 ========================================================
  
                  Total CPU time used (sec):       32.915
                            User time (sec):       32.054
                          System time (sec):        0.861
                         Elapsed time (sec):       33.269
  
                   Maximum memory used (kb):      222684.
                   Average memory used (kb):          N/A
  
                          Minor page faults:        91213
                          Major page faults:            0
                 Voluntary context switches:          772
