 running on   32 total cores
 distrk:  each k-point on   32 cores,    1 groups
 distr:  one band on    4 cores,    8 groups
 vasp.6.3.2 27Jun22 (build Oct 14 2022 12:13:54) complex                        
  
 POSCAR found type information on POSCAR Si
 POSCAR found :  1 types and      64 ions
 scaLAPACK will be used
 -----------------------------------------------------------------------------
|                                                                             |
|               ----> ADVICE to this user running VASP <----                  |
|                                                                             |
|     You have a (more or less) 'large supercell' and for larger cells it     |
|     might be more efficient to use real-space projection operators.         |
|     Therefore, try LREAL= Auto in the INCAR file.                           |
|     Mind: For very accurate calculation, you might also keep the            |
|     reciprocal projection scheme (i.e. LREAL=.FALSE.).                      |
|                                                                             |
 -----------------------------------------------------------------------------

 -----------------------------------------------------------------------------
|                                                                             |
|               ----> ADVICE to this user running VASP <----                  |
|                                                                             |
|     You enforced a specific xc type in the INCAR file but a different       |
|     type was found in the POTCAR file.                                      |
|     I HOPE YOU KNOW WHAT YOU ARE DOING!                                     |
|                                                                             |
 -----------------------------------------------------------------------------

 LDA part: xc-table for Pade appr. of Perdew
 POSCAR, INCAR and KPOINTS ok, starting setup
 FFT: planning ... GRIDC
 FFT: planning ... GRID_SOFT
 FFT: planning ... GRID
 WAVECAR not read
 entering main loop
       N       E                     dE             d eps       ncg     rms          rms(c)
DAV:   1     0.455117791638E+03    0.45512E+03   -0.72742E+04  2016   0.852E+02
DAV:   2    -0.321643111117E+03   -0.77676E+03   -0.73295E+03  2424   0.156E+02
DAV:   3    -0.373440397937E+03   -0.51797E+02   -0.50991E+02  2480   0.368E+01
DAV:   4    -0.374601203815E+03   -0.11608E+01   -0.11527E+01  2424   0.670E+00
DAV:   5    -0.374640777712E+03   -0.39574E-01   -0.39523E-01  2376   0.111E+00    0.285E+01
DAV:   6    -0.369721647391E+03    0.49191E+01   -0.25906E+00  2272   0.242E+00    0.172E+01
DAV:   7    -0.367490311609E+03    0.22313E+01   -0.52401E+00  2256   0.349E+00    0.996E-01
DAV:   8    -0.367497491593E+03   -0.71800E-02   -0.28309E-01  2304   0.970E-01    0.352E-01
DAV:   9    -0.367498949570E+03   -0.14580E-02   -0.72369E-03  2480   0.163E-01    0.309E-01
DAV:  10    -0.367499813576E+03   -0.86401E-03   -0.20890E-03  2232   0.833E-02    0.226E-01
DAV:  11    -0.367499849365E+03   -0.35789E-04   -0.87233E-05  2320   0.188E-02    0.951E-03
DAV:  12    -0.367499851771E+03   -0.24066E-05   -0.34136E-06  2424   0.362E-03    0.802E-03
DAV:  13    -0.367499850831E+03    0.94055E-06   -0.82261E-07  2272   0.192E-03    0.224E-03
DAV:  14    -0.367499850627E+03    0.20403E-06   -0.35313E-08  2056   0.413E-04    0.483E-04
DAV:  15    -0.367499850620E+03    0.69576E-08   -0.86556E-09  1360   0.184E-04
   1 F= -.36749985E+03 E0= -.36749985E+03  d E =-.572137E-18
