<?xml version="1.0" encoding="ISO-8859-1"?>
<modeling>
 <generator>
  <i name="program" type="string">vasp </i>
  <i name="version" type="string">6.3.2  </i>
  <i name="subversion" type="string">27Jun22 (build Oct 14 2022 12:13:54) complex                          parallel </i>
  <i name="platform" type="string">LinuxIFC </i>
  <i name="date" type="string">2023 04 03 </i>
  <i name="time" type="string">14:51:44 </i>
 </generator>
 <incar>
  <i type="string" name="PREC">Accurate</i>
  <i type="int" name="IALGO">    38</i>
  <i type="logical" name="ADDGRID"> T  </i>
  <i type="int" name="NELMIN">     5</i>
  <i type="int" name="IBRION">    -1</i>
  <i name="EDIFF">      0.00000001</i>
  <i name="ENCUT">    318.00000000</i>
  <i type="logical" name="LREAL"> F  </i>
  <i type="int" name="ISMEAR">     0</i>
  <i name="SIGMA">      0.02000000</i>
  <i type="logical" name="LWAVE"> F  </i>
  <i type="logical" name="LCHARG"> F  </i>
  <i type="string" name="GGA">Ps</i>
 </incar>
 <primitive_cell>
  <structure name="primitive_cell" >
   <crystal>
    <varray name="basis" >
     <v>      10.86914512      -0.00000000      -0.00000000 </v>
     <v>      -0.00000000      10.86914512       0.00000000 </v>
     <v>       0.00000000       0.00000000      10.86914512 </v>
    </varray>
    <i name="volume">   1284.06249692 </i>
    <varray name="rec_basis" >
     <v>       0.09200356       0.00000000      -0.00000000 </v>
     <v>       0.00000000       0.09200356      -0.00000000 </v>
     <v>       0.00000000      -0.00000000       0.09200356 </v>
    </varray>
   </crystal>
   <varray name="positions" >
    <v>       0.24907996       0.25000000       0.25000000 </v>
    <v>       0.75000000       0.25000000       0.25000000 </v>
    <v>       0.25000000       0.75000000       0.25000000 </v>
    <v>       0.75000000       0.75000000       0.25000000 </v>
    <v>       0.25000000       0.25000000       0.75000000 </v>
    <v>       0.75000000       0.25000000       0.75000000 </v>
    <v>       0.25000000       0.75000000       0.75000000 </v>
    <v>       0.75000000       0.75000000       0.75000000 </v>
    <v>       0.25000000       1.00000000       1.00000000 </v>
    <v>       0.75000000       1.00000000       1.00000000 </v>
    <v>       0.25000000       0.50000000       0.00000000 </v>
    <v>       0.75000000       0.50000000       1.00000000 </v>
    <v>       0.25000000       0.00000000       0.50000000 </v>
    <v>       0.75000000       1.00000000       0.50000000 </v>
    <v>       0.25000000       0.50000000       0.50000000 </v>
    <v>       0.75000000       0.50000000       0.50000000 </v>
    <v>       1.00000000       0.25000000       0.00092004 </v>
    <v>       0.50000000       0.25000000       1.00000000 </v>
    <v>       1.00000000       0.75000000       0.00000000 </v>
    <v>       0.50000000       0.75000000       0.00000000 </v>
    <v>       0.00000000       0.25000000       0.50000000 </v>
    <v>       0.50000000       0.25000000       0.50000000 </v>
    <v>       1.00000000       0.75000000       0.50000000 </v>
    <v>       0.50000000       0.75000000       0.50000000 </v>
    <v>       0.00000000       0.00000000       0.25000000 </v>
    <v>       0.50000000       1.00000000       0.25000000 </v>
    <v>       1.00000000       0.50000000       0.25000000 </v>
    <v>       0.50000000       0.50000000       0.25000000 </v>
    <v>       0.00000000       0.00000000       0.75000000 </v>
    <v>       0.50000000       0.00000000       0.75000000 </v>
    <v>       0.00000000       0.50000000       0.75000000 </v>
    <v>       0.50000000       0.50000000       0.75000000 </v>
    <v>       0.37500000       0.37500000       0.37500000 </v>
    <v>       0.87500000       0.37500000       0.37500000 </v>
    <v>       0.37500000       0.87500000       0.37500000 </v>
    <v>       0.87500000       0.87500000       0.37500000 </v>
    <v>       0.37500000       0.37500000       0.87500000 </v>
    <v>       0.87500000       0.37500000       0.87500000 </v>
    <v>       0.37500000       0.87500000       0.87500000 </v>
    <v>       0.87500000       0.87500000       0.87500000 </v>
    <v>       0.37500000       0.12500000       0.12500000 </v>
    <v>       0.87500000       0.12500000       0.12500000 </v>
    <v>       0.37500000       0.62500000       0.12500000 </v>
    <v>       0.87500000       0.62500000       0.12500000 </v>
    <v>       0.37500000       0.12500000       0.62500000 </v>
    <v>       0.87500000       0.12500000       0.62500000 </v>
    <v>       0.37500000       0.62500000       0.62500000 </v>
    <v>       0.87500000       0.62500000       0.62500000 </v>
    <v>       0.12500000       0.37500000       0.12500000 </v>
    <v>       0.62500000       0.37500000       0.12500000 </v>
    <v>       0.12500000       0.87500000       0.12500000 </v>
    <v>       0.62500000       0.87500000       0.12500000 </v>
    <v>       0.12500000       0.37500000       0.62500000 </v>
    <v>       0.62500000       0.37500000       0.62500000 </v>
    <v>       0.12500000       0.87500000       0.62500000 </v>
    <v>       0.62500000       0.87500000       0.62500000 </v>
    <v>       0.12500000       0.12500000       0.37500000 </v>
    <v>       0.62500000       0.12500000       0.37500000 </v>
    <v>       0.12500000       0.62500000       0.37500000 </v>
    <v>       0.62500000       0.62500000       0.37500000 </v>
    <v>       0.12500000       0.12500000       0.87500000 </v>
    <v>       0.62500000       0.12500000       0.87500000 </v>
    <v>       0.12500000       0.62500000       0.87500000 </v>
    <v>       0.62500000       0.62500000       0.87500000 </v>
   </varray>
  </structure>
  <varray name="primitive_index" >
   <v type="int" >        1 </v>
   <v type="int" >        2 </v>
   <v type="int" >        3 </v>
   <v type="int" >        4 </v>
   <v type="int" >        5 </v>
   <v type="int" >        6 </v>
   <v type="int" >        7 </v>
   <v type="int" >        8 </v>
   <v type="int" >        9 </v>
   <v type="int" >       10 </v>
   <v type="int" >       11 </v>
   <v type="int" >       12 </v>
   <v type="int" >       13 </v>
   <v type="int" >       14 </v>
   <v type="int" >       15 </v>
   <v type="int" >       16 </v>
   <v type="int" >       17 </v>
   <v type="int" >       18 </v>
   <v type="int" >       19 </v>
   <v type="int" >       20 </v>
   <v type="int" >       21 </v>
   <v type="int" >       22 </v>
   <v type="int" >       23 </v>
   <v type="int" >       24 </v>
   <v type="int" >       25 </v>
   <v type="int" >       26 </v>
   <v type="int" >       27 </v>
   <v type="int" >       28 </v>
   <v type="int" >       29 </v>
   <v type="int" >       30 </v>
   <v type="int" >       31 </v>
   <v type="int" >       32 </v>
   <v type="int" >       33 </v>
   <v type="int" >       34 </v>
   <v type="int" >       35 </v>
   <v type="int" >       36 </v>
   <v type="int" >       37 </v>
   <v type="int" >       38 </v>
   <v type="int" >       39 </v>
   <v type="int" >       40 </v>
   <v type="int" >       41 </v>
   <v type="int" >       42 </v>
   <v type="int" >       43 </v>
   <v type="int" >       44 </v>
   <v type="int" >       45 </v>
   <v type="int" >       46 </v>
   <v type="int" >       47 </v>
   <v type="int" >       48 </v>
   <v type="int" >       49 </v>
   <v type="int" >       50 </v>
   <v type="int" >       51 </v>
   <v type="int" >       52 </v>
   <v type="int" >       53 </v>
   <v type="int" >       54 </v>
   <v type="int" >       55 </v>
   <v type="int" >       56 </v>
   <v type="int" >       57 </v>
   <v type="int" >       58 </v>
   <v type="int" >       59 </v>
   <v type="int" >       60 </v>
   <v type="int" >       61 </v>
   <v type="int" >       62 </v>
   <v type="int" >       63 </v>
   <v type="int" >       64 </v>
  </varray>
 </primitive_cell>
 <kpoints>
  <generation param="Gamma">
   <v type="int" name="divisions">       2        2        2 </v>
   <v name="usershift">      0.00000000       0.00000000       0.00000000 </v>
   <v name="genvec1">      0.50000000      -0.00000000       0.00000000 </v>
   <v name="genvec2">     -0.00000000       0.50000000       0.00000000 </v>
   <v name="genvec3">     -0.00000000       0.00000000       0.50000000 </v>
   <v name="shift">      0.00000000       0.00000000       0.00000000 </v>
  </generation>
  <varray name="kpointlist" >
   <v>       0.00000000       0.00000000       0.00000000 </v>
   <v>       0.50000000       0.00000000       0.00000000 </v>
   <v>      -0.00000000       0.50000000       0.00000000 </v>
   <v>       0.50000000       0.50000000       0.00000000 </v>
   <v>       0.50000000      -0.00000000       0.50000000 </v>
   <v>       0.50000000       0.50000000       0.50000000 </v>
  </varray>
  <varray name="weights" >
   <v>       0.12500000 </v>
   <v>       0.25000000 </v>
   <v>       0.12500000 </v>
   <v>       0.25000000 </v>
   <v>       0.12500000 </v>
   <v>       0.12500000 </v>
  </varray>
 </kpoints>
 <parameters>
  <separator name="general" >
   <i type="string" name="SYSTEM">unknown system</i>
   <i type="logical" name="LCOMPAT"> F  </i>
  </separator>
  <separator name="electronic" >
   <i type="string" name="PREC">accura</i>
   <i name="ENMAX">    318.00000000</i>
   <i name="ENAUG">    322.06900000</i>
   <i name="EDIFF">      0.00000001</i>
   <i type="int" name="IALGO">    38</i>
   <i type="int" name="IWAVPR">    10</i>
   <i type="int" name="NBANDS">   168</i>
   <i type="int" name="NBANDSLOW">    -1</i>
   <i type="int" name="NBANDSHIGH">    -1</i>
   <i name="NELECT">    256.00000000</i>
   <i type="int" name="TURBO">     0</i>
   <i type="int" name="IRESTART">     0</i>
   <i type="int" name="NREBOOT">     0</i>
   <i type="int" name="NMIN">     0</i>
   <i name="EREF">      0.00000000</i>
   <separator name="electronic smearing" >
    <i type="int" name="ISMEAR">     0</i>
    <i name="SIGMA">      0.02000000</i>
    <i name="KSPACING">      0.50000000</i>
    <i type="logical" name="KGAMMA"> T  </i>
    <i type="logical" name="KBLOWUP"> T  </i>
   </separator>
   <separator name="electronic projectors" >
    <i type="logical" name="LREAL"> F  </i>
    <v name="ROPT">      0.00000000</v>
    <i type="int" name="LMAXPAW">  -100</i>
    <i type="int" name="LMAXMIX">     2</i>
    <i type="logical" name="NLSPLINE"> F  </i>
   </separator>
   <separator name="electronic startup" >
    <i type="int" name="ISTART">     0</i>
    <i type="int" name="ICHARG">     2</i>
    <i type="int" name="INIWAV">     1</i>
   </separator>
   <separator name="electronic spin" >
    <i type="int" name="ISPIN">     1</i>
    <i type="logical" name="LNONCOLLINEAR"> F  </i>
    <v name="MAGMOM">      1.00000000      1.00000000      1.00000000      1.00000000      1.00000000      1.00000000      1.00000000      1.00000000      1.00000000      1.00000000      1.00000000      1.00000000      1.00000000      1.00000000      1.00000000      1.00000000      1.00000000      1.00000000      1.00000000      1.00000000
      1.00000000      1.00000000      1.00000000      1.00000000      1.00000000      1.00000000      1.00000000      1.00000000      1.00000000      1.00000000      1.00000000      1.00000000      1.00000000      1.00000000      1.00000000      1.00000000      1.00000000      1.00000000      1.00000000      1.00000000
      1.00000000      1.00000000      1.00000000      1.00000000      1.00000000      1.00000000      1.00000000      1.00000000      1.00000000      1.00000000      1.00000000      1.00000000      1.00000000      1.00000000      1.00000000      1.00000000      1.00000000      1.00000000      1.00000000      1.00000000
      1.00000000      1.00000000      1.00000000      1.00000000</v>
    <i name="NUPDOWN">     -1.00000000</i>
    <i type="logical" name="LSORBIT"> F  </i>
    <v name="SAXIS">      0.00000000      0.00000000      1.00000000</v>
    <i type="logical" name="LSPIRAL"> F  </i>
    <v name="QSPIRAL">      0.00000000      0.00000000      0.00000000</v>
    <i type="logical" name="LZEROZ"> F  </i>
   </separator>
   <separator name="electronic exchange-correlation" >
    <i type="logical" name="LASPH"> F  </i>
    <i type="logical" name="LMETAGGA"> F  </i>
   </separator>
   <separator name="electronic convergence" >
    <i type="int" name="NELM">    60</i>
    <i type="int" name="NELMDL">    -5</i>
    <i type="int" name="NELMIN">     5</i>
    <i name="ENINI">    318.00000000</i>
    <separator name="electronic convergence detail" >
     <i type="logical" name="LDIAG"> T  </i>
     <i type="logical" name="LSUBROT"> F  </i>
     <i name="WEIMIN">      0.00000000</i>
     <i name="EBREAK">      0.00000000</i>
     <i name="DEPER">      0.30000000</i>
     <i type="int" name="NRMM">     4</i>
     <i name="TIME">      0.40000000</i>
    </separator>
   </separator>
   <separator name="electronic mixer" >
    <i name="AMIX">      0.40000000</i>
    <i name="BMIX">      1.00000000</i>
    <i name="AMIN">      0.10000000</i>
    <i name="AMIX_MAG">      1.60000000</i>
    <i name="BMIX_MAG">      1.00000000</i>
    <separator name="electronic mixer details" >
     <i type="int" name="IMIX">     4</i>
     <i type="logical" name="MIXFIRST"> F  </i>
     <i type="int" name="MAXMIX">   -45</i>
     <i name="WC">    100.00000000</i>
     <i type="int" name="INIMIX">     1</i>
     <i type="int" name="MIXPRE">     1</i>
     <i type="int" name="MREMOVE">     5</i>
    </separator>
   </separator>
   <separator name="electronic dipolcorrection" >
    <i type="logical" name="LDIPOL"> F  </i>
    <i type="logical" name="LMONO"> F  </i>
    <i type="int" name="IDIPOL">     0</i>
    <i name="EPSILON">      1.00000000</i>
    <v name="DIPOL">   -100.00000000   -100.00000000   -100.00000000</v>
    <i name="EFIELD">      0.00000000</i>
   </separator>
  </separator>
  <separator name="grids" >
   <i type="int" name="NGX">    64</i>
   <i type="int" name="NGY">    64</i>
   <i type="int" name="NGZ">    64</i>
   <i type="int" name="NGXF">   128</i>
   <i type="int" name="NGYF">   128</i>
   <i type="int" name="NGZF">   128</i>
   <i type="logical" name="ADDGRID"> T  </i>
  </separator>
  <separator name="ionic" >
   <i type="int" name="NSW">     0</i>
   <i type="int" name="IBRION">    -1</i>
   <i type="int" name="MDALGO">     0</i>
   <i type="int" name="ISIF">     2</i>
   <i name="PSTRESS">      0.00000000</i>
   <i name="EDIFFG">      0.00000010</i>
   <i type="int" name="NFREE">     0</i>
   <i name="POTIM">      0.50000000</i>
   <i name="SMASS">     -3.00000000</i>
   <i name="SCALEE">      1.00000000</i>
  </separator>
  <separator name="ionic md" >
   <i name="TEBEG">      0.00010000</i>
   <i name="TEEND">      0.00010000</i>
   <i type="int" name="NBLOCK">     1</i>
   <i type="int" name="KBLOCK">     1</i>
   <i type="int" name="NPACO">   256</i>
   <i name="APACO">     10.00000000</i>
  </separator>
  <separator name="symmetry" >
   <i type="int" name="ISYM">     2</i>
   <i name="SYMPREC">      0.00001000</i>
  </separator>
  <separator name="dos" >
   <i type="int" name="LORBIT">     0</i>
   <v name="RWIGS">     -1.00000000</v>
   <i type="int" name="NEDOS">   301</i>
   <i name="EMIN">     10.00000000</i>
   <i name="EMAX">    -10.00000000</i>
   <i name="EFERMI">      0.00000000</i>
  </separator>
  <separator name="writing" >
   <i type="int" name="NWRITE">     2</i>
   <i type="logical" name="LWAVE"> F  </i>
   <i type="logical" name="LDOWNSAMPLE"> F  </i>
   <i type="logical" name="LCHARG"> F  </i>
   <i type="logical" name="LPARD"> F  </i>
   <i type="logical" name="LVTOT"> F  </i>
   <i type="logical" name="LVHAR"> F  </i>
   <i type="logical" name="LELF"> F  </i>
   <i type="logical" name="LOPTICS"> F  </i>
   <v name="STM">      0.00000000      0.00000000      0.00000000      0.00000000      0.00000000      0.00000000      0.00000000</v>
  </separator>
  <separator name="performance" >
   <i type="int" name="NPAR">     8</i>
   <i type="int" name="NSIM">     4</i>
   <i type="int" name="NBLK">    -1</i>
   <i type="logical" name="LPLANE"> T  </i>
   <i type="logical" name="LSCALAPACK"> T  </i>
   <i type="logical" name="LSCAAWARE"> F  </i>
   <i type="logical" name="LSCALU"> F  </i>
   <i type="logical" name="LASYNC"> F  </i>
   <i type="logical" name="LORBITALREAL"> F  </i>
  </separator>
  <separator name="miscellaneous" >
   <i type="int" name="IDIOT">     3</i>
   <i type="int" name="PHON_NSTRUCT">    -1</i>
   <i type="logical" name="LMUSIC"> F  </i>
   <v name="POMASS">     28.08500000</v>
   <v name="DARWINR">      0.00000000</v>
   <v name="DARWINV">      1.00000000</v>
   <i type="logical" name="LCORR"> T  </i>
  </separator>
  <i type="logical" name="GGA_COMPAT"> T  </i>
  <i type="logical" name="LBERRY"> F  </i>
  <i type="int" name="ICORELEVEL">     0</i>
  <i type="logical" name="LDAU"> F  </i>
  <i type="int" name="I_CONSTRAINED_M">     0</i>
  <separator name="electronic exchange-correlation" >
   <i type="string" name="GGA">PS</i>
   <i type="int" name="VOSKOWN">     0</i>
   <i type="logical" name="LHFCALC"> F  </i>
   <i type="string" name="PRECFOCK"></i>
   <i type="logical" name="LSYMGRAD"> F  </i>
   <i type="logical" name="LHFONE"> F  </i>
   <i type="logical" name="LRHFCALC"> F  </i>
   <i type="logical" name="LTHOMAS"> F  </i>
   <i type="logical" name="LMODELHF"> F  </i>
   <i type="logical" name="LFOCKACE"> F  </i>
   <i name="ENCUT4O">     -1.00000000</i>
   <i type="int" name="EXXOEP">     0</i>
   <i type="int" name="FOURORBIT">     0</i>
   <i name="AEXX">      0.00000000</i>
   <i name="HFALPHA">      0.00000000</i>
   <i name="MCALPHA">      0.00000000</i>
   <i name="ALDAX">      1.00000000</i>
   <i name="AGGAX">      1.00000000</i>
   <i name="ALDAC">      1.00000000</i>
   <i name="AGGAC">      1.00000000</i>
   <i type="int" name="NKREDX">     1</i>
   <i type="int" name="NKREDY">     1</i>
   <i type="int" name="NKREDZ">     1</i>
   <i type="logical" name="SHIFTRED"> F  </i>
   <i type="logical" name="ODDONLY"> F  </i>
   <i type="logical" name="EVENONLY"> F  </i>
   <i type="int" name="LMAXFOCK">     0</i>
   <i type="int" name="NMAXFOCKAE">     0</i>
   <i type="logical" name="LFOCKAEDFT"> F  </i>
   <i name="HFSCREEN">      0.00000000</i>
   <i name="HFSCREENC">      0.00000000</i>
   <i type="int" name="NBANDSGWLOW">     0</i>
  </separator>
  <separator name="vdW DFT" >
   <i type="logical" name="LUSE_VDW"> F  </i>
   <i name="Zab_VDW">     -0.84910000</i>
   <i name="PARAM1">      0.12340000</i>
   <i name="PARAM2">      1.00000000</i>
   <i name="PARAM3">      0.00000000</i>
  </separator>
  <separator name="model GW" >
   <i type="int" name="MODEL_GW">     0</i>
   <i name="MODEL_EPS0">     12.03808591</i>
   <i name="MODEL_ALPHA">      1.00000000</i>
  </separator>
  <separator name="linear response parameters" >
   <i type="logical" name="LEPSILON"> F  </i>
   <i type="logical" name="LRPA"> F  </i>
   <i type="logical" name="LNABLA"> F  </i>
   <i type="logical" name="LVEL"> F  </i>
   <i name="CSHIFT">      0.10000000</i>
   <i name="OMEGAMAX">     -1.00000000</i>
   <i name="DEG_THRESHOLD">      0.00200000</i>
   <i name="RTIME">     -0.10000000</i>
   <i name="WPLASMAI">      0.00000000</i>
   <v name="DFIELD">      0.00000000      0.00000000      0.00000000</v>
   <v name="WPLASMA">      0.00000000      0.00000000      0.00000000      0.00000000      0.00000000      0.00000000      0.00000000      0.00000000      0.00000000</v>
  </separator>
  <separator name="orbital magnetization" >
   <i type="logical" name="NUCIND"> F  </i>
   <v name="MAGPOS">      0.00000000      0.00000000      0.00000000</v>
   <i type="logical" name="LNICSALL"> T  </i>
   <i type="logical" name="ORBITALMAG"> F  </i>
   <i type="logical" name="LMAGBLOCH"> F  </i>
   <i type="logical" name="LCHIMAG"> F  </i>
   <i type="logical" name="LGAUGE"> T  </i>
   <i type="int" name="MAGATOM">     0</i>
   <v name="MAGDIPOL">      0.00000000      0.00000000      0.00000000</v>
   <v name="AVECCONST">      0.00000000      0.00000000      0.00000000</v>
  </separator>
  <separator name="response functions" >
   <i type="logical" name="LFINITE_TEMPERATURE"> F  </i>
   <i type="logical" name="LADDER"> F  </i>
   <i type="logical" name="LRPAFORCE"> F  </i>
   <i type="logical" name="LFXC"> F  </i>
   <i type="logical" name="LHARTREE"> T  </i>
   <i type="int" name="IBSE">     0</i>
   <v type="int" name="KPOINT">    -1     0     0     0</v>
   <i type="logical" name="LTCTC"> F  </i>
   <i type="logical" name="LTCTE"> F  </i>
   <i type="logical" name="LTETE"> F  </i>
   <i type="logical" name="LTRIPLET"> F  </i>
   <i type="logical" name="LFXCEPS"> F  </i>
   <i type="logical" name="LFXHEG"> F  </i>
   <i type="int" name="NATURALO">     2</i>
   <i type="logical" name="LHOLEGF"> F  </i>
   <i type="logical" name="L2ORDER"> F  </i>
   <i type="logical" name="LDMP1"> F  </i>
   <i type="logical" name="LMP2LT"> F  </i>
   <i type="logical" name="LSMP2LT"> F  </i>
   <i type="logical" name="LGWLF"> F  </i>
   <i name="ENCUTGW">     -2.00000000</i>
   <i name="ENCUTGWSOFT">     -2.00000000</i>
   <i name="ENCUTLF">     -1.00000000</i>
   <i type="logical" name="LESF_SPLINES"> F  </i>
   <i type="int" name="LMAXMP2">    -1</i>
   <i name="SCISSOR">      0.00000000</i>
   <i type="int" name="NOMEGA">     0</i>
   <i type="int" name="NOMEGAR">     0</i>
   <i type="int" name="NBANDSGW">    -1</i>
   <i type="int" name="NBANDSO">    -1</i>
   <i type="int" name="NBANDSV">    -1</i>
   <i type="int" name="NELMGW">     1</i>
   <i type="int" name="NELMHF">     1</i>
   <i type="int" name="DIM">     3</i>
   <i type="int" name="IESPILON">     4</i>
   <i type="int" name="ANTIRES">     0</i>
   <i name="OMEGAMAX">    -30.00000000</i>
   <i name="OMEGAMIN">    -30.00000000</i>
   <i name="OMEGATL">   -200.00000000</i>
   <i type="int" name="OMEGAGRID">     0</i>
   <i name="CSHIFT">     -0.10000000</i>
   <i type="logical" name="LSELFENERGY"> F  </i>
   <i type="logical" name="LSPECTRAL"> F  </i>
   <i type="logical" name="LSPECTRALGW"> F  </i>
   <i type="logical" name="LSINGLES"> F  </i>
   <i type="logical" name="LFERMIGW"> F  </i>
   <i type="logical" name="ODDONLYGW"> F  </i>
   <i type="logical" name="EVENONLYGW"> F  </i>
   <i type="int" name="NKREDLFX">     1</i>
   <i type="int" name="NKREDLFY">     1</i>
   <i type="int" name="NKREDLFZ">     1</i>
   <i type="int" name="MAXMEM">  2800</i>
   <i type="int" name="TELESCOPE">     0</i>
   <i type="int" name="NTAUPAR">    -1</i>
   <i type="int" name="NOMEGAPAR">    -1</i>
   <i name="DAMP_NEWTON">      0.80000001</i>
   <i name="LAMBDA">      1.00000000</i>
  </separator>
  <separator name="External order field" >
   <i name="OFIELD_KAPPA">      0.00000000</i>
   <v name="OFIELD_K">      0.00000000      0.00000000      0.00000000</v>
   <i name="OFIELD_Q6_NEAR">      0.00000000</i>
   <i name="OFIELD_Q6_FAR">      0.00000000</i>
   <i name="OFIELD_A">      0.00000000</i>
  </separator>
  <separator name="optional k-points parameters" >
   <i type="int" name="KPOINTS_OPT_MODE">     1</i>
   <i type="logical" name="LKPOINTS_OPT"> F  </i>
  </separator>
 </parameters>
 <atominfo>
  <atoms>      64 </atoms>
  <types>       1 </types>
  <array name="atoms" >
   <dimension dim="1">ion</dimension>
   <field type="string">element</field>
   <field type="int">atomtype</field>
   <set>
    <rc><c>Si</c><c>   1</c></rc>
    <rc><c>Si</c><c>   1</c></rc>
    <rc><c>Si</c><c>   1</c></rc>
    <rc><c>Si</c><c>   1</c></rc>
    <rc><c>Si</c><c>   1</c></rc>
    <rc><c>Si</c><c>   1</c></rc>
    <rc><c>Si</c><c>   1</c></rc>
    <rc><c>Si</c><c>   1</c></rc>
    <rc><c>Si</c><c>   1</c></rc>
    <rc><c>Si</c><c>   1</c></rc>
    <rc><c>Si</c><c>   1</c></rc>
    <rc><c>Si</c><c>   1</c></rc>
    <rc><c>Si</c><c>   1</c></rc>
    <rc><c>Si</c><c>   1</c></rc>
    <rc><c>Si</c><c>   1</c></rc>
    <rc><c>Si</c><c>   1</c></rc>
    <rc><c>Si</c><c>   1</c></rc>
    <rc><c>Si</c><c>   1</c></rc>
    <rc><c>Si</c><c>   1</c></rc>
    <rc><c>Si</c><c>   1</c></rc>
    <rc><c>Si</c><c>   1</c></rc>
    <rc><c>Si</c><c>   1</c></rc>
    <rc><c>Si</c><c>   1</c></rc>
    <rc><c>Si</c><c>   1</c></rc>
    <rc><c>Si</c><c>   1</c></rc>
    <rc><c>Si</c><c>   1</c></rc>
    <rc><c>Si</c><c>   1</c></rc>
    <rc><c>Si</c><c>   1</c></rc>
    <rc><c>Si</c><c>   1</c></rc>
    <rc><c>Si</c><c>   1</c></rc>
    <rc><c>Si</c><c>   1</c></rc>
    <rc><c>Si</c><c>   1</c></rc>
    <rc><c>Si</c><c>   1</c></rc>
    <rc><c>Si</c><c>   1</c></rc>
    <rc><c>Si</c><c>   1</c></rc>
    <rc><c>Si</c><c>   1</c></rc>
    <rc><c>Si</c><c>   1</c></rc>
    <rc><c>Si</c><c>   1</c></rc>
    <rc><c>Si</c><c>   1</c></rc>
    <rc><c>Si</c><c>   1</c></rc>
    <rc><c>Si</c><c>   1</c></rc>
    <rc><c>Si</c><c>   1</c></rc>
    <rc><c>Si</c><c>   1</c></rc>
    <rc><c>Si</c><c>   1</c></rc>
    <rc><c>Si</c><c>   1</c></rc>
    <rc><c>Si</c><c>   1</c></rc>
    <rc><c>Si</c><c>   1</c></rc>
    <rc><c>Si</c><c>   1</c></rc>
    <rc><c>Si</c><c>   1</c></rc>
    <rc><c>Si</c><c>   1</c></rc>
    <rc><c>Si</c><c>   1</c></rc>
    <rc><c>Si</c><c>   1</c></rc>
    <rc><c>Si</c><c>   1</c></rc>
    <rc><c>Si</c><c>   1</c></rc>
    <rc><c>Si</c><c>   1</c></rc>
    <rc><c>Si</c><c>   1</c></rc>
    <rc><c>Si</c><c>   1</c></rc>
    <rc><c>Si</c><c>   1</c></rc>
    <rc><c>Si</c><c>   1</c></rc>
    <rc><c>Si</c><c>   1</c></rc>
    <rc><c>Si</c><c>   1</c></rc>
    <rc><c>Si</c><c>   1</c></rc>
    <rc><c>Si</c><c>   1</c></rc>
    <rc><c>Si</c><c>   1</c></rc>
   </set>
  </array>
  <array name="atomtypes" >
   <dimension dim="1">type</dimension>
   <field type="int">atomspertype</field>
   <field type="string">element</field>
   <field>mass</field>
   <field>valence</field>
   <field type="string">pseudopotential</field>
   <set>
    <rc><c>  64</c><c>Si</c><c>     28.08500000</c><c>      4.00000000</c><c>  PAW_PBE Si 05Jan2001                  </c></rc>
   </set>
  </array>
 </atominfo>
 <structure name="initialpos" >
  <crystal>
   <varray name="basis" >
    <v>      10.86914512      -0.00000000      -0.00000000 </v>
    <v>      -0.00000000      10.86914512       0.00000000 </v>
    <v>       0.00000000       0.00000000      10.86914512 </v>
   </varray>
   <i name="volume">   1284.06249692 </i>
   <varray name="rec_basis" >
    <v>       0.09200356       0.00000000      -0.00000000 </v>
    <v>       0.00000000       0.09200356      -0.00000000 </v>
    <v>       0.00000000      -0.00000000       0.09200356 </v>
   </varray>
  </crystal>
  <varray name="positions" >
   <v>       0.24907996       0.25000000       0.25000000 </v>
   <v>       0.75000000       0.25000000       0.25000000 </v>
   <v>       0.25000000       0.75000000       0.25000000 </v>
   <v>       0.75000000       0.75000000       0.25000000 </v>
   <v>       0.25000000       0.25000000       0.75000000 </v>
   <v>       0.75000000       0.25000000       0.75000000 </v>
   <v>       0.25000000       0.75000000       0.75000000 </v>
   <v>       0.75000000       0.75000000       0.75000000 </v>
   <v>       0.25000000       0.00000000       0.00000000 </v>
   <v>       0.75000000       0.00000000       0.00000000 </v>
   <v>       0.25000000       0.50000000       0.00000000 </v>
   <v>       0.75000000       0.50000000       0.00000000 </v>
   <v>       0.25000000       0.00000000       0.50000000 </v>
   <v>       0.75000000       0.00000000       0.50000000 </v>
   <v>       0.25000000       0.50000000       0.50000000 </v>
   <v>       0.75000000       0.50000000       0.50000000 </v>
   <v>       0.00000000       0.25000000       0.00092004 </v>
   <v>       0.50000000       0.25000000       0.00000000 </v>
   <v>       0.00000000       0.75000000       0.00000000 </v>
   <v>       0.50000000       0.75000000       0.00000000 </v>
   <v>       0.00000000       0.25000000       0.50000000 </v>
   <v>       0.50000000       0.25000000       0.50000000 </v>
   <v>       0.00000000       0.75000000       0.50000000 </v>
   <v>       0.50000000       0.75000000       0.50000000 </v>
   <v>       0.00000000       0.00000000       0.25000000 </v>
   <v>       0.50000000       0.00000000       0.25000000 </v>
   <v>       0.00000000       0.50000000       0.25000000 </v>
   <v>       0.50000000       0.50000000       0.25000000 </v>
   <v>       0.00000000       0.00000000       0.75000000 </v>
   <v>       0.50000000       0.00000000       0.75000000 </v>
   <v>       0.00000000       0.50000000       0.75000000 </v>
   <v>       0.50000000       0.50000000       0.75000000 </v>
   <v>       0.37500000       0.37500000       0.37500000 </v>
   <v>       0.87500000       0.37500000       0.37500000 </v>
   <v>       0.37500000       0.87500000       0.37500000 </v>
   <v>       0.87500000       0.87500000       0.37500000 </v>
   <v>       0.37500000       0.37500000       0.87500000 </v>
   <v>       0.87500000       0.37500000       0.87500000 </v>
   <v>       0.37500000       0.87500000       0.87500000 </v>
   <v>       0.87500000       0.87500000       0.87500000 </v>
   <v>       0.37500000       0.12500000       0.12500000 </v>
   <v>       0.87500000       0.12500000       0.12500000 </v>
   <v>       0.37500000       0.62500000       0.12500000 </v>
   <v>       0.87500000       0.62500000       0.12500000 </v>
   <v>       0.37500000       0.12500000       0.62500000 </v>
   <v>       0.87500000       0.12500000       0.62500000 </v>
   <v>       0.37500000       0.62500000       0.62500000 </v>
   <v>       0.87500000       0.62500000       0.62500000 </v>
   <v>       0.12500000       0.37500000       0.12500000 </v>
   <v>       0.62500000       0.37500000       0.12500000 </v>
   <v>       0.12500000       0.87500000       0.12500000 </v>
   <v>       0.62500000       0.87500000       0.12500000 </v>
   <v>       0.12500000       0.37500000       0.62500000 </v>
   <v>       0.62500000       0.37500000       0.62500000 </v>
   <v>       0.12500000       0.87500000       0.62500000 </v>
   <v>       0.62500000       0.87500000       0.62500000 </v>
   <v>       0.12500000       0.12500000       0.37500000 </v>
   <v>       0.62500000       0.12500000       0.37500000 </v>
   <v>       0.12500000       0.62500000       0.37500000 </v>
   <v>       0.62500000       0.62500000       0.37500000 </v>
   <v>       0.12500000       0.12500000       0.87500000 </v>
   <v>       0.62500000       0.12500000       0.87500000 </v>
   <v>       0.12500000       0.62500000       0.87500000 </v>
   <v>       0.62500000       0.62500000       0.87500000 </v>
  </varray>
 </structure>
 <calculation>
  <scstep>
   <time name="dav">    1.67    1.68</time>
   <time name="total">    1.71    1.72</time>
   <energy>
    <i name="alphaZ">    107.38120932 </i>
    <i name="ewald">  -7307.87479886 </i>
    <i name="hartreedc">   -353.25145309 </i>
    <i name="XCdc">   -558.85370365 </i>
    <i name="pawpsdc">   5598.62625415 </i>
    <i name="pawaedc">  -4492.17844134 </i>
    <i name="eentropy">     -0.00591153 </i>
    <i name="bandstr">    896.50761246 </i>
    <i name="atom">   6564.76702419 </i>
    <i name="e_fr_energy">    455.11779164 </i>
    <i name="e_wo_entrp">    455.12370317 </i>
    <i name="e_0_energy">    455.12074740 </i>
   </energy>
  </scstep>
  <scstep>
   <time name="dav">    1.92    1.93</time>
   <time name="total">    1.92    1.93</time>
   <energy>
    <i name="e_fr_energy">   -321.64311112 </i>
    <i name="e_wo_entrp">   -321.64311112 </i>
    <i name="e_0_energy">   -321.64311112 </i>
   </energy>
  </scstep>
  <scstep>
   <time name="dav">    1.95    1.96</time>
   <time name="total">    1.95    1.96</time>
   <energy>
    <i name="e_fr_energy">   -373.44039794 </i>
    <i name="e_wo_entrp">   -373.44039794 </i>
    <i name="e_0_energy">   -373.44039794 </i>
   </energy>
  </scstep>
  <scstep>
   <time name="dav">    1.92    1.93</time>
   <time name="total">    1.92    1.93</time>
   <energy>
    <i name="e_fr_energy">   -374.60120382 </i>
    <i name="e_wo_entrp">   -374.60120382 </i>
    <i name="e_0_energy">   -374.60120382 </i>
   </energy>
  </scstep>
  <scstep>
   <time name="dav">    1.89    1.90</time>
   <time name="total">    1.97    1.99</time>
   <energy>
    <i name="e_fr_energy">   -374.64077771 </i>
    <i name="e_wo_entrp">   -374.64077771 </i>
    <i name="e_0_energy">   -374.64077771 </i>
   </energy>
  </scstep>
  <scstep>
   <time name="dav">    1.82    1.83</time>
   <time name="total">    1.95    1.96</time>
   <energy>
    <i name="e_fr_energy">   -369.72164739 </i>
    <i name="e_wo_entrp">   -369.72164739 </i>
    <i name="e_0_energy">   -369.72164739 </i>
   </energy>
  </scstep>
  <scstep>
   <time name="dav">    1.81    1.82</time>
   <time name="total">    1.94    1.95</time>
   <energy>
    <i name="e_fr_energy">   -367.49031161 </i>
    <i name="e_wo_entrp">   -367.49031161 </i>
    <i name="e_0_energy">   -367.49031161 </i>
   </energy>
  </scstep>
  <scstep>
   <time name="dav">    1.84    1.85</time>
   <time name="total">    1.97    1.98</time>
   <energy>
    <i name="e_fr_energy">   -367.49749159 </i>
    <i name="e_wo_entrp">   -367.49749159 </i>
    <i name="e_0_energy">   -367.49749159 </i>
   </energy>
  </scstep>
  <scstep>
   <time name="dav">    1.95    1.96</time>
   <time name="total">    2.08    2.09</time>
   <energy>
    <i name="e_fr_energy">   -367.49894957 </i>
    <i name="e_wo_entrp">   -367.49894957 </i>
    <i name="e_0_energy">   -367.49894957 </i>
   </energy>
  </scstep>
  <scstep>
   <time name="dav">    1.80    1.81</time>
   <time name="total">    1.93    1.94</time>
   <energy>
    <i name="e_fr_energy">   -367.49981358 </i>
    <i name="e_wo_entrp">   -367.49981358 </i>
    <i name="e_0_energy">   -367.49981358 </i>
   </energy>
  </scstep>
  <scstep>
   <time name="dav">    1.86    1.87</time>
   <time name="total">    1.99    2.00</time>
   <energy>
    <i name="e_fr_energy">   -367.49984936 </i>
    <i name="e_wo_entrp">   -367.49984936 </i>
    <i name="e_0_energy">   -367.49984936 </i>
   </energy>
  </scstep>
  <scstep>
   <time name="dav">    1.92    1.93</time>
   <time name="total">    2.05    2.06</time>
   <energy>
    <i name="e_fr_energy">   -367.49985177 </i>
    <i name="e_wo_entrp">   -367.49985177 </i>
    <i name="e_0_energy">   -367.49985177 </i>
   </energy>
  </scstep>
  <scstep>
   <time name="dav">    1.82    1.83</time>
   <time name="total">    1.95    1.96</time>
   <energy>
    <i name="e_fr_energy">   -367.49985083 </i>
    <i name="e_wo_entrp">   -367.49985083 </i>
    <i name="e_0_energy">   -367.49985083 </i>
   </energy>
  </scstep>
  <scstep>
   <time name="dav">    1.70    1.71</time>
   <time name="total">    1.83    1.84</time>
   <energy>
    <i name="e_fr_energy">   -367.49985063 </i>
    <i name="e_wo_entrp">   -367.49985063 </i>
    <i name="e_0_energy">   -367.49985063 </i>
   </energy>
  </scstep>
  <scstep>
   <time name="dav">    1.28    1.29</time>
   <time name="total">    1.33    1.34</time>
   <energy>
    <i name="alphaZ">    107.38120932 </i>
    <i name="ewald">  -7307.87479886 </i>
    <i name="hartreedc">   -468.78668477 </i>
    <i name="XCdc">   -539.35377878 </i>
    <i name="pawpsdc">  28474.93901335 </i>
    <i name="pawaedc"> -27375.36576560 </i>
    <i name="eentropy">     -0.00000000 </i>
    <i name="bandstr">    176.79393054 </i>
    <i name="atom">   6564.76702419 </i>
    <i name="e_fr_energy">   -367.49985062 </i>
    <i name="e_wo_entrp">   -367.49985062 </i>
    <i name="e_0_energy">   -367.49985062 </i>
   </energy>
  </scstep>
  <structure>
   <crystal>
    <varray name="basis" >
     <v>      10.86914512      -0.00000000      -0.00000000 </v>
     <v>      -0.00000000      10.86914512       0.00000000 </v>
     <v>       0.00000000       0.00000000      10.86914512 </v>
    </varray>
    <i name="volume">   1284.06249692 </i>
    <varray name="rec_basis" >
     <v>       0.09200356       0.00000000      -0.00000000 </v>
     <v>       0.00000000       0.09200356      -0.00000000 </v>
     <v>       0.00000000      -0.00000000       0.09200356 </v>
    </varray>
   </crystal>
   <varray name="positions" >
    <v>       0.24907996       0.25000000       0.25000000 </v>
    <v>       0.75000000       0.25000000       0.25000000 </v>
    <v>       0.25000000       0.75000000       0.25000000 </v>
    <v>       0.75000000       0.75000000       0.25000000 </v>
    <v>       0.25000000       0.25000000       0.75000000 </v>
    <v>       0.75000000       0.25000000       0.75000000 </v>
    <v>       0.25000000       0.75000000       0.75000000 </v>
    <v>       0.75000000       0.75000000       0.75000000 </v>
    <v>       0.25000000       0.00000000       0.00000000 </v>
    <v>       0.75000000       0.00000000       0.00000000 </v>
    <v>       0.25000000       0.50000000       0.00000000 </v>
    <v>       0.75000000       0.50000000       0.00000000 </v>
    <v>       0.25000000       0.00000000       0.50000000 </v>
    <v>       0.75000000       0.00000000       0.50000000 </v>
    <v>       0.25000000       0.50000000       0.50000000 </v>
    <v>       0.75000000       0.50000000       0.50000000 </v>
    <v>       0.00000000       0.25000000       0.00092004 </v>
    <v>       0.50000000       0.25000000       0.00000000 </v>
    <v>       0.00000000       0.75000000       0.00000000 </v>
    <v>       0.50000000       0.75000000       0.00000000 </v>
    <v>       0.00000000       0.25000000       0.50000000 </v>
    <v>       0.50000000       0.25000000       0.50000000 </v>
    <v>       0.00000000       0.75000000       0.50000000 </v>
    <v>       0.50000000       0.75000000       0.50000000 </v>
    <v>       0.00000000       0.00000000       0.25000000 </v>
    <v>       0.50000000       0.00000000       0.25000000 </v>
    <v>       0.00000000       0.50000000       0.25000000 </v>
    <v>       0.50000000       0.50000000       0.25000000 </v>
    <v>       0.00000000       0.00000000       0.75000000 </v>
    <v>       0.50000000       0.00000000       0.75000000 </v>
    <v>       0.00000000       0.50000000       0.75000000 </v>
    <v>       0.50000000       0.50000000       0.75000000 </v>
    <v>       0.37500000       0.37500000       0.37500000 </v>
    <v>       0.87500000       0.37500000       0.37500000 </v>
    <v>       0.37500000       0.87500000       0.37500000 </v>
    <v>       0.87500000       0.87500000       0.37500000 </v>
    <v>       0.37500000       0.37500000       0.87500000 </v>
    <v>       0.87500000       0.37500000       0.87500000 </v>
    <v>       0.37500000       0.87500000       0.87500000 </v>
    <v>       0.87500000       0.87500000       0.87500000 </v>
    <v>       0.37500000       0.12500000       0.12500000 </v>
    <v>       0.87500000       0.12500000       0.12500000 </v>
    <v>       0.37500000       0.62500000       0.12500000 </v>
    <v>       0.87500000       0.62500000       0.12500000 </v>
    <v>       0.37500000       0.12500000       0.62500000 </v>
    <v>       0.87500000       0.12500000       0.62500000 </v>
    <v>       0.37500000       0.62500000       0.62500000 </v>
    <v>       0.87500000       0.62500000       0.62500000 </v>
    <v>       0.12500000       0.37500000       0.12500000 </v>
    <v>       0.62500000       0.37500000       0.12500000 </v>
    <v>       0.12500000       0.87500000       0.12500000 </v>
    <v>       0.62500000       0.87500000       0.12500000 </v>
    <v>       0.12500000       0.37500000       0.62500000 </v>
    <v>       0.62500000       0.37500000       0.62500000 </v>
    <v>       0.12500000       0.87500000       0.62500000 </v>
    <v>       0.62500000       0.87500000       0.62500000 </v>
    <v>       0.12500000       0.12500000       0.37500000 </v>
    <v>       0.62500000       0.12500000       0.37500000 </v>
    <v>       0.12500000       0.62500000       0.37500000 </v>
    <v>       0.62500000       0.62500000       0.37500000 </v>
    <v>       0.12500000       0.12500000       0.87500000 </v>
    <v>       0.62500000       0.12500000       0.87500000 </v>
    <v>       0.12500000       0.62500000       0.87500000 </v>
    <v>       0.62500000       0.62500000       0.87500000 </v>
   </varray>
  </structure>
  <varray name="forces" >
   <v>       0.13401266       0.00095995       0.00189528 </v>
   <v>      -0.00204648      -0.00095483       0.00187624 </v>
   <v>      -0.00108155       0.00007767       0.00032634 </v>
   <v>       0.00055336      -0.00007581       0.00032815 </v>
   <v>      -0.00233211       0.00094162       0.00186042 </v>
   <v>       0.00180374      -0.00094097       0.00185937 </v>
   <v>       0.00453186       0.00007795       0.00032696 </v>
   <v>      -0.00083043      -0.00007583       0.00032659 </v>
   <v>       0.00520917      -0.00188048      -0.00520917 </v>
   <v>       0.00098993       0.00087784      -0.00435487 </v>
   <v>       0.00332527      -0.00190003      -0.00332527 </v>
   <v>      -0.00090379       0.00086415      -0.00419170 </v>
   <v>       0.00435487       0.00087784      -0.00098993 </v>
   <v>       0.00011506       0.00015402      -0.00011506 </v>
   <v>       0.00419170       0.00086415       0.00090379 </v>
   <v>      -0.00004111       0.00015287       0.00004111 </v>
   <v>      -0.00189528       0.00095995      -0.13401266 </v>
   <v>      -0.00186042       0.00094162       0.00233211 </v>
   <v>      -0.00032634       0.00007767       0.00108155 </v>
   <v>      -0.00032696       0.00007795      -0.00453186 </v>
   <v>      -0.00187624      -0.00095483       0.00204648 </v>
   <v>      -0.00185937      -0.00094097      -0.00180374 </v>
   <v>      -0.00032815      -0.00007581      -0.00055336 </v>
   <v>      -0.00032659      -0.00007583       0.00083043 </v>
   <v>      -0.00283023      -0.00372857       0.00283023 </v>
   <v>      -0.00193688       0.00245602       0.00127011 </v>
   <v>      -0.00092712       0.00373111       0.00092712 </v>
   <v>      -0.00178386      -0.00245378      -0.00061467 </v>
   <v>      -0.00127011       0.00245602       0.00193688 </v>
   <v>      -0.00040395      -0.00120553       0.00040395 </v>
   <v>       0.00061467      -0.00245378       0.00178386 </v>
   <v>      -0.00024995       0.00120630       0.00024995 </v>
   <v>      -0.03196342      -0.02266144      -0.02217582 </v>
   <v>       0.00042782      -0.00068191      -0.00042782 </v>
   <v>       0.00078081      -0.00060712      -0.00058753 </v>
   <v>       0.00003173      -0.00043018      -0.00003173 </v>
   <v>       0.00084978      -0.00082035      -0.00084978 </v>
   <v>       0.02217582      -0.02266144       0.03196342 </v>
   <v>      -0.00182635      -0.00050418       0.00182635 </v>
   <v>       0.00058753      -0.00060712      -0.00078081 </v>
   <v>      -0.03252626       0.02199124       0.02187951 </v>
   <v>      -0.02291557      -0.02266341       0.03282810 </v>
   <v>       0.00025784       0.00008464       0.00249681 </v>
   <v>      -0.00062963      -0.00012793      -0.00026207 </v>
   <v>       0.00029943       0.00015960       0.00055810 </v>
   <v>      -0.00056639      -0.00008609       0.00012796 </v>
   <v>      -0.00235073      -0.00001927       0.00007398 </v>
   <v>      -0.00007241       0.00005708       0.00048908 </v>
   <v>      -0.00948206       0.04599079       0.00948206 </v>
   <v>       0.00043066       0.00074699      -0.00085703 </v>
   <v>       0.00092291       0.00068759      -0.00092291 </v>
   <v>       0.00003395       0.00046649       0.00183671 </v>
   <v>       0.00085703       0.00074699      -0.00043066 </v>
   <v>      -0.00000726       0.00049579       0.00000726 </v>
   <v>      -0.00183671       0.00046649      -0.00003395 </v>
   <v>       0.00044758       0.00054329      -0.00044758 </v>
   <v>      -0.03282810      -0.02266341       0.02291557 </v>
   <v>      -0.00012796      -0.00008609       0.00056639 </v>
   <v>       0.00026207      -0.00012793       0.00062963 </v>
   <v>      -0.00048908       0.00005708       0.00007241 </v>
   <v>      -0.02187951       0.02199124       0.03252626 </v>
   <v>      -0.00055810       0.00015960      -0.00029943 </v>
   <v>      -0.00249681       0.00008464      -0.00025784 </v>
   <v>      -0.00007398      -0.00001927       0.00235073 </v>
  </varray>
  <varray name="stress" >
   <v>      -0.03091829       0.12329399       0.00002745 </v>
   <v>       0.12329400      -0.02868011      -0.12329400 </v>
   <v>       0.00002745      -0.12329399      -0.03091829 </v>
  </varray>
  <energy>
   <i name="e_fr_energy">   -367.49985062 </i>
   <i name="e_wo_entrp">   -367.49985062 </i>
   <i name="e_0_energy">   -367.49985062 </i>
  </energy>
  <time name="totalsc">   31.20   31.38</time>
  <eigenvalues>
   <array>
    <dimension dim="1">band</dimension>
    <dimension dim="2">kpoint</dimension>
    <dimension dim="3">spin</dimension>
    <field>eigene</field>
    <field>occ</field>
    <set>
     <set comment="spin 1">
      <set comment="kpoint 1">
       <r>   -6.2055    1.0000 </r>
       <r>   -5.1245    1.0000 </r>
       <r>   -5.1219    1.0000 </r>
       <r>   -5.1217    1.0000 </r>
       <r>   -5.1208    1.0000 </r>
       <r>   -5.1201    1.0000 </r>
       <r>   -5.1187    1.0000 </r>
       <r>   -4.1616    1.0000 </r>
       <r>   -4.1569    1.0000 </r>
       <r>   -4.1567    1.0000 </r>
       <r>   -4.1553    1.0000 </r>
       <r>   -4.1552    1.0000 </r>
       <r>   -4.1551    1.0000 </r>
       <r>   -4.1550    1.0000 </r>
       <r>   -4.1548    1.0000 </r>
       <r>   -4.1538    1.0000 </r>
       <r>   -4.1537    1.0000 </r>
       <r>   -4.1519    1.0000 </r>
       <r>   -4.1505    1.0000 </r>
       <r>   -3.8624    1.0000 </r>
       <r>   -3.8606    1.0000 </r>
       <r>   -3.8606    1.0000 </r>
       <r>   -3.8588    1.0000 </r>
       <r>   -2.0542    1.0000 </r>
       <r>   -2.0542    1.0000 </r>
       <r>   -2.0520    1.0000 </r>
       <r>   -2.0519    1.0000 </r>
       <r>   -2.0498    1.0000 </r>
       <r>   -2.0497    1.0000 </r>
       <r>   -1.8876    1.0000 </r>
       <r>   -1.8872    1.0000 </r>
       <r>   -1.8843    1.0000 </r>
       <r>   -1.8831    1.0000 </r>
       <r>   -1.8830    1.0000 </r>
       <r>   -1.8827    1.0000 </r>
       <r>   -1.8826    1.0000 </r>
       <r>   -1.8824    1.0000 </r>
       <r>   -1.8817    1.0000 </r>
       <r>   -1.8797    1.0000 </r>
       <r>   -1.8795    1.0000 </r>
       <r>   -1.8787    1.0000 </r>
       <r>   -1.2366    1.0000 </r>
       <r>   -1.2347    1.0000 </r>
       <r>   -1.2347    1.0000 </r>
       <r>   -1.2328    1.0000 </r>
       <r>    0.2783    1.0000 </r>
       <r>    0.2786    1.0000 </r>
       <r>    0.2793    1.0000 </r>
       <r>    0.2816    1.0000 </r>
       <r>    0.2819    1.0000 </r>
       <r>    0.2819    1.0000 </r>
       <r>    0.2821    1.0000 </r>
       <r>    0.2822    1.0000 </r>
       <r>    0.2826    1.0000 </r>
       <r>    0.2840    1.0000 </r>
       <r>    0.2848    1.0000 </r>
       <r>    0.2860    1.0000 </r>
       <r>    1.8671    1.0000 </r>
       <r>    1.8701    1.0000 </r>
       <r>    1.8704    1.0000 </r>
       <r>    1.8705    1.0000 </r>
       <r>    1.8709    1.0000 </r>
       <r>    1.8712    1.0000 </r>
       <r>    1.8714    1.0000 </r>
       <r>    1.8717    1.0000 </r>
       <r>    1.8720    1.0000 </r>
       <r>    1.8721    1.0000 </r>
       <r>    1.8728    1.0000 </r>
       <r>    1.8738    1.0000 </r>
       <r>    1.9707    1.0000 </r>
       <r>    1.9714    1.0000 </r>
       <r>    1.9715    1.0000 </r>
       <r>    1.9727    1.0000 </r>
       <r>    1.9730    1.0000 </r>
       <r>    1.9733    1.0000 </r>
       <r>    1.9735    1.0000 </r>
       <r>    1.9739    1.0000 </r>
       <r>    1.9743    1.0000 </r>
       <r>    1.9744    1.0000 </r>
       <r>    1.9755    1.0000 </r>
       <r>    1.9757    1.0000 </r>
       <r>    2.2487    1.0000 </r>
       <r>    2.2501    1.0000 </r>
       <r>    2.2510    1.0000 </r>
       <r>    2.2515    1.0000 </r>
       <r>    2.2532    1.0000 </r>
       <r>    2.2542    1.0000 </r>
       <r>    2.9005    1.0000 </r>
       <r>    2.9016    1.0000 </r>
       <r>    2.9017    1.0000 </r>
       <r>    2.9017    1.0000 </r>
       <r>    2.9019    1.0000 </r>
       <r>    2.9030    1.0000 </r>
       <r>    3.8629    1.0000 </r>
       <r>    3.8634    1.0000 </r>
       <r>    3.8659    1.0000 </r>
       <r>    3.8662    1.0000 </r>
       <r>    3.8666    1.0000 </r>
       <r>    3.8666    1.0000 </r>
       <r>    3.8667    1.0000 </r>
       <r>    3.8668    1.0000 </r>
       <r>    3.8672    1.0000 </r>
       <r>    3.8675    1.0000 </r>
       <r>    3.8699    1.0000 </r>
       <r>    3.8704    1.0000 </r>
       <r>    4.4329    1.0000 </r>
       <r>    4.4339    1.0000 </r>
       <r>    4.4351    1.0000 </r>
       <r>    4.4363    1.0000 </r>
       <r>    4.4368    1.0000 </r>
       <r>    4.4368    1.0000 </r>
       <r>    4.4372    1.0000 </r>
       <r>    4.4376    1.0000 </r>
       <r>    4.4377    1.0000 </r>
       <r>    4.4388    1.0000 </r>
       <r>    4.4396    1.0000 </r>
       <r>    4.4414    1.0000 </r>
       <r>    4.5670    1.0000 </r>
       <r>    4.5676    1.0000 </r>
       <r>    4.5690    1.0000 </r>
       <r>    4.5697    1.0000 </r>
       <r>    4.5700    1.0000 </r>
       <r>    4.5707    1.0000 </r>
       <r>    4.5722    1.0000 </r>
       <r>    4.5729    1.0000 </r>
       <r>    5.7698    1.0000 </r>
       <r>    5.7720    1.0000 </r>
       <r>    5.7741    1.0000 </r>
       <r>    6.3634    0.0000 </r>
       <r>    6.3654    0.0000 </r>
       <r>    6.3657    0.0000 </r>
       <r>    6.3658    0.0000 </r>
       <r>    6.3662    0.0000 </r>
       <r>    6.3681    0.0000 </r>
       <r>    6.8058    0.0000 </r>
       <r>    6.8064    0.0000 </r>
       <r>    6.8079    0.0000 </r>
       <r>    6.8086    0.0000 </r>
       <r>    6.8096    0.0000 </r>
       <r>    6.8101    0.0000 </r>
       <r>    7.2316    0.0000 </r>
       <r>    7.2320    0.0000 </r>
       <r>    7.2320    0.0000 </r>
       <r>    7.2324    0.0000 </r>
       <r>    8.1343    0.0000 </r>
       <r>    8.1351    0.0000 </r>
       <r>    8.1358    0.0000 </r>
       <r>    8.1371    0.0000 </r>
       <r>    8.1376    0.0000 </r>
       <r>    8.1379    0.0000 </r>
       <r>    8.1381    0.0000 </r>
       <r>    8.1381    0.0000 </r>
       <r>    8.1397    0.0000 </r>
       <r>    8.1400    0.0000 </r>
       <r>    8.1404    0.0000 </r>
       <r>    8.1409    0.0000 </r>
       <r>    8.2877    0.0000 </r>
       <r>    8.2889    0.0000 </r>
       <r>    8.2902    0.0000 </r>
       <r>    8.7963    0.0000 </r>
       <r>    8.7975    0.0000 </r>
       <r>    8.7979    0.0000 </r>
       <r>    8.7979    0.0000 </r>
       <r>    8.7984    0.0000 </r>
       <r>    8.7996    0.0000 </r>
       <r>    9.0491    0.0000 </r>
       <r>    9.0508    0.0000 </r>
       <r>    9.0534    0.0000 </r>
      </set>
      <set comment="kpoint 2">
       <r>   -5.9327    1.0000 </r>
       <r>   -5.9313    1.0000 </r>
       <r>   -4.8774    1.0000 </r>
       <r>   -4.8743    1.0000 </r>
       <r>   -4.8734    1.0000 </r>
       <r>   -4.8728    1.0000 </r>
       <r>   -4.8722    1.0000 </r>
       <r>   -4.8713    1.0000 </r>
       <r>   -4.8707    1.0000 </r>
       <r>   -4.8697    1.0000 </r>
       <r>   -4.0267    1.0000 </r>
       <r>   -4.0240    1.0000 </r>
       <r>   -4.0229    1.0000 </r>
       <r>   -4.0227    1.0000 </r>
       <r>   -4.0224    1.0000 </r>
       <r>   -4.0217    1.0000 </r>
       <r>   -4.0208    1.0000 </r>
       <r>   -4.0205    1.0000 </r>
       <r>   -3.8068    1.0000 </r>
       <r>   -3.8045    1.0000 </r>
       <r>   -3.0808    1.0000 </r>
       <r>   -3.0783    1.0000 </r>
       <r>   -3.0768    1.0000 </r>
       <r>   -3.0766    1.0000 </r>
       <r>   -3.0759    1.0000 </r>
       <r>   -3.0751    1.0000 </r>
       <r>   -3.0741    1.0000 </r>
       <r>   -3.0733    1.0000 </r>
       <r>   -1.9754    1.0000 </r>
       <r>   -1.9725    1.0000 </r>
       <r>   -1.9717    1.0000 </r>
       <r>   -1.9714    1.0000 </r>
       <r>   -1.9713    1.0000 </r>
       <r>   -1.9712    1.0000 </r>
       <r>   -1.9693    1.0000 </r>
       <r>   -1.9689    1.0000 </r>
       <r>   -0.8059    1.0000 </r>
       <r>   -0.8047    1.0000 </r>
       <r>   -0.8042    1.0000 </r>
       <r>   -0.8033    1.0000 </r>
       <r>   -0.8024    1.0000 </r>
       <r>   -0.8018    1.0000 </r>
       <r>   -0.8011    1.0000 </r>
       <r>   -0.8007    1.0000 </r>
       <r>   -0.6368    1.0000 </r>
       <r>   -0.6362    1.0000 </r>
       <r>   -0.6349    1.0000 </r>
       <r>   -0.6339    1.0000 </r>
       <r>   -0.6336    1.0000 </r>
       <r>   -0.6333    1.0000 </r>
       <r>   -0.6325    1.0000 </r>
       <r>   -0.6305    1.0000 </r>
       <r>    0.0225    1.0000 </r>
       <r>    0.0239    1.0000 </r>
       <r>    1.4703    1.0000 </r>
       <r>    1.4725    1.0000 </r>
       <r>    1.4727    1.0000 </r>
       <r>    1.4739    1.0000 </r>
       <r>    1.4745    1.0000 </r>
       <r>    1.4752    1.0000 </r>
       <r>    1.4762    1.0000 </r>
       <r>    1.4777    1.0000 </r>
       <r>    1.4906    1.0000 </r>
       <r>    1.4923    1.0000 </r>
       <r>    1.4927    1.0000 </r>
       <r>    1.4933    1.0000 </r>
       <r>    1.4936    1.0000 </r>
       <r>    1.4943    1.0000 </r>
       <r>    1.4954    1.0000 </r>
       <r>    1.4957    1.0000 </r>
       <r>    2.3167    1.0000 </r>
       <r>    2.3170    1.0000 </r>
       <r>    2.3176    1.0000 </r>
       <r>    2.3180    1.0000 </r>
       <r>    2.3184    1.0000 </r>
       <r>    2.3185    1.0000 </r>
       <r>    2.3191    1.0000 </r>
       <r>    2.3192    1.0000 </r>
       <r>    3.0220    1.0000 </r>
       <r>    3.0240    1.0000 </r>
       <r>    3.0241    1.0000 </r>
       <r>    3.0248    1.0000 </r>
       <r>    3.0250    1.0000 </r>
       <r>    3.0253    1.0000 </r>
       <r>    3.0256    1.0000 </r>
       <r>    3.0276    1.0000 </r>
       <r>    3.1465    1.0000 </r>
       <r>    3.1477    1.0000 </r>
       <r>    3.1484    1.0000 </r>
       <r>    3.1494    1.0000 </r>
       <r>    3.1566    1.0000 </r>
       <r>    3.1578    1.0000 </r>
       <r>    3.1586    1.0000 </r>
       <r>    3.1593    1.0000 </r>
       <r>    3.1597    1.0000 </r>
       <r>    3.1601    1.0000 </r>
       <r>    3.1604    1.0000 </r>
       <r>    3.1615    1.0000 </r>
       <r>    3.2834    1.0000 </r>
       <r>    3.2843    1.0000 </r>
       <r>    3.2851    1.0000 </r>
       <r>    3.2856    1.0000 </r>
       <r>    3.2861    1.0000 </r>
       <r>    3.2865    1.0000 </r>
       <r>    3.2871    1.0000 </r>
       <r>    3.2881    1.0000 </r>
       <r>    4.3293    1.0000 </r>
       <r>    4.3310    1.0000 </r>
       <r>    4.3312    1.0000 </r>
       <r>    4.3316    1.0000 </r>
       <r>    4.3320    1.0000 </r>
       <r>    4.3323    1.0000 </r>
       <r>    4.3326    1.0000 </r>
       <r>    4.3345    1.0000 </r>
       <r>    4.4329    1.0000 </r>
       <r>    4.4330    1.0000 </r>
       <r>    4.4963    1.0000 </r>
       <r>    4.4997    1.0000 </r>
       <r>    4.5008    1.0000 </r>
       <r>    4.5009    1.0000 </r>
       <r>    4.5010    1.0000 </r>
       <r>    4.5016    1.0000 </r>
       <r>    4.5020    1.0000 </r>
       <r>    4.5051    1.0000 </r>
       <r>    4.9528    1.0000 </r>
       <r>    4.9547    1.0000 </r>
       <r>    4.9557    1.0000 </r>
       <r>    4.9577    1.0000 </r>
       <r>    6.2790    0.0000 </r>
       <r>    6.2804    0.0000 </r>
       <r>    7.1933    0.0000 </r>
       <r>    7.1946    0.0000 </r>
       <r>    7.6434    0.0000 </r>
       <r>    7.6449    0.0000 </r>
       <r>    7.6450    0.0000 </r>
       <r>    7.6454    0.0000 </r>
       <r>    7.6456    0.0000 </r>
       <r>    7.6467    0.0000 </r>
       <r>    7.6473    0.0000 </r>
       <r>    7.6485    0.0000 </r>
       <r>    7.7139    0.0000 </r>
       <r>    7.7144    0.0000 </r>
       <r>    8.0571    0.0000 </r>
       <r>    8.0590    0.0000 </r>
       <r>    8.0591    0.0000 </r>
       <r>    8.0597    0.0000 </r>
       <r>    8.0598    0.0000 </r>
       <r>    8.0601    0.0000 </r>
       <r>    8.0604    0.0000 </r>
       <r>    8.0622    0.0000 </r>
       <r>    8.1435    0.0000 </r>
       <r>    8.1449    0.0000 </r>
       <r>    8.1451    0.0000 </r>
       <r>    8.1453    0.0000 </r>
       <r>    8.1460    0.0000 </r>
       <r>    8.1462    0.0000 </r>
       <r>    8.1465    0.0000 </r>
       <r>    8.1478    0.0000 </r>
       <r>    8.5502    0.0000 </r>
       <r>    8.5514    0.0000 </r>
       <r>    8.5517    0.0000 </r>
       <r>    8.5521    0.0000 </r>
       <r>    8.5536    0.0000 </r>
       <r>    8.5539    0.0000 </r>
       <r>    8.5542    0.0000 </r>
       <r>    8.5552    0.0000 </r>
       <r>    9.3199    0.0000 </r>
       <r>    9.3237    0.0000 </r>
      </set>
      <set comment="kpoint 3">
       <r>   -5.9320    1.0000 </r>
       <r>   -5.9320    1.0000 </r>
       <r>   -4.8778    1.0000 </r>
       <r>   -4.8743    1.0000 </r>
       <r>   -4.8735    1.0000 </r>
       <r>   -4.8729    1.0000 </r>
       <r>   -4.8726    1.0000 </r>
       <r>   -4.8720    1.0000 </r>
       <r>   -4.8712    1.0000 </r>
       <r>   -4.8677    1.0000 </r>
       <r>   -4.0267    1.0000 </r>
       <r>   -4.0230    1.0000 </r>
       <r>   -4.0227    1.0000 </r>
       <r>   -4.0227    1.0000 </r>
       <r>   -4.0227    1.0000 </r>
       <r>   -4.0227    1.0000 </r>
       <r>   -4.0224    1.0000 </r>
       <r>   -4.0187    1.0000 </r>
       <r>   -3.8057    1.0000 </r>
       <r>   -3.8057    1.0000 </r>
       <r>   -3.0796    1.0000 </r>
       <r>   -3.0781    1.0000 </r>
       <r>   -3.0778    1.0000 </r>
       <r>   -3.0767    1.0000 </r>
       <r>   -3.0761    1.0000 </r>
       <r>   -3.0750    1.0000 </r>
       <r>   -3.0747    1.0000 </r>
       <r>   -3.0732    1.0000 </r>
       <r>   -1.9758    1.0000 </r>
       <r>   -1.9718    1.0000 </r>
       <r>   -1.9715    1.0000 </r>
       <r>   -1.9715    1.0000 </r>
       <r>   -1.9715    1.0000 </r>
       <r>   -1.9714    1.0000 </r>
       <r>   -1.9711    1.0000 </r>
       <r>   -1.9671    1.0000 </r>
       <r>   -0.8061    1.0000 </r>
       <r>   -0.8059    1.0000 </r>
       <r>   -0.8045    1.0000 </r>
       <r>   -0.8032    1.0000 </r>
       <r>   -0.8028    1.0000 </r>
       <r>   -0.8016    1.0000 </r>
       <r>   -0.8002    1.0000 </r>
       <r>   -0.8000    1.0000 </r>
       <r>   -0.6374    1.0000 </r>
       <r>   -0.6350    1.0000 </r>
       <r>   -0.6340    1.0000 </r>
       <r>   -0.6340    1.0000 </r>
       <r>   -0.6340    1.0000 </r>
       <r>   -0.6340    1.0000 </r>
       <r>   -0.6329    1.0000 </r>
       <r>   -0.6304    1.0000 </r>
       <r>    0.0232    1.0000 </r>
       <r>    0.0232    1.0000 </r>
       <r>    1.4719    1.0000 </r>
       <r>    1.4720    1.0000 </r>
       <r>    1.4730    1.0000 </r>
       <r>    1.4740    1.0000 </r>
       <r>    1.4745    1.0000 </r>
       <r>    1.4751    1.0000 </r>
       <r>    1.4763    1.0000 </r>
       <r>    1.4764    1.0000 </r>
       <r>    1.4910    1.0000 </r>
       <r>    1.4926    1.0000 </r>
       <r>    1.4931    1.0000 </r>
       <r>    1.4934    1.0000 </r>
       <r>    1.4936    1.0000 </r>
       <r>    1.4936    1.0000 </r>
       <r>    1.4941    1.0000 </r>
       <r>    1.4960    1.0000 </r>
       <r>    2.3165    1.0000 </r>
       <r>    2.3167    1.0000 </r>
       <r>    2.3177    1.0000 </r>
       <r>    2.3179    1.0000 </r>
       <r>    2.3182    1.0000 </r>
       <r>    2.3184    1.0000 </r>
       <r>    2.3193    1.0000 </r>
       <r>    2.3196    1.0000 </r>
       <r>    3.0239    1.0000 </r>
       <r>    3.0240    1.0000 </r>
       <r>    3.0244    1.0000 </r>
       <r>    3.0245    1.0000 </r>
       <r>    3.0251    1.0000 </r>
       <r>    3.0252    1.0000 </r>
       <r>    3.0256    1.0000 </r>
       <r>    3.0257    1.0000 </r>
       <r>    3.1480    1.0000 </r>
       <r>    3.1480    1.0000 </r>
       <r>    3.1481    1.0000 </r>
       <r>    3.1481    1.0000 </r>
       <r>    3.1570    1.0000 </r>
       <r>    3.1576    1.0000 </r>
       <r>    3.1581    1.0000 </r>
       <r>    3.1590    1.0000 </r>
       <r>    3.1593    1.0000 </r>
       <r>    3.1603    1.0000 </r>
       <r>    3.1609    1.0000 </r>
       <r>    3.1614    1.0000 </r>
       <r>    3.2826    1.0000 </r>
       <r>    3.2846    1.0000 </r>
       <r>    3.2857    1.0000 </r>
       <r>    3.2857    1.0000 </r>
       <r>    3.2858    1.0000 </r>
       <r>    3.2858    1.0000 </r>
       <r>    3.2870    1.0000 </r>
       <r>    3.2889    1.0000 </r>
       <r>    4.3281    1.0000 </r>
       <r>    4.3285    1.0000 </r>
       <r>    4.3312    1.0000 </r>
       <r>    4.3314    1.0000 </r>
       <r>    4.3322    1.0000 </r>
       <r>    4.3325    1.0000 </r>
       <r>    4.3350    1.0000 </r>
       <r>    4.3354    1.0000 </r>
       <r>    4.4330    1.0000 </r>
       <r>    4.4331    1.0000 </r>
       <r>    4.4986    1.0000 </r>
       <r>    4.5008    1.0000 </r>
       <r>    4.5009    1.0000 </r>
       <r>    4.5009    1.0000 </r>
       <r>    4.5009    1.0000 </r>
       <r>    4.5009    1.0000 </r>
       <r>    4.5012    1.0000 </r>
       <r>    4.5032    1.0000 </r>
       <r>    4.9552    1.0000 </r>
       <r>    4.9552    1.0000 </r>
       <r>    4.9552    1.0000 </r>
       <r>    4.9553    1.0000 </r>
       <r>    6.2797    0.0000 </r>
       <r>    6.2797    0.0000 </r>
       <r>    7.1939    0.0000 </r>
       <r>    7.1939    0.0000 </r>
       <r>    7.6439    0.0000 </r>
       <r>    7.6440    0.0000 </r>
       <r>    7.6452    0.0000 </r>
       <r>    7.6454    0.0000 </r>
       <r>    7.6463    0.0000 </r>
       <r>    7.6465    0.0000 </r>
       <r>    7.6477    0.0000 </r>
       <r>    7.6477    0.0000 </r>
       <r>    7.7141    0.0000 </r>
       <r>    7.7142    0.0000 </r>
       <r>    8.0587    0.0000 </r>
       <r>    8.0591    0.0000 </r>
       <r>    8.0596    0.0000 </r>
       <r>    8.0597    0.0000 </r>
       <r>    8.0597    0.0000 </r>
       <r>    8.0597    0.0000 </r>
       <r>    8.0603    0.0000 </r>
       <r>    8.0606    0.0000 </r>
       <r>    8.1432    0.0000 </r>
       <r>    8.1445    0.0000 </r>
       <r>    8.1452    0.0000 </r>
       <r>    8.1454    0.0000 </r>
       <r>    8.1460    0.0000 </r>
       <r>    8.1462    0.0000 </r>
       <r>    8.1468    0.0000 </r>
       <r>    8.1480    0.0000 </r>
       <r>    8.5511    0.0000 </r>
       <r>    8.5512    0.0000 </r>
       <r>    8.5519    0.0000 </r>
       <r>    8.5525    0.0000 </r>
       <r>    8.5531    0.0000 </r>
       <r>    8.5537    0.0000 </r>
       <r>    8.5544    0.0000 </r>
       <r>    8.5545    0.0000 </r>
       <r>    9.3205    0.0000 </r>
       <r>    9.3229    0.0000 </r>
      </set>
      <set comment="kpoint 4">
       <r>   -5.6652    1.0000 </r>
       <r>   -5.6641    1.0000 </r>
       <r>   -5.6637    1.0000 </r>
       <r>   -5.6627    1.0000 </r>
       <r>   -4.6489    1.0000 </r>
       <r>   -4.6447    1.0000 </r>
       <r>   -4.6442    1.0000 </r>
       <r>   -4.6441    1.0000 </r>
       <r>   -4.6438    1.0000 </r>
       <r>   -4.6434    1.0000 </r>
       <r>   -4.6423    1.0000 </r>
       <r>   -4.6417    1.0000 </r>
       <r>   -3.6090    1.0000 </r>
       <r>   -3.6065    1.0000 </r>
       <r>   -3.6058    1.0000 </r>
       <r>   -3.6055    1.0000 </r>
       <r>   -3.6051    1.0000 </r>
       <r>   -3.6047    1.0000 </r>
       <r>   -3.6043    1.0000 </r>
       <r>   -3.6021    1.0000 </r>
       <r>   -3.3250    1.0000 </r>
       <r>   -3.3232    1.0000 </r>
       <r>   -3.3218    1.0000 </r>
       <r>   -3.3218    1.0000 </r>
       <r>   -3.3214    1.0000 </r>
       <r>   -3.3209    1.0000 </r>
       <r>   -3.3203    1.0000 </r>
       <r>   -3.3187    1.0000 </r>
       <r>   -2.4617    1.0000 </r>
       <r>   -2.4608    1.0000 </r>
       <r>   -2.4591    1.0000 </r>
       <r>   -2.4575    1.0000 </r>
       <r>   -1.4650    1.0000 </r>
       <r>   -1.4623    1.0000 </r>
       <r>   -1.4618    1.0000 </r>
       <r>   -1.4615    1.0000 </r>
       <r>   -1.0419    1.0000 </r>
       <r>   -1.0400    1.0000 </r>
       <r>   -1.0394    1.0000 </r>
       <r>   -1.0384    1.0000 </r>
       <r>   -1.0380    1.0000 </r>
       <r>   -1.0376    1.0000 </r>
       <r>   -1.0365    1.0000 </r>
       <r>   -1.0349    1.0000 </r>
       <r>   -0.1981    1.0000 </r>
       <r>   -0.1978    1.0000 </r>
       <r>   -0.1963    1.0000 </r>
       <r>   -0.1953    1.0000 </r>
       <r>   -0.1951    1.0000 </r>
       <r>   -0.1944    1.0000 </r>
       <r>   -0.1933    1.0000 </r>
       <r>   -0.1917    1.0000 </r>
       <r>    0.4627    1.0000 </r>
       <r>    0.4629    1.0000 </r>
       <r>    0.4641    1.0000 </r>
       <r>    0.4648    1.0000 </r>
       <r>    0.4649    1.0000 </r>
       <r>    0.4652    1.0000 </r>
       <r>    0.4671    1.0000 </r>
       <r>    0.4681    1.0000 </r>
       <r>    1.4158    1.0000 </r>
       <r>    1.4171    1.0000 </r>
       <r>    1.4175    1.0000 </r>
       <r>    1.4176    1.0000 </r>
       <r>    2.2851    1.0000 </r>
       <r>    2.2855    1.0000 </r>
       <r>    2.2866    1.0000 </r>
       <r>    2.2870    1.0000 </r>
       <r>    2.2874    1.0000 </r>
       <r>    2.2882    1.0000 </r>
       <r>    2.2888    1.0000 </r>
       <r>    2.2896    1.0000 </r>
       <r>    2.3706    1.0000 </r>
       <r>    2.3711    1.0000 </r>
       <r>    2.3716    1.0000 </r>
       <r>    2.3723    1.0000 </r>
       <r>    2.3725    1.0000 </r>
       <r>    2.3728    1.0000 </r>
       <r>    2.3731    1.0000 </r>
       <r>    2.3735    1.0000 </r>
       <r>    2.9813    1.0000 </r>
       <r>    2.9818    1.0000 </r>
       <r>    2.9826    1.0000 </r>
       <r>    2.9827    1.0000 </r>
       <r>    2.9833    1.0000 </r>
       <r>    2.9839    1.0000 </r>
       <r>    2.9846    1.0000 </r>
       <r>    2.9854    1.0000 </r>
       <r>    3.0748    1.0000 </r>
       <r>    3.0766    1.0000 </r>
       <r>    3.0777    1.0000 </r>
       <r>    3.0779    1.0000 </r>
       <r>    3.3296    1.0000 </r>
       <r>    3.3314    1.0000 </r>
       <r>    3.3322    1.0000 </r>
       <r>    3.3325    1.0000 </r>
       <r>    3.5890    1.0000 </r>
       <r>    3.5901    1.0000 </r>
       <r>    3.5904    1.0000 </r>
       <r>    3.5909    1.0000 </r>
       <r>    3.5913    1.0000 </r>
       <r>    3.5916    1.0000 </r>
       <r>    3.5922    1.0000 </r>
       <r>    3.5934    1.0000 </r>
       <r>    3.9154    1.0000 </r>
       <r>    3.9173    1.0000 </r>
       <r>    3.9175    1.0000 </r>
       <r>    3.9180    1.0000 </r>
       <r>    3.9186    1.0000 </r>
       <r>    3.9191    1.0000 </r>
       <r>    3.9192    1.0000 </r>
       <r>    3.9208    1.0000 </r>
       <r>    4.1180    1.0000 </r>
       <r>    4.1182    1.0000 </r>
       <r>    4.1187    1.0000 </r>
       <r>    4.1189    1.0000 </r>
       <r>    4.1695    1.0000 </r>
       <r>    4.1732    1.0000 </r>
       <r>    4.1738    1.0000 </r>
       <r>    4.1742    1.0000 </r>
       <r>    4.1746    1.0000 </r>
       <r>    4.1747    1.0000 </r>
       <r>    4.1751    1.0000 </r>
       <r>    4.1781    1.0000 </r>
       <r>    5.4775    1.0000 </r>
       <r>    5.4797    1.0000 </r>
       <r>    5.4805    1.0000 </r>
       <r>    5.4833    1.0000 </r>
       <r>    6.8638    0.0000 </r>
       <r>    6.8659    0.0000 </r>
       <r>    6.8664    0.0000 </r>
       <r>    6.8671    0.0000 </r>
       <r>    7.6295    0.0000 </r>
       <r>    7.6299    0.0000 </r>
       <r>    7.6309    0.0000 </r>
       <r>    7.6315    0.0000 </r>
       <r>    7.6319    0.0000 </r>
       <r>    7.6321    0.0000 </r>
       <r>    7.6325    0.0000 </r>
       <r>    7.6345    0.0000 </r>
       <r>    7.9367    0.0000 </r>
       <r>    7.9393    0.0000 </r>
       <r>    7.9394    0.0000 </r>
       <r>    7.9396    0.0000 </r>
       <r>    7.9403    0.0000 </r>
       <r>    7.9404    0.0000 </r>
       <r>    7.9409    0.0000 </r>
       <r>    7.9432    0.0000 </r>
       <r>    8.3126    0.0000 </r>
       <r>    8.3141    0.0000 </r>
       <r>    8.3147    0.0000 </r>
       <r>    8.3150    0.0000 </r>
       <r>    8.3155    0.0000 </r>
       <r>    8.3158    0.0000 </r>
       <r>    8.3169    0.0000 </r>
       <r>    8.3169    0.0000 </r>
       <r>    8.7646    0.0000 </r>
       <r>    8.7663    0.0000 </r>
       <r>    8.7679    0.0000 </r>
       <r>    8.7695    0.0000 </r>
       <r>    8.7710    0.0000 </r>
       <r>    8.7734    0.0000 </r>
       <r>    8.7748    0.0000 </r>
       <r>    8.7772    0.0000 </r>
       <r>    8.7851    0.0000 </r>
       <r>    8.7901    0.0000 </r>
       <r>    8.8065    0.0000 </r>
       <r>    8.8121    0.0000 </r>
      </set>
      <set comment="kpoint 5">
       <r>   -5.6663    1.0000 </r>
       <r>   -5.6636    1.0000 </r>
       <r>   -5.6629    1.0000 </r>
       <r>   -5.6629    1.0000 </r>
       <r>   -4.6477    1.0000 </r>
       <r>   -4.6453    1.0000 </r>
       <r>   -4.6440    1.0000 </r>
       <r>   -4.6439    1.0000 </r>
       <r>   -4.6439    1.0000 </r>
       <r>   -4.6435    1.0000 </r>
       <r>   -4.6425    1.0000 </r>
       <r>   -4.6423    1.0000 </r>
       <r>   -3.6093    1.0000 </r>
       <r>   -3.6085    1.0000 </r>
       <r>   -3.6055    1.0000 </r>
       <r>   -3.6053    1.0000 </r>
       <r>   -3.6052    1.0000 </r>
       <r>   -3.6045    1.0000 </r>
       <r>   -3.6036    1.0000 </r>
       <r>   -3.6011    1.0000 </r>
       <r>   -3.3251    1.0000 </r>
       <r>   -3.3246    1.0000 </r>
       <r>   -3.3218    1.0000 </r>
       <r>   -3.3216    1.0000 </r>
       <r>   -3.3215    1.0000 </r>
       <r>   -3.3205    1.0000 </r>
       <r>   -3.3203    1.0000 </r>
       <r>   -3.3175    1.0000 </r>
       <r>   -2.4609    1.0000 </r>
       <r>   -2.4601    1.0000 </r>
       <r>   -2.4601    1.0000 </r>
       <r>   -2.4580    1.0000 </r>
       <r>   -1.4643    1.0000 </r>
       <r>   -1.4640    1.0000 </r>
       <r>   -1.4612    1.0000 </r>
       <r>   -1.4612    1.0000 </r>
       <r>   -1.0407    1.0000 </r>
       <r>   -1.0407    1.0000 </r>
       <r>   -1.0386    1.0000 </r>
       <r>   -1.0385    1.0000 </r>
       <r>   -1.0381    1.0000 </r>
       <r>   -1.0373    1.0000 </r>
       <r>   -1.0365    1.0000 </r>
       <r>   -1.0363    1.0000 </r>
       <r>   -0.1986    1.0000 </r>
       <r>   -0.1965    1.0000 </r>
       <r>   -0.1954    1.0000 </r>
       <r>   -0.1952    1.0000 </r>
       <r>   -0.1951    1.0000 </r>
       <r>   -0.1946    1.0000 </r>
       <r>   -0.1935    1.0000 </r>
       <r>   -0.1931    1.0000 </r>
       <r>    0.4620    1.0000 </r>
       <r>    0.4631    1.0000 </r>
       <r>    0.4636    1.0000 </r>
       <r>    0.4647    1.0000 </r>
       <r>    0.4653    1.0000 </r>
       <r>    0.4657    1.0000 </r>
       <r>    0.4668    1.0000 </r>
       <r>    0.4686    1.0000 </r>
       <r>    1.4160    1.0000 </r>
       <r>    1.4168    1.0000 </r>
       <r>    1.4176    1.0000 </r>
       <r>    1.4176    1.0000 </r>
       <r>    2.2858    1.0000 </r>
       <r>    2.2860    1.0000 </r>
       <r>    2.2869    1.0000 </r>
       <r>    2.2873    1.0000 </r>
       <r>    2.2876    1.0000 </r>
       <r>    2.2878    1.0000 </r>
       <r>    2.2883    1.0000 </r>
       <r>    2.2885    1.0000 </r>
       <r>    2.3703    1.0000 </r>
       <r>    2.3707    1.0000 </r>
       <r>    2.3717    1.0000 </r>
       <r>    2.3718    1.0000 </r>
       <r>    2.3724    1.0000 </r>
       <r>    2.3730    1.0000 </r>
       <r>    2.3737    1.0000 </r>
       <r>    2.3740    1.0000 </r>
       <r>    2.9819    1.0000 </r>
       <r>    2.9824    1.0000 </r>
       <r>    2.9827    1.0000 </r>
       <r>    2.9827    1.0000 </r>
       <r>    2.9833    1.0000 </r>
       <r>    2.9835    1.0000 </r>
       <r>    2.9842    1.0000 </r>
       <r>    2.9849    1.0000 </r>
       <r>    3.0759    1.0000 </r>
       <r>    3.0759    1.0000 </r>
       <r>    3.0775    1.0000 </r>
       <r>    3.0775    1.0000 </r>
       <r>    3.3306    1.0000 </r>
       <r>    3.3306    1.0000 </r>
       <r>    3.3314    1.0000 </r>
       <r>    3.3329    1.0000 </r>
       <r>    3.5887    1.0000 </r>
       <r>    3.5888    1.0000 </r>
       <r>    3.5908    1.0000 </r>
       <r>    3.5911    1.0000 </r>
       <r>    3.5916    1.0000 </r>
       <r>    3.5923    1.0000 </r>
       <r>    3.5927    1.0000 </r>
       <r>    3.5927    1.0000 </r>
       <r>    3.9144    1.0000 </r>
       <r>    3.9164    1.0000 </r>
       <r>    3.9177    1.0000 </r>
       <r>    3.9183    1.0000 </r>
       <r>    3.9184    1.0000 </r>
       <r>    3.9193    1.0000 </r>
       <r>    3.9200    1.0000 </r>
       <r>    3.9214    1.0000 </r>
       <r>    4.1180    1.0000 </r>
       <r>    4.1184    1.0000 </r>
       <r>    4.1185    1.0000 </r>
       <r>    4.1189    1.0000 </r>
       <r>    4.1729    1.0000 </r>
       <r>    4.1732    1.0000 </r>
       <r>    4.1738    1.0000 </r>
       <r>    4.1741    1.0000 </r>
       <r>    4.1741    1.0000 </r>
       <r>    4.1742    1.0000 </r>
       <r>    4.1748    1.0000 </r>
       <r>    4.1760    1.0000 </r>
       <r>    5.4793    1.0000 </r>
       <r>    5.4805    1.0000 </r>
       <r>    5.4805    1.0000 </r>
       <r>    5.4806    1.0000 </r>
       <r>    6.8647    0.0000 </r>
       <r>    6.8655    0.0000 </r>
       <r>    6.8665    0.0000 </r>
       <r>    6.8665    0.0000 </r>
       <r>    7.6294    0.0000 </r>
       <r>    7.6302    0.0000 </r>
       <r>    7.6313    0.0000 </r>
       <r>    7.6315    0.0000 </r>
       <r>    7.6317    0.0000 </r>
       <r>    7.6322    0.0000 </r>
       <r>    7.6333    0.0000 </r>
       <r>    7.6333    0.0000 </r>
       <r>    7.9388    0.0000 </r>
       <r>    7.9394    0.0000 </r>
       <r>    7.9399    0.0000 </r>
       <r>    7.9400    0.0000 </r>
       <r>    7.9402    0.0000 </r>
       <r>    7.9403    0.0000 </r>
       <r>    7.9404    0.0000 </r>
       <r>    7.9409    0.0000 </r>
       <r>    8.3137    0.0000 </r>
       <r>    8.3139    0.0000 </r>
       <r>    8.3146    0.0000 </r>
       <r>    8.3154    0.0000 </r>
       <r>    8.3156    0.0000 </r>
       <r>    8.3158    0.0000 </r>
       <r>    8.3159    0.0000 </r>
       <r>    8.3166    0.0000 </r>
       <r>    8.7643    0.0000 </r>
       <r>    8.7665    0.0000 </r>
       <r>    8.7676    0.0000 </r>
       <r>    8.7696    0.0000 </r>
       <r>    8.7704    0.0000 </r>
       <r>    8.7735    0.0000 </r>
       <r>    8.7748    0.0000 </r>
       <r>    8.7799    0.0000 </r>
       <r>    8.7837    0.0000 </r>
       <r>    8.7980    0.0000 </r>
       <r>    8.8076    0.0000 </r>
       <r>    8.8137    0.0000 </r>
      </set>
      <set comment="kpoint 6">
       <r>   -5.4083    1.0000 </r>
       <r>   -5.4045    1.0000 </r>
       <r>   -5.4039    1.0000 </r>
       <r>   -5.4039    1.0000 </r>
       <r>   -5.4034    1.0000 </r>
       <r>   -5.4030    1.0000 </r>
       <r>   -5.4015    1.0000 </r>
       <r>   -5.4014    1.0000 </r>
       <r>   -3.4892    1.0000 </r>
       <r>   -3.4852    1.0000 </r>
       <r>   -3.4816    1.0000 </r>
       <r>   -3.4789    1.0000 </r>
       <r>   -3.4786    1.0000 </r>
       <r>   -3.4785    1.0000 </r>
       <r>   -3.4782    1.0000 </r>
       <r>   -3.4781    1.0000 </r>
       <r>   -3.4780    1.0000 </r>
       <r>   -3.4779    1.0000 </r>
       <r>   -3.4779    1.0000 </r>
       <r>   -3.4779    1.0000 </r>
       <r>   -3.4778    1.0000 </r>
       <r>   -3.4775    1.0000 </r>
       <r>   -3.4775    1.0000 </r>
       <r>   -3.4773    1.0000 </r>
       <r>   -3.4773    1.0000 </r>
       <r>   -3.4772    1.0000 </r>
       <r>   -3.4769    1.0000 </r>
       <r>   -3.4765    1.0000 </r>
       <r>   -3.4746    1.0000 </r>
       <r>   -3.4744    1.0000 </r>
       <r>   -3.4718    1.0000 </r>
       <r>   -3.4680    1.0000 </r>
       <r>   -0.6320    1.0000 </r>
       <r>   -0.6317    1.0000 </r>
       <r>   -0.6311    1.0000 </r>
       <r>   -0.6258    1.0000 </r>
       <r>   -0.6258    1.0000 </r>
       <r>   -0.6253    1.0000 </r>
       <r>   -0.6250    1.0000 </r>
       <r>   -0.6250    1.0000 </r>
       <r>   -0.6249    1.0000 </r>
       <r>   -0.6248    1.0000 </r>
       <r>   -0.6247    1.0000 </r>
       <r>   -0.6246    1.0000 </r>
       <r>   -0.6245    1.0000 </r>
       <r>   -0.6244    1.0000 </r>
       <r>   -0.6242    1.0000 </r>
       <r>   -0.6242    1.0000 </r>
       <r>   -0.6240    1.0000 </r>
       <r>   -0.6239    1.0000 </r>
       <r>   -0.6237    1.0000 </r>
       <r>   -0.6236    1.0000 </r>
       <r>   -0.6215    1.0000 </r>
       <r>   -0.6199    1.0000 </r>
       <r>   -0.6197    1.0000 </r>
       <r>   -0.6158    1.0000 </r>
       <r>    1.8196    1.0000 </r>
       <r>    1.8212    1.0000 </r>
       <r>    1.8215    1.0000 </r>
       <r>    1.8223    1.0000 </r>
       <r>    1.8229    1.0000 </r>
       <r>    1.8231    1.0000 </r>
       <r>    1.8252    1.0000 </r>
       <r>    1.8255    1.0000 </r>
       <r>    2.1915    1.0000 </r>
       <r>    2.1945    1.0000 </r>
       <r>    2.1951    1.0000 </r>
       <r>    2.1958    1.0000 </r>
       <r>    2.1972    1.0000 </r>
       <r>    2.1973    1.0000 </r>
       <r>    2.1975    1.0000 </r>
       <r>    2.1978    1.0000 </r>
       <r>    2.1979    1.0000 </r>
       <r>    2.1980    1.0000 </r>
       <r>    2.1982    1.0000 </r>
       <r>    2.1984    1.0000 </r>
       <r>    2.1986    1.0000 </r>
       <r>    2.1986    1.0000 </r>
       <r>    2.1988    1.0000 </r>
       <r>    2.1990    1.0000 </r>
       <r>    2.1991    1.0000 </r>
       <r>    2.1992    1.0000 </r>
       <r>    2.1994    1.0000 </r>
       <r>    2.1997    1.0000 </r>
       <r>    2.2011    1.0000 </r>
       <r>    2.2020    1.0000 </r>
       <r>    2.2032    1.0000 </r>
       <r>    2.2034    1.0000 </r>
       <r>    3.5453    1.0000 </r>
       <r>    3.5478    1.0000 </r>
       <r>    3.5496    1.0000 </r>
       <r>    3.5501    1.0000 </r>
       <r>    3.5514    1.0000 </r>
       <r>    3.5514    1.0000 </r>
       <r>    3.5520    1.0000 </r>
       <r>    3.5521    1.0000 </r>
       <r>    3.5522    1.0000 </r>
       <r>    3.5522    1.0000 </r>
       <r>    3.5525    1.0000 </r>
       <r>    3.5525    1.0000 </r>
       <r>    3.5526    1.0000 </r>
       <r>    3.5526    1.0000 </r>
       <r>    3.5528    1.0000 </r>
       <r>    3.5529    1.0000 </r>
       <r>    3.5532    1.0000 </r>
       <r>    3.5533    1.0000 </r>
       <r>    3.5535    1.0000 </r>
       <r>    3.5538    1.0000 </r>
       <r>    3.5538    1.0000 </r>
       <r>    3.5559    1.0000 </r>
       <r>    3.5563    1.0000 </r>
       <r>    3.5596    1.0000 </r>
       <r>    5.0003    1.0000 </r>
       <r>    5.0030    1.0000 </r>
       <r>    5.0065    1.0000 </r>
       <r>    5.0066    1.0000 </r>
       <r>    5.0073    1.0000 </r>
       <r>    5.0073    1.0000 </r>
[...]
      </set>
     </set>
    </set>
   </array>
  </eigenvalues>
  <separator name="orbital magnetization" >
   <v name="MAGDIPOLOUT">      0.00000000      0.00000000      0.00000000</v>
  </separator>
  <dos>
   <i name="efermi">      5.89365299 </i>
   <total>
    <array>
     <dimension dim="1">gridpoints</dimension>
     <dimension dim="2">spin</dimension>
     <field>energy</field>
     <field>total</field>
     <field>integrated</field>
     <set>
      <set comment="spin 1">
       <r>    -6.9820     0.0000     0.0000 </r>
       <r>    -6.9250     0.0000     0.0000 </r>
       <r>    -6.8681     0.0000     0.0000 </r>
       <r>    -6.8112     0.0000     0.0000 </r>
       <r>    -6.7542     0.0000     0.0000 </r>
       <r>    -6.6973     0.0000     0.0000 </r>
       <r>    -6.6403     0.0000     0.0000 </r>
       <r>    -6.5834     0.0000     0.0000 </r>
       <r>    -6.5265     0.0000     0.0000 </r>
       <r>    -6.4695     0.0000     0.0000 </r>
       <r>    -6.4126     0.0000     0.0000 </r>
       <r>    -6.3556     0.0000     0.0000 </r>
       <r>    -6.2987     0.0000     0.0000 </r>
       <r>    -6.2418     0.0228     0.0013 </r>
       <r>    -6.1848     4.0534     0.2321 </r>
       <r>    -6.1279     0.3143     0.2500 </r>
       <r>    -6.0709     0.0000     0.2500 </r>
       <r>    -6.0140     0.0000     0.2500 </r>
       <r>    -5.9571     1.0150     0.3078 </r>
       <r>    -5.9001    25.0105     1.7319 </r>
       <r>    -5.8432     0.3179     1.7500 </r>
       <r>    -5.7862     0.0000     1.7500 </r>
       <r>    -5.7293     0.0001     1.7500 </r>
       <r>    -5.6724    14.5511     2.5785 </r>
       <r>    -5.6154    38.1191     4.7491 </r>
       <r>    -5.5585     0.0165     4.7500 </r>
       <r>    -5.5015     0.0000     4.7500 </r>
       <r>    -5.4446     0.0755     4.7543 </r>
       <r>    -5.3876    30.4846     6.4901 </r>
       <r>    -5.3307     4.5644     6.7500 </r>
       <r>    -5.2738     0.0000     6.7500 </r>
       <r>    -5.2168     0.0000     6.7500 </r>
       <r>    -5.1599     0.0890     6.7551 </r>
       <r>    -5.1029    23.6402     8.1011 </r>
       <r>    -5.0460     2.6141     8.2500 </r>
       <r>    -4.9891     0.0000     8.2500 </r>
       <r>    -4.9321     0.0019     8.2501 </r>
       <r>    -4.8752    45.5332    10.8428 </r>
       <r>    -4.8182    59.8309    14.2496 </r>
       <r>    -4.7613     0.0075    14.2500 </r>
       <r>    -4.7044     0.0013    14.2501 </r>
       <r>    -4.6474    43.0757    16.7028 </r>
       <r>    -4.5905    62.2877    20.2495 </r>
       <r>    -4.5335     0.0087    20.2500 </r>
       <r>    -4.4766     0.0000    20.2500 </r>
       <r>    -4.4197     0.0000    20.2500 </r>
       <r>    -4.3627     0.0000    20.2500 </r>
       <r>    -4.3058     0.0000    20.2500 </r>
       <r>    -4.2488     0.0000    20.2500 </r>
       <r>    -4.1919     0.2781    20.2658 </r>
       <r>    -4.1350    48.1285    23.0063 </r>
       <r>    -4.0780     4.2858    23.2503 </r>
       <r>    -4.0211    57.4687    26.5226 </r>
       <r>    -3.9641    47.8970    29.2499 </r>
       <r>    -3.9072     0.0112    29.2505 </r>
       <r>    -3.8503    13.4926    30.0188 </r>
       <r>    -3.7933    25.3369    31.4615 </r>
       <r>    -3.7364     5.0669    31.7500 </r>
       <r>    -3.6794     0.0000    31.7500 </r>
       <r>    -3.6225    12.1632    32.4426 </r>
       <r>    -3.5656    92.9297    37.7340 </r>
       <r>    -3.5086     2.1759    37.8579 </r>
       <r>    -3.4517    99.5536    43.5265 </r>
       <r>    -3.3947     3.9246    43.7500 </r>
       <r>    -3.3378    13.5446    44.5212 </r>
       <r>    -3.2809    91.6025    49.7371 </r>
       <r>    -3.2239     0.2264    49.7500 </r>
       <r>    -3.1670     0.0000    49.7500 </r>
       <r>    -3.1100     0.9859    49.8061 </r>
       <r>    -3.0531    98.9460    55.4402 </r>
       <r>    -2.9962     5.4416    55.7500 </r>
       <r>    -2.9392     0.0000    55.7500 </r>
       <r>    -2.8823     0.0000    55.7500 </r>
       <r>    -2.8253     0.0000    55.7500 </r>
       <r>    -2.7684     0.0000    55.7500 </r>
       <r>    -2.7115     0.0000    55.7500 </r>
       <r>    -2.6545     0.0000    55.7500 </r>
       <r>    -2.5976     0.0000    55.7500 </r>
       <r>    -2.5406     0.0000    55.7500 </r>
       <r>    -2.4837     2.4296    55.8883 </r>
       <r>    -2.4268    49.7236    58.7196 </r>
       <r>    -2.3698     0.5335    58.7500 </r>
       <r>    -2.3129     0.0000    58.7500 </r>
       <r>    -2.2559     0.0000    58.7500 </r>
       <r>    -2.1990     0.0000    58.7500 </r>
       <r>    -2.1421     0.0000    58.7500 </r>
       <r>    -2.0851     0.2648    58.7651 </r>
       <r>    -2.0282    24.8285    60.1788 </r>
       <r>    -1.9712    54.6299    63.2895 </r>
       <r>    -1.9143    52.7330    66.2921 </r>
       <r>    -1.8573    49.8938    69.1331 </r>
       <r>    -1.8004     2.0535    69.2500 </r>
       <r>    -1.7435     0.0000    69.2500 </r>
       <r>    -1.6865     0.0000    69.2500 </r>
       <r>    -1.6296     0.0000    69.2500 </r>
       <r>    -1.5726     0.0000    69.2500 </r>
       <r>    -1.5157     0.0050    69.2503 </r>
       <r>    -1.4588    32.0402    71.0747 </r>
       <r>    -1.4018    20.6410    72.2500 </r>
       <r>    -1.3449     0.0005    72.2500 </r>
       <r>    -1.2879     0.0016    72.2501 </r>
       <r>    -1.2310    10.5795    72.8525 </r>
       <r>    -1.1741     6.9810    73.2500 </r>
       <r>    -1.1171     0.0002    73.2500 </r>
       <r>    -1.0602     6.6273    73.6274 </r>
       <r>    -1.0032    98.0146    79.2083 </r>
       <r>    -0.9463     0.7315    79.2500 </r>
       <r>    -0.8894     0.0000    79.2500 </r>
       <r>    -0.8324     2.0726    79.3680 </r>
       <r>    -0.7755   100.4734    85.0890 </r>
       <r>    -0.7185     2.8274    85.2500 </r>
       <r>    -0.6616     3.3560    85.4411 </r>
       <r>    -0.6047   196.2729    96.6169 </r>
       <r>    -0.5477    11.1180    97.2500 </r>
       <r>    -0.4908     0.0000    97.2500 </r>
       <r>    -0.4338     0.0000    97.2500 </r>
       <r>    -0.3769     0.0000    97.2500 </r>
       <r>    -0.3200     0.0000    97.2500 </r>
       <r>    -0.2630     0.0001    97.2500 </r>
       <r>    -0.2061    23.6024    98.5939 </r>
       <r>    -0.1491    81.7061   103.2463 </r>
       <r>    -0.0922     0.0648   103.2500 </r>
       <r>    -0.0353     0.0005   103.2500 </r>
       <r>     0.0217    12.0151   103.9342 </r>
       <r>     0.0786    14.3266   104.7499 </r>
       <r>     0.1356     0.0012   104.7500 </r>
       <r>     0.1925     0.0000   104.7500 </r>
       <r>     0.2494     0.6120   104.7848 </r>
       <r>     0.3064    49.7583   107.6181 </r>
       <r>     0.3633     2.3164   107.7500 </r>
       <r>     0.4203     0.0898   107.7551 </r>
       <r>     0.4772    84.6668   112.5761 </r>
       <r>     0.5341    20.6168   113.7500 </r>
       <r>     0.5911     0.0001   113.7500 </r>
       <r>     0.6480     0.0000   113.7500 </r>
       <r>     0.7050     0.0000   113.7500 </r>
       <r>     0.7619     0.0000   113.7500 </r>
       <r>     0.8188     0.0000   113.7500 </r>
       <r>     0.8758     0.0000   113.7500 </r>
       <r>     0.9327     0.0000   113.7500 </r>
       <r>     0.9897     0.0000   113.7500 </r>
       <r>     1.0466     0.0000   113.7500 </r>
       <r>     1.1035     0.0000   113.7500 </r>
       <r>     1.1605     0.0000   113.7500 </r>
       <r>     1.2174     0.0000   113.7500 </r>
       <r>     1.2744     0.0000   113.7500 </r>
       <r>     1.3313     0.0000   113.7500 </r>
       <r>     1.3882     1.1124   113.8133 </r>
       <r>     1.4452    52.6354   116.8104 </r>
       <r>     1.5021   178.4950   126.9740 </r>
       <r>     1.5591    31.1907   128.7500 </r>
       <r>     1.6160     0.0002   128.7500 </r>
       <r>     1.6730     0.0000   128.7500 </r>
       <r>     1.7299     0.0000   128.7500 </r>
       <r>     1.7868     0.2106   128.7620 </r>
       <r>     1.8438    33.9044   130.6925 </r>
       <r>     1.9007    52.7003   133.6933 </r>
       <r>     1.9577     8.1264   134.1560 </r>
       <r>     2.0146    45.4586   136.7444 </r>
       <r>     2.0715     0.0976   136.7500 </r>
       <r>     2.1285     0.0001   136.7500 </r>
       <r>     2.1854    19.3299   137.8507 </r>
       <r>     2.2424    92.9202   143.1416 </r>
       <r>     2.2993   113.6578   149.6133 </r>
       <r>     2.3562   129.9065   157.0102 </r>
       <r>     2.4132    91.8198   162.2384 </r>
       <r>     2.4701     0.2031   162.2500 </r>
       <r>     2.5271     0.0000   162.2500 </r>
       <r>     2.5840     0.0000   162.2500 </r>
       <r>     2.6409     0.0000   162.2500 </r>
       <r>     2.6979     0.0000   162.2500 </r>
       <r>     2.7548     0.0000   162.2500 </r>
       <r>     2.8118     0.0000   162.2500 </r>
       <r>     2.8687     0.2597   162.2648 </r>
       <r>     2.9256    24.8854   163.6818 </r>
       <r>     2.9826    52.2254   166.6555 </r>
       <r>     3.0395   144.1576   174.8639 </r>
       <r>     3.0965    63.9230   178.5037 </r>
       <r>     3.1534    74.3762   182.7387 </r>
       <r>     3.2103    87.9926   187.7490 </r>
       <r>     3.2673    10.2150   188.3307 </r>
       <r>     3.3242   110.9561   194.6485 </r>
       <r>     3.3812    36.8946   196.7493 </r>
       <r>     3.4381     0.0119   196.7500 </r>
       <r>     3.4950     0.0036   196.7502 </r>
       <r>     3.5520    51.5730   199.6868 </r>
       <r>     3.6089   148.1132   208.1204 </r>
       <r>     3.6659    11.0572   208.7500 </r>
       <r>     3.7228     0.0000   208.7500 </r>
       <r>     3.7797     0.0000   208.7500 </r>
       <r>     3.8367     0.9470   208.8039 </r>
       <r>     3.8936    54.6098   211.9134 </r>
       <r>     3.9506   101.2827   217.6805 </r>
       <r>     4.0075     1.2208   217.7500 </r>
       <r>     4.0644     0.0036   217.7502 </r>
       <r>     4.1214    30.6977   219.4981 </r>
       <r>     4.1783    86.8039   224.4408 </r>
       <r>     4.2353    40.5541   226.7499 </r>
       <r>     4.2922     0.2897   226.7664 </r>
       <r>     4.3491    93.2861   232.0782 </r>
       <r>     4.4061    13.3658   232.8392 </r>
       <r>     4.4630    75.6194   237.1450 </r>
       <r>     4.5200    97.6295   242.7041 </r>
       <r>     4.5769    33.7962   244.6284 </r>
       <r>     4.6338    10.9157   245.2500 </r>
       <r>     4.6908     0.0001   245.2500 </r>
       <r>     4.7477     0.0000   245.2500 </r>
       <r>     4.8047     0.0000   245.2500 </r>
       <r>     4.8616     0.0000   245.2500 </r>
       <r>     4.9185     0.2600   245.2648 </r>
       <r>     4.9755    49.3017   248.0721 </r>
       <r>     5.0324    70.3187   252.0760 </r>
       <r>     5.0894     3.0553   252.2500 </r>
       <r>     5.1463     0.0000   252.2500 </r>
       <r>     5.2033     0.0000   252.2500 </r>
       <r>     5.2602     0.0000   252.2500 </r>
       <r>     5.3171     0.0000   252.2500 </r>
       <r>     5.3741     0.0000   252.2500 </r>
       <r>     5.4310     0.0145   252.2508 </r>
       <r>     5.4880    37.1761   254.3676 </r>
       <r>     5.5449    15.4960   255.2500 </r>
       <r>     5.6018     0.0002   255.2500 </r>
       <r>     5.6588     0.0000   255.2500 </r>
       <r>     5.7157     0.0005   255.2500 </r>
       <r>     5.7727     6.8412   255.6396 </r>
       <r>     5.8296     6.3296   256.0000 </r>
       <r>     5.8865     0.0003   256.0000 </r>
       <r>     5.9435     0.0000   256.0000 </r>
       <r>     6.0004     0.0000   256.0000 </r>
       <r>     6.0574     0.0000   256.0000 </r>
       <r>     6.1143     0.0000   256.0000 </r>
       <r>     6.1712     0.0000   256.0000 </r>
       <r>     6.2282     0.0036   256.0002 </r>
       <r>     6.2851    17.0819   256.9729 </r>
       <r>     6.3421    10.5124   257.5714 </r>
       <r>     6.3990    24.8344   258.9855 </r>
       <r>     6.4559     0.2545   259.0000 </r>
       <r>     6.5129     0.0000   259.0000 </r>
       <r>     6.5698     0.0000   259.0000 </r>
       <r>     6.6268     0.0000   259.0000 </r>
       <r>     6.6837     0.0000   259.0000 </r>
       <r>     6.7406     0.0000   259.0000 </r>
       <r>     6.7976     6.0772   259.3460 </r>
       <r>     6.8545    31.4885   261.1390 </r>
       <r>     6.9115    41.4306   263.4981 </r>
       <r>     6.9684     0.0338   263.5000 </r>
       <r>     7.0253     0.0000   263.5000 </r>
       <r>     7.0823     0.0000   263.5000 </r>
       <r>     7.1392     0.0359   263.5020 </r>
       <r>     7.1962    88.2058   268.5245 </r>
       <r>     7.2531    59.8473   271.9322 </r>
       <r>     7.3100     1.1901   272.0000 </r>
       <r>     7.3670     0.0000   272.0000 </r>
       <r>     7.4239     0.0000   272.0000 </r>
       <r>     7.4809     0.0000   272.0000 </r>
       <r>     7.5378     0.0000   272.0000 </r>
       <r>     7.5947     0.5182   272.0295 </r>
       <r>     7.6517   166.0174   281.4826 </r>
       <r>     7.7086    57.1707   284.7379 </r>
       <r>     7.7656    48.4056   287.4941 </r>
       <r>     7.8225     0.1029   287.5000 </r>
       <r>     7.8794     0.0011   287.5001 </r>
       <r>     7.9364    42.1293   289.8989 </r>
       <r>     7.9933    63.2340   293.4995 </r>
       <r>     8.0503    26.7067   295.0202 </r>
       <r>     8.1072    79.8222   299.5653 </r>
       <r>     8.1641   145.0080   307.8221 </r>
       <r>     8.2211    11.9059   308.5000 </r>
       <r>     8.2780     3.3792   308.6924 </r>
       <r>     8.3350   106.5594   314.7599 </r>
       <r>     8.3919     8.6066   315.2500 </r>
       <r>     8.4489     0.0000   315.2500 </r>
       <r>     8.5058     0.0499   315.2528 </r>
       <r>     8.5627    79.7828   319.7957 </r>
       <r>     8.6197    25.5406   321.2500 </r>
       <r>     8.6766     0.0001   321.2500 </r>
       <r>     8.7336     0.6196   321.2853 </r>
       <r>     8.7905   120.0406   328.1204 </r>
       <r>     8.8474    63.6159   331.7427 </r>
       <r>     8.9044     0.1275   331.7500 </r>
       <r>     8.9613     0.0000   331.7500 </r>
       <r>     9.0183     0.1390   331.7579 </r>
       <r>     9.0752    12.4323   332.4658 </r>
       <r>     9.1321     0.6004   332.5000 </r>
       <r>     9.1891     0.0608   332.5035 </r>
       <r>     9.2460    30.1366   334.2195 </r>
       <r>     9.3030     7.3806   334.6397 </r>
       <r>     9.3599    23.7921   335.9944 </r>
       <r>     9.4168     0.0978   336.0000 </r>
       <r>     9.4738     0.0000   336.0000 </r>
       <r>     9.5307     0.0000   336.0000 </r>
       <r>     9.5877     0.0000   336.0000 </r>
       <r>     9.6446     0.0000   336.0000 </r>
       <r>     9.7015     0.0000   336.0000 </r>
       <r>     9.7585     0.0000   336.0000 </r>
       <r>     9.8154     0.0000   336.0000 </r>
       <r>     9.8724     0.0000   336.0000 </r>
       <r>     9.9293     0.0000   336.0000 </r>
       <r>     9.9862     0.0000   336.0000 </r>
       <r>    10.0432     0.0000   336.0000 </r>
       <r>    10.1001     0.0000   336.0000 </r>
      </set>
     </set>
    </array>
   </total>
  </dos>
 </calculation>
 <structure name="finalpos" >
  <crystal>
   <varray name="basis" >
    <v>      10.86914512      -0.00000000      -0.00000000 </v>
    <v>      -0.00000000      10.86914512       0.00000000 </v>
    <v>       0.00000000       0.00000000      10.86914512 </v>
   </varray>
   <i name="volume">   1284.06249692 </i>
   <varray name="rec_basis" >
    <v>       0.09200356       0.00000000      -0.00000000 </v>
    <v>       0.00000000       0.09200356      -0.00000000 </v>
    <v>       0.00000000      -0.00000000       0.09200356 </v>
   </varray>
  </crystal>
  <varray name="positions" >
   <v>       0.24907996       0.25000000       0.25000000 </v>
   <v>       0.75000000       0.25000000       0.25000000 </v>
   <v>       0.25000000       0.75000000       0.25000000 </v>
   <v>       0.75000000       0.75000000       0.25000000 </v>
   <v>       0.25000000       0.25000000       0.75000000 </v>
   <v>       0.75000000       0.25000000       0.75000000 </v>
   <v>       0.25000000       0.75000000       0.75000000 </v>
   <v>       0.75000000       0.75000000       0.75000000 </v>
   <v>       0.25000000       0.00000000       0.00000000 </v>
   <v>       0.75000000       0.00000000       0.00000000 </v>
   <v>       0.25000000       0.50000000       0.00000000 </v>
   <v>       0.75000000       0.50000000       0.00000000 </v>
   <v>       0.25000000       0.00000000       0.50000000 </v>
   <v>       0.75000000       0.00000000       0.50000000 </v>
   <v>       0.25000000       0.50000000       0.50000000 </v>
   <v>       0.75000000       0.50000000       0.50000000 </v>
   <v>       0.00000000       0.25000000       0.00092004 </v>
   <v>       0.50000000       0.25000000       0.00000000 </v>
   <v>       0.00000000       0.75000000       0.00000000 </v>
   <v>       0.50000000       0.75000000       0.00000000 </v>
   <v>       0.00000000       0.25000000       0.50000000 </v>
   <v>       0.50000000       0.25000000       0.50000000 </v>
   <v>       0.00000000       0.75000000       0.50000000 </v>
   <v>       0.50000000       0.75000000       0.50000000 </v>
   <v>       0.00000000       0.00000000       0.25000000 </v>
   <v>       0.50000000       0.00000000       0.25000000 </v>
   <v>       0.00000000       0.50000000       0.25000000 </v>
   <v>       0.50000000       0.50000000       0.25000000 </v>
   <v>       0.00000000       0.00000000       0.75000000 </v>
   <v>       0.50000000       0.00000000       0.75000000 </v>
   <v>       0.00000000       0.50000000       0.75000000 </v>
   <v>       0.50000000       0.50000000       0.75000000 </v>
   <v>       0.37500000       0.37500000       0.37500000 </v>
   <v>       0.87500000       0.37500000       0.37500000 </v>
   <v>       0.37500000       0.87500000       0.37500000 </v>
   <v>       0.87500000       0.87500000       0.37500000 </v>
   <v>       0.37500000       0.37500000       0.87500000 </v>
   <v>       0.87500000       0.37500000       0.87500000 </v>
   <v>       0.37500000       0.87500000       0.87500000 </v>
   <v>       0.87500000       0.87500000       0.87500000 </v>
   <v>       0.37500000       0.12500000       0.12500000 </v>
   <v>       0.87500000       0.12500000       0.12500000 </v>
   <v>       0.37500000       0.62500000       0.12500000 </v>
   <v>       0.87500000       0.62500000       0.12500000 </v>
   <v>       0.37500000       0.12500000       0.62500000 </v>
   <v>       0.87500000       0.12500000       0.62500000 </v>
   <v>       0.37500000       0.62500000       0.62500000 </v>
   <v>       0.87500000       0.62500000       0.62500000 </v>
   <v>       0.12500000       0.37500000       0.12500000 </v>
   <v>       0.62500000       0.37500000       0.12500000 </v>
   <v>       0.12500000       0.87500000       0.12500000 </v>
   <v>       0.62500000       0.87500000       0.12500000 </v>
   <v>       0.12500000       0.37500000       0.62500000 </v>
   <v>       0.62500000       0.37500000       0.62500000 </v>
   <v>       0.12500000       0.87500000       0.62500000 </v>
   <v>       0.62500000       0.87500000       0.62500000 </v>
   <v>       0.12500000       0.12500000       0.37500000 </v>
   <v>       0.62500000       0.12500000       0.37500000 </v>
   <v>       0.12500000       0.62500000       0.37500000 </v>
   <v>       0.62500000       0.62500000       0.37500000 </v>
   <v>       0.12500000       0.12500000       0.87500000 </v>
   <v>       0.62500000       0.12500000       0.87500000 </v>
   <v>       0.12500000       0.62500000       0.87500000 </v>
   <v>       0.62500000       0.62500000       0.87500000 </v>
  </varray>
 </structure>
</modeling>
