  64  64   0   0
  0.2197554E+02  0.1120400E-08  0.1120400E-08  0.1120400E-08  0.5000000E-15
  1.000000000000000E-004
  CAR 
 unknown system                          
     11.05265457    -22.85024777  301     -0.55908948      1.00000000
    -22.850  0.0000E+00  0.0000E+00
    -22.737  0.0000E+00  0.0000E+00
    -22.624  0.0000E+00  0.0000E+00
    -22.511  0.0000E+00  0.0000E+00
    -22.398  0.0000E+00  0.0000E+00
    -22.285  0.0000E+00  0.0000E+00
    -22.172  0.0000E+00  0.0000E+00
    -22.059  0.0000E+00  0.0000E+00
    -21.946  0.0000E+00  0.0000E+00
    -21.833  0.0000E+00  0.0000E+00
    -21.720  0.0000E+00  0.0000E+00
    -21.607  0.0000E+00  0.0000E+00
    -21.494  0.0000E+00  0.0000E+00
    -21.381  0.6531E-05  0.7380E-06
    -21.268  0.1303E+04  0.1472E+03
    -21.155  0.3960E+03  0.1920E+03
    -21.042  0.0000E+00  0.1920E+03
    -20.929  0.0000E+00  0.1920E+03
    -20.816  0.0000E+00  0.1920E+03
    -20.703  0.0000E+00  0.1920E+03
    -20.590  0.0000E+00  0.1920E+03
    -20.477  0.0000E+00  0.1920E+03
    -20.364  0.0000E+00  0.1920E+03
    -20.251  0.0000E+00  0.1920E+03
    -20.138  0.0000E+00  0.1920E+03
    -20.025  0.0000E+00  0.1920E+03
    -19.912  0.0000E+00  0.1920E+03
    -19.799  0.0000E+00  0.1920E+03
    -19.686  0.0000E+00  0.1920E+03
    -19.573  0.0000E+00  0.1920E+03
    -19.460  0.0000E+00  0.1920E+03
    -19.347  0.0000E+00  0.1920E+03
    -19.234  0.0000E+00  0.1920E+03
    -19.121  0.0000E+00  0.1920E+03
    -19.008  0.0000E+00  0.1920E+03
    -18.895  0.0000E+00  0.1920E+03
    -18.782  0.0000E+00  0.1920E+03
    -18.669  0.0000E+00  0.1920E+03
    -18.556  0.0000E+00  0.1920E+03
    -18.443  0.0000E+00  0.1920E+03
    -18.330  0.0000E+00  0.1920E+03
    -18.217  0.0000E+00  0.1920E+03
    -18.104  0.0000E+00  0.1920E+03
    -17.991  0.0000E+00  0.1920E+03
    -17.878  0.0000E+00  0.1920E+03
    -17.765  0.0000E+00  0.1920E+03
    -17.652  0.0000E+00  0.1920E+03
    -17.539  0.0000E+00  0.1920E+03
    -17.426  0.0000E+00  0.1920E+03
    -17.313  0.0000E+00  0.1920E+03
    -17.200  0.0000E+00  0.1920E+03
    -17.087  0.0000E+00  0.1920E+03
    -16.974  0.0000E+00  0.1920E+03
    -16.861  0.0000E+00  0.1920E+03
    -16.748  0.0000E+00  0.1920E+03
    -16.635  0.0000E+00  0.1920E+03
    -16.522  0.0000E+00  0.1920E+03
    -16.409  0.0000E+00  0.1920E+03
    -16.296  0.0000E+00  0.1920E+03
    -16.183  0.0000E+00  0.1920E+03
    -16.070  0.0000E+00  0.1920E+03
    -15.957  0.0000E+00  0.1920E+03
    -15.844  0.0000E+00  0.1920E+03
    -15.731  0.0000E+00  0.1920E+03
    -15.618  0.0000E+00  0.1920E+03
    -15.505  0.0000E+00  0.1920E+03
    -15.392  0.0000E+00  0.1920E+03
    -15.279  0.0000E+00  0.1920E+03
    -15.166  0.0000E+00  0.1920E+03
    -15.053  0.0000E+00  0.1920E+03
    -14.940  0.0000E+00  0.1920E+03
    -14.827  0.0000E+00  0.1920E+03
    -14.714  0.0000E+00  0.1920E+03
    -14.601  0.0000E+00  0.1920E+03
    -14.488  0.0000E+00  0.1920E+03
    -14.375  0.0000E+00  0.1920E+03
    -14.262  0.0000E+00  0.1920E+03
    -14.149  0.0000E+00  0.1920E+03
    -14.035  0.0000E+00  0.1920E+03
    -13.922  0.0000E+00  0.1920E+03
    -13.809  0.0000E+00  0.1920E+03
    -13.696  0.0000E+00  0.1920E+03
    -13.583  0.0000E+00  0.1920E+03
    -13.470  0.2088E-14  0.1920E+03
    -13.357  0.1146E+01  0.1921E+03
    -13.244  0.1939E+02  0.1943E+03
    -13.131  0.4851E+02  0.1998E+03
    -13.018  0.1258E+03  0.2140E+03
    -12.905  0.3663E+03  0.2554E+03
    -12.792  0.5164E+01  0.2560E+03
    -12.679  0.0000E+00  0.2560E+03
    -12.566  0.0000E+00  0.2560E+03
    -12.453  0.0000E+00  0.2560E+03
    -12.340  0.0000E+00  0.2560E+03
    -12.227  0.0000E+00  0.2560E+03
    -12.114  0.0000E+00  0.2560E+03
    -12.001  0.0000E+00  0.2560E+03
    -11.888  0.0000E+00  0.2560E+03
    -11.775  0.0000E+00  0.2560E+03
    -11.662  0.0000E+00  0.2560E+03
    -11.549  0.0000E+00  0.2560E+03
    -11.436  0.0000E+00  0.2560E+03
    -11.323  0.0000E+00  0.2560E+03
    -11.210  0.0000E+00  0.2560E+03
    -11.097  0.0000E+00  0.2560E+03
    -10.984  0.0000E+00  0.2560E+03
    -10.871  0.0000E+00  0.2560E+03
    -10.758  0.0000E+00  0.2560E+03
    -10.645  0.0000E+00  0.2560E+03
    -10.532  0.0000E+00  0.2560E+03
    -10.419  0.0000E+00  0.2560E+03
    -10.306  0.0000E+00  0.2560E+03
    -10.193  0.0000E+00  0.2560E+03
    -10.080  0.0000E+00  0.2560E+03
     -9.967  0.0000E+00  0.2560E+03
     -9.854  0.0000E+00  0.2560E+03
     -9.741  0.0000E+00  0.2560E+03
     -9.628  0.0000E+00  0.2560E+03
     -9.515  0.0000E+00  0.2560E+03
     -9.402  0.0000E+00  0.2560E+03
     -9.289  0.0000E+00  0.2560E+03
     -9.176  0.0000E+00  0.2560E+03
     -9.063  0.0000E+00  0.2560E+03
     -8.950  0.0000E+00  0.2560E+03
     -8.837  0.0000E+00  0.2560E+03
     -8.724  0.0000E+00  0.2560E+03
     -8.611  0.0000E+00  0.2560E+03
     -8.498  0.0000E+00  0.2560E+03
     -8.385  0.0000E+00  0.2560E+03
     -8.272  0.0000E+00  0.2560E+03
     -8.159  0.0000E+00  0.2560E+03
     -8.046  0.0000E+00  0.2560E+03
     -7.933  0.0000E+00  0.2560E+03
     -7.820  0.0000E+00  0.2560E+03
     -7.707  0.0000E+00  0.2560E+03
     -7.594  0.0000E+00  0.2560E+03
     -7.481  0.0000E+00  0.2560E+03
     -7.368  0.0000E+00  0.2560E+03
     -7.255  0.0000E+00  0.2560E+03
     -7.142  0.0000E+00  0.2560E+03
     -7.029  0.0000E+00  0.2560E+03
     -6.916  0.0000E+00  0.2560E+03
     -6.803  0.0000E+00  0.2560E+03
     -6.690  0.0000E+00  0.2560E+03
     -6.577  0.0000E+00  0.2560E+03
     -6.464  0.0000E+00  0.2560E+03
     -6.351  0.0000E+00  0.2560E+03
     -6.238  0.0000E+00  0.2560E+03
     -6.125  0.0000E+00  0.2560E+03
     -6.012  0.0000E+00  0.2560E+03
     -5.899  0.0000E+00  0.2560E+03
     -5.786  0.0000E+00  0.2560E+03
     -5.673  0.0000E+00  0.2560E+03
     -5.560  0.0000E+00  0.2560E+03
     -5.447  0.0000E+00  0.2560E+03
     -5.334  0.0000E+00  0.2560E+03
     -5.221  0.0000E+00  0.2560E+03
     -5.108  0.0000E+00  0.2560E+03
     -4.995  0.0000E+00  0.2560E+03
     -4.882  0.0000E+00  0.2560E+03
     -4.769  0.0000E+00  0.2560E+03
     -4.656  0.0000E+00  0.2560E+03
     -4.543  0.0000E+00  0.2560E+03
     -4.430  0.0000E+00  0.2560E+03
     -4.317  0.0000E+00  0.2560E+03
     -4.204  0.0000E+00  0.2560E+03
     -4.091  0.0000E+00  0.2560E+03
     -3.978  0.0000E+00  0.2560E+03
     -3.865  0.0000E+00  0.2560E+03
     -3.752  0.0000E+00  0.2560E+03
     -3.639  0.0000E+00  0.2560E+03
     -3.526  0.0000E+00  0.2560E+03
     -3.413  0.0000E+00  0.2560E+03
     -3.300  0.0000E+00  0.2560E+03
     -3.187  0.0000E+00  0.2560E+03
     -3.074  0.0000E+00  0.2560E+03
     -2.961  0.0000E+00  0.2560E+03
     -2.848  0.0000E+00  0.2560E+03
     -2.735  0.6485E-01  0.2560E+03
     -2.622  0.8784E+01  0.2570E+03
     -2.509  0.2051E+02  0.2593E+03
     -2.395  0.8634E+02  0.2691E+03
     -2.282  0.8062E+02  0.2782E+03
     -2.169  0.1561E+03  0.2958E+03
     -2.056  0.7449E+02  0.3043E+03
     -1.943  0.5552E+02  0.3105E+03
     -1.830  0.5900E+02  0.3172E+03
     -1.717  0.7573E+02  0.3257E+03
     -1.604  0.5522E-10  0.3258E+03
     -1.491  0.6081E+02  0.3326E+03
     -1.378  0.2038E+03  0.3557E+03
     -1.265  0.2731E+02  0.3587E+03
     -1.152  0.2471E+03  0.3867E+03
     -1.039  0.1416E+03  0.4027E+03
     -0.926  0.2536E+03  0.4313E+03
     -0.813  0.6684E+02  0.4389E+03
     -0.700  0.7400E+02  0.4472E+03
     -0.587  0.6688E+01  0.4480E+03
     -0.474  0.0000E+00  0.4480E+03
     -0.361  0.0000E+00  0.4480E+03
     -0.248  0.0000E+00  0.4480E+03
     -0.135  0.0000E+00  0.4480E+03
     -0.022  0.0000E+00  0.4480E+03
      0.091  0.0000E+00  0.4480E+03
      0.204  0.0000E+00  0.4480E+03
      0.317  0.0000E+00  0.4480E+03
      0.430  0.0000E+00  0.4480E+03
      0.543  0.0000E+00  0.4480E+03
      0.656  0.0000E+00  0.4480E+03
      0.769  0.0000E+00  0.4480E+03
      0.882  0.0000E+00  0.4480E+03
      0.995  0.0000E+00  0.4480E+03
      1.108  0.0000E+00  0.4480E+03
      1.221  0.0000E+00  0.4480E+03
      1.334  0.0000E+00  0.4480E+03
      1.447  0.0000E+00  0.4480E+03
      1.560  0.0000E+00  0.4480E+03
      1.673  0.0000E+00  0.4480E+03
      1.786  0.0000E+00  0.4480E+03
      1.899  0.0000E+00  0.4480E+03
      2.012  0.0000E+00  0.4480E+03
      2.125  0.0000E+00  0.4480E+03
      2.238  0.0000E+00  0.4480E+03
      2.351  0.0000E+00  0.4480E+03
      2.464  0.0000E+00  0.4480E+03
      2.577  0.0000E+00  0.4480E+03
      2.690  0.0000E+00  0.4480E+03
      2.803  0.0000E+00  0.4480E+03
      2.916  0.0000E+00  0.4480E+03
      3.029  0.0000E+00  0.4480E+03
      3.142  0.0000E+00  0.4480E+03
      3.255  0.0000E+00  0.4480E+03
      3.368  0.0000E+00  0.4480E+03
      3.481  0.0000E+00  0.4480E+03
      3.594  0.0000E+00  0.4480E+03
      3.707  0.0000E+00  0.4480E+03
      3.820  0.0000E+00  0.4480E+03
      3.933  0.0000E+00  0.4480E+03
      4.046  0.0000E+00  0.4480E+03
      4.159  0.0000E+00  0.4480E+03
      4.272  0.1568E-05  0.4480E+03
      4.385  0.2211E+01  0.4482E+03
      4.498  0.1695E-02  0.4482E+03
      4.611  0.0000E+00  0.4482E+03
      4.724  0.0000E+00  0.4482E+03
      4.837  0.0000E+00  0.4482E+03
      4.950  0.3079E-05  0.4483E+03
      5.063  0.1324E+02  0.4497E+03
      5.176  0.2909E-01  0.4498E+03
      5.289  0.0000E+00  0.4498E+03
      5.402  0.0000E+00  0.4498E+03
      5.515  0.1303E+01  0.4499E+03
      5.628  0.2524E+02  0.4527E+03
      5.741  0.9988E-08  0.4528E+03
      5.854  0.1653E+02  0.4546E+03
      5.967  0.1164E+01  0.4548E+03
      6.080  0.0000E+00  0.4548E+03
      6.193  0.0000E+00  0.4548E+03
      6.306  0.1805E-03  0.4548E+03
      6.419  0.1359E+02  0.4563E+03
      6.532  0.8534E+01  0.4572E+03
      6.645  0.3531E+02  0.4612E+03
      6.758  0.7069E+02  0.4692E+03
      6.871  0.5848E+02  0.4758E+03
      6.984  0.1235E+02  0.4772E+03
      7.097  0.2370E+01  0.4775E+03
      7.210  0.3970E+01  0.4779E+03
      7.323  0.2755E+01  0.4783E+03
      7.436  0.8016E+02  0.4873E+03
      7.549  0.1660E+03  0.5061E+03
      7.662  0.5933E+01  0.5068E+03
      7.775  0.2654E+02  0.5097E+03
      7.888  0.5225E-01  0.5098E+03
      8.001  0.5304E+02  0.5157E+03
      8.114  0.1383E-02  0.5158E+03
      8.227  0.1352E+02  0.5173E+03
      8.340  0.9262E+02  0.5277E+03
      8.453  0.4285E-01  0.5278E+03
      8.566  0.1406E+03  0.5436E+03
      8.679  0.1867E+02  0.5458E+03
      8.792  0.9377E-07  0.5458E+03
      8.905  0.7382E+02  0.5541E+03
      9.018  0.1280E+03  0.5686E+03
      9.131  0.8342E+01  0.5695E+03
      9.244  0.1747E+02  0.5715E+03
      9.358  0.2678E+02  0.5745E+03
      9.471  0.9151E+00  0.5746E+03
      9.584  0.1236E+02  0.5760E+03
      9.697  0.0000E+00  0.5760E+03
      9.810  0.0000E+00  0.5760E+03
      9.923  0.0000E+00  0.5760E+03
     10.036  0.0000E+00  0.5760E+03
     10.149  0.0000E+00  0.5760E+03
     10.262  0.0000E+00  0.5760E+03
     10.375  0.0000E+00  0.5760E+03
     10.488  0.0000E+00  0.5760E+03
     10.601  0.0000E+00  0.5760E+03
     10.714  0.0000E+00  0.5760E+03
     10.827  0.0000E+00  0.5760E+03
     10.940  0.0000E+00  0.5760E+03
     11.053  0.0000E+00  0.5760E+03
