       N       E                     dE             d eps       ncg     rms          rms(c)
DAV:   1     0.432193197165E+04    0.43219E+04   -0.17164E+05  4608   0.125E+03
DAV:   2     0.363874299516E+03   -0.39581E+04   -0.37658E+04  5120   0.368E+02
DAV:   3    -0.206177490709E+03   -0.57005E+03   -0.56579E+03  5600   0.156E+02
DAV:   4    -0.228191897874E+03   -0.22014E+02   -0.21913E+02  5536   0.331E+01
DAV:   5    -0.229004192903E+03   -0.81230E+00   -0.81087E+00  5696   0.616E+00    0.106E+01
DAV:   6    -0.224138820165E+03    0.48654E+01   -0.94762E+00  5728   0.529E+00    0.776E+00
DAV:   7    -0.223777388900E+03    0.36143E+00   -0.20696E+00  6304   0.235E+00    0.533E+00
DAV:   8    -0.223902650585E+03   -0.12526E+00   -0.26649E-01  5344   0.124E+00    0.142E+00
DAV:   9    -0.223897077533E+03    0.55731E-02   -0.11456E-02  5696   0.261E-01    0.599E-01
DAV:  10    -0.223901394253E+03   -0.43167E-02   -0.18363E-02  5376   0.228E-01    0.287E-01
DAV:  11    -0.223900663473E+03    0.73078E-03   -0.15968E-03  5952   0.813E-02    0.873E-02
DAV:  12    -0.223900624192E+03    0.39281E-04   -0.15139E-04  5760   0.232E-02    0.146E-02
DAV:  13    -0.223900625039E+03   -0.84723E-06   -0.21205E-05  5728   0.774E-03    0.357E-03
DAV:  14    -0.223900626040E+03   -0.10006E-05   -0.19627E-06  5472   0.340E-03    0.929E-03
DAV:  15    -0.223900627418E+03   -0.13782E-05   -0.47960E-07  5824   0.172E-03    0.340E-03
DAV:  16    -0.223900627967E+03   -0.54910E-06   -0.15046E-07  5632   0.858E-04    0.517E-04
DAV:  17    -0.223900627956E+03    0.10674E-07   -0.83014E-09  3616   0.559E-04    0.180E-04
DAV:  18    -0.223900628041E+03   -0.84787E-07   -0.80372E-09  3616   0.439E-04    0.447E-04
DAV:  19    -0.223900628000E+03    0.41022E-07   -0.53860E-09  3072   0.245E-04    0.300E-04
DAV:  20    -0.223900627953E+03    0.46915E-07   -0.23130E-09  3296   0.301E-04    0.165E-04
DAV:  21    -0.223900627935E+03    0.18117E-07   -0.15474E-09  3072   0.123E-04    0.117E-04
DAV:  22    -0.223900627932E+03    0.24593E-08   -0.68706E-10  3072   0.917E-05
   1 F= -.22390063E+03 E0= -.22390063E+03  d E =-.309011E-14
