 vasp.6.3.2 27Jun22 (build Oct 14 2022 12:13:54) complex                        
  
 executed on             LinuxIFC date 2025.08.28  22:04:28
 running on   32 total cores
 distrk:  each k-point on   32 cores,    1 groups
 distr:  one band on NCORE=   1 cores,   32 groups


--------------------------------------------------------------------------------------------------------


 INCAR:
   ENCUT = 341.213600
   SIGMA = 0.020000
   EDIFF = 1.00e-08
   GGA = PS
   PREC = Accurate
   IALGO = 38
   IBRION = -1
   ISMEAR = 0
   NELMIN = 5
   ADDGRID = .TRUE.
   LCHARG = .FALSE.
   LWAVE = .FALSE.
   LREAL = .FALSE.

 POTCAR:    PAW_PBE Na_pv 19Sep2006               
 POTCAR:    PAW_PBE Cl 06Sep2000                  
 -----------------------------------------------------------------------------
|                                                                             |
|           W    W    AA    RRRRR   N    N  II  N    N   GGGG   !!!           |
|           W    W   A  A   R    R  NN   N  II  NN   N  G    G  !!!           |
|           W    W  A    A  R    R  N N  N  II  N N  N  G       !!!           |
|           W WW W  AAAAAA  RRRRR   N  N N  II  N  N N  G  GGG   !            |
|           WW  WW  A    A  R   R   N   NN  II  N   NN  G    G                |
|           W    W  A    A  R    R  N    N  II  N    N   GGGG   !!!           |
|                                                                             |
|     For optimal performance we recommend to set                             |
|       NCORE = 2 up to number-of-cores-per-socket                            |
|     NCORE specifies how many cores store one orbital (NPAR=cpu/NCORE).      |
|     This setting can greatly improve the performance of VASP for DFT.       |
|     The default, NCORE=1 might be grossly inefficient on modern             |
|     multi-core architectures or massively parallel machines. Do your        |
|     own testing! More info at https://www.vasp.at/wiki/index.php/NCORE      |
|     Unfortunately you need to use the default for GW and RPA                |
|     calculations (for HF NCORE is supported but not extensively tested      |
|     yet).                                                                   |
|                                                                             |
 -----------------------------------------------------------------------------

 POTCAR:    PAW_PBE Na_pv 19Sep2006               
   SHA256 =  6a2f546d9e11350984debacf3dc457d8cffc0868e817d445faca461816a32b94 Na_pv/POTCAR          
   COPYR  = (c) Copyright 19Sep2006 Georg Kresse                                                    
   COPYR  = This file is part of the software VASP. Any use, copying, and all other rights are regul
   COPYR  = If you do not have a valid VASP license, you may not use, copy or distribute this file. 
   VRHFIN =Na: p6s1                                                                                 
   LEXCH  = PE                                                                                      
   EATOM  =   766.0439 eV,   56.3026 Ry                                                             
                                                                                                    
   TITEL  = PAW_PBE Na_pv 19Sep2006                                                                 
   LULTRA =        F    use ultrasoft PP ?                                                          
   IUNSCR =        1    unscreen: 0-lin 1-nonlin 2-no                                               
   RPACOR =    1.800    partial core radius                                                         
   POMASS =   22.990; ZVAL   =    7.000    mass and valenz                                          
   RCORE  =    2.200    outmost cutoff radius                                                       
   RWIGS  =    2.200; RWIGS  =    1.164    wigner-seitz radius (au A)                               
   ENMAX  =  259.561; ENMIN  =  194.671 eV                                                          
   ICORE  =        2    local potential                                                             
   LCOR   =        T    correct aug charges                                                         
   LPAW   =        T    paw PP                                                                      
   EAUG   =  368.056                                                                                
   DEXC   =    0.000                                                                                
   RMAX   =    2.245    core radius for proj-oper                                                   
   RAUG   =    1.300    factor for augmentation sphere                                              
   RDEP   =    2.259    radius for radial grids                                                     
   RDEPT  =    1.738    core radius for aug-charge                                                  
                                                                                                    
   Atomic configuration                                                                             
    5 entries                                                                                       
     n  l   j            E        occ.                                                              
     1  0  0.50     -1033.6933   2.0000                                                             
     2  0  0.50       -56.7526   2.0000                                                             
     2  1  1.50       -28.6721   6.0000                                                             
     3  0  0.50        -2.7440   1.0000                                                             
     3  2  1.50        -1.3606   0.0000                                                             
   Description                                                                                      
     l       E           TYP  RCUT    TYP  RCUT                                                     
     1    -28.6720912     23  2.000                                                                 
     1      6.8029130     23  2.000                                                                 
     0     -2.7439560     23  2.200                                                                 
     0     34.0145650     23  2.200                                                                 
     2     -1.3605826     23  2.200                                                                 
  local pseudopotential read in
  partial core-charges read in
  partial kinetic energy density read in
  atomic valenz-charges read in
  non local Contribution for L=           1  read in
    real space projection operators read in
  non local Contribution for L=           1  read in
    real space projection operators read in
  non local Contribution for L=           0  read in
    real space projection operators read in
  non local Contribution for L=           0  read in
    real space projection operators read in
    PAW grid and wavefunctions read in
 
   number of l-projection  operators is LMAX  =           4
   number of lm-projection operators is LMMAX =           8
 
 POTCAR:    PAW_PBE Cl 06Sep2000                  
   SHA256 =  9f1b6e6ed4247ac726a768b330d26d7667cc3c95a39ff49c1d064c2d9dcce931 Cl/POTCAR             
   COPYR  = (c) Copyright 06Sep2000 Georg Kresse                                                    
   COPYR  = This file is part of the software VASP. Any use, copying, and all other rights are regul
   COPYR  = If you do not have a valid VASP license, you may not use, copy or distribute this file. 
   VRHFIN =Cl: s2p5                                                                                 
   LEXCH  = PE                                                                                      
   EATOM  =   409.7259 eV,   30.1140 Ry                                                             
                                                                                                    
   TITEL  = PAW_PBE Cl 06Sep2000                                                                    
   LULTRA =        F    use ultrasoft PP ?                                                          
   IUNSCR =        1    unscreen: 0-lin 1-nonlin 2-no                                               
   RPACOR =    1.500    partial core radius                                                         
   POMASS =   35.453; ZVAL   =    7.000    mass and valenz                                          
   RCORE  =    1.900    outmost cutoff radius                                                       
   RWIGS  =    2.100; RWIGS  =    1.111    wigner-seitz radius (au A)                               
   ENMAX  =  262.472; ENMIN  =  196.854 eV                                                          
   ICORE  =        2    local potential                                                             
   LCOR   =        T    correct aug charges                                                         
   LPAW   =        T    paw PP                                                                      
   EAUG   =  356.192                                                                                
   DEXC   =    0.000                                                                                
   RMAX   =    1.945    core radius for proj-oper                                                   
   RAUG   =    1.300    factor for augmentation sphere                                              
   RDEP   =    2.020    radius for radial grids                                                     
   RDEPT  =    1.678    core radius for aug-charge                                                  
                                                                                                    
   Atomic configuration                                                                             
    6 entries                                                                                       
     n  l   j            E        occ.                                                              
     1  0  0.50     -2751.1850   2.0000                                                             
     2  0  0.50      -252.6861   2.0000                                                             
     2  1  1.50      -191.6157   6.0000                                                             
     3  0  0.50       -20.6916   2.0000                                                             
     3  1  0.50        -8.5949   5.0000                                                             
     3  2  1.50        -8.1635   0.0000                                                             
   Description                                                                                      
     l       E           TYP  RCUT    TYP  RCUT                                                     
     0    -20.6915656     23  1.900                                                                 
     0    -22.0521482     23  1.900                                                                 
     1     -8.5948577     23  1.900                                                                 
     1     -5.3847331     23  1.900                                                                 
     2     -8.1634956     23  1.900                                                                 
  local pseudopotential read in
  partial core-charges read in
  partial kinetic energy density read in
  atomic valenz-charges read in
  non local Contribution for L=           0  read in
    real space projection operators read in
  non local Contribution for L=           0  read in
    real space projection operators read in
  non local Contribution for L=           1  read in
    real space projection operators read in
  non local Contribution for L=           1  read in
    real space projection operators read in
    PAW grid and wavefunctions read in
 
   number of l-projection  operators is LMAX  =           4
   number of lm-projection operators is LMMAX =           8
 
 -----------------------------------------------------------------------------
|                                                                             |
|               ----> ADVICE to this user running VASP <----                  |
|                                                                             |
|     You have a (more or less) 'large supercell' and for larger cells it     |
|     might be more efficient to use real-space projection operators.         |
|     Therefore, try LREAL= Auto in the INCAR file.                           |
|     Mind: For very accurate calculation, you might also keep the            |
|     reciprocal projection scheme (i.e. LREAL=.FALSE.).                      |
|                                                                             |
 -----------------------------------------------------------------------------

 -----------------------------------------------------------------------------
|                                                                             |
|               ----> ADVICE to this user running VASP <----                  |
|                                                                             |
|     You enforced a specific xc type in the INCAR file but a different       |
|     type was found in the POTCAR file.                                      |
|     I HOPE YOU KNOW WHAT YOU ARE DOING!                                     |
|                                                                             |
 -----------------------------------------------------------------------------

  PAW_PBE Na_pv 19Sep2006               :
 energy of atom  1       EATOM= -766.0439
 kinetic energy error for atom=    0.0189 (will be added to EATOM!!)
  PAW_PBE Cl 06Sep2000                  :
 energy of atom  2       EATOM= -409.7259
 kinetic energy error for atom=    0.0106 (will be added to EATOM!!)
 
 
 POSCAR: Na Cl
  positions in cartesian coordinates
  No initial velocities read in
 exchange correlation table for  LEXCH =       14
   RHO(1)=    0.500       N(1)  =     2000
   RHO(2)=  100.500       N(2)  =     4000
 


--------------------------------------------------------------------------------------------------------


 ion  position               nearest neighbor table
   1  0.003  0.000  0.000-
   2  0.250  0.250  0.000-
   3  0.250  0.000  0.250-
   4  0.000  0.250  0.250-
   5  0.000  0.000  0.500-
   6  0.250  0.250  0.500-
   7  0.250  0.000  0.750-
   8  0.000  0.250  0.750-
   9  0.000  0.500  0.000-
  10  0.250  0.750  0.000-
  11  0.250  0.500  0.250-
  12  0.000  0.750  0.250-
  13  0.000  0.500  0.500-
  14  0.250  0.750  0.500-
  15  0.250  0.500  0.750-
  16  0.000  0.750  0.750-
  17  0.500  0.000  0.000-
  18  0.750  0.250  0.000-
  19  0.750  0.000  0.250-
  20  0.500  0.250  0.250-
  21  0.500  0.000  0.500-
  22  0.750  0.250  0.500-
  23  0.750  0.000  0.750-
  24  0.500  0.250  0.750-
  25  0.500  0.500  0.000-
  26  0.750  0.750  0.000-
  27  0.750  0.500  0.250-
  28  0.500  0.750  0.250-
  29  0.500  0.500  0.500-
  30  0.750  0.750  0.500-
  31  0.750  0.500  0.750-
  32  0.500  0.750  0.750-
  33  0.250  0.250  0.250-
  34  0.000  0.000  0.247-
  35  0.000  0.250  0.000-
  36  0.250  0.000  0.000-
  37  0.250  0.250  0.750-
  38  0.000  0.000  0.750-
  39  0.000  0.250  0.500-
  40  0.250  0.000  0.500-
  41  0.250  0.750  0.250-
  42  0.000  0.500  0.250-
  43  0.000  0.750  0.000-
  44  0.250  0.500  0.000-
  45  0.250  0.750  0.750-
  46  0.000  0.500  0.750-
  47  0.000  0.750  0.500-
  48  0.250  0.500  0.500-
  49  0.750  0.250  0.250-
  50  0.500  0.000  0.250-
  51  0.500  0.250  0.000-
  52  0.750  0.000  0.000-
  53  0.750  0.250  0.750-
  54  0.500  0.000  0.750-
  55  0.500  0.250  0.500-
  56  0.750  0.000  0.500-
  57  0.750  0.750  0.250-
  58  0.500  0.500  0.250-
  59  0.500  0.750  0.000-
  60  0.750  0.500  0.000-
  61  0.750  0.750  0.750-
  62  0.500  0.500  0.750-
  63  0.500  0.750  0.500-
  64  0.750  0.500  0.500-
 
  LATTYP: Found a simple cubic cell.
 ALAT       =    11.2040023600
  
  Lattice vectors:
  
 A1 = (  11.2040023600,   0.0000000000,   0.0000000000)
 A2 = (   0.0000000000,  11.2040023600,   0.0000000000)
 A3 = (   0.0000000000,   0.0000000000,  11.2040023600)


Analysis of symmetry for initial positions (statically):
=====================================================================
 Subroutine PRICEL returns:
 Original cell was already a primitive cell.
 

 Routine SETGRP: Setting up the symmetry group for a 
 simple cubic supercell.


 Subroutine GETGRP returns: Found  2 space group operations
 (whereof  2 operations were pure point group operations)
 out of a pool of 48 trial point group operations.


The static configuration has the point symmetry C_1h.


Analysis of symmetry for dynamics (positions and initial velocities):
=====================================================================
 Subroutine PRICEL returns:
 Original cell was already a primitive cell.
 

 Routine SETGRP: Setting up the symmetry group for a 
 simple cubic supercell.


 Subroutine GETGRP returns: Found  2 space group operations
 (whereof  2 operations were pure point group operations)
 out of a pool of 48 trial point group operations.


The dynamic configuration has the point symmetry C_1h.


 Subroutine INISYM returns: Found  2 space group operations
 (whereof  2 operations are pure point group operations),
 and found     1 'primitive' translations


----------------------------------------------------------------------------------------

                                     Primitive cell                                     

  volume of cell :    1406.4347

  direct lattice vectors                    reciprocal lattice vectors
    11.204002360  0.000000000  0.000000000     0.089253819  0.000000000  0.000000000
     0.000000000 11.204002360  0.000000000     0.000000000  0.089253819  0.000000000
     0.000000000  0.000000000 11.204002360     0.000000000  0.000000000  0.089253819

  length of vectors
    11.204002360 11.204002360 11.204002360     0.089253819  0.089253819  0.089253819

  position of ions in fractional coordinates (direct lattice)
     0.002677615  0.000000000  0.000000000
     0.250000000  0.250000000  0.000000000
     0.250000000  0.000000000  0.250000000
     0.000000000  0.250000000  0.250000000
     0.000000000  0.000000000  0.500000000
     0.250000000  0.250000000  0.500000000
     0.250000000  0.000000000  0.750000000
     0.000000000  0.250000000  0.750000000
     0.000000000  0.500000000  0.000000000
     0.250000000  0.750000000  0.000000000
     0.250000000  0.500000000  0.250000000
     0.000000000  0.750000000  0.250000000
     0.000000000  0.500000000  0.500000000
     0.250000000  0.750000000  0.500000000
     0.250000000  0.500000000  0.750000000
     0.000000000  0.750000000  0.750000000
     0.500000000  0.000000000  0.000000000
     0.750000000  0.250000000  0.000000000
     0.750000000  0.000000000  0.250000000
     0.500000000  0.250000000  0.250000000
     0.500000000  0.000000000  0.500000000
     0.750000000  0.250000000  0.500000000
     0.750000000  0.000000000  0.750000000
     0.500000000  0.250000000  0.750000000
     0.500000000  0.500000000  0.000000000
     0.750000000  0.750000000  0.000000000
     0.750000000  0.500000000  0.250000000
     0.500000000  0.750000000  0.250000000
     0.500000000  0.500000000  0.500000000
     0.750000000  0.750000000  0.500000000
     0.750000000  0.500000000  0.750000000
     0.500000000  0.750000000  0.750000000
     0.250000000  0.250000000  0.250000000
     0.000000000  0.000000000  0.247322385
     0.000000000  0.250000000  0.000000000
     0.250000000  0.000000000  0.000000000
     0.250000000  0.250000000  0.750000000
     0.000000000  0.000000000  0.750000000
     0.000000000  0.250000000  0.500000000
     0.250000000  0.000000000  0.500000000
     0.250000000  0.750000000  0.250000000
     0.000000000  0.500000000  0.250000000
     0.000000000  0.750000000  0.000000000
     0.250000000  0.500000000  0.000000000
     0.250000000  0.750000000  0.750000000
     0.000000000  0.500000000  0.750000000
     0.000000000  0.750000000  0.500000000
     0.250000000  0.500000000  0.500000000
     0.750000000  0.250000000  0.250000000
     0.500000000  0.000000000  0.250000000
     0.500000000  0.250000000  0.000000000
     0.750000000  0.000000000  0.000000000
     0.750000000  0.250000000  0.750000000
     0.500000000  0.000000000  0.750000000
     0.500000000  0.250000000  0.500000000
     0.750000000  0.000000000  0.500000000
     0.750000000  0.750000000  0.250000000
     0.500000000  0.500000000  0.250000000
     0.500000000  0.750000000  0.000000000
     0.750000000  0.500000000  0.000000000
     0.750000000  0.750000000  0.750000000
     0.500000000  0.500000000  0.750000000
     0.500000000  0.750000000  0.500000000
     0.750000000  0.500000000  0.500000000

  ion indices of the primitive-cell ions
   primitive index   ion index
                 1           1
                 2           2
                 3           3
                 4           4
                 5           5
                 6           6
                 7           7
                 8           8
                 9           9
                10          10
                11          11
                12          12
                13          13
                14          14
                15          15
                16          16
                17          17
                18          18
                19          19
                20          20
                21          21
                22          22
                23          23
                24          24
                25          25
                26          26
                27          27
                28          28
                29          29
                30          30
                31          31
                32          32
                33          33
                34          34
                35          35
                36          36
                37          37
                38          38
                39          39
                40          40
                41          41
                42          42
                43          43
                44          44
                45          45
                46          46
                47          47
                48          48
                49          49
                50          50
                51          51
                52          52
                53          53
                54          54
                55          55
                56          56
                57          57
                58          58
                59          59
                60          60
                61          61
                62          62
                63          63
                64          64

----------------------------------------------------------------------------------------

 
 
 KPOINTS: KPOINTS created by Atomic Simulation Env

Automatic generation of k-mesh.
 Grid dimensions read from file:
 generate k-points for:    2    2    2

 Generating k-lattice:

  Cartesian coordinates                     Fractional coordinates (reciprocal lattice)
     0.044626910  0.000000000  0.000000000     0.500000000  0.000000000  0.000000000
     0.000000000  0.044626910  0.000000000     0.000000000  0.500000000  0.000000000
     0.000000000  0.000000000  0.044626910     0.000000000  0.000000000  0.500000000

  Length of vectors
     0.044626910  0.044626910  0.044626910

  Shift w.r.t. Gamma in fractional coordinates (k-lattice)
     0.000000000  0.000000000  0.000000000

 
 Subroutine IBZKPT returns following result:
 ===========================================
 
 Found      8 irreducible k-points:
 
 Following reciprocal coordinates:
            Coordinates               Weight
  0.000000  0.000000  0.000000      1.000000
  0.500000  0.000000  0.000000      1.000000
  0.000000  0.500000  0.000000      1.000000
  0.000000  0.000000  0.500000      1.000000
  0.500000  0.500000  0.000000      1.000000
  0.000000  0.500000  0.500000      1.000000
  0.500000  0.000000  0.500000      1.000000
  0.500000  0.500000  0.500000      1.000000
 
 Following cartesian coordinates:
            Coordinates               Weight
  0.000000  0.000000  0.000000      1.000000
  0.044627  0.000000  0.000000      1.000000
  0.000000  0.044627  0.000000      1.000000
  0.000000  0.000000  0.044627      1.000000
  0.044627  0.044627  0.000000      1.000000
  0.000000  0.044627  0.044627      1.000000
  0.044627  0.000000  0.044627      1.000000
  0.044627  0.044627  0.044627      1.000000
 


--------------------------------------------------------------------------------------------------------




 Dimension of arrays:
   k-points           NKPTS =      8   k-points in BZ     NKDIM =      8   number of bands    NBANDS=    288
   number of dos      NEDOS =    301   number of ions     NIONS =     64
   non local maximal  LDIM  =      4   non local SUM 2l+1 LMDIM =      8
   total plane-waves  NPLWV = 343000
   max r-space proj   IRMAX =      1   max aug-charges    IRDMAX=  56280
   dimension x,y,z NGX =    70 NGY =   70 NGZ =   70
   dimension x,y,z NGXF=   140 NGYF=  140 NGZF=  140
   support grid    NGXF=   280 NGYF=  280 NGZF=  280
   ions per type =              32  32
   NGX,Y,Z   is equivalent  to a cutoff of  10.39, 10.39, 10.39 a.u.
   NGXF,Y,Z  is equivalent  to a cutoff of  20.77, 20.77, 20.77 a.u.

 SYSTEM =  unknown system                          
 POSCAR =  Na Cl                                   

 Startparameter for this run:
   NWRITE =      2    write-flag & timer
   PREC   = accura    normal or accurate (medium, high low for compatibility)
   ISTART =      0    job   : 0-new  1-cont  2-samecut
   ICHARG =      2    charge: 1-file 2-atom 10-const
   ISPIN  =      1    spin polarized calculation?
   LNONCOLLINEAR =      F non collinear calculations
   LSORBIT =      F    spin-orbit coupling
   INIWAV =      1    electr: 0-lowe 1-rand  2-diag
   LASPH  =      F    aspherical Exc in radial PAW
 Electronic Relaxation 1
   ENCUT  =  341.2 eV  25.08 Ry    5.01 a.u.  16.87 16.87 16.87*2*pi/ulx,y,z
   ENINI  =  341.2     initial cutoff
   ENAUG  =  368.1 eV  augmentation charge cutoff
   NELM   =     60;   NELMIN=  5; NELMDL= -5     # of ELM steps 
   EDIFF  = 0.1E-07   stopping-criterion for ELM
   LREAL  =      F    real-space projection
   NLSPLINE    = F    spline interpolate recip. space projectors
   LCOMPAT=      F    compatible to vasp.4.4
   GGA_COMPAT  = T    GGA compatible to vasp.4.4-vasp.4.6
   LMAXPAW     = -100 max onsite density
   LMAXMIX     =    2 max onsite mixed and CHGCAR
   VOSKOWN=      0    Vosko Wilk Nusair interpolation
   ROPT   =    0.00000   0.00000
 Ionic relaxation
   EDIFFG = 0.1E-06   stopping-criterion for IOM
   NSW    =      0    number of steps for IOM
   NBLOCK =      1;   KBLOCK =      1    inner block; outer block 
   IBRION =     -1    ionic relax: 0-MD 1-quasi-New 2-CG
   NFREE  =      0    steps in history (QN), initial steepest desc. (CG)
   ISIF   =      2    stress and relaxation
   IWAVPR =     10    prediction:  0-non 1-charg 2-wave 3-comb
   ISYM   =      2    0-nonsym 1-usesym 2-fastsym
   LCORR  =      T    Harris-Foulkes like correction to forces

   POTIM  = 0.5000    time-step for ionic-motion
   TEIN   =    0.0    initial temperature
   TEBEG  =    0.0;   TEEND  =   0.0 temperature during run
   SMASS  =  -3.00    Nose mass-parameter (am)
   estimated Nose-frequenzy (Omega)   =  0.10E-29 period in steps = 0.13E+47 mass=  -0.287E-26a.u.
   SCALEE = 1.0000    scale energy and forces
   NPACO  =    256;   APACO  = 10.0  distance and # of slots for P.C.
   PSTRESS=    0.0 pullay stress

  Mass of Ions in am
   POMASS =  22.99 35.45
  Ionic Valenz
   ZVAL   =   7.00  7.00
  Atomic Wigner-Seitz radii
   RWIGS  =  -1.00 -1.00
  virtual crystal weights 
   VCA    =   1.00  1.00
   NELECT =     448.0000    total number of electrons
   NUPDOWN=      -1.0000    fix difference up-down

 DOS related values:
   EMIN   =  10.00;   EMAX   =-10.00  energy-range for DOS
   EFERMI =   0.00
   ISMEAR =     0;   SIGMA  =   0.02  broadening in eV -4-tet -1-fermi 0-gaus

 Electronic relaxation 2 (details)
   IALGO  =     38    algorithm
   LDIAG  =      T    sub-space diagonalisation (order eigenvalues)
   LSUBROT=      F    optimize rotation matrix (better conditioning)
   TURBO    =      0    0=normal 1=particle mesh
   IRESTART =      0    0=no restart 2=restart with 2 vectors
   NREBOOT  =      0    no. of reboots
   NMIN     =      0    reboot dimension
   EREF     =   0.00    reference energy to select bands
   IMIX   =      4    mixing-type and parameters
     AMIX     =   0.40;   BMIX     =  1.00
     AMIX_MAG =   1.60;   BMIX_MAG =  1.00
     AMIN     =   0.10
     WC   =   100.;   INIMIX=   1;  MIXPRE=   1;  MAXMIX= -45

 Intra band minimization:
   WEIMIN = 0.0000     energy-eigenvalue tresh-hold
   EBREAK =  0.87E-11  absolut break condition
   DEPER  =   0.30     relativ break condition  

   TIME   =   0.40     timestep for ELM

  volume/ion in A,a.u.               =      21.98       148.30
  Fermi-wavevector in a.u.,A,eV,Ry     =   1.118049  2.112807 17.007750  1.250034
  Thomas-Fermi vector in A             =   2.254677
 
 Write flags
   LWAVE        =      F    write WAVECAR
   LDOWNSAMPLE  =      F    k-point downsampling of WAVECAR
   LCHARG       =      F    write CHGCAR
   LVTOT        =      F    write LOCPOT, total local potential
   LVHAR        =      F    write LOCPOT, Hartree potential only
   LELF         =      F    write electronic localiz. function (ELF)
   LORBIT       =      0    0 simple, 1 ext, 2 COOP (PROOUT), +10 PAW based schemes


 Dipole corrections
   LMONO  =      F    monopole corrections only (constant potential shift)
   LDIPOL =      F    correct potential (dipole corrections)
   IDIPOL =      0    1-x, 2-y, 3-z, 4-all directions 
   EPSILON=  1.0000000 bulk dielectric constant

 Exchange correlation treatment:
   GGA     =    PS    GGA type
   LEXCH   =    14    internal setting for exchange type
   LIBXC   =     F    Libxc                    
   VOSKOWN =     0    Vosko Wilk Nusair interpolation
   LHFCALC =     F    Hartree Fock is set to
   LHFONE  =     F    Hartree Fock one center treatment
   AEXX    =    0.0000 exact exchange contribution

 Linear response parameters
   LEPSILON=     F    determine dielectric tensor
   LRPA    =     F    only Hartree local field effects (RPA)
   LNABLA  =     F    use nabla operator in PAW spheres
   LVEL    =     F    velocity operator in full k-point grid
   CSHIFT  =0.1000    complex shift for real part using Kramers Kronig
   OMEGAMAX=  -1.0    maximum frequency
   DEG_THRESHOLD= 0.2000000E-02 threshold for treating states as degnerate
   RTIME   =   -0.100 relaxation time in fs
  (WPLASMAI=    0.000 imaginary part of plasma frequency in eV, 0.658/RTIME)
   DFIELD  = 0.0000000 0.0000000 0.0000000 field for delta impulse in time
 
  Optional k-point grid parameters
   LKPOINTS_OPT  =     F    use optional k-point grid
   KPOINTS_OPT_MODE=     1    mode for optional k-point grid
 
 Orbital magnetization related:
   ORBITALMAG=     F  switch on orbital magnetization
   LCHIMAG   =     F  perturbation theory with respect to B field
   DQ        =  0.001000  dq finite difference perturbation B field
   LLRAUG    =     F  two centre corrections for induced B field



--------------------------------------------------------------------------------------------------------


 Static calculation
 charge density and potential will be updated during run
 non-spin polarized calculation
 Variant of blocked Davidson
 Davidson routine will perform the subspace rotation
 perform sub-space diagonalisation
    after iterative eigenvector-optimisation
 modified Broyden-mixing scheme, WC =      100.0
 initial mixing is a Kerker type mixing with AMIX =  0.4000 and BMIX =      1.0000
 Hartree-type preconditioning will be used
 using additional bands           64
 reciprocal scheme for non local part
 use partial core corrections
 calculate Harris-corrections to forces 
   (improved forces if not selfconsistent)
 use gradient corrections 
 use of overlap-Matrix (Vanderbilt PP)
 Gauss-broadening in eV      SIGMA  =   0.02


--------------------------------------------------------------------------------------------------------


  energy-cutoff  :      341.21
  volume of cell :     1406.43
      direct lattice vectors                 reciprocal lattice vectors
    11.204002360  0.000000000  0.000000000     0.089253819  0.000000000  0.000000000
     0.000000000 11.204002360  0.000000000     0.000000000  0.089253819  0.000000000
     0.000000000  0.000000000 11.204002360     0.000000000  0.000000000  0.089253819

  length of vectors
    11.204002360 11.204002360 11.204002360     0.089253819  0.089253819  0.089253819


 
 k-points in units of 2pi/SCALE and weight: KPOINTS created by Atomic Simulation Env
   0.00000000  0.00000000  0.00000000       0.125
   0.04462691  0.00000000  0.00000000       0.125
   0.00000000  0.04462691  0.00000000       0.125
   0.00000000  0.00000000  0.04462691       0.125
   0.04462691  0.04462691  0.00000000       0.125
   0.00000000  0.04462691  0.04462691       0.125
   0.04462691  0.00000000  0.04462691       0.125
   0.04462691  0.04462691  0.04462691       0.125
 
 k-points in reciprocal lattice and weights: KPOINTS created by Atomic Simulation Env
   0.00000000  0.00000000  0.00000000       0.125
   0.50000000  0.00000000  0.00000000       0.125
   0.00000000  0.50000000  0.00000000       0.125
   0.00000000  0.00000000  0.50000000       0.125
   0.50000000  0.50000000  0.00000000       0.125
   0.00000000  0.50000000  0.50000000       0.125
   0.50000000  0.00000000  0.50000000       0.125
   0.50000000  0.50000000  0.50000000       0.125
 
 position of ions in fractional coordinates (direct lattice) 
   0.00267761  0.00000000  0.00000000
   0.25000000  0.25000000  0.00000000
   0.25000000  0.00000000  0.25000000
   0.00000000  0.25000000  0.25000000
   0.00000000  0.00000000  0.50000000
   0.25000000  0.25000000  0.50000000
   0.25000000  0.00000000  0.75000000
   0.00000000  0.25000000  0.75000000
   0.00000000  0.50000000  0.00000000
   0.25000000  0.75000000  0.00000000
   0.25000000  0.50000000  0.25000000
   0.00000000  0.75000000  0.25000000
   0.00000000  0.50000000  0.50000000
   0.25000000  0.75000000  0.50000000
   0.25000000  0.50000000  0.75000000
   0.00000000  0.75000000  0.75000000
   0.50000000  0.00000000  0.00000000
   0.75000000  0.25000000  0.00000000
   0.75000000  0.00000000  0.25000000
   0.50000000  0.25000000  0.25000000
   0.50000000  0.00000000  0.50000000
   0.75000000  0.25000000  0.50000000
   0.75000000  0.00000000  0.75000000
   0.50000000  0.25000000  0.75000000
   0.50000000  0.50000000  0.00000000
   0.75000000  0.75000000  0.00000000
   0.75000000  0.50000000  0.25000000
   0.50000000  0.75000000  0.25000000
   0.50000000  0.50000000  0.50000000
   0.75000000  0.75000000  0.50000000
   0.75000000  0.50000000  0.75000000
   0.50000000  0.75000000  0.75000000
   0.25000000  0.25000000  0.25000000
   0.00000000  0.00000000  0.24732239
   0.00000000  0.25000000  0.00000000
   0.25000000  0.00000000  0.00000000
   0.25000000  0.25000000  0.75000000
   0.00000000  0.00000000  0.75000000
   0.00000000  0.25000000  0.50000000
   0.25000000  0.00000000  0.50000000
   0.25000000  0.75000000  0.25000000
   0.00000000  0.50000000  0.25000000
   0.00000000  0.75000000  0.00000000
   0.25000000  0.50000000  0.00000000
   0.25000000  0.75000000  0.75000000
   0.00000000  0.50000000  0.75000000
   0.00000000  0.75000000  0.50000000
   0.25000000  0.50000000  0.50000000
   0.75000000  0.25000000  0.25000000
   0.50000000  0.00000000  0.25000000
   0.50000000  0.25000000  0.00000000
   0.75000000  0.00000000  0.00000000
   0.75000000  0.25000000  0.75000000
   0.50000000  0.00000000  0.75000000
   0.50000000  0.25000000  0.50000000
   0.75000000  0.00000000  0.50000000
   0.75000000  0.75000000  0.25000000
   0.50000000  0.50000000  0.25000000
   0.50000000  0.75000000  0.00000000
   0.75000000  0.50000000  0.00000000
   0.75000000  0.75000000  0.75000000
   0.50000000  0.50000000  0.75000000
   0.50000000  0.75000000  0.50000000
   0.75000000  0.50000000  0.50000000
 
 position of ions in cartesian coordinates  (Angst):
   0.03000000  0.00000000  0.00000000
   2.80100059  2.80100059  0.00000000
   2.80100059  0.00000000  2.80100059
   0.00000000  2.80100059  2.80100059
   0.00000000  0.00000000  5.60200118
   2.80100059  2.80100059  5.60200118
   2.80100059  0.00000000  8.40300177
   0.00000000  2.80100059  8.40300177
   0.00000000  5.60200118  0.00000000
   2.80100059  8.40300177  0.00000000
   2.80100059  5.60200118  2.80100059
   0.00000000  8.40300177  2.80100059
   0.00000000  5.60200118  5.60200118
   2.80100059  8.40300177  5.60200118
   2.80100059  5.60200118  8.40300177
   0.00000000  8.40300177  8.40300177
   5.60200118  0.00000000  0.00000000
   8.40300177  2.80100059  0.00000000
   8.40300177  0.00000000  2.80100059
   5.60200118  2.80100059  2.80100059
   5.60200118  0.00000000  5.60200118
   8.40300177  2.80100059  5.60200118
   8.40300177  0.00000000  8.40300177
   5.60200118  2.80100059  8.40300177
   5.60200118  5.60200118  0.00000000
   8.40300177  8.40300177  0.00000000
   8.40300177  5.60200118  2.80100059
   5.60200118  8.40300177  2.80100059
   5.60200118  5.60200118  5.60200118
   8.40300177  8.40300177  5.60200118
   8.40300177  5.60200118  8.40300177
   5.60200118  8.40300177  8.40300177
   2.80100059  2.80100059  2.80100059
   0.00000000  0.00000000  2.77100059
   0.00000000  2.80100059  0.00000000
   2.80100059  0.00000000  0.00000000
   2.80100059  2.80100059  8.40300177
   0.00000000  0.00000000  8.40300177
   0.00000000  2.80100059  5.60200118
   2.80100059  0.00000000  5.60200118
   2.80100059  8.40300177  2.80100059
   0.00000000  5.60200118  2.80100059
   0.00000000  8.40300177  0.00000000
   2.80100059  5.60200118  0.00000000
   2.80100059  8.40300177  8.40300177
   0.00000000  5.60200118  8.40300177
   0.00000000  8.40300177  5.60200118
   2.80100059  5.60200118  5.60200118
   8.40300177  2.80100059  2.80100059
   5.60200118  0.00000000  2.80100059
   5.60200118  2.80100059  0.00000000
   8.40300177  0.00000000  0.00000000
   8.40300177  2.80100059  8.40300177
   5.60200118  0.00000000  8.40300177
   5.60200118  2.80100059  5.60200118
   8.40300177  0.00000000  5.60200118
   8.40300177  8.40300177  2.80100059
   5.60200118  5.60200118  2.80100059
   5.60200118  8.40300177  0.00000000
   8.40300177  5.60200118  0.00000000
   8.40300177  8.40300177  8.40300177
   5.60200118  5.60200118  8.40300177
   5.60200118  8.40300177  5.60200118
   8.40300177  5.60200118  5.60200118
 


--------------------------------------------------------------------------------------------------------


 k-point   1 :   0.0000 0.0000 0.0000  plane waves:   20005
 k-point   2 :   0.5000 0.0000 0.0000  plane waves:   20138
 k-point   3 :   0.0000 0.5000 0.0000  plane waves:   20138
 k-point   4 :   0.0000 0.0000 0.5000  plane waves:   20138
 k-point   5 :   0.5000 0.5000 0.0000  plane waves:   20160
 k-point   6 :   0.0000 0.5000 0.5000  plane waves:   20160
 k-point   7 :   0.5000 0.0000 0.5000  plane waves:   20160
 k-point   8 :   0.5000 0.5000 0.5000  plane waves:   20336

 maximum and minimum number of plane-waves per node :     20336    20005

 maximum number of plane-waves:     20336
 maximum index in each direction: 
   IXMAX=   16   IYMAX=   16   IZMAX=   16
   IXMIN=  -17   IYMIN=  -17   IZMIN=  -17


 serial   3D FFT for wavefunctions
 parallel 3D FFT for charge:
    minimum data exchange during FFTs selected (reduces bandwidth)


 total amount of memory used by VASP MPI-rank0   129658. kBytes
=======================================================================

   base      :      30000. kBytes
   nonl-proj :      41680. kBytes
   fftplans  :      14405. kBytes
   grid      :      19342. kBytes
   one-center:        196. kBytes
   wavefun   :      24035. kBytes
 
     INWAV:  cpu time      0.0000: real time      0.0000
 Broyden mixing: mesh for mixing (old mesh)
   NGX = 33   NGY = 33   NGZ = 33
  (NGX  =140   NGY  =140   NGZ  =140)
  gives a total of  35937 points

 initial charge density was supplied:
 charge density of overlapping atoms calculated
 number of electron     448.0000000 magnetization 
 keeping initial charge density in first step


--------------------------------------------------------------------------------------------------------


 Maximum index for augmentation-charges         1834 (set IRDMAX)


--------------------------------------------------------------------------------------------------------


 First call to EWALD:  gamma=   0.158
 Maximum number of real-space cells 3x 3x 3
 Maximum number of reciprocal cells 3x 3x 3

    FEWALD:  cpu time      0.0014: real time      0.0014


--------------------------------------- Iteration      1(   1)  ---------------------------------------


    POTLOK:  cpu time      0.0418: real time      0.0423
    SETDIJ:  cpu time      0.0319: real time      0.0321
     EDDAV:  cpu time     10.1986: real time     10.2522
       DOS:  cpu time      0.0008: real time      0.0008
    --------------------------------------------
      LOOP:  cpu time     10.2732: real time     10.3275

 eigenvalue-minimisations  :  4608
 total energy-change (2. order) : 0.4321932E+04  (-0.1716432E+05)
 number of electron     448.0000000 magnetization 
 augmentation part      448.0000000 magnetization 

 Free energy of the ion-electron system (eV)
  ---------------------------------------------------
  alpha Z        PSCENC =       751.52672365
  Ewald energy   TEWEN  =    -22871.34070708
  -Hartree energ DENC   =     -8992.24595008
  -exchange      EXHF   =         0.00000000
  -V(xc)+E(xc)   XCENC  =      1456.53426158
  PAW double counting   =     26466.43774078   -29286.08056155
  entropy T*S    EENTRO =        -0.00245440
  eigenvalues    EBANDS =      -735.07655118
  atomic energy  EATOM  =     37532.17946992
  Solvation  Ediel_sol  =         0.00000000
  ---------------------------------------------------
  free energy    TOTEN  =      4321.93197165 eV

  energy without entropy =     4321.93442605  energy(sigma->0) =     4321.93319885


--------------------------------------------------------------------------------------------------------




--------------------------------------- Iteration      1(   2)  ---------------------------------------


     EDDAV:  cpu time     11.0985: real time     11.1588
       DOS:  cpu time      0.0005: real time      0.0005
    --------------------------------------------
      LOOP:  cpu time     11.0990: real time     11.1593

 eigenvalue-minimisations  :  5120
 total energy-change (2. order) :-0.3958058E+04  (-0.3765817E+04)
 number of electron     448.0000000 magnetization 
 augmentation part      448.0000000 magnetization 

 Free energy of the ion-electron system (eV)
  ---------------------------------------------------
  alpha Z        PSCENC =       751.52672365
  Ewald energy   TEWEN  =    -22871.34070708
  -Hartree energ DENC   =     -8992.24595008
  -exchange      EXHF   =         0.00000000
  -V(xc)+E(xc)   XCENC  =      1456.53426158
  PAW double counting   =     26466.43774078   -29286.08056155
  entropy T*S    EENTRO =        -0.00000000
  eigenvalues    EBANDS =     -4693.13667772
  atomic energy  EATOM  =     37532.17946992
  Solvation  Ediel_sol  =         0.00000000
  ---------------------------------------------------
  free energy    TOTEN  =       363.87429952 eV

  energy without entropy =      363.87429952  energy(sigma->0) =      363.87429952


--------------------------------------------------------------------------------------------------------




--------------------------------------- Iteration      1(   3)  ---------------------------------------


     EDDAV:  cpu time     11.9525: real time     12.0166
       DOS:  cpu time      0.0006: real time      0.0006
    --------------------------------------------
      LOOP:  cpu time     11.9531: real time     12.0172

 eigenvalue-minimisations  :  5600
 total energy-change (2. order) :-0.5700518E+03  (-0.5657941E+03)
 number of electron     448.0000000 magnetization 
 augmentation part      448.0000000 magnetization 

 Free energy of the ion-electron system (eV)
  ---------------------------------------------------
  alpha Z        PSCENC =       751.52672365
  Ewald energy   TEWEN  =    -22871.34070708
  -Hartree energ DENC   =     -8992.24595008
  -exchange      EXHF   =         0.00000000
  -V(xc)+E(xc)   XCENC  =      1456.53426158
  PAW double counting   =     26466.43774078   -29286.08056155
  entropy T*S    EENTRO =        -0.00000000
  eigenvalues    EBANDS =     -5263.18846794
  atomic energy  EATOM  =     37532.17946992
  Solvation  Ediel_sol  =         0.00000000
  ---------------------------------------------------
  free energy    TOTEN  =      -206.17749071 eV

  energy without entropy =     -206.17749071  energy(sigma->0) =     -206.17749071


--------------------------------------------------------------------------------------------------------




--------------------------------------- Iteration      1(   4)  ---------------------------------------


     EDDAV:  cpu time     11.8670: real time     11.9341
       DOS:  cpu time      0.0006: real time      0.0006
    --------------------------------------------
      LOOP:  cpu time     11.8676: real time     11.9347

 eigenvalue-minimisations  :  5536
 total energy-change (2. order) :-0.2201441E+02  (-0.2191323E+02)
 number of electron     448.0000000 magnetization 
 augmentation part      448.0000000 magnetization 

 Free energy of the ion-electron system (eV)
  ---------------------------------------------------
  alpha Z        PSCENC =       751.52672365
  Ewald energy   TEWEN  =    -22871.34070708
  -Hartree energ DENC   =     -8992.24595008
  -exchange      EXHF   =         0.00000000
  -V(xc)+E(xc)   XCENC  =      1456.53426158
  PAW double counting   =     26466.43774078   -29286.08056155
  entropy T*S    EENTRO =        -0.00000000
  eigenvalues    EBANDS =     -5285.20287511
  atomic energy  EATOM  =     37532.17946992
  Solvation  Ediel_sol  =         0.00000000
  ---------------------------------------------------
  free energy    TOTEN  =      -228.19189787 eV

  energy without entropy =     -228.19189787  energy(sigma->0) =     -228.19189787


--------------------------------------------------------------------------------------------------------




--------------------------------------- Iteration      1(   5)  ---------------------------------------


     EDDAV:  cpu time     12.1188: real time     12.1839
       DOS:  cpu time      0.0006: real time      0.0006
    CHARGE:  cpu time      0.3529: real time      0.3551
    MIXING:  cpu time      0.0015: real time      0.0015
    --------------------------------------------
      LOOP:  cpu time     12.4738: real time     12.5411

 eigenvalue-minimisations  :  5696
 total energy-change (2. order) :-0.8122950E+00  (-0.8108700E+00)
 number of electron     448.0000022 magnetization 
 augmentation part      111.6454394 magnetization 

 Broyden mixing:
  rms(total) = 0.10609E+01    rms(broyden)= 0.10604E+01
  rms(prec ) = 0.14937E+01
  weight for this iteration     100.00

 Free energy of the ion-electron system (eV)
  ---------------------------------------------------
  alpha Z        PSCENC =       751.52672365
  Ewald energy   TEWEN  =    -22871.34070708
  -Hartree energ DENC   =     -8992.24595008
  -exchange      EXHF   =         0.00000000
  -V(xc)+E(xc)   XCENC  =      1456.53426158
  PAW double counting   =     26466.43774078   -29286.08056155
  entropy T*S    EENTRO =        -0.00000000
  eigenvalues    EBANDS =     -5286.01517013
  atomic energy  EATOM  =     37532.17946992
  Solvation  Ediel_sol  =         0.00000000
  ---------------------------------------------------
  free energy    TOTEN  =      -229.00419290 eV

  energy without entropy =     -229.00419290  energy(sigma->0) =     -229.00419290


--------------------------------------------------------------------------------------------------------




--------------------------------------- Iteration      1(   6)  ---------------------------------------


    POTLOK:  cpu time      0.0363: real time      0.0377
    SETDIJ:  cpu time      0.0308: real time      0.0310
     EDDAV:  cpu time     12.2481: real time     12.3152
       DOS:  cpu time      0.0002: real time      0.0002
    CHARGE:  cpu time      0.3471: real time      0.3486
    MIXING:  cpu time      0.0023: real time      0.0023
    --------------------------------------------
      LOOP:  cpu time     12.6649: real time     12.7350

 eigenvalue-minimisations  :  5728
 total energy-change (2. order) : 0.4865373E+01  (-0.9476170E+00)
 number of electron     448.0000022 magnetization 
 augmentation part      112.4572011 magnetization 

 Broyden mixing:
  rms(total) = 0.77572E+00    rms(broyden)= 0.77567E+00
  rms(prec ) = 0.89180E+00
  weight for this iteration     100.00

 eigenvalues of (default mixing * dielectric matrix)
  average eigenvalue GAMMA=   1.0759
  1.0759

 Free energy of the ion-electron system (eV)
  ---------------------------------------------------
  alpha Z        PSCENC =       751.52672365
  Ewald energy   TEWEN  =    -22871.34070708
  -Hartree energ DENC   =     -9061.80755130
  -exchange      EXHF   =         0.00000000
  -V(xc)+E(xc)   XCENC  =      1465.43273114
  PAW double counting   =     27291.33080058   -30103.34587655
  entropy T*S    EENTRO =        -0.00000000
  eigenvalues    EBANDS =     -5228.11441053
  atomic energy  EATOM  =     37532.17946992
  Solvation  Ediel_sol  =         0.00000000
  ---------------------------------------------------
  free energy    TOTEN  =      -224.13882017 eV

  energy without entropy =     -224.13882017  energy(sigma->0) =     -224.13882017


--------------------------------------------------------------------------------------------------------




--------------------------------------- Iteration      1(   7)  ---------------------------------------


    POTLOK:  cpu time      0.0361: real time      0.0364
    SETDIJ:  cpu time      0.0327: real time      0.0331
     EDDAV:  cpu time     13.1952: real time     13.2654
       DOS:  cpu time      0.0002: real time      0.0002
    CHARGE:  cpu time      0.3494: real time      0.3511
    MIXING:  cpu time      0.0016: real time      0.0016
    --------------------------------------------
      LOOP:  cpu time     13.6152: real time     13.6878

 eigenvalue-minimisations  :  6304
 total energy-change (2. order) : 0.3614313E+00  (-0.2069628E+00)
 number of electron     448.0000022 magnetization 
 augmentation part      112.8272897 magnetization 

 Broyden mixing:
  rms(total) = 0.53309E+00    rms(broyden)= 0.53307E+00
  rms(prec ) = 0.56307E+00
  weight for this iteration     100.00

 eigenvalues of (default mixing * dielectric matrix)
  average eigenvalue GAMMA=   2.1557
  1.4394  2.8719

 Free energy of the ion-electron system (eV)
  ---------------------------------------------------
  alpha Z        PSCENC =       751.52672365
  Ewald energy   TEWEN  =    -22871.34070708
  -Hartree energ DENC   =     -9085.85543657
  -exchange      EXHF   =         0.00000000
  -V(xc)+E(xc)   XCENC  =      1470.12840204
  PAW double counting   =     28330.14652879   -31142.87557893
  entropy T*S    EENTRO =        -0.00000000
  eigenvalues    EBANDS =     -5207.68679074
  atomic energy  EATOM  =     37532.17946992
  Solvation  Ediel_sol  =         0.00000000
  ---------------------------------------------------
  free energy    TOTEN  =      -223.77738890 eV

  energy without entropy =     -223.77738890  energy(sigma->0) =     -223.77738890


--------------------------------------------------------------------------------------------------------




--------------------------------------- Iteration      1(   8)  ---------------------------------------


    POTLOK:  cpu time      0.0359: real time      0.0361
    SETDIJ:  cpu time      0.0317: real time      0.0318
     EDDAV:  cpu time     11.5502: real time     11.6121
       DOS:  cpu time      0.0002: real time      0.0002
    CHARGE:  cpu time      0.3465: real time      0.3481
    MIXING:  cpu time      0.0016: real time      0.0016
    --------------------------------------------
      LOOP:  cpu time     11.9661: real time     12.0299

 eigenvalue-minimisations  :  5344
 total energy-change (2. order) :-0.1252617E+00  (-0.2664901E-01)
 number of electron     448.0000022 magnetization 
 augmentation part      112.8093107 magnetization 

 Broyden mixing:
  rms(total) = 0.14198E+00    rms(broyden)= 0.14198E+00
  rms(prec ) = 0.14488E+00
  weight for this iteration     100.00

 eigenvalues of (default mixing * dielectric matrix)
  average eigenvalue GAMMA=   1.5563
  2.5218  1.3856  0.7614

 Free energy of the ion-electron system (eV)
  ---------------------------------------------------
  alpha Z        PSCENC =       751.52672365
  Ewald energy   TEWEN  =    -22871.34070708
  -Hartree energ DENC   =     -9075.19536837
  -exchange      EXHF   =         0.00000000
  -V(xc)+E(xc)   XCENC  =      1472.33834647
  PAW double counting   =     29809.75561123   -32629.59320045
  entropy T*S    EENTRO =        -0.00000000
  eigenvalues    EBANDS =     -5213.57352596
  atomic energy  EATOM  =     37532.17946992
  Solvation  Ediel_sol  =         0.00000000
  ---------------------------------------------------
  free energy    TOTEN  =      -223.90265059 eV

  energy without entropy =     -223.90265059  energy(sigma->0) =     -223.90265059


--------------------------------------------------------------------------------------------------------




--------------------------------------- Iteration      1(   9)  ---------------------------------------


    POTLOK:  cpu time      0.0368: real time      0.0411
    SETDIJ:  cpu time      0.0316: real time      0.0318
     EDDAV:  cpu time     12.1050: real time     12.1689
       DOS:  cpu time      0.0002: real time      0.0002
    CHARGE:  cpu time      0.3473: real time      0.3495
    MIXING:  cpu time      0.0012: real time      0.0012
    --------------------------------------------
      LOOP:  cpu time     12.5220: real time     12.5926

 eigenvalue-minimisations  :  5696
 total energy-change (2. order) : 0.5573053E-02  (-0.1145614E-02)
 number of electron     448.0000022 magnetization 
 augmentation part      112.8315902 magnetization 

 Broyden mixing:
  rms(total) = 0.59894E-01    rms(broyden)= 0.59893E-01
  rms(prec ) = 0.61960E-01
  weight for this iteration     100.00

 eigenvalues of (default mixing * dielectric matrix)
  average eigenvalue GAMMA=   2.0056
  2.8462  2.7846  0.9982  1.3934

 Free energy of the ion-electron system (eV)
  ---------------------------------------------------
  alpha Z        PSCENC =       751.52672365
  Ewald energy   TEWEN  =    -22871.34070708
  -Hartree energ DENC   =     -9077.94664346
  -exchange      EXHF   =         0.00000000
  -V(xc)+E(xc)   XCENC  =      1472.35675321
  PAW double counting   =     29629.52562179   -32448.51664520
  entropy T*S    EENTRO =        -0.00000000
  eigenvalues    EBANDS =     -5211.68165037
  atomic energy  EATOM  =     37532.17946992
  Solvation  Ediel_sol  =         0.00000000
  ---------------------------------------------------
  free energy    TOTEN  =      -223.89707753 eV

  energy without entropy =     -223.89707753  energy(sigma->0) =     -223.89707753


--------------------------------------------------------------------------------------------------------




--------------------------------------- Iteration      1(  10)  ---------------------------------------


    POTLOK:  cpu time      0.0358: real time      0.0367
    SETDIJ:  cpu time      0.0309: real time      0.0311
     EDDAV:  cpu time     11.5576: real time     11.6184
       DOS:  cpu time      0.0002: real time      0.0002
    CHARGE:  cpu time      0.3530: real time      0.3554
    MIXING:  cpu time      0.0017: real time      0.0021
    --------------------------------------------
      LOOP:  cpu time     11.9793: real time     12.0437

 eigenvalue-minimisations  :  5376
 total energy-change (2. order) :-0.4316721E-02  (-0.1836306E-02)
 number of electron     448.0000022 magnetization 
 augmentation part      112.8607566 magnetization 

 Broyden mixing:
  rms(total) = 0.28726E-01    rms(broyden)= 0.28724E-01
  rms(prec ) = 0.30793E-01
  weight for this iteration     100.00

 eigenvalues of (default mixing * dielectric matrix)
  average eigenvalue GAMMA=   1.7106
  2.9404  2.5109  1.2960  1.0208  0.7849

 Free energy of the ion-electron system (eV)
  ---------------------------------------------------
  alpha Z        PSCENC =       751.52672365
  Ewald energy   TEWEN  =    -22871.34070708
  -Hartree energ DENC   =     -9079.45847390
  -exchange      EXHF   =         0.00000000
  -V(xc)+E(xc)   XCENC  =      1472.60797096
  PAW double counting   =     29455.84697483   -32275.09062273
  entropy T*S    EENTRO =        -0.00000000
  eigenvalues    EBANDS =     -5210.17272991
  atomic energy  EATOM  =     37532.17946992
  Solvation  Ediel_sol  =         0.00000000
  ---------------------------------------------------
  free energy    TOTEN  =      -223.90139425 eV

  energy without entropy =     -223.90139425  energy(sigma->0) =     -223.90139425


--------------------------------------------------------------------------------------------------------




--------------------------------------- Iteration      1(  11)  ---------------------------------------


    POTLOK:  cpu time      0.0360: real time      0.0373
    SETDIJ:  cpu time      0.0304: real time      0.0306
     EDDAV:  cpu time     12.5194: real time     12.5939
       DOS:  cpu time      0.0002: real time      0.0002
    CHARGE:  cpu time      0.3476: real time      0.3500
    MIXING:  cpu time      0.0012: real time      0.0012
    --------------------------------------------
      LOOP:  cpu time     12.9348: real time     13.0132

 eigenvalue-minimisations  :  5952
 total energy-change (2. order) : 0.7307804E-03  (-0.1596812E-03)
 number of electron     448.0000022 magnetization 
 augmentation part      112.8515452 magnetization 

 Broyden mixing:
  rms(total) = 0.87261E-02    rms(broyden)= 0.87260E-02
  rms(prec ) = 0.91622E-02
  weight for this iteration     100.00

 eigenvalues of (default mixing * dielectric matrix)
  average eigenvalue GAMMA=   1.5670
  2.9151  2.4431  1.3193  1.0112  0.8566  0.8566

 Free energy of the ion-electron system (eV)
  ---------------------------------------------------
  alpha Z        PSCENC =       751.52672365
  Ewald energy   TEWEN  =    -22871.34070708
  -Hartree energ DENC   =     -9078.34876345
  -exchange      EXHF   =         0.00000000
  -V(xc)+E(xc)   XCENC  =      1472.53034454
  PAW double counting   =     29487.29226612   -32306.67303531
  entropy T*S    EENTRO =        -0.00000000
  eigenvalues    EBANDS =     -5211.06696187
  atomic energy  EATOM  =     37532.17946992
  Solvation  Ediel_sol  =         0.00000000
  ---------------------------------------------------
  free energy    TOTEN  =      -223.90066347 eV

  energy without entropy =     -223.90066347  energy(sigma->0) =     -223.90066347


--------------------------------------------------------------------------------------------------------




--------------------------------------- Iteration      1(  12)  ---------------------------------------


    POTLOK:  cpu time      0.0356: real time      0.0358
    SETDIJ:  cpu time      0.0305: real time      0.0306
     EDDAV:  cpu time     12.1998: real time     12.2723
       DOS:  cpu time      0.0002: real time      0.0002
    CHARGE:  cpu time      0.3451: real time      0.3474
    MIXING:  cpu time      0.0018: real time      0.0018
    --------------------------------------------
      LOOP:  cpu time     12.6129: real time     12.6881

 eigenvalue-minimisations  :  5760
 total energy-change (2. order) : 0.3928125E-04  (-0.1513925E-04)
 number of electron     448.0000022 magnetization 
 augmentation part      112.8488489 magnetization 

 Broyden mixing:
  rms(total) = 0.14582E-02    rms(broyden)= 0.14574E-02
  rms(prec ) = 0.17287E-02
  weight for this iteration     100.00

 eigenvalues of (default mixing * dielectric matrix)
  average eigenvalue GAMMA=   1.5902
  2.8880  2.4147  1.5543  1.2022  1.2022  1.0670  0.8031

 Free energy of the ion-electron system (eV)
  ---------------------------------------------------
  alpha Z        PSCENC =       751.52672365
  Ewald energy   TEWEN  =    -22871.34070708
  -Hartree energ DENC   =     -9078.18604126
  -exchange      EXHF   =         0.00000000
  -V(xc)+E(xc)   XCENC  =      1472.51869018
  PAW double counting   =     29498.58491150   -32317.96134545
  entropy T*S    EENTRO =        -0.00000000
  eigenvalues    EBANDS =     -5211.22232566
  atomic energy  EATOM  =     37532.17946992
  Solvation  Ediel_sol  =         0.00000000
  ---------------------------------------------------
  free energy    TOTEN  =      -223.90062419 eV

  energy without entropy =     -223.90062419  energy(sigma->0) =     -223.90062419


--------------------------------------------------------------------------------------------------------




--------------------------------------- Iteration      1(  13)  ---------------------------------------


    POTLOK:  cpu time      0.0360: real time      0.0363
    SETDIJ:  cpu time      0.0302: real time      0.0306
     EDDAV:  cpu time     12.1210: real time     12.1943
       DOS:  cpu time      0.0002: real time      0.0002
    CHARGE:  cpu time      0.3422: real time      0.3442
    MIXING:  cpu time      0.0011: real time      0.0011
    --------------------------------------------
      LOOP:  cpu time     12.5308: real time     12.6066

 eigenvalue-minimisations  :  5728
 total energy-change (2. order) :-0.8472271E-06  (-0.2120451E-05)
 number of electron     448.0000022 magnetization 
 augmentation part      112.8477765 magnetization 

 Broyden mixing:
  rms(total) = 0.35717E-03    rms(broyden)= 0.35651E-03
  rms(prec ) = 0.42143E-03
  weight for this iteration     100.00

 eigenvalues of (default mixing * dielectric matrix)
  average eigenvalue GAMMA=   1.6194
  2.9736  2.3419  2.3419  1.2554  0.9989  0.9989  1.0222  1.0222

 Free energy of the ion-electron system (eV)
  ---------------------------------------------------
  alpha Z        PSCENC =       751.52672365
  Ewald energy   TEWEN  =    -22871.34070708
  -Hartree energ DENC   =     -9078.11152038
  -exchange      EXHF   =         0.00000000
  -V(xc)+E(xc)   XCENC  =      1472.51087439
  PAW double counting   =     29498.73173714   -32318.10565322
  entropy T*S    EENTRO =        -0.00000000
  eigenvalues    EBANDS =     -5211.29154946
  atomic energy  EATOM  =     37532.17946992
  Solvation  Ediel_sol  =         0.00000000
  ---------------------------------------------------
  free energy    TOTEN  =      -223.90062504 eV

  energy without entropy =     -223.90062504  energy(sigma->0) =     -223.90062504


--------------------------------------------------------------------------------------------------------




--------------------------------------- Iteration      1(  14)  ---------------------------------------


    POTLOK:  cpu time      0.0359: real time      0.0409
    SETDIJ:  cpu time      0.0308: real time      0.0309
     EDDAV:  cpu time     11.7200: real time     11.7825
       DOS:  cpu time      0.0002: real time      0.0002
    CHARGE:  cpu time      0.3444: real time      0.3460
    MIXING:  cpu time      0.0014: real time      0.0014
    --------------------------------------------
      LOOP:  cpu time     12.1327: real time     12.2018

 eigenvalue-minimisations  :  5472
 total energy-change (2. order) :-0.1000597E-05  (-0.1962695E-06)
 number of electron     448.0000022 magnetization 
 augmentation part      112.8476756 magnetization 

 Broyden mixing:
  rms(total) = 0.92935E-03    rms(broyden)= 0.92928E-03
  rms(prec ) = 0.95263E-03
  weight for this iteration     100.00

 eigenvalues of (default mixing * dielectric matrix)
  average eigenvalue GAMMA=   1.6532
  3.0366  2.6140  2.6140  1.4148  1.2297  1.2297  0.9561  0.9561  0.8283

 Free energy of the ion-electron system (eV)
  ---------------------------------------------------
  alpha Z        PSCENC =       751.52672365
  Ewald energy   TEWEN  =    -22871.34070708
  -Hartree energ DENC   =     -9078.11974722
  -exchange      EXHF   =         0.00000000
  -V(xc)+E(xc)   XCENC  =      1472.51206526
  PAW double counting   =     29500.18437441   -32319.55369654
  entropy T*S    EENTRO =        -0.00000000
  eigenvalues    EBANDS =     -5211.28910844
  atomic energy  EATOM  =     37532.17946992
  Solvation  Ediel_sol  =         0.00000000
  ---------------------------------------------------
  free energy    TOTEN  =      -223.90062604 eV

  energy without entropy =     -223.90062604  energy(sigma->0) =     -223.90062604


--------------------------------------------------------------------------------------------------------




--------------------------------------- Iteration      1(  15)  ---------------------------------------


    POTLOK:  cpu time      0.0364: real time      0.0370
    SETDIJ:  cpu time      0.0302: real time      0.0304
     EDDAV:  cpu time     12.3144: real time     12.3806
       DOS:  cpu time      0.0002: real time      0.0002
    CHARGE:  cpu time      0.3397: real time      0.3414
    MIXING:  cpu time      0.0015: real time      0.0015
    --------------------------------------------
      LOOP:  cpu time     12.7223: real time     12.7910

 eigenvalue-minimisations  :  5824
 total energy-change (2. order) :-0.1378234E-05  (-0.4796018E-07)
 number of electron     448.0000022 magnetization 
 augmentation part      112.8477709 magnetization 

 Broyden mixing:
  rms(total) = 0.34014E-03    rms(broyden)= 0.34002E-03
  rms(prec ) = 0.35038E-03
  weight for this iteration     100.00

 eigenvalues of (default mixing * dielectric matrix)
  average eigenvalue GAMMA=   1.6154
  3.1153  2.7359  2.4388  1.4293  1.3255  1.3255  0.9753  0.9753  0.9648  0.8680

 Free energy of the ion-electron system (eV)
  ---------------------------------------------------
  alpha Z        PSCENC =       751.52672365
  Ewald energy   TEWEN  =    -22871.34070708
  -Hartree energ DENC   =     -9078.14897401
  -exchange      EXHF   =         0.00000000
  -V(xc)+E(xc)   XCENC  =      1472.51291745
  PAW double counting   =     29498.98330440   -32318.34854260
  entropy T*S    EENTRO =        -0.00000000
  eigenvalues    EBANDS =     -5211.26481915
  atomic energy  EATOM  =     37532.17946992
  Solvation  Ediel_sol  =         0.00000000
  ---------------------------------------------------
  free energy    TOTEN  =      -223.90062742 eV

  energy without entropy =     -223.90062742  energy(sigma->0) =     -223.90062742


--------------------------------------------------------------------------------------------------------




--------------------------------------- Iteration      1(  16)  ---------------------------------------


    POTLOK:  cpu time      0.0358: real time      0.0370
    SETDIJ:  cpu time      0.0306: real time      0.0307
     EDDAV:  cpu time     11.9983: real time     12.0623
       DOS:  cpu time      0.0002: real time      0.0002
    CHARGE:  cpu time      0.3443: real time      0.3464
    MIXING:  cpu time      0.0019: real time      0.0019
    --------------------------------------------
      LOOP:  cpu time     12.4110: real time     12.4785

 eigenvalue-minimisations  :  5632
 total energy-change (2. order) :-0.5491020E-06  (-0.1504607E-07)
 number of electron     448.0000022 magnetization 
 augmentation part      112.8478496 magnetization 

 Broyden mixing:
  rms(total) = 0.51707E-04    rms(broyden)= 0.50925E-04
  rms(prec ) = 0.57960E-04
  weight for this iteration     100.00

 eigenvalues of (default mixing * dielectric matrix)
  average eigenvalue GAMMA=   1.5840
  3.1321  2.7034  2.4453  1.4052  1.4052  1.3872  1.1446  1.1446  0.9449  0.8556
  0.8556

 Free energy of the ion-electron system (eV)
  ---------------------------------------------------
  alpha Z        PSCENC =       751.52672365
  Ewald energy   TEWEN  =    -22871.34070708
  -Hartree energ DENC   =     -9078.15891965
  -exchange      EXHF   =         0.00000000
  -V(xc)+E(xc)   XCENC  =      1472.51332819
  PAW double counting   =     29498.35992775   -32317.72477655
  entropy T*S    EENTRO =        -0.00000000
  eigenvalues    EBANDS =     -5211.25567421
  atomic energy  EATOM  =     37532.17946992
  Solvation  Ediel_sol  =         0.00000000
  ---------------------------------------------------
  free energy    TOTEN  =      -223.90062797 eV

  energy without entropy =     -223.90062797  energy(sigma->0) =     -223.90062797


--------------------------------------------------------------------------------------------------------




--------------------------------------- Iteration      1(  17)  ---------------------------------------


    POTLOK:  cpu time      0.0359: real time      0.0362
    SETDIJ:  cpu time      0.0304: real time      0.0306
     EDDAV:  cpu time      8.6414: real time      8.6870
       DOS:  cpu time      0.0002: real time      0.0002
    CHARGE:  cpu time      0.3414: real time      0.3436
    MIXING:  cpu time      0.0019: real time      0.0019
    --------------------------------------------
      LOOP:  cpu time      9.0513: real time      9.0995

 eigenvalue-minimisations  :  3616
 total energy-change (2. order) : 0.1067383E-07  (-0.8301374E-09)
 number of electron     448.0000022 magnetization 
 augmentation part      112.8478529 magnetization 

 Broyden mixing:
  rms(total) = 0.17963E-04    rms(broyden)= 0.15623E-04
  rms(prec ) = 0.23303E-04
  weight for this iteration     100.00
  WARNING: grid for Broyden might be to small

 eigenvalues of (default mixing * dielectric matrix)
  average eigenvalue GAMMA=   1.6086
  3.1711  2.8775  2.2078  2.2078  1.3208  1.3208  1.2152  1.2152  0.9667  0.8773
  0.9616  0.9616

 Free energy of the ion-electron system (eV)
  ---------------------------------------------------
  alpha Z        PSCENC =       751.52672365
  Ewald energy   TEWEN  =    -22871.34070708
  -Hartree energ DENC   =     -9078.16025688
  -exchange      EXHF   =         0.00000000
  -V(xc)+E(xc)   XCENC  =      1472.51338410
  PAW double counting   =     29498.29532165   -32317.66015824
  entropy T*S    EENTRO =        -0.00000000
  eigenvalues    EBANDS =     -5211.25440508
  atomic energy  EATOM  =     37532.17946992
  Solvation  Ediel_sol  =         0.00000000
  ---------------------------------------------------
  free energy    TOTEN  =      -223.90062796 eV

  energy without entropy =     -223.90062796  energy(sigma->0) =     -223.90062796


--------------------------------------------------------------------------------------------------------




--------------------------------------- Iteration      1(  18)  ---------------------------------------


    POTLOK:  cpu time      0.0355: real time      0.0358
    SETDIJ:  cpu time      0.0306: real time      0.0307
     EDDAV:  cpu time      8.6317: real time      8.6775
       DOS:  cpu time      0.0002: real time      0.0002
    CHARGE:  cpu time      0.3437: real time      0.3459
    MIXING:  cpu time      0.0025: real time      0.0025
    --------------------------------------------
      LOOP:  cpu time      9.0441: real time      9.0926

 eigenvalue-minimisations  :  3616
 total energy-change (2. order) :-0.8478673E-07  (-0.8037241E-09)
 number of electron     448.0000022 magnetization 
 augmentation part      112.8478645 magnetization 

 Broyden mixing:
  rms(total) = 0.44719E-04    rms(broyden)= 0.43833E-04
  rms(prec ) = 0.46002E-04
  weight for this iteration     100.00

 eigenvalues of (default mixing * dielectric matrix)
  average eigenvalue GAMMA=   1.5630
  3.1857  2.8940  2.2907  2.2907  1.0822  1.0822  1.3269  1.2145  1.2145  1.0725
  0.9424  0.8614  0.8614

 Free energy of the ion-electron system (eV)
  ---------------------------------------------------
  alpha Z        PSCENC =       751.52672365
  Ewald energy   TEWEN  =    -22871.34070708
  -Hartree energ DENC   =     -9078.16332966
  -exchange      EXHF   =         0.00000000
  -V(xc)+E(xc)   XCENC  =      1472.51350741
  PAW double counting   =     29498.20782634   -32317.57250705
  entropy T*S    EENTRO =        -0.00000000
  eigenvalues    EBANDS =     -5211.25161157
  atomic energy  EATOM  =     37532.17946992
  Solvation  Ediel_sol  =         0.00000000
  ---------------------------------------------------
  free energy    TOTEN  =      -223.90062804 eV

  energy without entropy =     -223.90062804  energy(sigma->0) =     -223.90062804


--------------------------------------------------------------------------------------------------------




--------------------------------------- Iteration      1(  19)  ---------------------------------------


    POTLOK:  cpu time      0.0354: real time      0.0357
    SETDIJ:  cpu time      0.0309: real time      0.0310
     EDDAV:  cpu time      7.7080: real time      7.7496
       DOS:  cpu time      0.0002: real time      0.0002
    CHARGE:  cpu time      0.3433: real time      0.3449
    MIXING:  cpu time      0.0018: real time      0.0018
    --------------------------------------------
      LOOP:  cpu time      8.1195: real time      8.1632

 eigenvalue-minimisations  :  3072
 total energy-change (2. order) : 0.4102185E-07  (-0.5385950E-09)
 number of electron     448.0000022 magnetization 
 augmentation part      112.8478642 magnetization 

 Broyden mixing:
  rms(total) = 0.29963E-04    rms(broyden)= 0.28623E-04
  rms(prec ) = 0.30098E-04
  weight for this iteration     100.00

 eigenvalues of (default mixing * dielectric matrix)
  average eigenvalue GAMMA=   1.6305
  3.4020  2.9451  2.4475  2.4475  1.5774  1.5774  1.2135  1.2135  1.2814  1.0242
  1.0242  0.8557  0.9089  0.9089

 Free energy of the ion-electron system (eV)
  ---------------------------------------------------
  alpha Z        PSCENC =       751.52672365
  Ewald energy   TEWEN  =    -22871.34070708
  -Hartree energ DENC   =     -9078.16296556
  -exchange      EXHF   =         0.00000000
  -V(xc)+E(xc)   XCENC  =      1472.51349577
  PAW double counting   =     29498.24457387   -32317.60922079
  entropy T*S    EENTRO =        -0.00000000
  eigenvalues    EBANDS =     -5211.25199779
  atomic energy  EATOM  =     37532.17946992
  Solvation  Ediel_sol  =         0.00000000
  ---------------------------------------------------
  free energy    TOTEN  =      -223.90062800 eV

  energy without entropy =     -223.90062800  energy(sigma->0) =     -223.90062800


--------------------------------------------------------------------------------------------------------




--------------------------------------- Iteration      1(  20)  ---------------------------------------


    POTLOK:  cpu time      0.0365: real time      0.0410
    SETDIJ:  cpu time      0.0311: real time      0.0312
     EDDAV:  cpu time      8.0827: real time      8.1256
       DOS:  cpu time      0.0002: real time      0.0002
    CHARGE:  cpu time      0.3442: real time      0.3459
    MIXING:  cpu time      0.0021: real time      0.0021
    --------------------------------------------
      LOOP:  cpu time      8.4967: real time      8.5460

 eigenvalue-minimisations  :  3296
 total energy-change (2. order) : 0.4691537E-07  (-0.2312951E-09)
 number of electron     448.0000022 magnetization 
 augmentation part      112.8478599 magnetization 

 Broyden mixing:
  rms(total) = 0.16452E-04    rms(broyden)= 0.13863E-04
  rms(prec ) = 0.14481E-04
  weight for this iteration     100.00
  WARNING: grid for Broyden might be to small

 eigenvalues of (default mixing * dielectric matrix)
  average eigenvalue GAMMA=   1.6386
  3.8832  3.0343  2.6986  2.4010  1.3373  1.3373  1.3837  1.3837  1.4210  1.0380
  1.0380  0.9386  0.9386  0.8726  0.8726

 Free energy of the ion-electron system (eV)
  ---------------------------------------------------
  alpha Z        PSCENC =       751.52672365
  Ewald energy   TEWEN  =    -22871.34070708
  -Hartree energ DENC   =     -9078.16218822
  -exchange      EXHF   =         0.00000000
  -V(xc)+E(xc)   XCENC  =      1472.51345583
  PAW double counting   =     29498.27521556   -32317.63986841
  entropy T*S    EENTRO =        -0.00000000
  eigenvalues    EBANDS =     -5211.25272922
  atomic energy  EATOM  =     37532.17946992
  Solvation  Ediel_sol  =         0.00000000
  ---------------------------------------------------
  free energy    TOTEN  =      -223.90062795 eV

  energy without entropy =     -223.90062795  energy(sigma->0) =     -223.90062795


--------------------------------------------------------------------------------------------------------




--------------------------------------- Iteration      1(  21)  ---------------------------------------


    POTLOK:  cpu time      0.0363: real time      0.0371
    SETDIJ:  cpu time      0.0310: real time      0.0311
     EDDAV:  cpu time      7.7250: real time      7.7659
       DOS:  cpu time      0.0003: real time      0.0003
    CHARGE:  cpu time      0.3436: real time      0.3457
    MIXING:  cpu time      0.0019: real time      0.0019
    --------------------------------------------
      LOOP:  cpu time      8.1381: real time      8.1821

 eigenvalue-minimisations  :  3072
 total energy-change (2. order) : 0.1811713E-07  (-0.1547390E-09)
 number of electron     448.0000022 magnetization 
 augmentation part      112.8478582 magnetization 

 Broyden mixing:
  rms(total) = 0.11667E-04    rms(broyden)= 0.75935E-05
  rms(prec ) = 0.80631E-05
  weight for this iteration     100.00
  WARNING: grid for Broyden might be to small

 eigenvalues of (default mixing * dielectric matrix)
  average eigenvalue GAMMA=   1.6091
  4.0551  3.0342  2.7593  2.3633  1.5592  1.5592  1.2614  1.2614  1.2693  1.0649
  1.0649  0.9344  0.9344  0.9236  0.9236  0.7775

 Free energy of the ion-electron system (eV)
  ---------------------------------------------------
  alpha Z        PSCENC =       751.52672365
  Ewald energy   TEWEN  =    -22871.34070708
  -Hartree energ DENC   =     -9078.16180058
  -exchange      EXHF   =         0.00000000
  -V(xc)+E(xc)   XCENC  =      1472.51344119
  PAW double counting   =     29498.29182391   -32317.65648926
  entropy T*S    EENTRO =        -0.00000000
  eigenvalues    EBANDS =     -5211.25308969
  atomic energy  EATOM  =     37532.17946992
  Solvation  Ediel_sol  =         0.00000000
  ---------------------------------------------------
  free energy    TOTEN  =      -223.90062793 eV

  energy without entropy =     -223.90062793  energy(sigma->0) =     -223.90062793


--------------------------------------------------------------------------------------------------------




--------------------------------------- Iteration      1(  22)  ---------------------------------------


    POTLOK:  cpu time      0.0367: real time      0.0369
    SETDIJ:  cpu time      0.0316: real time      0.0318
[...]
         0         1         2         3         4         5         6         7         8         9
 total charge-density along one line
 
 pseudopotential strength for first ion, spin component:           1
-25.369  -0.000  -0.000   2.501   0.000   0.000   0.000   0.000
 -0.000 -25.368  -0.000   0.000   2.501   0.000  -0.001  -0.002
 -0.000  -0.000 -25.369   0.000   0.000   2.501  -0.000  -0.001
  2.501   0.000   0.000   6.531   0.000   0.000  -0.000   0.000
  0.000   2.501   0.000   0.000   6.532  -0.000   0.000   0.000
  0.000   0.000   2.501   0.000  -0.000   6.531   0.000   0.000
  0.000  -0.001  -0.000  -0.000   0.000   0.000   1.428   6.993
  0.000  -0.002  -0.001   0.000   0.000   0.000   6.993  33.986
 total augmentation occupancy for first ion, spin component:           1
  2.002   0.000   0.000   0.002   0.000   0.000   0.000   0.000
  0.000   2.002   0.000   0.000   0.002   0.000   0.002  -0.001
  0.000   0.000   2.002   0.000   0.000   0.002   0.001  -0.000
  0.002   0.000   0.000   0.017   0.000   0.000   0.000   0.000
  0.000   0.002   0.000   0.000   0.018  -0.000   0.002  -0.000
  0.000   0.000   0.002   0.000  -0.000   0.017   0.003  -0.000
  0.000   0.002   0.001   0.000   0.002   0.003   0.407  -0.001
  0.000  -0.001  -0.000   0.000  -0.000  -0.000  -0.001   0.000


------------------------ aborting loop because EDIFF is reached ----------------------------------------


    CHARGE:  cpu time      0.3403: real time      0.3422
    FORLOC:  cpu time      0.0119: real time      0.0119
    FORNL :  cpu time      2.2761: real time      2.2894
    STRESS:  cpu time     13.0088: real time     13.0722
    FORCOR:  cpu time      0.0434: real time      0.0435
    FORHAR:  cpu time      0.0173: real time      0.0173
    MIXING:  cpu time      0.0013: real time      0.0013
    OFIELD:  cpu time      0.0000: real time      0.0000

  FORCE on cell =-STRESS in cart. coord.  units (eV):
  Direction    XX          YY          ZZ          XY          YZ          ZX
  --------------------------------------------------------------------------------------
  Alpha Z   751.52672   751.52672   751.52672
  Ewald   -7623.77439 -7623.92690 -7623.77675     0.00000     0.00000    -0.06170
  Hartree  3026.07651  3026.01746  3026.06766    -0.00000    -0.00000    -0.03905
  E(xc)   -2014.34812 -2014.34818 -2014.34811     0.00000     0.00000    -0.00002
  Local   -2024.96462 -2024.75564 -2024.95113     0.00000     0.00000     0.10033
  n-local  1887.62614  1887.62050  1887.62579    -0.00000     0.00000    -0.00077
  augment   687.00914   687.00943   687.00903    -0.00000    -0.00010    -0.00021
  Kinetic  5310.52621  5310.52433  5310.52420     0.00000     0.00000     0.00053
  Fock        0.00000     0.00000     0.00000     0.00000     0.00000     0.00000
  -------------------------------------------------------------------------------------
  Total      -0.32242    -0.33228    -0.32258     0.00000     0.00000    -0.00087
  in kB      -0.36729    -0.37853    -0.36748     0.00000     0.00000    -0.00099
  external pressure =       -0.37 kB  Pullay stress =        0.00 kB


 VOLUME and BASIS-vectors are now :
 -----------------------------------------------------------------------------
  energy-cutoff  :      341.21
  volume of cell :     1406.43
      direct lattice vectors                 reciprocal lattice vectors
    11.204002360  0.000000000  0.000000000     0.089253819  0.000000000  0.000000000
     0.000000000 11.204002360  0.000000000     0.000000000  0.089253819  0.000000000
     0.000000000  0.000000000 11.204002360     0.000000000  0.000000000  0.089253819

  length of vectors
    11.204002360 11.204002360 11.204002360     0.089253819  0.089253819  0.089253819


 FORCES acting on ions
    electron-ion (+dipol)            ewald-force                    non-local-force                 convergence-correction
 -----------------------------------------------------------------------------------------------
   0.399E+01 0.435E-13 0.218E+01   -.394E+01 -.310E-13 -.206E+01   -.114E+00 -.104E-23 -.143E+00   -.528E-05 -.788E-13 0.165E-06
   -.410E+00 -.613E+00 0.621E-01   0.408E+00 0.639E+00 -.614E-01   0.316E-02 -.212E-01 -.416E-03   -.143E-05 0.440E-06 0.110E-06
   -.227E+00 0.458E-13 -.141E+01   0.232E+00 0.228E-13 0.140E+01   -.351E-02 -.146E-24 0.104E-01   0.296E-06 -.831E-13 -.524E-06
   0.300E+00 0.184E-01 -.959E+00   -.308E+00 -.179E-01 0.916E+00   0.642E-02 -.681E-03 0.377E-01   -.142E-05 -.189E-06 -.324E-05
   0.164E+00 0.379E-13 0.212E+01   -.163E+00 0.377E-13 -.200E+01   -.269E-03 -.612E-25 -.139E+00   -.785E-06 -.737E-13 -.350E-06
   0.159E+00 0.127E+00 0.654E-01   -.152E+00 -.120E+00 -.646E-01   -.594E-02 -.561E-02 -.497E-03   0.225E-05 0.227E-05 -.478E-07
   -.244E+00 0.460E-13 0.745E+00   0.248E+00 -.387E-14 -.760E+00   -.292E-02 0.140E-24 0.117E-01   0.569E-07 -.697E-13 0.836E-06
   0.300E+00 0.894E-03 0.297E+00   -.308E+00 -.102E-02 -.279E+00   0.648E-02 0.990E-04 -.156E-01   -.169E-05 0.801E-07 0.344E-05
   0.164E+00 0.781E-12 0.151E-01   -.163E+00 0.356E-14 -.162E-01   -.302E-03 0.150E-24 0.932E-03   -.846E-07 0.510E-14 -.492E-06
   -.410E+00 0.613E+00 0.621E-01   0.408E+00 -.639E+00 -.614E-01   0.316E-02 0.212E-01 -.416E-03   -.143E-05 -.440E-06 0.110E-06
   -.682E-02 0.850E-12 -.152E+00   0.669E-02 0.178E-14 0.149E+00   0.101E-03 -.130E-24 0.316E-02   -.174E-06 -.608E-14 -.456E-06
   0.300E+00 -.184E-01 -.959E+00   -.308E+00 0.179E-01 0.916E+00   0.642E-02 0.681E-03 0.377E-01   -.142E-05 0.189E-06 -.324E-05
   0.649E-01 0.764E-12 0.175E-01   -.674E-01 0.535E-14 -.185E-01   0.203E-02 -.188E-27 0.850E-03   -.283E-06 -.999E-15 -.587E-07
   0.159E+00 -.127E+00 0.654E-01   -.152E+00 0.120E+00 -.646E-01   -.594E-02 0.561E-02 -.497E-03   0.225E-05 -.227E-05 -.478E-07
   -.750E-02 0.580E-12 0.137E+00   0.736E-02 -.520E-17 -.133E+00   0.106E-03 0.823E-26 -.338E-02   -.314E-06 -.152E-13 0.504E-06
   0.300E+00 -.894E-03 0.297E+00   -.308E+00 0.102E-02 -.279E+00   0.648E-02 -.990E-04 -.156E-01   -.169E-05 -.801E-07 0.344E-05
   -.451E+00 0.412E-13 0.151E-01   0.516E+00 0.159E-13 -.162E-01   -.559E-01 0.320E-24 0.934E-03   0.337E-05 -.730E-13 -.905E-06
   -.777E-01 0.270E+00 0.620E-01   0.896E-01 -.309E+00 -.614E-01   -.910E-02 0.329E-01 -.388E-03   0.160E-05 -.364E-05 -.147E-06
   -.262E+00 0.333E-13 -.523E+00   0.266E+00 0.198E-13 0.448E+00   -.207E-02 -.365E-25 0.643E-01   0.416E-06 -.911E-13 -.427E-05
   -.167E+00 -.366E-03 -.114E+00   0.173E+00 0.379E-03 0.110E+00   -.549E-02 -.104E-04 0.271E-02   0.930E-06 -.174E-06 0.288E-06
   -.127E+00 0.350E-13 0.175E-01   0.128E+00 0.289E-13 -.185E-01   -.121E-02 -.318E-25 0.850E-03   0.131E-06 -.698E-13 -.280E-06
   -.175E+00 0.206E+00 0.654E-01   0.168E+00 -.198E+00 -.646E-01   0.607E-02 -.644E-02 -.521E-03   -.184E-05 0.146E-05 0.134E-06
   -.244E+00 0.477E-13 -.138E+00   0.249E+00 -.629E-14 0.189E+00   -.304E-02 -.138E-24 -.423E-01   -.384E-06 -.763E-13 0.396E-05
   -.167E+00 -.104E-02 0.978E-01   0.173E+00 0.105E-02 -.942E-01   -.552E-02 -.693E-05 -.293E-02   0.145E-05 -.386E-06 0.260E-06
   -.127E+00 0.729E-12 0.160E-02   0.128E+00 0.574E-17 -.163E-02   -.121E-02 0.416E-25 0.224E-04   -.358E-06 0.607E-14 -.158E-06
   -.777E-01 -.270E+00 0.620E-01   0.896E-01 0.309E+00 -.614E-01   -.910E-02 -.329E-01 -.388E-03   0.160E-05 0.364E-05 -.147E-06
   -.920E-02 0.238E-11 -.732E-01   0.917E-02 -.180E-14 0.704E-01   0.233E-04 -.505E-25 0.232E-02   0.291E-06 0.919E-15 -.333E-07
   -.167E+00 0.366E-03 -.114E+00   0.173E+00 -.379E-03 0.110E+00   -.549E-02 0.104E-04 0.271E-02   0.930E-06 0.174E-06 0.288E-06
   -.606E-01 0.852E-12 0.275E-02   0.630E-01 0.142E-13 -.273E-02   -.203E-02 -.788E-26 -.206E-04   0.134E-06 0.530E-14 0.210E-07
   -.175E+00 -.206E+00 0.654E-01   0.168E+00 0.198E+00 -.646E-01   0.607E-02 0.644E-02 -.521E-03   -.184E-05 -.146E-05 0.134E-06
   -.852E-02 0.662E-11 0.576E-01   0.849E-02 -.352E-14 -.544E-01   0.212E-04 0.329E-26 -.255E-02   0.498E-06 -.121E-13 0.424E-06
   -.167E+00 0.104E-02 0.978E-01   0.173E+00 -.105E-02 -.942E-01   -.552E-02 0.693E-05 -.293E-02   0.145E-05 0.386E-06 0.260E-06
   -.585E-01 -.156E+00 -.470E+00   0.588E-01 0.158E+00 0.469E+00   -.597E-03 -.335E-02 0.260E-02   0.590E-07 0.942E-06 -.668E-06
   0.938E+00 -.641E-13 -.400E+01   -.950E+00 0.471E-13 0.396E+01   0.165E-01 -.445E-22 0.121E+00   -.265E-05 -.753E-13 -.397E-05
   0.907E+00 -.472E+00 0.252E+00   -.918E+00 0.463E+00 -.247E+00   0.165E-01 0.140E-01 -.930E-02   -.300E-05 -.168E-05 -.579E-07
   -.253E+01 -.855E-13 0.252E+00   0.254E+01 -.276E-13 -.247E+00   0.217E-01 0.272E-25 -.933E-02   -.159E-06 -.711E-13 -.273E-06
   -.619E-01 -.159E+00 0.334E+00   0.622E-01 0.161E+00 -.334E+00   -.536E-03 -.329E-02 -.624E-03   -.925E-06 0.527E-06 0.827E-06
   0.907E+00 -.654E-13 0.506E+00   -.918E+00 0.160E-14 -.501E+00   0.165E-01 -.155E-24 -.954E-02   -.110E-05 -.658E-13 0.448E-05
   0.108E+00 0.479E+00 0.256E+00   -.109E+00 -.471E+00 -.250E+00   0.152E-02 -.137E-01 -.921E-02   -.448E-06 0.847E-06 0.544E-06
   0.462E+00 -.848E-13 0.256E+00   -.454E+00 -.178E-13 -.250E+00   -.133E-01 -.107E-24 -.921E-02   0.563E-06 -.681E-13 0.452E-06
   -.585E-01 0.156E+00 -.470E+00   0.588E-01 -.158E+00 0.469E+00   -.597E-03 0.335E-02 0.260E-02   0.590E-07 -.942E-06 -.668E-06
   0.108E+00 -.152E-13 -.165E+00   -.109E+00 -.708E-14 0.163E+00   0.152E-02 0.537E-24 0.394E-02   -.946E-06 0.197E-13 -.201E-05
   0.907E+00 0.472E+00 0.252E+00   -.918E+00 -.463E+00 -.247E+00   0.165E-01 -.140E-01 -.930E-02   -.300E-05 0.168E-05 -.579E-07
   -.565E-01 0.475E-14 0.702E-02   0.553E-01 -.622E-14 -.709E-02   0.190E-02 -.954E-25 0.121E-03   -.164E-05 0.952E-14 -.524E-06
   -.619E-01 0.159E+00 0.334E+00   0.622E-01 -.161E+00 -.334E+00   -.536E-03 0.329E-02 -.624E-03   -.925E-06 -.527E-06 0.827E-06
   0.108E+00 -.883E-13 0.131E+00   -.109E+00 0.222E-13 -.128E+00   0.152E-02 -.105E-24 -.498E-02   -.752E-06 0.967E-14 0.213E-05
   0.108E+00 -.479E+00 0.256E+00   -.109E+00 0.471E+00 -.250E+00   0.152E-02 0.137E-01 -.921E-02   -.448E-06 -.847E-06 0.544E-06
   0.383E-01 0.192E-13 0.871E-02   -.374E-01 -.711E-14 -.877E-02   -.140E-02 -.762E-24 0.894E-04   0.180E-05 0.667E-14 0.144E-06
   -.669E-01 0.160E+00 -.155E+00   0.672E-01 -.162E+00 0.149E+00   -.507E-03 0.315E-02 0.913E-02   0.557E-06 -.725E-06 -.282E-05
   -.277E+00 -.782E-13 -.167E+00   0.281E+00 0.750E-14 0.165E+00   -.709E-02 -.218E-24 0.389E-02   0.190E-05 -.732E-13 -.182E-05
   -.277E+00 -.416E-01 0.702E-02   0.281E+00 0.408E-01 -.709E-02   -.710E-02 0.142E-02 0.125E-03   0.165E-05 -.128E-05 -.378E-07
   -.150E+01 -.792E-13 0.252E+00   0.152E+01 -.546E-13 -.247E+00   -.115E-01 0.330E-24 -.927E-02   0.352E-05 -.764E-13 0.528E-06
   -.635E-01 0.156E+00 0.186E-01   0.639E-01 -.158E+00 -.142E-01   -.602E-03 0.325E-02 -.716E-02   0.108E-05 -.532E-06 0.294E-05
   -.277E+00 -.771E-13 0.133E+00   0.281E+00 -.290E-15 -.130E+00   -.710E-02 -.184E-24 -.493E-02   0.171E-05 -.604E-13 0.221E-05
   -.925E-01 0.396E-01 0.872E-02   0.935E-01 -.388E-01 -.877E-02   -.166E-02 -.143E-02 0.852E-04   -.272E-06 0.178E-05 -.298E-06
   -.497E+00 -.788E-13 0.256E+00   0.489E+00 -.115E-13 -.250E+00   0.141E-01 0.266E-24 -.922E-02   -.434E-06 -.711E-13 0.753E-07
   -.669E-01 -.160E+00 -.155E+00   0.672E-01 0.162E+00 0.149E+00   -.507E-03 -.315E-02 0.913E-02   0.557E-06 0.725E-06 -.282E-05
   -.925E-01 0.620E-12 -.685E-01   0.935E-01 -.708E-14 0.677E-01   -.166E-02 0.577E-25 0.132E-02   0.735E-06 0.171E-13 0.484E-06
   -.277E+00 0.416E-01 0.702E-02   0.281E+00 -.408E-01 -.709E-02   -.710E-02 -.142E-02 0.125E-03   0.165E-05 0.128E-05 -.378E-07
   0.213E-01 0.107E-10 0.701E-02   -.207E-01 -.364E-13 -.709E-02   -.107E-02 -.374E-25 0.128E-03   0.214E-05 0.187E-13 0.269E-07
   -.635E-01 -.156E+00 0.186E-01   0.639E-01 0.158E+00 -.142E-01   -.602E-03 -.325E-02 -.716E-02   0.108E-05 0.532E-06 0.294E-05
   -.925E-01 0.145E-11 0.641E-01   0.935E-01 0.178E-13 -.633E-01   -.166E-02 0.310E-24 -.134E-02   0.642E-06 0.405E-14 -.120E-05
   -.925E-01 -.396E-01 0.872E-02   0.935E-01 0.388E-01 -.877E-02   -.166E-02 0.143E-02 0.852E-04   -.272E-06 -.178E-05 -.298E-06
   -.426E-01 0.343E-11 0.872E-02   0.418E-01 -.213E-13 -.877E-02   0.143E-02 0.277E-24 0.827E-04   -.946E-06 0.139E-13 0.449E-10
 -----------------------------------------------------------------------------------------------
   0.148E+00 -.376E-11 0.150E+00   0.103E-12 -.280E-13 0.972E-13   -.147E+00 -.325E-17 -.150E+00   -.960E-06 -.390E-12 0.155E-05
 
 
 POSITION                                       TOTAL-FORCE (eV/Angst)
 -----------------------------------------------------------------------------------
      0.03000      0.00000      0.00000        -0.062545      0.000000     -0.020259
      2.80100      2.80100      0.00000         0.000213      0.004621      0.000217
      2.80100      0.00000      2.80100         0.001386      0.000000      0.000891
      0.00000      2.80100      2.80100        -0.001648     -0.000111     -0.005031
      0.00000      0.00000      5.60200        -0.000050      0.000000     -0.016207
      2.80100      2.80100      5.60200         0.001257      0.001213      0.000233
      2.80100      0.00000      8.40300         0.001510      0.000000     -0.003085
      0.00000      2.80100      8.40300        -0.001663     -0.000022      0.002854
      0.00000      5.60200      0.00000        -0.000053      0.000000     -0.000167
      2.80100      8.40300      0.00000         0.000213     -0.004621      0.000217
      2.80100      5.60200      2.80100        -0.000035      0.000000     -0.000685
      0.00000      8.40300      2.80100        -0.001648      0.000111     -0.005031
      0.00000      5.60200      5.60200        -0.000452      0.000000     -0.000152
      2.80100      8.40300      5.60200         0.001257     -0.001213      0.000233
      2.80100      5.60200      8.40300        -0.000036      0.000000      0.000748
      0.00000      8.40300      8.40300        -0.001663      0.000022      0.002854
      5.60200      0.00000      0.00000         0.008904      0.000000     -0.000161
      8.40300      2.80100      0.00000         0.002805     -0.007093      0.000210
      8.40300      0.00000      2.80100         0.001565      0.000000     -0.010789
      5.60200      2.80100      2.80100         0.001158      0.000003     -0.000603
      5.60200      0.00000      5.60200         0.000308      0.000000     -0.000152
      8.40300      2.80100      5.60200        -0.001311      0.001364      0.000238
      8.40300      0.00000      8.40300         0.001511      0.000000      0.008630
      5.60200      2.80100      8.40300         0.001162      0.000002      0.000665
      5.60200      5.60200      0.00000         0.000308      0.000000     -0.000006
      8.40300      8.40300      0.00000         0.002805      0.007093      0.000210
      8.40300      5.60200      2.80100        -0.000019      0.000000     -0.000534
      5.60200      8.40300      2.80100         0.001158     -0.000003     -0.000603
      5.60200      5.60200      5.60200         0.000441      0.000000      0.000004
      8.40300      8.40300      5.60200        -0.001311     -0.001364      0.000238
      8.40300      5.60200      8.40300        -0.000018      0.000000      0.000597
      5.60200      8.40300      8.40300         0.001162     -0.000002      0.000665
      2.80100      2.80100      2.80100        -0.000243     -0.001325      0.001037
      0.00000      0.00000      2.77100         0.004785      0.000000      0.075901
      0.00000      2.80100      0.00000         0.004984      0.005760     -0.003918
      2.80100      0.00000      0.00000         0.026117      0.000000     -0.003939
      2.80100      2.80100      8.40300        -0.000215     -0.001300     -0.000244
      0.00000      0.00000      8.40300         0.004985      0.000000     -0.003721
      0.00000      2.80100      5.60200         0.000596     -0.005725     -0.003861
      2.80100      0.00000      5.60200        -0.005566      0.000000     -0.003860
      2.80100      8.40300      2.80100        -0.000243      0.001325      0.001037
      0.00000      5.60200      2.80100         0.000595      0.000000      0.001559
      0.00000      8.40300      0.00000         0.004984     -0.005760     -0.003918
      2.80100      5.60200      0.00000         0.000745      0.000000      0.000052
      2.80100      8.40300      8.40300        -0.000215      0.001300     -0.000244
      0.00000      5.60200      8.40300         0.000598      0.000000     -0.001970
      0.00000      8.40300      5.60200         0.000596      0.005725     -0.003861
      2.80100      5.60200      5.60200        -0.000570      0.000000      0.000038
      8.40300      2.80100      2.80100        -0.000204      0.001242      0.003615
      5.60200      0.00000      2.80100        -0.002828      0.000000      0.001537
      5.60200      2.80100      0.00000        -0.002832      0.000563      0.000053
      8.40300      0.00000      0.00000         0.010304      0.000000     -0.003893
      8.40300      2.80100      8.40300        -0.000244      0.001284     -0.002829
      5.60200      0.00000      8.40300        -0.002833      0.000000     -0.001948
      5.60200      2.80100      5.60200        -0.000670     -0.000569      0.000038
      8.40300      0.00000      5.60200         0.005873      0.000000     -0.003862
      8.40300      8.40300      2.80100        -0.000204     -0.001242      0.003615
      5.60200      5.60200      2.80100        -0.000669      0.000000      0.000520
      5.60200      8.40300      0.00000        -0.002832     -0.000563      0.000053
      8.40300      5.60200      0.00000        -0.000436      0.000000      0.000054
      8.40300      8.40300      8.40300        -0.000244     -0.001284     -0.002829
      5.60200      5.60200      8.40300        -0.000672      0.000000     -0.000528
      5.60200      8.40300      5.60200        -0.000670      0.000569      0.000038
      8.40300      5.60200      5.60200         0.000556      0.000000      0.000036
 -----------------------------------------------------------------------------------
    total drift:                                0.000583     -0.000000     -0.000196


--------------------------------------------------------------------------------------------------------



  FREE ENERGIE OF THE ION-ELECTRON SYSTEM (eV)
  ---------------------------------------------------
  free  energy   TOTEN  =      -223.90062793 eV

  energy  without entropy=     -223.90062793  energy(sigma->0) =     -223.90062793
 


--------------------------------------------------------------------------------------------------------


    POTLOK:  cpu time      0.0687: real time      0.0690


--------------------------------------------------------------------------------------------------------


     LOOP+:  cpu time    262.2106: real time    263.6609
    4ORBIT:  cpu time      0.0000: real time      0.0000

 total amount of memory used by VASP MPI-rank0   129658. kBytes
=======================================================================

   base      :      30000. kBytes
   nonl-proj :      41680. kBytes
   fftplans  :      14405. kBytes
   grid      :      19342. kBytes
   one-center:        196. kBytes
   wavefun   :      24035. kBytes
 
  
  
 General timing and accounting informations for this job:
 ========================================================
  
                  Total CPU time used (sec):      266.595
                            User time (sec):      265.981
                          System time (sec):        0.614
                         Elapsed time (sec):      268.473
  
                   Maximum memory used (kb):      318904.
                   Average memory used (kb):          N/A
  
                          Minor page faults:       142464
                          Major page faults:            0
                 Voluntary context switches:          906
