<?xml version="1.0" encoding="ISO-8859-1"?>
<modeling>
 <generator>
  <i name="program" type="string">vasp </i>
  <i name="version" type="string">6.3.2  </i>
  <i name="subversion" type="string">27Jun22 (build Oct 14 2022 12:13:54) complex                          parallel </i>
  <i name="platform" type="string">LinuxIFC </i>
  <i name="date" type="string">2025 08 28 </i>
  <i name="time" type="string">22:04:28 </i>
 </generator>
 <incar>
  <i type="string" name="PREC">Accurate</i>
  <i type="int" name="IALGO">    38</i>
  <i type="logical" name="ADDGRID"> T  </i>
  <i type="int" name="NELMIN">     5</i>
  <i type="int" name="IBRION">    -1</i>
  <i name="EDIFF">      0.00000001</i>
  <i name="ENCUT">    341.21360000</i>
  <i type="logical" name="LREAL"> F  </i>
  <i type="int" name="ISMEAR">     0</i>
  <i name="SIGMA">      0.02000000</i>
  <i type="logical" name="LWAVE"> F  </i>
  <i type="logical" name="LCHARG"> F  </i>
  <i type="string" name="GGA">PS</i>
 </incar>
 <primitive_cell>
  <structure name="primitive_cell" >
   <crystal>
    <varray name="basis" >
     <v>      11.20400236       0.00000000       0.00000000 </v>
     <v>       0.00000000      11.20400236       0.00000000 </v>
     <v>       0.00000000       0.00000000      11.20400236 </v>
    </varray>
    <i name="volume">   1406.43470641 </i>
    <varray name="rec_basis" >
     <v>       0.08925382       0.00000000       0.00000000 </v>
     <v>       0.00000000       0.08925382       0.00000000 </v>
     <v>       0.00000000       0.00000000       0.08925382 </v>
    </varray>
   </crystal>
   <varray name="positions" >
    <v>       0.00267761       0.00000000       0.00000000 </v>
    <v>       0.25000000       0.25000000       0.00000000 </v>
    <v>       0.25000000       0.00000000       0.25000000 </v>
    <v>       0.00000000       0.25000000       0.25000000 </v>
    <v>       0.00000000       0.00000000       0.50000000 </v>
    <v>       0.25000000       0.25000000       0.50000000 </v>
    <v>       0.25000000       0.00000000       0.75000000 </v>
    <v>       0.00000000       0.25000000       0.75000000 </v>
    <v>       0.00000000       0.50000000       0.00000000 </v>
    <v>       0.25000000       0.75000000       0.00000000 </v>
    <v>       0.25000000       0.50000000       0.25000000 </v>
    <v>       0.00000000       0.75000000       0.25000000 </v>
    <v>       0.00000000       0.50000000       0.50000000 </v>
    <v>       0.25000000       0.75000000       0.50000000 </v>
    <v>       0.25000000       0.50000000       0.75000000 </v>
    <v>       0.00000000       0.75000000       0.75000000 </v>
    <v>       0.50000000       0.00000000       0.00000000 </v>
    <v>       0.75000000       0.25000000       0.00000000 </v>
    <v>       0.75000000       0.00000000       0.25000000 </v>
    <v>       0.50000000       0.25000000       0.25000000 </v>
    <v>       0.50000000       0.00000000       0.50000000 </v>
    <v>       0.75000000       0.25000000       0.50000000 </v>
    <v>       0.75000000       0.00000000       0.75000000 </v>
    <v>       0.50000000       0.25000000       0.75000000 </v>
    <v>       0.50000000       0.50000000       0.00000000 </v>
    <v>       0.75000000       0.75000000       0.00000000 </v>
    <v>       0.75000000       0.50000000       0.25000000 </v>
    <v>       0.50000000       0.75000000       0.25000000 </v>
    <v>       0.50000000       0.50000000       0.50000000 </v>
    <v>       0.75000000       0.75000000       0.50000000 </v>
    <v>       0.75000000       0.50000000       0.75000000 </v>
    <v>       0.50000000       0.75000000       0.75000000 </v>
    <v>       0.25000000       0.25000000       0.25000000 </v>
    <v>       0.00000000       0.00000000       0.24732239 </v>
    <v>       0.00000000       0.25000000       0.00000000 </v>
    <v>       0.25000000       0.00000000       0.00000000 </v>
    <v>       0.25000000       0.25000000       0.75000000 </v>
    <v>       0.00000000       0.00000000       0.75000000 </v>
    <v>       0.00000000       0.25000000       0.50000000 </v>
    <v>       0.25000000       0.00000000       0.50000000 </v>
    <v>       0.25000000       0.75000000       0.25000000 </v>
    <v>       0.00000000       0.50000000       0.25000000 </v>
    <v>       0.00000000       0.75000000       0.00000000 </v>
    <v>       0.25000000       0.50000000       0.00000000 </v>
    <v>       0.25000000       0.75000000       0.75000000 </v>
    <v>       0.00000000       0.50000000       0.75000000 </v>
    <v>       0.00000000       0.75000000       0.50000000 </v>
    <v>       0.25000000       0.50000000       0.50000000 </v>
    <v>       0.75000000       0.25000000       0.25000000 </v>
    <v>       0.50000000       0.00000000       0.25000000 </v>
    <v>       0.50000000       0.25000000       0.00000000 </v>
    <v>       0.75000000       0.00000000       0.00000000 </v>
    <v>       0.75000000       0.25000000       0.75000000 </v>
    <v>       0.50000000       0.00000000       0.75000000 </v>
    <v>       0.50000000       0.25000000       0.50000000 </v>
    <v>       0.75000000       0.00000000       0.50000000 </v>
    <v>       0.75000000       0.75000000       0.25000000 </v>
    <v>       0.50000000       0.50000000       0.25000000 </v>
    <v>       0.50000000       0.75000000       0.00000000 </v>
    <v>       0.75000000       0.50000000       0.00000000 </v>
    <v>       0.75000000       0.75000000       0.75000000 </v>
    <v>       0.50000000       0.50000000       0.75000000 </v>
    <v>       0.50000000       0.75000000       0.50000000 </v>
    <v>       0.75000000       0.50000000       0.50000000 </v>
   </varray>
  </structure>
  <varray name="primitive_index" >
   <v type="int" >        1 </v>
   <v type="int" >        2 </v>
   <v type="int" >        3 </v>
   <v type="int" >        4 </v>
   <v type="int" >        5 </v>
   <v type="int" >        6 </v>
   <v type="int" >        7 </v>
   <v type="int" >        8 </v>
   <v type="int" >        9 </v>
   <v type="int" >       10 </v>
   <v type="int" >       11 </v>
   <v type="int" >       12 </v>
   <v type="int" >       13 </v>
   <v type="int" >       14 </v>
   <v type="int" >       15 </v>
   <v type="int" >       16 </v>
   <v type="int" >       17 </v>
   <v type="int" >       18 </v>
   <v type="int" >       19 </v>
   <v type="int" >       20 </v>
   <v type="int" >       21 </v>
   <v type="int" >       22 </v>
   <v type="int" >       23 </v>
   <v type="int" >       24 </v>
   <v type="int" >       25 </v>
   <v type="int" >       26 </v>
   <v type="int" >       27 </v>
   <v type="int" >       28 </v>
   <v type="int" >       29 </v>
   <v type="int" >       30 </v>
   <v type="int" >       31 </v>
   <v type="int" >       32 </v>
   <v type="int" >       33 </v>
   <v type="int" >       34 </v>
   <v type="int" >       35 </v>
   <v type="int" >       36 </v>
   <v type="int" >       37 </v>
   <v type="int" >       38 </v>
   <v type="int" >       39 </v>
   <v type="int" >       40 </v>
   <v type="int" >       41 </v>
   <v type="int" >       42 </v>
   <v type="int" >       43 </v>
   <v type="int" >       44 </v>
   <v type="int" >       45 </v>
   <v type="int" >       46 </v>
   <v type="int" >       47 </v>
   <v type="int" >       48 </v>
   <v type="int" >       49 </v>
   <v type="int" >       50 </v>
   <v type="int" >       51 </v>
   <v type="int" >       52 </v>
   <v type="int" >       53 </v>
   <v type="int" >       54 </v>
   <v type="int" >       55 </v>
   <v type="int" >       56 </v>
   <v type="int" >       57 </v>
   <v type="int" >       58 </v>
   <v type="int" >       59 </v>
   <v type="int" >       60 </v>
   <v type="int" >       61 </v>
   <v type="int" >       62 </v>
   <v type="int" >       63 </v>
   <v type="int" >       64 </v>
  </varray>
 </primitive_cell>
 <kpoints>
  <generation param="Gamma">
   <v type="int" name="divisions">       2        2        2 </v>
   <v name="usershift">      0.00000000       0.00000000       0.00000000 </v>
   <v name="genvec1">      0.50000000       0.00000000       0.00000000 </v>
   <v name="genvec2">      0.00000000       0.50000000       0.00000000 </v>
   <v name="genvec3">      0.00000000       0.00000000       0.50000000 </v>
   <v name="shift">      0.00000000       0.00000000       0.00000000 </v>
  </generation>
  <varray name="kpointlist" >
   <v>       0.00000000       0.00000000       0.00000000 </v>
   <v>       0.50000000       0.00000000       0.00000000 </v>
   <v>       0.00000000       0.50000000       0.00000000 </v>
   <v>       0.00000000       0.00000000       0.50000000 </v>
   <v>       0.50000000       0.50000000       0.00000000 </v>
   <v>       0.00000000       0.50000000       0.50000000 </v>
   <v>       0.50000000       0.00000000       0.50000000 </v>
   <v>       0.50000000       0.50000000       0.50000000 </v>
  </varray>
  <varray name="weights" >
   <v>       0.12500000 </v>
   <v>       0.12500000 </v>
   <v>       0.12500000 </v>
   <v>       0.12500000 </v>
   <v>       0.12500000 </v>
   <v>       0.12500000 </v>
   <v>       0.12500000 </v>
   <v>       0.12500000 </v>
  </varray>
 </kpoints>
 <parameters>
  <separator name="general" >
   <i type="string" name="SYSTEM">unknown system</i>
   <i type="logical" name="LCOMPAT"> F  </i>
  </separator>
  <separator name="electronic" >
   <i type="string" name="PREC">accura</i>
   <i name="ENMAX">    341.21360000</i>
   <i name="ENAUG">    368.05600000</i>
   <i name="EDIFF">      0.00000001</i>
   <i type="int" name="IALGO">    38</i>
   <i type="int" name="IWAVPR">    10</i>
   <i type="int" name="NBANDS">   288</i>
   <i type="int" name="NBANDSLOW">    -1</i>
   <i type="int" name="NBANDSHIGH">    -1</i>
   <i name="NELECT">    448.00000000</i>
   <i type="int" name="TURBO">     0</i>
   <i type="int" name="IRESTART">     0</i>
   <i type="int" name="NREBOOT">     0</i>
   <i type="int" name="NMIN">     0</i>
   <i name="EREF">      0.00000000</i>
   <separator name="electronic smearing" >
    <i type="int" name="ISMEAR">     0</i>
    <i name="SIGMA">      0.02000000</i>
    <i name="KSPACING">      0.50000000</i>
    <i type="logical" name="KGAMMA"> T  </i>
    <i type="logical" name="KBLOWUP"> T  </i>
   </separator>
   <separator name="electronic projectors" >
    <i type="logical" name="LREAL"> F  </i>
    <v name="ROPT">      0.00000000      0.00000000</v>
    <i type="int" name="LMAXPAW">  -100</i>
    <i type="int" name="LMAXMIX">     2</i>
    <i type="logical" name="NLSPLINE"> F  </i>
   </separator>
   <separator name="electronic startup" >
    <i type="int" name="ISTART">     0</i>
    <i type="int" name="ICHARG">     2</i>
    <i type="int" name="INIWAV">     1</i>
   </separator>
   <separator name="electronic spin" >
    <i type="int" name="ISPIN">     1</i>
    <i type="logical" name="LNONCOLLINEAR"> F  </i>
    <v name="MAGMOM">      1.00000000      1.00000000      1.00000000      1.00000000      1.00000000      1.00000000      1.00000000      1.00000000      1.00000000      1.00000000      1.00000000      1.00000000      1.00000000      1.00000000      1.00000000      1.00000000      1.00000000      1.00000000      1.00000000      1.00000000
      1.00000000      1.00000000      1.00000000      1.00000000      1.00000000      1.00000000      1.00000000      1.00000000      1.00000000      1.00000000      1.00000000      1.00000000      1.00000000      1.00000000      1.00000000      1.00000000      1.00000000      1.00000000      1.00000000      1.00000000
      1.00000000      1.00000000      1.00000000      1.00000000      1.00000000      1.00000000      1.00000000      1.00000000      1.00000000      1.00000000      1.00000000      1.00000000      1.00000000      1.00000000      1.00000000      1.00000000      1.00000000      1.00000000      1.00000000      1.00000000
      1.00000000      1.00000000      1.00000000      1.00000000</v>
    <i name="NUPDOWN">     -1.00000000</i>
    <i type="logical" name="LSORBIT"> F  </i>
    <v name="SAXIS">      0.00000000      0.00000000      1.00000000</v>
    <i type="logical" name="LSPIRAL"> F  </i>
    <v name="QSPIRAL">      0.00000000      0.00000000      0.00000000</v>
    <i type="logical" name="LZEROZ"> F  </i>
   </separator>
   <separator name="electronic exchange-correlation" >
    <i type="logical" name="LASPH"> F  </i>
    <i type="logical" name="LMETAGGA"> F  </i>
   </separator>
   <separator name="electronic convergence" >
    <i type="int" name="NELM">    60</i>
    <i type="int" name="NELMDL">    -5</i>
    <i type="int" name="NELMIN">     5</i>
    <i name="ENINI">    341.21360000</i>
    <separator name="electronic convergence detail" >
     <i type="logical" name="LDIAG"> T  </i>
     <i type="logical" name="LSUBROT"> F  </i>
     <i name="WEIMIN">      0.00000000</i>
     <i name="EBREAK">      0.00000000</i>
     <i name="DEPER">      0.30000000</i>
     <i type="int" name="NRMM">     4</i>
     <i name="TIME">      0.40000000</i>
    </separator>
   </separator>
   <separator name="electronic mixer" >
    <i name="AMIX">      0.40000000</i>
    <i name="BMIX">      1.00000000</i>
    <i name="AMIN">      0.10000000</i>
    <i name="AMIX_MAG">      1.60000000</i>
    <i name="BMIX_MAG">      1.00000000</i>
    <separator name="electronic mixer details" >
     <i type="int" name="IMIX">     4</i>
     <i type="logical" name="MIXFIRST"> F  </i>
     <i type="int" name="MAXMIX">   -45</i>
     <i name="WC">    100.00000000</i>
     <i type="int" name="INIMIX">     1</i>
     <i type="int" name="MIXPRE">     1</i>
     <i type="int" name="MREMOVE">     5</i>
    </separator>
   </separator>
   <separator name="electronic dipolcorrection" >
    <i type="logical" name="LDIPOL"> F  </i>
    <i type="logical" name="LMONO"> F  </i>
    <i type="int" name="IDIPOL">     0</i>
    <i name="EPSILON">      1.00000000</i>
    <v name="DIPOL">   -100.00000000   -100.00000000   -100.00000000</v>
    <i name="EFIELD">      0.00000000</i>
   </separator>
  </separator>
  <separator name="grids" >
   <i type="int" name="NGX">    70</i>
   <i type="int" name="NGY">    70</i>
   <i type="int" name="NGZ">    70</i>
   <i type="int" name="NGXF">   140</i>
   <i type="int" name="NGYF">   140</i>
   <i type="int" name="NGZF">   140</i>
   <i type="logical" name="ADDGRID"> T  </i>
  </separator>
  <separator name="ionic" >
   <i type="int" name="NSW">     0</i>
   <i type="int" name="IBRION">    -1</i>
   <i type="int" name="MDALGO">     0</i>
   <i type="int" name="ISIF">     2</i>
   <i name="PSTRESS">      0.00000000</i>
   <i name="EDIFFG">      0.00000010</i>
   <i type="int" name="NFREE">     0</i>
   <i name="POTIM">      0.50000000</i>
   <i name="SMASS">     -3.00000000</i>
   <i name="SCALEE">      1.00000000</i>
  </separator>
  <separator name="ionic md" >
   <i name="TEBEG">      0.00010000</i>
   <i name="TEEND">      0.00010000</i>
   <i type="int" name="NBLOCK">     1</i>
   <i type="int" name="KBLOCK">     1</i>
   <i type="int" name="NPACO">   256</i>
   <i name="APACO">     10.00000000</i>
  </separator>
  <separator name="symmetry" >
   <i type="int" name="ISYM">     2</i>
   <i name="SYMPREC">      0.00001000</i>
  </separator>
  <separator name="dos" >
   <i type="int" name="LORBIT">     0</i>
   <v name="RWIGS">     -1.00000000     -1.00000000</v>
   <i type="int" name="NEDOS">   301</i>
   <i name="EMIN">     10.00000000</i>
   <i name="EMAX">    -10.00000000</i>
   <i name="EFERMI">      0.00000000</i>
  </separator>
  <separator name="writing" >
   <i type="int" name="NWRITE">     2</i>
   <i type="logical" name="LWAVE"> F  </i>
   <i type="logical" name="LDOWNSAMPLE"> F  </i>
   <i type="logical" name="LCHARG"> F  </i>
   <i type="logical" name="LPARD"> F  </i>
   <i type="logical" name="LVTOT"> F  </i>
   <i type="logical" name="LVHAR"> F  </i>
   <i type="logical" name="LELF"> F  </i>
   <i type="logical" name="LOPTICS"> F  </i>
   <v name="STM">      0.00000000      0.00000000      0.00000000      0.00000000      0.00000000      0.00000000      0.00000000</v>
  </separator>
  <separator name="performance" >
   <i type="int" name="NPAR">    32</i>
   <i type="int" name="NSIM">     4</i>
   <i type="int" name="NBLK">    -1</i>
   <i type="logical" name="LPLANE"> T  </i>
   <i type="logical" name="LSCALAPACK"> T  </i>
   <i type="logical" name="LSCAAWARE"> F  </i>
   <i type="logical" name="LSCALU"> F  </i>
   <i type="logical" name="LASYNC"> F  </i>
   <i type="logical" name="LORBITALREAL"> F  </i>
  </separator>
  <separator name="miscellaneous" >
   <i type="int" name="IDIOT">     3</i>
   <i type="int" name="PHON_NSTRUCT">    -1</i>
   <i type="logical" name="LMUSIC"> F  </i>
   <v name="POMASS">     22.99000000     35.45300000</v>
   <v name="DARWINR">      0.00000000      0.00000000</v>
   <v name="DARWINV">      1.00000000      1.00000000</v>
   <i type="logical" name="LCORR"> T  </i>
  </separator>
  <i type="logical" name="GGA_COMPAT"> T  </i>
  <i type="logical" name="LBERRY"> F  </i>
  <i type="int" name="ICORELEVEL">     0</i>
  <i type="logical" name="LDAU"> F  </i>
  <i type="int" name="I_CONSTRAINED_M">     0</i>
  <separator name="electronic exchange-correlation" >
   <i type="string" name="GGA">PS</i>
   <i type="int" name="VOSKOWN">     0</i>
   <i type="logical" name="LHFCALC"> F  </i>
   <i type="string" name="PRECFOCK"></i>
   <i type="logical" name="LSYMGRAD"> F  </i>
   <i type="logical" name="LHFONE"> F  </i>
   <i type="logical" name="LRHFCALC"> F  </i>
   <i type="logical" name="LTHOMAS"> F  </i>
   <i type="logical" name="LMODELHF"> F  </i>
   <i type="logical" name="LFOCKACE"> F  </i>
   <i name="ENCUT4O">     -1.00000000</i>
   <i type="int" name="EXXOEP">     0</i>
   <i type="int" name="FOURORBIT">     0</i>
   <i name="AEXX">      0.00000000</i>
   <i name="HFALPHA">      0.00000000</i>
   <i name="MCALPHA">      0.00000000</i>
   <i name="ALDAX">      1.00000000</i>
   <i name="AGGAX">      1.00000000</i>
   <i name="ALDAC">      1.00000000</i>
   <i name="AGGAC">      1.00000000</i>
   <i type="int" name="NKREDX">     1</i>
   <i type="int" name="NKREDY">     1</i>
   <i type="int" name="NKREDZ">     1</i>
   <i type="logical" name="SHIFTRED"> F  </i>
   <i type="logical" name="ODDONLY"> F  </i>
   <i type="logical" name="EVENONLY"> F  </i>
   <i type="int" name="LMAXFOCK">     0</i>
   <i type="int" name="NMAXFOCKAE">     0</i>
   <i type="logical" name="LFOCKAEDFT"> F  </i>
   <i name="HFSCREEN">      0.00000000</i>
   <i name="HFSCREENC">      0.00000000</i>
   <i type="int" name="NBANDSGWLOW">     0</i>
  </separator>
  <separator name="vdW DFT" >
   <i type="logical" name="LUSE_VDW"> F  </i>
   <i name="Zab_VDW">     -0.84910000</i>
   <i name="PARAM1">      0.12340000</i>
   <i name="PARAM2">      1.00000000</i>
   <i name="PARAM3">      0.00000000</i>
  </separator>
  <separator name="model GW" >
   <i type="int" name="MODEL_GW">     0</i>
   <i name="MODEL_EPS0">     13.18532537</i>
   <i name="MODEL_ALPHA">      1.00000000</i>
  </separator>
  <separator name="linear response parameters" >
   <i type="logical" name="LEPSILON"> F  </i>
   <i type="logical" name="LRPA"> F  </i>
   <i type="logical" name="LNABLA"> F  </i>
   <i type="logical" name="LVEL"> F  </i>
   <i name="CSHIFT">      0.10000000</i>
   <i name="OMEGAMAX">     -1.00000000</i>
   <i name="DEG_THRESHOLD">      0.00200000</i>
   <i name="RTIME">     -0.10000000</i>
   <i name="WPLASMAI">      0.00000000</i>
   <v name="DFIELD">      0.00000000      0.00000000      0.00000000</v>
   <v name="WPLASMA">      0.00000000      0.00000000      0.00000000      0.00000000      0.00000000      0.00000000      0.00000000      0.00000000      0.00000000</v>
  </separator>
  <separator name="orbital magnetization" >
   <i type="logical" name="NUCIND"> F  </i>
   <v name="MAGPOS">      0.00000000      0.00000000      0.00000000</v>
   <i type="logical" name="LNICSALL"> T  </i>
   <i type="logical" name="ORBITALMAG"> F  </i>
   <i type="logical" name="LMAGBLOCH"> F  </i>
   <i type="logical" name="LCHIMAG"> F  </i>
   <i type="logical" name="LGAUGE"> T  </i>
   <i type="int" name="MAGATOM">     0</i>
   <v name="MAGDIPOL">      0.00000000      0.00000000      0.00000000</v>
   <v name="AVECCONST">      0.00000000      0.00000000      0.00000000</v>
  </separator>
  <separator name="response functions" >
   <i type="logical" name="LFINITE_TEMPERATURE"> F  </i>
   <i type="logical" name="LADDER"> F  </i>
   <i type="logical" name="LRPAFORCE"> F  </i>
   <i type="logical" name="LFXC"> F  </i>
   <i type="logical" name="LHARTREE"> T  </i>
   <i type="int" name="IBSE">     0</i>
   <v type="int" name="KPOINT">    -1     0     0     0</v>
   <i type="logical" name="LTCTC"> F  </i>
   <i type="logical" name="LTCTE"> F  </i>
   <i type="logical" name="LTETE"> F  </i>
   <i type="logical" name="LTRIPLET"> F  </i>
   <i type="logical" name="LFXCEPS"> F  </i>
   <i type="logical" name="LFXHEG"> F  </i>
   <i type="int" name="NATURALO">     2</i>
   <i type="logical" name="LHOLEGF"> F  </i>
   <i type="logical" name="L2ORDER"> F  </i>
   <i type="logical" name="LDMP1"> F  </i>
   <i type="logical" name="LMP2LT"> F  </i>
   <i type="logical" name="LSMP2LT"> F  </i>
   <i type="logical" name="LGWLF"> F  </i>
   <i name="ENCUTGW">     -2.00000000</i>
   <i name="ENCUTGWSOFT">     -2.00000000</i>
   <i name="ENCUTLF">     -1.00000000</i>
   <i type="logical" name="LESF_SPLINES"> F  </i>
   <i type="int" name="LMAXMP2">    -1</i>
   <i name="SCISSOR">      0.00000000</i>
   <i type="int" name="NOMEGA">     0</i>
   <i type="int" name="NOMEGAR">     0</i>
   <i type="int" name="NBANDSGW">    -1</i>
   <i type="int" name="NBANDSO">    -1</i>
   <i type="int" name="NBANDSV">    -1</i>
   <i type="int" name="NELMGW">     1</i>
   <i type="int" name="NELMHF">     1</i>
   <i type="int" name="DIM">     3</i>
   <i type="int" name="IESPILON">     4</i>
   <i type="int" name="ANTIRES">     0</i>
   <i name="OMEGAMAX">    -30.00000000</i>
   <i name="OMEGAMIN">    -30.00000000</i>
   <i name="OMEGATL">   -200.00000000</i>
   <i type="int" name="OMEGAGRID">     0</i>
   <i name="CSHIFT">     -0.10000000</i>
   <i type="logical" name="LSELFENERGY"> F  </i>
   <i type="logical" name="LSPECTRAL"> F  </i>
   <i type="logical" name="LSPECTRALGW"> F  </i>
   <i type="logical" name="LSINGLES"> F  </i>
   <i type="logical" name="LFERMIGW"> F  </i>
   <i type="logical" name="ODDONLYGW"> F  </i>
   <i type="logical" name="EVENONLYGW"> F  </i>
   <i type="int" name="NKREDLFX">     1</i>
   <i type="int" name="NKREDLFY">     1</i>
   <i type="int" name="NKREDLFZ">     1</i>
   <i type="int" name="MAXMEM">  2800</i>
   <i type="int" name="TELESCOPE">     0</i>
   <i type="int" name="NTAUPAR">    -1</i>
   <i type="int" name="NOMEGAPAR">    -1</i>
   <i name="DAMP_NEWTON">      0.80000001</i>
   <i name="LAMBDA">      1.00000000</i>
  </separator>
  <separator name="External order field" >
   <i name="OFIELD_KAPPA">      0.00000000</i>
   <v name="OFIELD_K">      0.00000000      0.00000000      0.00000000</v>
   <i name="OFIELD_Q6_NEAR">      0.00000000</i>
   <i name="OFIELD_Q6_FAR">      0.00000000</i>
   <i name="OFIELD_A">      0.00000000</i>
  </separator>
  <separator name="optional k-points parameters" >
   <i type="int" name="KPOINTS_OPT_MODE">     1</i>
   <i type="logical" name="LKPOINTS_OPT"> F  </i>
  </separator>
 </parameters>
 <atominfo>
  <atoms>      64 </atoms>
  <types>       2 </types>
  <array name="atoms" >
   <dimension dim="1">ion</dimension>
   <field type="string">element</field>
   <field type="int">atomtype</field>
   <set>
    <rc><c>Na</c><c>   1</c></rc>
    <rc><c>Na</c><c>   1</c></rc>
    <rc><c>Na</c><c>   1</c></rc>
    <rc><c>Na</c><c>   1</c></rc>
    <rc><c>Na</c><c>   1</c></rc>
    <rc><c>Na</c><c>   1</c></rc>
    <rc><c>Na</c><c>   1</c></rc>
    <rc><c>Na</c><c>   1</c></rc>
    <rc><c>Na</c><c>   1</c></rc>
    <rc><c>Na</c><c>   1</c></rc>
    <rc><c>Na</c><c>   1</c></rc>
    <rc><c>Na</c><c>   1</c></rc>
    <rc><c>Na</c><c>   1</c></rc>
    <rc><c>Na</c><c>   1</c></rc>
    <rc><c>Na</c><c>   1</c></rc>
    <rc><c>Na</c><c>   1</c></rc>
    <rc><c>Na</c><c>   1</c></rc>
    <rc><c>Na</c><c>   1</c></rc>
    <rc><c>Na</c><c>   1</c></rc>
    <rc><c>Na</c><c>   1</c></rc>
    <rc><c>Na</c><c>   1</c></rc>
    <rc><c>Na</c><c>   1</c></rc>
    <rc><c>Na</c><c>   1</c></rc>
    <rc><c>Na</c><c>   1</c></rc>
    <rc><c>Na</c><c>   1</c></rc>
    <rc><c>Na</c><c>   1</c></rc>
    <rc><c>Na</c><c>   1</c></rc>
    <rc><c>Na</c><c>   1</c></rc>
    <rc><c>Na</c><c>   1</c></rc>
    <rc><c>Na</c><c>   1</c></rc>
    <rc><c>Na</c><c>   1</c></rc>
    <rc><c>Na</c><c>   1</c></rc>
    <rc><c>Cl</c><c>   2</c></rc>
    <rc><c>Cl</c><c>   2</c></rc>
    <rc><c>Cl</c><c>   2</c></rc>
    <rc><c>Cl</c><c>   2</c></rc>
    <rc><c>Cl</c><c>   2</c></rc>
    <rc><c>Cl</c><c>   2</c></rc>
    <rc><c>Cl</c><c>   2</c></rc>
    <rc><c>Cl</c><c>   2</c></rc>
    <rc><c>Cl</c><c>   2</c></rc>
    <rc><c>Cl</c><c>   2</c></rc>
    <rc><c>Cl</c><c>   2</c></rc>
    <rc><c>Cl</c><c>   2</c></rc>
    <rc><c>Cl</c><c>   2</c></rc>
    <rc><c>Cl</c><c>   2</c></rc>
    <rc><c>Cl</c><c>   2</c></rc>
    <rc><c>Cl</c><c>   2</c></rc>
    <rc><c>Cl</c><c>   2</c></rc>
    <rc><c>Cl</c><c>   2</c></rc>
    <rc><c>Cl</c><c>   2</c></rc>
    <rc><c>Cl</c><c>   2</c></rc>
    <rc><c>Cl</c><c>   2</c></rc>
    <rc><c>Cl</c><c>   2</c></rc>
    <rc><c>Cl</c><c>   2</c></rc>
    <rc><c>Cl</c><c>   2</c></rc>
    <rc><c>Cl</c><c>   2</c></rc>
    <rc><c>Cl</c><c>   2</c></rc>
    <rc><c>Cl</c><c>   2</c></rc>
    <rc><c>Cl</c><c>   2</c></rc>
    <rc><c>Cl</c><c>   2</c></rc>
    <rc><c>Cl</c><c>   2</c></rc>
    <rc><c>Cl</c><c>   2</c></rc>
    <rc><c>Cl</c><c>   2</c></rc>
   </set>
  </array>
  <array name="atomtypes" >
   <dimension dim="1">type</dimension>
   <field type="int">atomspertype</field>
   <field type="string">element</field>
   <field>mass</field>
   <field>valence</field>
   <field type="string">pseudopotential</field>
   <set>
    <rc><c>  32</c><c>Na</c><c>     22.99000000</c><c>      7.00000000</c><c>  PAW_PBE Na_pv 19Sep2006               </c></rc>
    <rc><c>  32</c><c>Cl</c><c>     35.45300000</c><c>      7.00000000</c><c>  PAW_PBE Cl 06Sep2000                  </c></rc>
   </set>
  </array>
 </atominfo>
 <structure name="initialpos" >
  <crystal>
   <varray name="basis" >
    <v>      11.20400236       0.00000000       0.00000000 </v>
    <v>       0.00000000      11.20400236       0.00000000 </v>
    <v>       0.00000000       0.00000000      11.20400236 </v>
   </varray>
   <i name="volume">   1406.43470641 </i>
   <varray name="rec_basis" >
    <v>       0.08925382       0.00000000       0.00000000 </v>
    <v>       0.00000000       0.08925382       0.00000000 </v>
    <v>       0.00000000       0.00000000       0.08925382 </v>
   </varray>
  </crystal>
  <varray name="positions" >
   <v>       0.00267761       0.00000000       0.00000000 </v>
   <v>       0.25000000       0.25000000       0.00000000 </v>
   <v>       0.25000000       0.00000000       0.25000000 </v>
   <v>       0.00000000       0.25000000       0.25000000 </v>
   <v>       0.00000000       0.00000000       0.50000000 </v>
   <v>       0.25000000       0.25000000       0.50000000 </v>
   <v>       0.25000000       0.00000000       0.75000000 </v>
   <v>       0.00000000       0.25000000       0.75000000 </v>
   <v>       0.00000000       0.50000000       0.00000000 </v>
   <v>       0.25000000       0.75000000       0.00000000 </v>
   <v>       0.25000000       0.50000000       0.25000000 </v>
   <v>       0.00000000       0.75000000       0.25000000 </v>
   <v>       0.00000000       0.50000000       0.50000000 </v>
   <v>       0.25000000       0.75000000       0.50000000 </v>
   <v>       0.25000000       0.50000000       0.75000000 </v>
   <v>       0.00000000       0.75000000       0.75000000 </v>
   <v>       0.50000000       0.00000000       0.00000000 </v>
   <v>       0.75000000       0.25000000       0.00000000 </v>
   <v>       0.75000000       0.00000000       0.25000000 </v>
   <v>       0.50000000       0.25000000       0.25000000 </v>
   <v>       0.50000000       0.00000000       0.50000000 </v>
   <v>       0.75000000       0.25000000       0.50000000 </v>
   <v>       0.75000000       0.00000000       0.75000000 </v>
   <v>       0.50000000       0.25000000       0.75000000 </v>
   <v>       0.50000000       0.50000000       0.00000000 </v>
   <v>       0.75000000       0.75000000       0.00000000 </v>
   <v>       0.75000000       0.50000000       0.25000000 </v>
   <v>       0.50000000       0.75000000       0.25000000 </v>
   <v>       0.50000000       0.50000000       0.50000000 </v>
   <v>       0.75000000       0.75000000       0.50000000 </v>
   <v>       0.75000000       0.50000000       0.75000000 </v>
   <v>       0.50000000       0.75000000       0.75000000 </v>
   <v>       0.25000000       0.25000000       0.25000000 </v>
   <v>       0.00000000       0.00000000       0.24732239 </v>
   <v>       0.00000000       0.25000000       0.00000000 </v>
   <v>       0.25000000       0.00000000       0.00000000 </v>
   <v>       0.25000000       0.25000000       0.75000000 </v>
   <v>       0.00000000       0.00000000       0.75000000 </v>
   <v>       0.00000000       0.25000000       0.50000000 </v>
   <v>       0.25000000       0.00000000       0.50000000 </v>
   <v>       0.25000000       0.75000000       0.25000000 </v>
   <v>       0.00000000       0.50000000       0.25000000 </v>
   <v>       0.00000000       0.75000000       0.00000000 </v>
   <v>       0.25000000       0.50000000       0.00000000 </v>
   <v>       0.25000000       0.75000000       0.75000000 </v>
   <v>       0.00000000       0.50000000       0.75000000 </v>
   <v>       0.00000000       0.75000000       0.50000000 </v>
   <v>       0.25000000       0.50000000       0.50000000 </v>
   <v>       0.75000000       0.25000000       0.25000000 </v>
   <v>       0.50000000       0.00000000       0.25000000 </v>
   <v>       0.50000000       0.25000000       0.00000000 </v>
   <v>       0.75000000       0.00000000       0.00000000 </v>
   <v>       0.75000000       0.25000000       0.75000000 </v>
   <v>       0.50000000       0.00000000       0.75000000 </v>
   <v>       0.50000000       0.25000000       0.50000000 </v>
   <v>       0.75000000       0.00000000       0.50000000 </v>
   <v>       0.75000000       0.75000000       0.25000000 </v>
   <v>       0.50000000       0.50000000       0.25000000 </v>
   <v>       0.50000000       0.75000000       0.00000000 </v>
   <v>       0.75000000       0.50000000       0.00000000 </v>
   <v>       0.75000000       0.75000000       0.75000000 </v>
   <v>       0.50000000       0.50000000       0.75000000 </v>
   <v>       0.50000000       0.75000000       0.50000000 </v>
   <v>       0.75000000       0.50000000       0.50000000 </v>
  </varray>
 </structure>
 <calculation>
  <scstep>
   <time name="dav">   10.20   10.25</time>
   <time name="total">   10.27   10.33</time>
   <energy>
    <i name="alphaZ">    751.52672365 </i>
    <i name="ewald"> -22871.34070708 </i>
    <i name="hartreedc">  -8992.24595008 </i>
    <i name="XCdc">   1456.53426158 </i>
    <i name="pawpsdc">  26466.43774078 </i>
    <i name="pawaedc"> -29286.08056155 </i>
    <i name="eentropy">     -0.00245440 </i>
    <i name="bandstr">   -735.07655118 </i>
    <i name="atom">  37532.17946992 </i>
    <i name="e_fr_energy">   4321.93197165 </i>
    <i name="e_wo_entrp">   4321.93442605 </i>
    <i name="e_0_energy">   4321.93319885 </i>
   </energy>
  </scstep>
  <scstep>
   <time name="dav">   11.10   11.16</time>
   <time name="total">   11.10   11.16</time>
   <energy>
    <i name="e_fr_energy">    363.87429952 </i>
    <i name="e_wo_entrp">    363.87429952 </i>
    <i name="e_0_energy">    363.87429952 </i>
   </energy>
  </scstep>
  <scstep>
   <time name="dav">   11.95   12.02</time>
   <time name="total">   11.95   12.02</time>
   <energy>
    <i name="e_fr_energy">   -206.17749071 </i>
    <i name="e_wo_entrp">   -206.17749071 </i>
    <i name="e_0_energy">   -206.17749071 </i>
   </energy>
  </scstep>
  <scstep>
   <time name="dav">   11.87   11.93</time>
   <time name="total">   11.87   11.93</time>
   <energy>
    <i name="e_fr_energy">   -228.19189787 </i>
    <i name="e_wo_entrp">   -228.19189787 </i>
    <i name="e_0_energy">   -228.19189787 </i>
   </energy>
  </scstep>
  <scstep>
   <time name="dav">   12.12   12.18</time>
   <time name="total">   12.47   12.54</time>
   <energy>
    <i name="e_fr_energy">   -229.00419290 </i>
    <i name="e_wo_entrp">   -229.00419290 </i>
    <i name="e_0_energy">   -229.00419290 </i>
   </energy>
  </scstep>
  <scstep>
   <time name="dav">   12.25   12.32</time>
   <time name="total">   12.66   12.74</time>
   <energy>
    <i name="e_fr_energy">   -224.13882017 </i>
    <i name="e_wo_entrp">   -224.13882017 </i>
    <i name="e_0_energy">   -224.13882017 </i>
   </energy>
  </scstep>
  <scstep>
   <time name="dav">   13.20   13.27</time>
   <time name="total">   13.62   13.69</time>
   <energy>
    <i name="e_fr_energy">   -223.77738890 </i>
    <i name="e_wo_entrp">   -223.77738890 </i>
    <i name="e_0_energy">   -223.77738890 </i>
   </energy>
  </scstep>
  <scstep>
   <time name="dav">   11.55   11.61</time>
   <time name="total">   11.97   12.03</time>
   <energy>
    <i name="e_fr_energy">   -223.90265059 </i>
    <i name="e_wo_entrp">   -223.90265059 </i>
    <i name="e_0_energy">   -223.90265059 </i>
   </energy>
  </scstep>
  <scstep>
   <time name="dav">   12.10   12.17</time>
   <time name="total">   12.52   12.59</time>
   <energy>
    <i name="e_fr_energy">   -223.89707753 </i>
    <i name="e_wo_entrp">   -223.89707753 </i>
    <i name="e_0_energy">   -223.89707753 </i>
   </energy>
  </scstep>
  <scstep>
   <time name="dav">   11.56   11.62</time>
   <time name="total">   11.98   12.04</time>
   <energy>
    <i name="e_fr_energy">   -223.90139425 </i>
    <i name="e_wo_entrp">   -223.90139425 </i>
    <i name="e_0_energy">   -223.90139425 </i>
   </energy>
  </scstep>
  <scstep>
   <time name="dav">   12.52   12.59</time>
   <time name="total">   12.93   13.01</time>
   <energy>
    <i name="e_fr_energy">   -223.90066347 </i>
    <i name="e_wo_entrp">   -223.90066347 </i>
    <i name="e_0_energy">   -223.90066347 </i>
   </energy>
  </scstep>
  <scstep>
   <time name="dav">   12.20   12.27</time>
   <time name="total">   12.61   12.69</time>
   <energy>
    <i name="e_fr_energy">   -223.90062419 </i>
    <i name="e_wo_entrp">   -223.90062419 </i>
    <i name="e_0_energy">   -223.90062419 </i>
   </energy>
  </scstep>
  <scstep>
   <time name="dav">   12.12   12.19</time>
   <time name="total">   12.53   12.61</time>
   <energy>
    <i name="e_fr_energy">   -223.90062504 </i>
    <i name="e_wo_entrp">   -223.90062504 </i>
    <i name="e_0_energy">   -223.90062504 </i>
   </energy>
  </scstep>
  <scstep>
   <time name="dav">   11.72   11.78</time>
   <time name="total">   12.13   12.20</time>
   <energy>
    <i name="e_fr_energy">   -223.90062604 </i>
    <i name="e_wo_entrp">   -223.90062604 </i>
    <i name="e_0_energy">   -223.90062604 </i>
   </energy>
  </scstep>
  <scstep>
   <time name="dav">   12.31   12.38</time>
   <time name="total">   12.72   12.79</time>
   <energy>
    <i name="e_fr_energy">   -223.90062742 </i>
    <i name="e_wo_entrp">   -223.90062742 </i>
    <i name="e_0_energy">   -223.90062742 </i>
   </energy>
  </scstep>
  <scstep>
   <time name="dav">   12.00   12.06</time>
   <time name="total">   12.41   12.48</time>
   <energy>
    <i name="e_fr_energy">   -223.90062797 </i>
    <i name="e_wo_entrp">   -223.90062797 </i>
    <i name="e_0_energy">   -223.90062797 </i>
   </energy>
  </scstep>
  <scstep>
   <time name="dav">    8.64    8.69</time>
   <time name="total">    9.05    9.10</time>
   <energy>
    <i name="e_fr_energy">   -223.90062796 </i>
    <i name="e_wo_entrp">   -223.90062796 </i>
    <i name="e_0_energy">   -223.90062796 </i>
   </energy>
  </scstep>
  <scstep>
   <time name="dav">    8.63    8.68</time>
   <time name="total">    9.04    9.09</time>
   <energy>
    <i name="e_fr_energy">   -223.90062804 </i>
    <i name="e_wo_entrp">   -223.90062804 </i>
    <i name="e_0_energy">   -223.90062804 </i>
   </energy>
  </scstep>
  <scstep>
   <time name="dav">    7.71    7.75</time>
   <time name="total">    8.12    8.16</time>
   <energy>
    <i name="e_fr_energy">   -223.90062800 </i>
    <i name="e_wo_entrp">   -223.90062800 </i>
    <i name="e_0_energy">   -223.90062800 </i>
   </energy>
  </scstep>
  <scstep>
   <time name="dav">    8.08    8.13</time>
   <time name="total">    8.50    8.55</time>
   <energy>
    <i name="e_fr_energy">   -223.90062795 </i>
    <i name="e_wo_entrp">   -223.90062795 </i>
    <i name="e_0_energy">   -223.90062795 </i>
   </energy>
  </scstep>
  <scstep>
   <time name="dav">    7.72    7.77</time>
   <time name="total">    8.14    8.18</time>
   <energy>
    <i name="e_fr_energy">   -223.90062793 </i>
    <i name="e_wo_entrp">   -223.90062793 </i>
    <i name="e_0_energy">   -223.90062793 </i>
   </energy>
  </scstep>
  <scstep>
   <time name="dav">    7.72    7.77</time>
   <time name="total">    7.79    7.84</time>
   <energy>
    <i name="alphaZ">    751.52672365 </i>
    <i name="ewald"> -22871.34070708 </i>
    <i name="hartreedc">  -9078.16174581 </i>
    <i name="XCdc">   1472.51343975 </i>
    <i name="pawpsdc">  29498.29308261 </i>
    <i name="pawaedc"> -32317.65777641 </i>
    <i name="eentropy">     -0.00000000 </i>
    <i name="bandstr">  -5211.25311457 </i>
    <i name="atom">  37532.17946992 </i>
    <i name="e_fr_energy">   -223.90062793 </i>
    <i name="e_wo_entrp">   -223.90062793 </i>
    <i name="e_0_energy">   -223.90062793 </i>
   </energy>
  </scstep>
  <structure>
   <crystal>
    <varray name="basis" >
     <v>      11.20400236       0.00000000       0.00000000 </v>
     <v>       0.00000000      11.20400236       0.00000000 </v>
     <v>       0.00000000       0.00000000      11.20400236 </v>
    </varray>
    <i name="volume">   1406.43470641 </i>
    <varray name="rec_basis" >
     <v>       0.08925382       0.00000000       0.00000000 </v>
     <v>       0.00000000       0.08925382       0.00000000 </v>
     <v>       0.00000000       0.00000000       0.08925382 </v>
    </varray>
   </crystal>
   <varray name="positions" >
    <v>       0.00267761       0.00000000       0.00000000 </v>
    <v>       0.25000000       0.25000000       0.00000000 </v>
    <v>       0.25000000       0.00000000       0.25000000 </v>
    <v>       0.00000000       0.25000000       0.25000000 </v>
    <v>       0.00000000       0.00000000       0.50000000 </v>
    <v>       0.25000000       0.25000000       0.50000000 </v>
    <v>       0.25000000       0.00000000       0.75000000 </v>
    <v>       0.00000000       0.25000000       0.75000000 </v>
    <v>       0.00000000       0.50000000       0.00000000 </v>
    <v>       0.25000000       0.75000000       0.00000000 </v>
    <v>       0.25000000       0.50000000       0.25000000 </v>
    <v>       0.00000000       0.75000000       0.25000000 </v>
    <v>       0.00000000       0.50000000       0.50000000 </v>
    <v>       0.25000000       0.75000000       0.50000000 </v>
    <v>       0.25000000       0.50000000       0.75000000 </v>
    <v>       0.00000000       0.75000000       0.75000000 </v>
    <v>       0.50000000       0.00000000       0.00000000 </v>
    <v>       0.75000000       0.25000000       0.00000000 </v>
    <v>       0.75000000       0.00000000       0.25000000 </v>
    <v>       0.50000000       0.25000000       0.25000000 </v>
    <v>       0.50000000       0.00000000       0.50000000 </v>
    <v>       0.75000000       0.25000000       0.50000000 </v>
    <v>       0.75000000       0.00000000       0.75000000 </v>
    <v>       0.50000000       0.25000000       0.75000000 </v>
    <v>       0.50000000       0.50000000       0.00000000 </v>
    <v>       0.75000000       0.75000000       0.00000000 </v>
    <v>       0.75000000       0.50000000       0.25000000 </v>
    <v>       0.50000000       0.75000000       0.25000000 </v>
    <v>       0.50000000       0.50000000       0.50000000 </v>
    <v>       0.75000000       0.75000000       0.50000000 </v>
    <v>       0.75000000       0.50000000       0.75000000 </v>
    <v>       0.50000000       0.75000000       0.75000000 </v>
    <v>       0.25000000       0.25000000       0.25000000 </v>
    <v>       0.00000000       0.00000000       0.24732239 </v>
    <v>       0.00000000       0.25000000       0.00000000 </v>
    <v>       0.25000000       0.00000000       0.00000000 </v>
    <v>       0.25000000       0.25000000       0.75000000 </v>
    <v>       0.00000000       0.00000000       0.75000000 </v>
    <v>       0.00000000       0.25000000       0.50000000 </v>
    <v>       0.25000000       0.00000000       0.50000000 </v>
    <v>       0.25000000       0.75000000       0.25000000 </v>
    <v>       0.00000000       0.50000000       0.25000000 </v>
    <v>       0.00000000       0.75000000       0.00000000 </v>
    <v>       0.25000000       0.50000000       0.00000000 </v>
    <v>       0.25000000       0.75000000       0.75000000 </v>
    <v>       0.00000000       0.50000000       0.75000000 </v>
    <v>       0.00000000       0.75000000       0.50000000 </v>
    <v>       0.25000000       0.50000000       0.50000000 </v>
    <v>       0.75000000       0.25000000       0.25000000 </v>
    <v>       0.50000000       0.00000000       0.25000000 </v>
    <v>       0.50000000       0.25000000       0.00000000 </v>
    <v>       0.75000000       0.00000000       0.00000000 </v>
    <v>       0.75000000       0.25000000       0.75000000 </v>
    <v>       0.50000000       0.00000000       0.75000000 </v>
    <v>       0.50000000       0.25000000       0.50000000 </v>
    <v>       0.75000000       0.00000000       0.50000000 </v>
    <v>       0.75000000       0.75000000       0.25000000 </v>
    <v>       0.50000000       0.50000000       0.25000000 </v>
    <v>       0.50000000       0.75000000       0.00000000 </v>
    <v>       0.75000000       0.50000000       0.00000000 </v>
    <v>       0.75000000       0.75000000       0.75000000 </v>
    <v>       0.50000000       0.50000000       0.75000000 </v>
    <v>       0.50000000       0.75000000       0.50000000 </v>
    <v>       0.75000000       0.50000000       0.50000000 </v>
   </varray>
  </structure>
  <varray name="forces" >
   <v>      -0.06254508       0.00000000      -0.02025919 </v>
   <v>       0.00021315       0.00462076       0.00021675 </v>
   <v>       0.00138578       0.00000000       0.00089123 </v>
   <v>      -0.00164815      -0.00011140      -0.00503098 </v>
   <v>      -0.00004983       0.00000000      -0.01620680 </v>
   <v>       0.00125684       0.00121283       0.00023325 </v>
   <v>       0.00151030       0.00000000      -0.00308539 </v>
   <v>      -0.00166265      -0.00002222       0.00285430 </v>
   <v>      -0.00005263       0.00000000      -0.00016746 </v>
   <v>       0.00021315      -0.00462076       0.00021675 </v>
   <v>      -0.00003506       0.00000000      -0.00068519 </v>
   <v>      -0.00164815       0.00011140      -0.00503098 </v>
   <v>      -0.00045250       0.00000000      -0.00015151 </v>
   <v>       0.00125684      -0.00121283       0.00023325 </v>
   <v>      -0.00003635       0.00000000       0.00074752 </v>
   <v>      -0.00166265       0.00002222       0.00285430 </v>
   <v>       0.00890355       0.00000000      -0.00016106 </v>
   <v>       0.00280509      -0.00709278       0.00020990 </v>
   <v>       0.00156474       0.00000000      -0.01078918 </v>
   <v>       0.00115764       0.00000269      -0.00060295 </v>
   <v>       0.00030797       0.00000000      -0.00015150 </v>
   <v>      -0.00131095       0.00136350       0.00023768 </v>
   <v>       0.00151061       0.00000000       0.00862953 </v>
   <v>       0.00116222       0.00000164       0.00066524 </v>
   <v>       0.00030825       0.00000000      -0.00000571 </v>
   <v>       0.00280509       0.00709278       0.00020990 </v>
   <v>      -0.00001867       0.00000000      -0.00053429 </v>
   <v>       0.00115764      -0.00000269      -0.00060295 </v>
   <v>       0.00044056       0.00000000       0.00000371 </v>
   <v>      -0.00131095      -0.00136350       0.00023768 </v>
   <v>      -0.00001793       0.00000000       0.00059692 </v>
   <v>       0.00116222      -0.00000164       0.00066524 </v>
   <v>      -0.00024253      -0.00132475       0.00103664 </v>
   <v>       0.00478492       0.00000000       0.07590118 </v>
   <v>       0.00498392       0.00576010      -0.00391791 </v>
   <v>       0.02611662       0.00000000      -0.00393926 </v>
   <v>      -0.00021493      -0.00130023      -0.00024440 </v>
   <v>       0.00498461       0.00000000      -0.00372051 </v>
   <v>       0.00059612      -0.00572507      -0.00386095 </v>
   <v>      -0.00556642       0.00000000      -0.00385985 </v>
   <v>      -0.00024253       0.00132475       0.00103664 </v>
   <v>       0.00059529       0.00000000       0.00155924 </v>
   <v>       0.00498392      -0.00576010      -0.00391791 </v>
   <v>       0.00074543       0.00000000       0.00005243 </v>
   <v>      -0.00021493       0.00130023      -0.00024440 </v>
   <v>       0.00059759       0.00000000      -0.00197002 </v>
   <v>       0.00059612       0.00572507      -0.00386095 </v>
   <v>      -0.00057024       0.00000000       0.00003846 </v>
   <v>      -0.00020363       0.00124179       0.00361538 </v>
   <v>      -0.00282829       0.00000000       0.00153709 </v>
   <v>      -0.00283176       0.00056343       0.00005322 </v>
   <v>       0.01030409       0.00000000      -0.00389255 </v>
   <v>      -0.00024374       0.00128414      -0.00282869 </v>
   <v>      -0.00283259       0.00000000      -0.00194770 </v>
   <v>      -0.00066995      -0.00056900       0.00003802 </v>
   <v>       0.00587304       0.00000000      -0.00386180 </v>
   <v>      -0.00020363      -0.00124179       0.00361538 </v>
   <v>      -0.00066907       0.00000000       0.00051984 </v>
   <v>      -0.00283176      -0.00056343       0.00005322 </v>
   <v>      -0.00043594       0.00000000       0.00005424 </v>
   <v>      -0.00024374      -0.00128414      -0.00282869 </v>
   <v>      -0.00067199       0.00000000      -0.00052778 </v>
   <v>      -0.00066995       0.00056900       0.00003802 </v>
   <v>       0.00055588       0.00000000       0.00003637 </v>
  </varray>
  <varray name="stress" >
   <v>      -0.36728761       0.00000000      -0.00099275 </v>
   <v>       0.00000000      -0.37852802       0.00000000 </v>
   <v>      -0.00099262       0.00000000      -0.36748087 </v>
  </varray>
  <energy>
   <i name="e_fr_energy">   -223.90062793 </i>
   <i name="e_wo_entrp">   -223.90062793 </i>
   <i name="e_0_energy">   -223.90062793 </i>
  </energy>
  <time name="totalsc">  262.21  263.66</time>
  <eigenvalues>
   <array>
    <dimension dim="1">band</dimension>
    <dimension dim="2">kpoint</dimension>
    <dimension dim="3">spin</dimension>
    <field>eigene</field>
    <field>occ</field>
    <set>
     <set comment="spin 1">
      <set comment="kpoint 1">
       <r>  -21.3092    1.0000 </r>
       <r>  -21.3090    1.0000 </r>
       <r>  -21.3086    1.0000 </r>
       <r>  -21.3044    1.0000 </r>
       <r>  -21.3006    1.0000 </r>
       <r>  -21.3005    1.0000 </r>
       <r>  -21.3001    1.0000 </r>
       <r>  -21.2947    1.0000 </r>
       <r>  -21.2944    1.0000 </r>
       <r>  -21.2942    1.0000 </r>
       <r>  -21.2938    1.0000 </r>
       <r>  -21.2938    1.0000 </r>
       <r>  -21.2937    1.0000 </r>
       <r>  -21.2932    1.0000 </r>
       <r>  -21.2931    1.0000 </r>
       <r>  -21.2930    1.0000 </r>
       <r>  -21.2929    1.0000 </r>
       <r>  -21.2920    1.0000 </r>
       <r>  -21.2912    1.0000 </r>
       <r>  -21.2901    1.0000 </r>
       <r>  -21.2900    1.0000 </r>
       <r>  -21.2888    1.0000 </r>
       <r>  -21.2874    1.0000 </r>
       <r>  -21.2869    1.0000 </r>
       <r>  -21.2866    1.0000 </r>
       <r>  -21.2865    1.0000 </r>
       <r>  -21.2864    1.0000 </r>
       <r>  -21.2862    1.0000 </r>
       <r>  -21.2858    1.0000 </r>
       <r>  -21.2858    1.0000 </r>
       <r>  -21.2850    1.0000 </r>
       <r>  -21.2848    1.0000 </r>
       <r>  -21.2841    1.0000 </r>
       <r>  -21.2840    1.0000 </r>
       <r>  -21.2837    1.0000 </r>
       <r>  -21.2836    1.0000 </r>
       <r>  -21.2830    1.0000 </r>
       <r>  -21.2827    1.0000 </r>
       <r>  -21.2826    1.0000 </r>
       <r>  -21.2823    1.0000 </r>
       <r>  -21.2822    1.0000 </r>
       <r>  -21.2815    1.0000 </r>
       <r>  -21.2813    1.0000 </r>
       <r>  -21.2812    1.0000 </r>
       <r>  -21.2809    1.0000 </r>
       <r>  -21.2808    1.0000 </r>
       <r>  -21.2806    1.0000 </r>
       <r>  -21.2804    1.0000 </r>
       <r>  -21.2800    1.0000 </r>
       <r>  -21.2800    1.0000 </r>
       <r>  -21.2799    1.0000 </r>
       <r>  -21.2799    1.0000 </r>
       <r>  -21.2797    1.0000 </r>
       <r>  -21.2797    1.0000 </r>
       <r>  -21.2796    1.0000 </r>
       <r>  -21.2787    1.0000 </r>
       <r>  -21.2779    1.0000 </r>
       <r>  -21.2778    1.0000 </r>
       <r>  -21.2778    1.0000 </r>
       <r>  -21.2770    1.0000 </r>
       <r>  -21.2767    1.0000 </r>
       <r>  -21.2758    1.0000 </r>
       <r>  -21.2756    1.0000 </r>
       <r>  -21.2755    1.0000 </r>
       <r>  -21.2752    1.0000 </r>
       <r>  -21.2750    1.0000 </r>
       <r>  -21.2749    1.0000 </r>
       <r>  -21.2747    1.0000 </r>
       <r>  -21.2745    1.0000 </r>
       <r>  -21.2744    1.0000 </r>
       <r>  -21.2741    1.0000 </r>
       <r>  -21.2741    1.0000 </r>
       <r>  -21.2735    1.0000 </r>
       <r>  -21.2730    1.0000 </r>
       <r>  -21.2728    1.0000 </r>
       <r>  -21.2724    1.0000 </r>
       <r>  -21.2719    1.0000 </r>
       <r>  -21.2717    1.0000 </r>
       <r>  -21.2717    1.0000 </r>
       <r>  -21.2715    1.0000 </r>
       <r>  -21.2711    1.0000 </r>
       <r>  -21.2710    1.0000 </r>
       <r>  -21.2710    1.0000 </r>
       <r>  -21.2710    1.0000 </r>
       <r>  -21.2708    1.0000 </r>
       <r>  -21.2701    1.0000 </r>
       <r>  -21.2699    1.0000 </r>
       <r>  -21.2682    1.0000 </r>
       <r>  -21.2675    1.0000 </r>
       <r>  -21.2671    1.0000 </r>
       <r>  -21.2666    1.0000 </r>
       <r>  -21.2665    1.0000 </r>
       <r>  -21.2661    1.0000 </r>
       <r>  -21.2556    1.0000 </r>
       <r>  -21.2555    1.0000 </r>
       <r>  -21.2555    1.0000 </r>
       <r>  -13.3581    1.0000 </r>
       <r>  -13.1418    1.0000 </r>
       <r>  -13.1387    1.0000 </r>
       <r>  -13.1374    1.0000 </r>
       <r>  -13.1373    1.0000 </r>
       <r>  -13.1370    1.0000 </r>
       <r>  -13.1333    1.0000 </r>
       <r>  -13.0194    1.0000 </r>
       <r>  -13.0145    1.0000 </r>
       <r>  -13.0145    1.0000 </r>
       <r>  -13.0122    1.0000 </r>
       <r>  -13.0115    1.0000 </r>
       <r>  -13.0112    1.0000 </r>
       <r>  -13.0112    1.0000 </r>
       <r>  -13.0112    1.0000 </r>
       <r>  -13.0111    1.0000 </r>
       <r>  -13.0102    1.0000 </r>
       <r>  -13.0087    1.0000 </r>
       <r>  -13.0045    1.0000 </r>
       <r>  -12.9900    1.0000 </r>
       <r>  -12.9897    1.0000 </r>
       <r>  -12.9891    1.0000 </r>
       <r>  -12.9878    1.0000 </r>
       <r>  -12.9416    1.0000 </r>
       <r>  -12.9411    1.0000 </r>
       <r>  -12.9405    1.0000 </r>
       <r>  -12.9246    1.0000 </r>
       <r>  -12.9229    1.0000 </r>
       <r>  -12.9214    1.0000 </r>
       <r>  -12.9213    1.0000 </r>
       <r>  -12.9206    1.0000 </r>
       <r>  -12.9125    1.0000 </r>
       <r>   -2.7001    1.0000 </r>
       <r>   -2.7000    1.0000 </r>
       <r>   -2.7000    1.0000 </r>
       <r>   -2.6999    1.0000 </r>
       <r>   -2.4240    1.0000 </r>
       <r>   -2.4240    1.0000 </r>
       <r>   -2.4240    1.0000 </r>
       <r>   -2.2074    1.0000 </r>
       <r>   -2.2074    1.0000 </r>
       <r>   -2.2056    1.0000 </r>
       <r>   -2.2047    1.0000 </r>
       <r>   -2.2044    1.0000 </r>
       <r>   -2.2042    1.0000 </r>
       <r>   -2.2042    1.0000 </r>
       <r>   -2.2042    1.0000 </r>
       <r>   -2.2037    1.0000 </r>
       <r>   -2.2030    1.0000 </r>
       <r>   -2.2012    1.0000 </r>
       <r>   -2.2012    1.0000 </r>
       <r>   -1.9283    1.0000 </r>
       <r>   -1.9280    1.0000 </r>
       <r>   -1.9263    1.0000 </r>
       <r>   -1.9259    1.0000 </r>
       <r>   -1.9250    1.0000 </r>
       <r>   -1.9247    1.0000 </r>
       <r>   -1.9246    1.0000 </r>
       <r>   -1.9244    1.0000 </r>
       <r>   -1.9231    1.0000 </r>
       <r>   -1.9229    1.0000 </r>
       <r>   -1.9215    1.0000 </r>
       <r>   -1.9214    1.0000 </r>
       <r>   -1.7977    1.0000 </r>
       <r>   -1.7968    1.0000 </r>
       <r>   -1.7966    1.0000 </r>
       <r>   -1.7966    1.0000 </r>
       <r>   -1.7964    1.0000 </r>
       <r>   -1.7956    1.0000 </r>
       <r>   -1.5090    1.0000 </r>
       <r>   -1.5086    1.0000 </r>
       <r>   -1.5059    1.0000 </r>
       <r>   -1.5058    1.0000 </r>
       <r>   -1.5057    1.0000 </r>
       <r>   -1.5056    1.0000 </r>
       <r>   -1.5053    1.0000 </r>
       <r>   -1.5053    1.0000 </r>
       <r>   -1.5050    1.0000 </r>
       <r>   -1.5046    1.0000 </r>
       <r>   -1.5023    1.0000 </r>
       <r>   -1.5021    1.0000 </r>
       <r>   -1.4646    1.0000 </r>
       <r>   -1.4631    1.0000 </r>
       <r>   -1.4627    1.0000 </r>
       <r>   -1.4625    1.0000 </r>
       <r>   -1.4624    1.0000 </r>
       <r>   -1.4606    1.0000 </r>
       <r>   -1.2948    1.0000 </r>
       <r>   -1.2947    1.0000 </r>
       <r>   -1.2947    1.0000 </r>
       <r>   -1.2946    1.0000 </r>
       <r>   -1.2946    1.0000 </r>
       <r>   -1.2946    1.0000 </r>
       <r>   -1.0048    1.0000 </r>
       <r>   -1.0040    1.0000 </r>
       <r>   -1.0029    1.0000 </r>
       <r>   -1.0017    1.0000 </r>
       <r>   -1.0014    1.0000 </r>
       <r>   -1.0010    1.0000 </r>
       <r>   -1.0007    1.0000 </r>
       <r>   -1.0005    1.0000 </r>
       <r>   -0.9999    1.0000 </r>
       <r>   -0.9998    1.0000 </r>
       <r>   -0.9983    1.0000 </r>
       <r>   -0.9971    1.0000 </r>
       <r>   -0.9532    1.0000 </r>
       <r>   -0.9523    1.0000 </r>
       <r>   -0.9519    1.0000 </r>
       <r>   -0.9512    1.0000 </r>
       <r>   -0.9492    1.0000 </r>
       <r>   -0.9479    1.0000 </r>
       <r>   -0.9478    1.0000 </r>
       <r>   -0.9478    1.0000 </r>
       <r>   -0.9476    1.0000 </r>
       <r>   -0.9474    1.0000 </r>
       <r>   -0.9472    1.0000 </r>
       <r>   -0.9468    1.0000 </r>
       <r>   -0.9459    1.0000 </r>
       <r>   -0.9457    1.0000 </r>
       <r>   -0.9455    1.0000 </r>
       <r>   -0.9446    1.0000 </r>
       <r>   -0.9446    1.0000 </r>
       <r>   -0.9403    1.0000 </r>
       <r>   -0.9395    1.0000 </r>
       <r>   -0.9389    1.0000 </r>
       <r>   -0.6649    1.0000 </r>
       <r>   -0.6648    1.0000 </r>
       <r>   -0.6648    1.0000 </r>
       <r>    4.3403    0.0000 </r>
       <r>    6.3610    0.0000 </r>
       <r>    6.3667    0.0000 </r>
       <r>    6.3680    0.0000 </r>
       <r>    6.3682    0.0000 </r>
       <r>    6.3688    0.0000 </r>
       <r>    6.3755    0.0000 </r>
       <r>    6.4446    0.0000 </r>
       <r>    6.4446    0.0000 </r>
       <r>    6.4448    0.0000 </r>
       <r>    6.4449    0.0000 </r>
       <r>    6.8279    0.0000 </r>
       <r>    6.8280    0.0000 </r>
       <r>    6.8281    0.0000 </r>
       <r>    7.2068    0.0000 </r>
       <r>    7.2068    0.0000 </r>
       <r>    7.2069    0.0000 </r>
       <r>    7.4538    0.0000 </r>
       <r>    7.4589    0.0000 </r>
       <r>    7.4589    0.0000 </r>
       <r>    7.4630    0.0000 </r>
       <r>    7.4636    0.0000 </r>
       <r>    7.4638    0.0000 </r>
       <r>    7.4642    0.0000 </r>
       <r>    7.4645    0.0000 </r>
       <r>    7.4655    0.0000 </r>
       <r>    7.4692    0.0000 </r>
       <r>    7.4699    0.0000 </r>
       <r>    7.4746    0.0000 </r>
       <r>    8.1625    0.0000 </r>
       <r>    8.1676    0.0000 </r>
       <r>    8.1681    0.0000 </r>
       <r>    8.1684    0.0000 </r>
       <r>    8.1693    0.0000 </r>
       <r>    8.1740    0.0000 </r>
       <r>    8.2761    0.0000 </r>
       <r>    8.2791    0.0000 </r>
       <r>    8.2796    0.0000 </r>
       <r>    8.2796    0.0000 </r>
       <r>    8.2814    0.0000 </r>
       <r>    8.2817    0.0000 </r>
       <r>    8.8904    0.0000 </r>
       <r>    8.8908    0.0000 </r>
       <r>    8.8971    0.0000 </r>
       <r>    8.8984    0.0000 </r>
       <r>    8.8989    0.0000 </r>
       <r>    8.9003    0.0000 </r>
       <r>    8.9008    0.0000 </r>
       <r>    8.9009    0.0000 </r>
       <r>    8.9018    0.0000 </r>
       <r>    8.9040    0.0000 </r>
       <r>    8.9058    0.0000 </r>
       <r>    8.9071    0.0000 </r>
       <r>    8.9120    0.0000 </r>
       <r>    8.9126    0.0000 </r>
       <r>    8.9145    0.0000 </r>
       <r>    8.9152    0.0000 </r>
       <r>    8.9155    0.0000 </r>
       <r>    8.9166    0.0000 </r>
       <r>    8.9181    0.0000 </r>
       <r>    8.9194    0.0000 </r>
       <r>    8.9203    0.0000 </r>
       <r>    8.9247    0.0000 </r>
       <r>    8.9296    0.0000 </r>
      </set>
      <set comment="kpoint 2">
       <r>  -21.3080    1.0000 </r>
       <r>  -21.3080    1.0000 </r>
       <r>  -21.3079    1.0000 </r>
       <r>  -21.3019    1.0000 </r>
       <r>  -21.3007    1.0000 </r>
       <r>  -21.2997    1.0000 </r>
       <r>  -21.2995    1.0000 </r>
       <r>  -21.2972    1.0000 </r>
       <r>  -21.2962    1.0000 </r>
       <r>  -21.2957    1.0000 </r>
       <r>  -21.2948    1.0000 </r>
       <r>  -21.2933    1.0000 </r>
       <r>  -21.2929    1.0000 </r>
       <r>  -21.2926    1.0000 </r>
       <r>  -21.2922    1.0000 </r>
       <r>  -21.2920    1.0000 </r>
       <r>  -21.2918    1.0000 </r>
       <r>  -21.2918    1.0000 </r>
       <r>  -21.2913    1.0000 </r>
       <r>  -21.2913    1.0000 </r>
       <r>  -21.2909    1.0000 </r>
       <r>  -21.2898    1.0000 </r>
       <r>  -21.2894    1.0000 </r>
       <r>  -21.2893    1.0000 </r>
       <r>  -21.2889    1.0000 </r>
       <r>  -21.2884    1.0000 </r>
       <r>  -21.2876    1.0000 </r>
       <r>  -21.2872    1.0000 </r>
       <r>  -21.2866    1.0000 </r>
       <r>  -21.2862    1.0000 </r>
       <r>  -21.2862    1.0000 </r>
       <r>  -21.2861    1.0000 </r>
       <r>  -21.2859    1.0000 </r>
       <r>  -21.2849    1.0000 </r>
       <r>  -21.2842    1.0000 </r>
       <r>  -21.2842    1.0000 </r>
       <r>  -21.2835    1.0000 </r>
       <r>  -21.2834    1.0000 </r>
       <r>  -21.2830    1.0000 </r>
       <r>  -21.2826    1.0000 </r>
       <r>  -21.2821    1.0000 </r>
       <r>  -21.2817    1.0000 </r>
       <r>  -21.2811    1.0000 </r>
       <r>  -21.2801    1.0000 </r>
       <r>  -21.2800    1.0000 </r>
       <r>  -21.2797    1.0000 </r>
       <r>  -21.2797    1.0000 </r>
       <r>  -21.2790    1.0000 </r>
       <r>  -21.2789    1.0000 </r>
       <r>  -21.2786    1.0000 </r>
       <r>  -21.2780    1.0000 </r>
       <r>  -21.2775    1.0000 </r>
       <r>  -21.2775    1.0000 </r>
       <r>  -21.2774    1.0000 </r>
       <r>  -21.2772    1.0000 </r>
       <r>  -21.2770    1.0000 </r>
       <r>  -21.2769    1.0000 </r>
       <r>  -21.2767    1.0000 </r>
       <r>  -21.2766    1.0000 </r>
       <r>  -21.2762    1.0000 </r>
       <r>  -21.2760    1.0000 </r>
       <r>  -21.2758    1.0000 </r>
       <r>  -21.2758    1.0000 </r>
       <r>  -21.2757    1.0000 </r>
       <r>  -21.2756    1.0000 </r>
       <r>  -21.2747    1.0000 </r>
       <r>  -21.2747    1.0000 </r>
       <r>  -21.2746    1.0000 </r>
       <r>  -21.2745    1.0000 </r>
       <r>  -21.2744    1.0000 </r>
       <r>  -21.2741    1.0000 </r>
       <r>  -21.2740    1.0000 </r>
       <r>  -21.2739    1.0000 </r>
       <r>  -21.2736    1.0000 </r>
       <r>  -21.2733    1.0000 </r>
       <r>  -21.2732    1.0000 </r>
       <r>  -21.2725    1.0000 </r>
       <r>  -21.2723    1.0000 </r>
       <r>  -21.2722    1.0000 </r>
       <r>  -21.2721    1.0000 </r>
       <r>  -21.2720    1.0000 </r>
       <r>  -21.2719    1.0000 </r>
       <r>  -21.2715    1.0000 </r>
       <r>  -21.2712    1.0000 </r>
       <r>  -21.2711    1.0000 </r>
       <r>  -21.2703    1.0000 </r>
       <r>  -21.2700    1.0000 </r>
       <r>  -21.2683    1.0000 </r>
       <r>  -21.2682    1.0000 </r>
       <r>  -21.2673    1.0000 </r>
       <r>  -21.2668    1.0000 </r>
       <r>  -21.2666    1.0000 </r>
       <r>  -21.2662    1.0000 </r>
       <r>  -21.2558    1.0000 </r>
       <r>  -21.2556    1.0000 </r>
       <r>  -21.2555    1.0000 </r>
       <r>  -13.2938    1.0000 </r>
       <r>  -13.2889    1.0000 </r>
       <r>  -13.1033    1.0000 </r>
       <r>  -13.0987    1.0000 </r>
       <r>  -13.0984    1.0000 </r>
       <r>  -13.0983    1.0000 </r>
       <r>  -13.0972    1.0000 </r>
       <r>  -13.0956    1.0000 </r>
       <r>  -13.0953    1.0000 </r>
       <r>  -13.0903    1.0000 </r>
       <r>  -13.0082    1.0000 </r>
       <r>  -13.0034    1.0000 </r>
       <r>  -13.0007    1.0000 </r>
       <r>  -13.0006    1.0000 </r>
       <r>  -13.0006    1.0000 </r>
       <r>  -13.0005    1.0000 </r>
       <r>  -12.9983    1.0000 </r>
       <r>  -12.9979    1.0000 </r>
       <r>  -12.9978    1.0000 </r>
       <r>  -12.9901    1.0000 </r>
       <r>  -12.9494    1.0000 </r>
       <r>  -12.9459    1.0000 </r>
       <r>  -12.9451    1.0000 </r>
       <r>  -12.9449    1.0000 </r>
       <r>  -12.9449    1.0000 </r>
       <r>  -12.9424    1.0000 </r>
       <r>  -12.9421    1.0000 </r>
       <r>  -12.9378    1.0000 </r>
       <r>  -12.9352    1.0000 </r>
       <r>  -12.9311    1.0000 </r>
       <r>  -12.9299    1.0000 </r>
       <r>  -12.9209    1.0000 </r>
       <r>   -2.5081    1.0000 </r>
       <r>   -2.5081    1.0000 </r>
       <r>   -2.5065    1.0000 </r>
       <r>   -2.5050    1.0000 </r>
       <r>   -2.5036    1.0000 </r>
       <r>   -2.5023    1.0000 </r>
       <r>   -2.5008    1.0000 </r>
       <r>   -2.5007    1.0000 </r>
       <r>   -2.2901    1.0000 </r>
       <r>   -2.2901    1.0000 </r>
       <r>   -2.2852    1.0000 </r>
       <r>   -2.2852    1.0000 </r>
       <r>   -2.2768    1.0000 </r>
       <r>   -2.2716    1.0000 </r>
       <r>   -2.1420    1.0000 </r>
       <r>   -2.1373    1.0000 </r>
       <r>   -2.1366    1.0000 </r>
       <r>   -2.1365    1.0000 </r>
       <r>   -2.1363    1.0000 </r>
       <r>   -2.1362    1.0000 </r>
       <r>   -2.1350    1.0000 </r>
       <r>   -2.1314    1.0000 </r>
       <r>   -1.9877    1.0000 </r>
       <r>   -1.9877    1.0000 </r>
       <r>   -1.9862    1.0000 </r>
       <r>   -1.9856    1.0000 </r>
       <r>   -1.9849    1.0000 </r>
       <r>   -1.9848    1.0000 </r>
       <r>   -1.9832    1.0000 </r>
       <r>   -1.9832    1.0000 </r>
       <r>   -1.8135    1.0000 </r>
       <r>   -1.8121    1.0000 </r>
       <r>   -1.8113    1.0000 </r>
       <r>   -1.8094    1.0000 </r>
       <r>   -1.8078    1.0000 </r>
       <r>   -1.8065    1.0000 </r>
       <r>   -1.8053    1.0000 </r>
       <r>   -1.8041    1.0000 </r>
       <r>   -1.5000    1.0000 </r>
       <r>   -1.5000    1.0000 </r>
       <r>   -1.4956    1.0000 </r>
       <r>   -1.4955    1.0000 </r>
       <r>   -1.3858    1.0000 </r>
       <r>   -1.3804    1.0000 </r>
       <r>   -1.3802    1.0000 </r>
       <r>   -1.3755    1.0000 </r>
       <r>   -1.2150    1.0000 </r>
       <r>   -1.2149    1.0000 </r>
       <r>   -1.2108    1.0000 </r>
       <r>   -1.2100    1.0000 </r>
       <r>   -1.1933    1.0000 </r>
       <r>   -1.1930    1.0000 </r>
       <r>   -1.1927    1.0000 </r>
       <r>   -1.1913    1.0000 </r>
       <r>   -1.1909    1.0000 </r>
       <r>   -1.1902    1.0000 </r>
       <r>   -1.1900    1.0000 </r>
       <r>   -1.1886    1.0000 </r>
       <r>   -1.1803    1.0000 </r>
       <r>   -1.1761    1.0000 </r>
       <r>   -1.1754    1.0000 </r>
       <r>   -1.1751    1.0000 </r>
       <r>   -1.1741    1.0000 </r>
       <r>   -1.1729    1.0000 </r>
       <r>   -1.1724    1.0000 </r>
       <r>   -1.1671    1.0000 </r>
       <r>   -1.1633    1.0000 </r>
       <r>   -1.1627    1.0000 </r>
       <r>   -1.1617    1.0000 </r>
       <r>   -1.1603    1.0000 </r>
       <r>   -1.1588    1.0000 </r>
       <r>   -1.1574    1.0000 </r>
       <r>   -1.1554    1.0000 </r>
       <r>   -1.1549    1.0000 </r>
       <r>   -1.0857    1.0000 </r>
       <r>   -1.0806    1.0000 </r>
       <r>   -0.9520    1.0000 </r>
       <r>   -0.9517    1.0000 </r>
       <r>   -0.9469    1.0000 </r>
       <r>   -0.9469    1.0000 </r>
       <r>   -0.9468    1.0000 </r>
       <r>   -0.9464    1.0000 </r>
       <r>   -0.9426    1.0000 </r>
       <r>   -0.9420    1.0000 </r>
       <r>   -0.9367    1.0000 </r>
       <r>   -0.9349    1.0000 </r>
       <r>   -0.9337    1.0000 </r>
       <r>   -0.9324    1.0000 </r>
       <r>   -0.9321    1.0000 </r>
       <r>   -0.9319    1.0000 </r>
       <r>   -0.9318    1.0000 </r>
       <r>   -0.9235    1.0000 </r>
       <r>   -0.7707    1.0000 </r>
       <r>   -0.7707    1.0000 </r>
       <r>   -0.7658    1.0000 </r>
       <r>   -0.7658    1.0000 </r>
       <r>    5.0205    0.0000 </r>
       <r>    5.0241    0.0000 </r>
       <r>    6.7091    0.0000 </r>
       <r>    6.7160    0.0000 </r>
       <r>    6.7163    0.0000 </r>
       <r>    6.7169    0.0000 </r>
       <r>    6.7193    0.0000 </r>
       <r>    6.7198    0.0000 </r>
       <r>    6.7201    0.0000 </r>
       <r>    6.7272    0.0000 </r>
       <r>    6.8382    0.0000 </r>
       <r>    6.8387    0.0000 </r>
       <r>    6.8422    0.0000 </r>
       <r>    6.8430    0.0000 </r>
       <r>    6.8434    0.0000 </r>
       <r>    6.8444    0.0000 </r>
       <r>    6.8479    0.0000 </r>
       <r>    6.8486    0.0000 </r>
       <r>    6.9697    0.0000 </r>
       <r>    6.9726    0.0000 </r>
       <r>    7.3591    0.0000 </r>
       <r>    7.3624    0.0000 </r>
       <r>    7.3628    0.0000 </r>
       <r>    7.3659    0.0000 </r>
       <r>    7.4775    0.0000 </r>
       <r>    7.4830    0.0000 </r>
       <r>    7.7116    0.0000 </r>
       <r>    7.7116    0.0000 </r>
       <r>    7.7175    0.0000 </r>
       <r>    7.7176    0.0000 </r>
       <r>    8.2590    0.0000 </r>
       <r>    8.2633    0.0000 </r>
       <r>    8.2637    0.0000 </r>
       <r>    8.2653    0.0000 </r>
       <r>    8.2663    0.0000 </r>
       <r>    8.2678    0.0000 </r>
       <r>    8.2682    0.0000 </r>
       <r>    8.2736    0.0000 </r>
       <r>    8.5279    0.0000 </r>
       <r>    8.5311    0.0000 </r>
       <r>    8.5325    0.0000 </r>
       <r>    8.5352    0.0000 </r>
       <r>    8.5362    0.0000 </r>
       <r>    8.5365    0.0000 </r>
       <r>    8.5374    0.0000 </r>
       <r>    8.5382    0.0000 </r>
       <r>    8.5388    0.0000 </r>
       <r>    8.5400    0.0000 </r>
       <r>    8.5400    0.0000 </r>
       <r>    8.5406    0.0000 </r>
       <r>    8.5428    0.0000 </r>
       <r>    8.5436    0.0000 </r>
       <r>    8.5462    0.0000 </r>
       <r>    8.5487    0.0000 </r>
       <r>    8.9415    0.0000 </r>
       <r>    8.9479    0.0000 </r>
       <r>    8.9485    0.0000 </r>
       <r>    8.9497    0.0000 </r>
       <r>    8.9507    0.0000 </r>
       <r>    8.9533    0.0000 </r>
       <r>    8.9538    0.0000 </r>
       <r>    8.9621    0.0000 </r>
       <r>    9.4870    0.0000 </r>
       <r>    9.4926    0.0000 </r>
      </set>
      <set comment="kpoint 3">
       <r>  -21.3082    1.0000 </r>
       <r>  -21.3079    1.0000 </r>
       <r>  -21.3078    1.0000 </r>
       <r>  -21.3004    1.0000 </r>
       <r>  -21.2998    1.0000 </r>
       <r>  -21.2998    1.0000 </r>
       <r>  -21.2997    1.0000 </r>
       <r>  -21.2993    1.0000 </r>
       <r>  -21.2969    1.0000 </r>
       <r>  -21.2964    1.0000 </r>
       <r>  -21.2963    1.0000 </r>
       <r>  -21.2936    1.0000 </r>
       <r>  -21.2928    1.0000 </r>
       <r>  -21.2924    1.0000 </r>
       <r>  -21.2916    1.0000 </r>
       <r>  -21.2916    1.0000 </r>
       <r>  -21.2915    1.0000 </r>
       <r>  -21.2914    1.0000 </r>
       <r>  -21.2912    1.0000 </r>
       <r>  -21.2909    1.0000 </r>
       <r>  -21.2905    1.0000 </r>
       <r>  -21.2898    1.0000 </r>
       <r>  -21.2897    1.0000 </r>
       <r>  -21.2891    1.0000 </r>
       <r>  -21.2885    1.0000 </r>
       <r>  -21.2884    1.0000 </r>
       <r>  -21.2882    1.0000 </r>
       <r>  -21.2881    1.0000 </r>
       <r>  -21.2866    1.0000 </r>
       <r>  -21.2866    1.0000 </r>
       <r>  -21.2856    1.0000 </r>
       <r>  -21.2847    1.0000 </r>
       <r>  -21.2842    1.0000 </r>
       <r>  -21.2841    1.0000 </r>
       <r>  -21.2840    1.0000 </r>
       <r>  -21.2839    1.0000 </r>
       <r>  -21.2838    1.0000 </r>
       <r>  -21.2835    1.0000 </r>
       <r>  -21.2831    1.0000 </r>
       <r>  -21.2824    1.0000 </r>
       <r>  -21.2821    1.0000 </r>
       <r>  -21.2814    1.0000 </r>
       <r>  -21.2813    1.0000 </r>
       <r>  -21.2805    1.0000 </r>
       <r>  -21.2803    1.0000 </r>
       <r>  -21.2802    1.0000 </r>
       <r>  -21.2800    1.0000 </r>
       <r>  -21.2798    1.0000 </r>
       <r>  -21.2791    1.0000 </r>
       <r>  -21.2790    1.0000 </r>
       <r>  -21.2790    1.0000 </r>
       <r>  -21.2780    1.0000 </r>
       <r>  -21.2777    1.0000 </r>
       <r>  -21.2776    1.0000 </r>
       <r>  -21.2773    1.0000 </r>
       <r>  -21.2771    1.0000 </r>
       <r>  -21.2771    1.0000 </r>
       <r>  -21.2766    1.0000 </r>
       <r>  -21.2765    1.0000 </r>
       <r>  -21.2764    1.0000 </r>
       <r>  -21.2763    1.0000 </r>
       <r>  -21.2762    1.0000 </r>
       <r>  -21.2760    1.0000 </r>
       <r>  -21.2759    1.0000 </r>
       <r>  -21.2757    1.0000 </r>
       <r>  -21.2753    1.0000 </r>
       <r>  -21.2750    1.0000 </r>
       <r>  -21.2747    1.0000 </r>
       <r>  -21.2747    1.0000 </r>
       <r>  -21.2741    1.0000 </r>
       <r>  -21.2739    1.0000 </r>
       <r>  -21.2738    1.0000 </r>
       <r>  -21.2737    1.0000 </r>
       <r>  -21.2733    1.0000 </r>
       <r>  -21.2728    1.0000 </r>
       <r>  -21.2726    1.0000 </r>
       <r>  -21.2725    1.0000 </r>
       <r>  -21.2719    1.0000 </r>
       <r>  -21.2719    1.0000 </r>
       <r>  -21.2716    1.0000 </r>
       <r>  -21.2716    1.0000 </r>
       <r>  -21.2715    1.0000 </r>
       <r>  -21.2711    1.0000 </r>
       <r>  -21.2710    1.0000 </r>
       <r>  -21.2707    1.0000 </r>
       <r>  -21.2706    1.0000 </r>
       <r>  -21.2704    1.0000 </r>
       <r>  -21.2681    1.0000 </r>
       <r>  -21.2677    1.0000 </r>
       <r>  -21.2674    1.0000 </r>
       <r>  -21.2671    1.0000 </r>
       <r>  -21.2671    1.0000 </r>
       <r>  -21.2668    1.0000 </r>
       <r>  -21.2557    1.0000 </r>
       <r>  -21.2557    1.0000 </r>
       <r>  -21.2555    1.0000 </r>
       <r>  -13.2915    1.0000 </r>
       <r>  -13.2912    1.0000 </r>
       <r>  -13.1037    1.0000 </r>
       <r>  -13.0984    1.0000 </r>
       <r>  -13.0970    1.0000 </r>
       <r>  -13.0969    1.0000 </r>
       <r>  -13.0969    1.0000 </r>
       <r>  -13.0968    1.0000 </r>
       <r>  -13.0954    1.0000 </r>
       <r>  -13.0920    1.0000 </r>
       <r>  -13.0056    1.0000 </r>
       <r>  -13.0016    1.0000 </r>
       <r>  -13.0011    1.0000 </r>
       <r>  -13.0007    1.0000 </r>
       <r>  -13.0007    1.0000 </r>
       <r>  -13.0006    1.0000 </r>
       <r>  -13.0006    1.0000 </r>
       <r>  -12.9999    1.0000 </r>
       <r>  -12.9952    1.0000 </r>
       <r>  -12.9930    1.0000 </r>
       <r>  -12.9503    1.0000 </r>
       <r>  -12.9453    1.0000 </r>
       <r>  -12.9439    1.0000 </r>
       <r>  -12.9438    1.0000 </r>
       <r>  -12.9437    1.0000 </r>
       <r>  -12.9436    1.0000 </r>
       <r>  -12.9423    1.0000 </r>
       <r>  -12.9411    1.0000 </r>
       <r>  -12.9311    1.0000 </r>
       <r>  -12.9306    1.0000 </r>
       <r>  -12.9305    1.0000 </r>
       <r>  -12.9227    1.0000 </r>
       <r>   -2.5051    1.0000 </r>
       <r>   -2.5049    1.0000 </r>
       <r>   -2.5049    1.0000 </r>
       <r>   -2.5045    1.0000 </r>
       <r>   -2.5043    1.0000 </r>
       <r>   -2.5039    1.0000 </r>
       <r>   -2.5037    1.0000 </r>
       <r>   -2.5037    1.0000 </r>
       <r>   -2.2878    1.0000 </r>
       <r>   -2.2877    1.0000 </r>
       <r>   -2.2876    1.0000 </r>
       <r>   -2.2876    1.0000 </r>
       <r>   -2.2743    1.0000 </r>
       <r>   -2.2741    1.0000 </r>
       <r>   -2.1411    1.0000 </r>
       <r>   -2.1366    1.0000 </r>
       <r>   -2.1365    1.0000 </r>
       <r>   -2.1364    1.0000 </r>
       <r>   -2.1363    1.0000 </r>
       <r>   -2.1362    1.0000 </r>
       <r>   -2.1361    1.0000 </r>
       <r>   -2.1318    1.0000 </r>
       <r>   -1.9869    1.0000 </r>
       <r>   -1.9869    1.0000 </r>
       <r>   -1.9856    1.0000 </r>
       <r>   -1.9855    1.0000 </r>
       <r>   -1.9854    1.0000 </r>
       <r>   -1.9853    1.0000 </r>
       <r>   -1.9841    1.0000 </r>
       <r>   -1.9841    1.0000 </r>
       <r>   -1.8124    1.0000 </r>
       <r>   -1.8089    1.0000 </r>
       <r>   -1.8088    1.0000 </r>
       <r>   -1.8088    1.0000 </r>
       <r>   -1.8087    1.0000 </r>
       <r>   -1.8086    1.0000 </r>
       <r>   -1.8083    1.0000 </r>
       <r>   -1.8051    1.0000 </r>
       <r>   -1.4979    1.0000 </r>
       <r>   -1.4978    1.0000 </r>
       <r>   -1.4978    1.0000 </r>
       <r>   -1.4977    1.0000 </r>
       <r>   -1.3806    1.0000 </r>
       <r>   -1.3805    1.0000 </r>
       <r>   -1.3804    1.0000 </r>
       <r>   -1.3804    1.0000 </r>
       <r>   -1.2137    1.0000 </r>
       <r>   -1.2129    1.0000 </r>
       <r>   -1.2125    1.0000 </r>
       <r>   -1.2123    1.0000 </r>
       <r>   -1.1929    1.0000 </r>
       <r>   -1.1926    1.0000 </r>
       <r>   -1.1920    1.0000 </r>
       <r>   -1.1913    1.0000 </r>
       <r>   -1.1910    1.0000 </r>
       <r>   -1.1909    1.0000 </r>
       <r>   -1.1906    1.0000 </r>
       <r>   -1.1899    1.0000 </r>
       <r>   -1.1771    1.0000 </r>
       <r>   -1.1755    1.0000 </r>
       <r>   -1.1743    1.0000 </r>
       <r>   -1.1742    1.0000 </r>
       <r>   -1.1742    1.0000 </r>
       <r>   -1.1734    1.0000 </r>
       <r>   -1.1727    1.0000 </r>
       <r>   -1.1716    1.0000 </r>
       <r>   -1.1617    1.0000 </r>
       <r>   -1.1599    1.0000 </r>
       <r>   -1.1596    1.0000 </r>
       <r>   -1.1596    1.0000 </r>
       <r>   -1.1594    1.0000 </r>
       <r>   -1.1588    1.0000 </r>
       <r>   -1.1580    1.0000 </r>
       <r>   -1.1558    1.0000 </r>
       <r>   -1.0833    1.0000 </r>
       <r>   -1.0831    1.0000 </r>
       <r>   -0.9480    1.0000 </r>
       <r>   -0.9471    1.0000 </r>
       <r>   -0.9470    1.0000 </r>
       <r>   -0.9469    1.0000 </r>
       <r>   -0.9469    1.0000 </r>
       <r>   -0.9469    1.0000 </r>
       <r>   -0.9468    1.0000 </r>
       <r>   -0.9455    1.0000 </r>
       <r>   -0.9375    1.0000 </r>
       <r>   -0.9339    1.0000 </r>
       <r>   -0.9325    1.0000 </r>
       <r>   -0.9325    1.0000 </r>
       <r>   -0.9322    1.0000 </r>
       <r>   -0.9316    1.0000 </r>
       <r>   -0.9305    1.0000 </r>
       <r>   -0.9267    1.0000 </r>
       <r>   -0.7684    1.0000 </r>
       <r>   -0.7683    1.0000 </r>
       <r>   -0.7681    1.0000 </r>
       <r>   -0.7678    1.0000 </r>
       <r>    5.0223    0.0000 </r>
       <r>    5.0224    0.0000 </r>
       <r>    6.7088    0.0000 </r>
       <r>    6.7163    0.0000 </r>
       <r>    6.7173    0.0000 </r>
       <r>    6.7183    0.0000 </r>
       <r>    6.7184    0.0000 </r>
       <r>    6.7184    0.0000 </r>
       <r>    6.7203    0.0000 </r>
       <r>    6.7269    0.0000 </r>
       <r>    6.8392    0.0000 </r>
       <r>    6.8403    0.0000 </r>
       <r>    6.8417    0.0000 </r>
       <r>    6.8428    0.0000 </r>
       <r>    6.8436    0.0000 </r>
       <r>    6.8448    0.0000 </r>
       <r>    6.8464    0.0000 </r>
       <r>    6.8477    0.0000 </r>
       <r>    6.9711    0.0000 </r>
       <r>    6.9712    0.0000 </r>
       <r>    7.3625    0.0000 </r>
       <r>    7.3625    0.0000 </r>
       <r>    7.3626    0.0000 </r>
       <r>    7.3627    0.0000 </r>
       <r>    7.4802    0.0000 </r>
       <r>    7.4803    0.0000 </r>
       <r>    7.7145    0.0000 </r>
       <r>    7.7146    0.0000 </r>
       <r>    7.7146    0.0000 </r>
       <r>    7.7146    0.0000 </r>
       <r>    8.2590    0.0000 </r>
       <r>    8.2642    0.0000 </r>
       <r>    8.2643    0.0000 </r>
       <r>    8.2657    0.0000 </r>
       <r>    8.2660    0.0000 </r>
       <r>    8.2666    0.0000 </r>
       <r>    8.2676    0.0000 </r>
       <r>    8.2737    0.0000 </r>
       <r>    8.5280    0.0000 </r>
       <r>    8.5309    0.0000 </r>
       <r>    8.5340    0.0000 </r>
       <r>    8.5360    0.0000 </r>
       <r>    8.5370    0.0000 </r>
       <r>    8.5373    0.0000 </r>
       <r>    8.5380    0.0000 </r>
       <r>    8.5382    0.0000 </r>
       <r>    8.5385    0.0000 </r>
       <r>    8.5394    0.0000 </r>
       <r>    8.5396    0.0000 </r>
       <r>    8.5398    0.0000 </r>
       <r>    8.5417    0.0000 </r>
       <r>    8.5428    0.0000 </r>
       <r>    8.5463    0.0000 </r>
       <r>    8.5484    0.0000 </r>
       <r>    8.9408    0.0000 </r>
       <r>    8.9484    0.0000 </r>
       <r>    8.9503    0.0000 </r>
       <r>    8.9506    0.0000 </r>
       <r>    8.9509    0.0000 </r>
       <r>    8.9517    0.0000 </r>
       <r>    8.9518    0.0000 </r>
       <r>    8.9627    0.0000 </r>
       <r>    9.4892    0.0000 </r>
       <r>    9.5116    0.0000 </r>
      </set>
      <set comment="kpoint 4">
       <r>  -21.3084    1.0000 </r>
       <r>  -21.3083    1.0000 </r>
       <r>  -21.3078    1.0000 </r>
       <r>  -21.3005    1.0000 </r>
       <r>  -21.2997    1.0000 </r>
       <r>  -21.2986    1.0000 </r>
       <r>  -21.2984    1.0000 </r>
       <r>  -21.2976    1.0000 </r>
       <r>  -21.2976    1.0000 </r>
       <r>  -21.2976    1.0000 </r>
       <r>  -21.2969    1.0000 </r>
       <r>  -21.2932    1.0000 </r>
       <r>  -21.2931    1.0000 </r>
       <r>  -21.2922    1.0000 </r>
       <r>  -21.2919    1.0000 </r>
       <r>  -21.2919    1.0000 </r>
       <r>  -21.2917    1.0000 </r>
       <r>  -21.2916    1.0000 </r>
       <r>  -21.2912    1.0000 </r>
       <r>  -21.2911    1.0000 </r>
       <r>  -21.2909    1.0000 </r>
       <r>  -21.2904    1.0000 </r>
       <r>  -21.2888    1.0000 </r>
       <r>  -21.2885    1.0000 </r>
       <r>  -21.2884    1.0000 </r>
       <r>  -21.2881    1.0000 </r>
       <r>  -21.2880    1.0000 </r>
       <r>  -21.2878    1.0000 </r>
       <r>  -21.2869    1.0000 </r>
       <r>  -21.2868    1.0000 </r>
       <r>  -21.2864    1.0000 </r>
       <r>  -21.2858    1.0000 </r>
[...]
      </set>
     </set>
    </set>
   </array>
  </eigenvalues>
  <separator name="orbital magnetization" >
   <v name="MAGDIPOLOUT">      0.00000000      0.00000000      0.00000000</v>
  </separator>
  <dos>
   <i name="efermi">     -0.55908948 </i>
   <total>
    <array>
     <dimension dim="1">gridpoints</dimension>
     <dimension dim="2">spin</dimension>
     <field>energy</field>
     <field>total</field>
     <field>integrated</field>
     <set>
      <set comment="spin 1">
       <r>   -22.8502     0.0000     0.0000 </r>
       <r>   -22.7372     0.0000     0.0000 </r>
       <r>   -22.6242     0.0000     0.0000 </r>
       <r>   -22.5112     0.0000     0.0000 </r>
       <r>   -22.3982     0.0000     0.0000 </r>
       <r>   -22.2852     0.0000     0.0000 </r>
       <r>   -22.1722     0.0000     0.0000 </r>
       <r>   -22.0592     0.0000     0.0000 </r>
       <r>   -21.9462     0.0000     0.0000 </r>
       <r>   -21.8332     0.0000     0.0000 </r>
       <r>   -21.7202     0.0000     0.0000 </r>
       <r>   -21.6071     0.0000     0.0000 </r>
       <r>   -21.4941     0.0000     0.0000 </r>
       <r>   -21.3811     0.0000     0.0000 </r>
       <r>   -21.2681  1302.9717   147.2484 </r>
       <r>   -21.1551   395.9979   192.0000 </r>
       <r>   -21.0421     0.0000   192.0000 </r>
       <r>   -20.9291     0.0000   192.0000 </r>
       <r>   -20.8161     0.0000   192.0000 </r>
       <r>   -20.7031     0.0000   192.0000 </r>
       <r>   -20.5901     0.0000   192.0000 </r>
       <r>   -20.4770     0.0000   192.0000 </r>
       <r>   -20.3640     0.0000   192.0000 </r>
       <r>   -20.2510     0.0000   192.0000 </r>
       <r>   -20.1380     0.0000   192.0000 </r>
       <r>   -20.0250     0.0000   192.0000 </r>
       <r>   -19.9120     0.0000   192.0000 </r>
       <r>   -19.7990     0.0000   192.0000 </r>
       <r>   -19.6860     0.0000   192.0000 </r>
       <r>   -19.5730     0.0000   192.0000 </r>
       <r>   -19.4600     0.0000   192.0000 </r>
       <r>   -19.3469     0.0000   192.0000 </r>
       <r>   -19.2339     0.0000   192.0000 </r>
       <r>   -19.1209     0.0000   192.0000 </r>
       <r>   -19.0079     0.0000   192.0000 </r>
       <r>   -18.8949     0.0000   192.0000 </r>
       <r>   -18.7819     0.0000   192.0000 </r>
       <r>   -18.6689     0.0000   192.0000 </r>
       <r>   -18.5559     0.0000   192.0000 </r>
       <r>   -18.4429     0.0000   192.0000 </r>
       <r>   -18.3299     0.0000   192.0000 </r>
       <r>   -18.2169     0.0000   192.0000 </r>
       <r>   -18.1038     0.0000   192.0000 </r>
       <r>   -17.9908     0.0000   192.0000 </r>
       <r>   -17.8778     0.0000   192.0000 </r>
       <r>   -17.7648     0.0000   192.0000 </r>
       <r>   -17.6518     0.0000   192.0000 </r>
       <r>   -17.5388     0.0000   192.0000 </r>
       <r>   -17.4258     0.0000   192.0000 </r>
       <r>   -17.3128     0.0000   192.0000 </r>
       <r>   -17.1998     0.0000   192.0000 </r>
       <r>   -17.0868     0.0000   192.0000 </r>
       <r>   -16.9737     0.0000   192.0000 </r>
       <r>   -16.8607     0.0000   192.0000 </r>
       <r>   -16.7477     0.0000   192.0000 </r>
       <r>   -16.6347     0.0000   192.0000 </r>
       <r>   -16.5217     0.0000   192.0000 </r>
       <r>   -16.4087     0.0000   192.0000 </r>
       <r>   -16.2957     0.0000   192.0000 </r>
       <r>   -16.1827     0.0000   192.0000 </r>
       <r>   -16.0697     0.0000   192.0000 </r>
       <r>   -15.9567     0.0000   192.0000 </r>
       <r>   -15.8436     0.0000   192.0000 </r>
       <r>   -15.7306     0.0000   192.0000 </r>
       <r>   -15.6176     0.0000   192.0000 </r>
       <r>   -15.5046     0.0000   192.0000 </r>
       <r>   -15.3916     0.0000   192.0000 </r>
       <r>   -15.2786     0.0000   192.0000 </r>
       <r>   -15.1656     0.0000   192.0000 </r>
       <r>   -15.0526     0.0000   192.0000 </r>
       <r>   -14.9396     0.0000   192.0000 </r>
       <r>   -14.8266     0.0000   192.0000 </r>
       <r>   -14.7136     0.0000   192.0000 </r>
       <r>   -14.6005     0.0000   192.0000 </r>
       <r>   -14.4875     0.0000   192.0000 </r>
       <r>   -14.3745     0.0000   192.0000 </r>
       <r>   -14.2615     0.0000   192.0000 </r>
       <r>   -14.1485     0.0000   192.0000 </r>
       <r>   -14.0355     0.0000   192.0000 </r>
       <r>   -13.9225     0.0000   192.0000 </r>
       <r>   -13.8095     0.0000   192.0000 </r>
       <r>   -13.6965     0.0000   192.0000 </r>
       <r>   -13.5835     0.0000   192.0000 </r>
       <r>   -13.4704     0.0000   192.0000 </r>
       <r>   -13.3574     1.1461   192.1295 </r>
       <r>   -13.2444    19.3889   194.3206 </r>
       <r>   -13.1314    48.5084   199.8028 </r>
       <r>   -13.0184   125.7812   214.0176 </r>
       <r>   -12.9054   366.3157   255.4156 </r>
       <r>   -12.7924     5.1641   256.0000 </r>
       <r>   -12.6794     0.0000   256.0000 </r>
       <r>   -12.5664     0.0000   256.0000 </r>
       <r>   -12.4534     0.0000   256.0000 </r>
       <r>   -12.3403     0.0000   256.0000 </r>
       <r>   -12.2273     0.0000   256.0000 </r>
       <r>   -12.1143     0.0000   256.0000 </r>
       <r>   -12.0013     0.0000   256.0000 </r>
       <r>   -11.8883     0.0000   256.0000 </r>
       <r>   -11.7753     0.0000   256.0000 </r>
       <r>   -11.6623     0.0000   256.0000 </r>
       <r>   -11.5493     0.0000   256.0000 </r>
       <r>   -11.4363     0.0000   256.0000 </r>
       <r>   -11.3233     0.0000   256.0000 </r>
       <r>   -11.2103     0.0000   256.0000 </r>
       <r>   -11.0972     0.0000   256.0000 </r>
       <r>   -10.9842     0.0000   256.0000 </r>
       <r>   -10.8712     0.0000   256.0000 </r>
       <r>   -10.7582     0.0000   256.0000 </r>
       <r>   -10.6452     0.0000   256.0000 </r>
       <r>   -10.5322     0.0000   256.0000 </r>
       <r>   -10.4192     0.0000   256.0000 </r>
       <r>   -10.3062     0.0000   256.0000 </r>
       <r>   -10.1932     0.0000   256.0000 </r>
       <r>   -10.0802     0.0000   256.0000 </r>
       <r>    -9.9671     0.0000   256.0000 </r>
       <r>    -9.8541     0.0000   256.0000 </r>
       <r>    -9.7411     0.0000   256.0000 </r>
       <r>    -9.6281     0.0000   256.0000 </r>
       <r>    -9.5151     0.0000   256.0000 </r>
       <r>    -9.4021     0.0000   256.0000 </r>
       <r>    -9.2891     0.0000   256.0000 </r>
       <r>    -9.1761     0.0000   256.0000 </r>
       <r>    -9.0631     0.0000   256.0000 </r>
       <r>    -8.9501     0.0000   256.0000 </r>
       <r>    -8.8370     0.0000   256.0000 </r>
       <r>    -8.7240     0.0000   256.0000 </r>
       <r>    -8.6110     0.0000   256.0000 </r>
       <r>    -8.4980     0.0000   256.0000 </r>
       <r>    -8.3850     0.0000   256.0000 </r>
       <r>    -8.2720     0.0000   256.0000 </r>
       <r>    -8.1590     0.0000   256.0000 </r>
       <r>    -8.0460     0.0000   256.0000 </r>
       <r>    -7.9330     0.0000   256.0000 </r>
       <r>    -7.8200     0.0000   256.0000 </r>
       <r>    -7.7070     0.0000   256.0000 </r>
       <r>    -7.5939     0.0000   256.0000 </r>
       <r>    -7.4809     0.0000   256.0000 </r>
       <r>    -7.3679     0.0000   256.0000 </r>
       <r>    -7.2549     0.0000   256.0000 </r>
       <r>    -7.1419     0.0000   256.0000 </r>
       <r>    -7.0289     0.0000   256.0000 </r>
       <r>    -6.9159     0.0000   256.0000 </r>
       <r>    -6.8029     0.0000   256.0000 </r>
       <r>    -6.6899     0.0000   256.0000 </r>
       <r>    -6.5769     0.0000   256.0000 </r>
       <r>    -6.4638     0.0000   256.0000 </r>
       <r>    -6.3508     0.0000   256.0000 </r>
       <r>    -6.2378     0.0000   256.0000 </r>
       <r>    -6.1248     0.0000   256.0000 </r>
       <r>    -6.0118     0.0000   256.0000 </r>
       <r>    -5.8988     0.0000   256.0000 </r>
       <r>    -5.7858     0.0000   256.0000 </r>
       <r>    -5.6728     0.0000   256.0000 </r>
       <r>    -5.5598     0.0000   256.0000 </r>
       <r>    -5.4468     0.0000   256.0000 </r>
       <r>    -5.3337     0.0000   256.0000 </r>
       <r>    -5.2207     0.0000   256.0000 </r>
       <r>    -5.1077     0.0000   256.0000 </r>
       <r>    -4.9947     0.0000   256.0000 </r>
       <r>    -4.8817     0.0000   256.0000 </r>
       <r>    -4.7687     0.0000   256.0000 </r>
       <r>    -4.6557     0.0000   256.0000 </r>
       <r>    -4.5427     0.0000   256.0000 </r>
       <r>    -4.4297     0.0000   256.0000 </r>
       <r>    -4.3167     0.0000   256.0000 </r>
       <r>    -4.2037     0.0000   256.0000 </r>
       <r>    -4.0906     0.0000   256.0000 </r>
       <r>    -3.9776     0.0000   256.0000 </r>
       <r>    -3.8646     0.0000   256.0000 </r>
       <r>    -3.7516     0.0000   256.0000 </r>
       <r>    -3.6386     0.0000   256.0000 </r>
       <r>    -3.5256     0.0000   256.0000 </r>
       <r>    -3.4126     0.0000   256.0000 </r>
       <r>    -3.2996     0.0000   256.0000 </r>
       <r>    -3.1866     0.0000   256.0000 </r>
       <r>    -3.0736     0.0000   256.0000 </r>
       <r>    -2.9605     0.0000   256.0000 </r>
       <r>    -2.8475     0.0000   256.0000 </r>
       <r>    -2.7345     0.0648   256.0073 </r>
       <r>    -2.6215     8.7840   257.0000 </r>
       <r>    -2.5085    20.5147   259.3184 </r>
       <r>    -2.3955    86.3352   269.0751 </r>
       <r>    -2.2825    80.6249   278.1865 </r>
       <r>    -2.1695   156.1379   295.8321 </r>
       <r>    -2.0565    74.4883   304.2500 </r>
       <r>    -1.9435    55.5225   310.5246 </r>
       <r>    -1.8304    59.0014   317.1923 </r>
       <r>    -1.7174    75.7252   325.7500 </r>
       <r>    -1.6044     0.0000   325.7500 </r>
       <r>    -1.4914    60.8134   332.6225 </r>
       <r>    -1.3784   203.8242   355.6566 </r>
       <r>    -1.2654    27.3142   358.7434 </r>
       <r>    -1.1524   247.1042   386.6685 </r>
       <r>    -1.0394   141.5685   402.6672 </r>
       <r>    -0.9264   253.6057   431.3271 </r>
       <r>    -0.8134    66.8357   438.8813 </r>
       <r>    -0.7004    74.0016   447.2442 </r>
       <r>    -0.5873     6.6880   448.0000 </r>
       <r>    -0.4743     0.0000   448.0000 </r>
       <r>    -0.3613     0.0000   448.0000 </r>
       <r>    -0.2483     0.0000   448.0000 </r>
       <r>    -0.1353     0.0000   448.0000 </r>
       <r>    -0.0223     0.0000   448.0000 </r>
       <r>     0.0907     0.0000   448.0000 </r>
       <r>     0.2037     0.0000   448.0000 </r>
       <r>     0.3167     0.0000   448.0000 </r>
       <r>     0.4297     0.0000   448.0000 </r>
       <r>     0.5428     0.0000   448.0000 </r>
       <r>     0.6558     0.0000   448.0000 </r>
       <r>     0.7688     0.0000   448.0000 </r>
       <r>     0.8818     0.0000   448.0000 </r>
       <r>     0.9948     0.0000   448.0000 </r>
       <r>     1.1078     0.0000   448.0000 </r>
       <r>     1.2208     0.0000   448.0000 </r>
       <r>     1.3338     0.0000   448.0000 </r>
       <r>     1.4468     0.0000   448.0000 </r>
       <r>     1.5598     0.0000   448.0000 </r>
       <r>     1.6729     0.0000   448.0000 </r>
       <r>     1.7859     0.0000   448.0000 </r>
       <r>     1.8989     0.0000   448.0000 </r>
       <r>     2.0119     0.0000   448.0000 </r>
       <r>     2.1249     0.0000   448.0000 </r>
       <r>     2.2379     0.0000   448.0000 </r>
       <r>     2.3509     0.0000   448.0000 </r>
       <r>     2.4639     0.0000   448.0000 </r>
       <r>     2.5769     0.0000   448.0000 </r>
       <r>     2.6899     0.0000   448.0000 </r>
       <r>     2.8029     0.0000   448.0000 </r>
       <r>     2.9160     0.0000   448.0000 </r>
       <r>     3.0290     0.0000   448.0000 </r>
       <r>     3.1420     0.0000   448.0000 </r>
       <r>     3.2550     0.0000   448.0000 </r>
       <r>     3.3680     0.0000   448.0000 </r>
       <r>     3.4810     0.0000   448.0000 </r>
       <r>     3.5940     0.0000   448.0000 </r>
       <r>     3.7070     0.0000   448.0000 </r>
       <r>     3.8200     0.0000   448.0000 </r>
       <r>     3.9330     0.0000   448.0000 </r>
       <r>     4.0461     0.0000   448.0000 </r>
       <r>     4.1591     0.0000   448.0000 </r>
       <r>     4.2721     0.0000   448.0000 </r>
       <r>     4.3851     2.2105   448.2498 </r>
       <r>     4.4981     0.0017   448.2500 </r>
       <r>     4.6111     0.0000   448.2500 </r>
       <r>     4.7241     0.0000   448.2500 </r>
       <r>     4.8371     0.0000   448.2500 </r>
       <r>     4.9501     0.0000   448.2500 </r>
       <r>     5.0631    13.2441   449.7467 </r>
       <r>     5.1762     0.0291   449.7500 </r>
       <r>     5.2892     0.0000   449.7500 </r>
       <r>     5.4022     0.0000   449.7500 </r>
       <r>     5.5152     1.3026   449.8972 </r>
       <r>     5.6282    25.2438   452.7500 </r>
       <r>     5.7412     0.0000   452.7500 </r>
       <r>     5.8542    16.5339   454.6185 </r>
       <r>     5.9672     1.1637   454.7500 </r>
       <r>     6.0802     0.0000   454.7500 </r>
       <r>     6.1932     0.0000   454.7500 </r>
       <r>     6.3062     0.0002   454.7500 </r>
       <r>     6.4193    13.5869   456.2855 </r>
       <r>     6.5323     8.5336   457.2500 </r>
       <r>     6.6453    35.3085   461.2402 </r>
       <r>     6.7583    70.6856   469.2284 </r>
       <r>     6.8713    58.4765   475.8370 </r>
       <r>     6.9843    12.3453   477.2321 </r>
       <r>     7.0973     2.3705   477.5000 </r>
       <r>     7.2103     3.9696   477.9486 </r>
       <r>     7.3233     2.7551   478.2600 </r>
       <r>     7.4363    80.1563   487.3184 </r>
       <r>     7.5494   166.0161   506.0799 </r>
       <r>     7.6624     5.9333   506.7504 </r>
       <r>     7.7754    26.5423   509.7500 </r>
       <r>     7.8884     0.0522   509.7559 </r>
       <r>     8.0014    53.0404   515.7500 </r>
       <r>     8.1144     0.0014   515.7502 </r>
       <r>     8.2274    13.5246   517.2786 </r>
       <r>     8.3404    92.6163   527.7451 </r>
       <r>     8.4534     0.0428   527.7500 </r>
       <r>     8.5664   140.6055   543.6398 </r>
       <r>     8.6795    18.6729   545.7500 </r>
       <r>     8.7925     0.0000   545.7500 </r>
       <r>     8.9055    73.8234   554.0928 </r>
       <r>     9.0185   127.9932   568.5572 </r>
       <r>     9.1315     8.3422   569.5000 </r>
       <r>     9.2445    17.4661   571.4738 </r>
       <r>     9.3575    26.7779   574.5000 </r>
       <r>     9.4705     0.9151   574.6034 </r>
       <r>     9.5835    12.3581   576.0000 </r>
       <r>     9.6965     0.0000   576.0000 </r>
       <r>     9.8095     0.0000   576.0000 </r>
       <r>     9.9226     0.0000   576.0000 </r>
       <r>    10.0356     0.0000   576.0000 </r>
       <r>    10.1486     0.0000   576.0000 </r>
       <r>    10.2616     0.0000   576.0000 </r>
       <r>    10.3746     0.0000   576.0000 </r>
       <r>    10.4876     0.0000   576.0000 </r>
       <r>    10.6006     0.0000   576.0000 </r>
       <r>    10.7136     0.0000   576.0000 </r>
       <r>    10.8266     0.0000   576.0000 </r>
       <r>    10.9396     0.0000   576.0000 </r>
       <r>    11.0527     0.0000   576.0000 </r>
      </set>
     </set>
    </array>
   </total>
  </dos>
 </calculation>
 <structure name="finalpos" >
  <crystal>
   <varray name="basis" >
    <v>      11.20400236       0.00000000       0.00000000 </v>
    <v>       0.00000000      11.20400236       0.00000000 </v>
    <v>       0.00000000       0.00000000      11.20400236 </v>
   </varray>
   <i name="volume">   1406.43470641 </i>
   <varray name="rec_basis" >
    <v>       0.08925382       0.00000000       0.00000000 </v>
    <v>       0.00000000       0.08925382       0.00000000 </v>
    <v>       0.00000000       0.00000000       0.08925382 </v>
   </varray>
  </crystal>
  <varray name="positions" >
   <v>       0.00267761       0.00000000       0.00000000 </v>
   <v>       0.25000000       0.25000000       0.00000000 </v>
   <v>       0.25000000       0.00000000       0.25000000 </v>
   <v>       0.00000000       0.25000000       0.25000000 </v>
   <v>       0.00000000       0.00000000       0.50000000 </v>
   <v>       0.25000000       0.25000000       0.50000000 </v>
   <v>       0.25000000       0.00000000       0.75000000 </v>
   <v>       0.00000000       0.25000000       0.75000000 </v>
   <v>       0.00000000       0.50000000       0.00000000 </v>
   <v>       0.25000000       0.75000000       0.00000000 </v>
   <v>       0.25000000       0.50000000       0.25000000 </v>
   <v>       0.00000000       0.75000000       0.25000000 </v>
   <v>       0.00000000       0.50000000       0.50000000 </v>
   <v>       0.25000000       0.75000000       0.50000000 </v>
   <v>       0.25000000       0.50000000       0.75000000 </v>
   <v>       0.00000000       0.75000000       0.75000000 </v>
   <v>       0.50000000       0.00000000       0.00000000 </v>
   <v>       0.75000000       0.25000000       0.00000000 </v>
   <v>       0.75000000       0.00000000       0.25000000 </v>
   <v>       0.50000000       0.25000000       0.25000000 </v>
   <v>       0.50000000       0.00000000       0.50000000 </v>
   <v>       0.75000000       0.25000000       0.50000000 </v>
   <v>       0.75000000       0.00000000       0.75000000 </v>
   <v>       0.50000000       0.25000000       0.75000000 </v>
   <v>       0.50000000       0.50000000       0.00000000 </v>
   <v>       0.75000000       0.75000000       0.00000000 </v>
   <v>       0.75000000       0.50000000       0.25000000 </v>
   <v>       0.50000000       0.75000000       0.25000000 </v>
   <v>       0.50000000       0.50000000       0.50000000 </v>
   <v>       0.75000000       0.75000000       0.50000000 </v>
   <v>       0.75000000       0.50000000       0.75000000 </v>
   <v>       0.50000000       0.75000000       0.75000000 </v>
   <v>       0.25000000       0.25000000       0.25000000 </v>
   <v>       0.00000000       0.00000000       0.24732239 </v>
   <v>       0.00000000       0.25000000       0.00000000 </v>
   <v>       0.25000000       0.00000000       0.00000000 </v>
   <v>       0.25000000       0.25000000       0.75000000 </v>
   <v>       0.00000000       0.00000000       0.75000000 </v>
   <v>       0.00000000       0.25000000       0.50000000 </v>
   <v>       0.25000000       0.00000000       0.50000000 </v>
   <v>       0.25000000       0.75000000       0.25000000 </v>
   <v>       0.00000000       0.50000000       0.25000000 </v>
   <v>       0.00000000       0.75000000       0.00000000 </v>
   <v>       0.25000000       0.50000000       0.00000000 </v>
   <v>       0.25000000       0.75000000       0.75000000 </v>
   <v>       0.00000000       0.50000000       0.75000000 </v>
   <v>       0.00000000       0.75000000       0.50000000 </v>
   <v>       0.25000000       0.50000000       0.50000000 </v>
   <v>       0.75000000       0.25000000       0.25000000 </v>
   <v>       0.50000000       0.00000000       0.25000000 </v>
   <v>       0.50000000       0.25000000       0.00000000 </v>
   <v>       0.75000000       0.00000000       0.00000000 </v>
   <v>       0.75000000       0.25000000       0.75000000 </v>
   <v>       0.50000000       0.00000000       0.75000000 </v>
   <v>       0.50000000       0.25000000       0.50000000 </v>
   <v>       0.75000000       0.00000000       0.50000000 </v>
   <v>       0.75000000       0.75000000       0.25000000 </v>
   <v>       0.50000000       0.50000000       0.25000000 </v>
   <v>       0.50000000       0.75000000       0.00000000 </v>
   <v>       0.75000000       0.50000000       0.00000000 </v>
   <v>       0.75000000       0.75000000       0.75000000 </v>
   <v>       0.50000000       0.50000000       0.75000000 </v>
   <v>       0.50000000       0.75000000       0.50000000 </v>
   <v>       0.75000000       0.50000000       0.50000000 </v>
  </varray>
 </structure>
</modeling>
