  64  64   0   0
  0.2197554E+02  0.1120400E-08  0.1120400E-08  0.1120400E-08  0.5000000E-15
  1.000000000000000E-004
  CAR 
 unknown system                          
     11.05250844    -22.85067230  301     -0.55933096      1.00000000
    -22.851  0.0000E+00  0.0000E+00
    -22.738  0.0000E+00  0.0000E+00
    -22.625  0.0000E+00  0.0000E+00
    -22.512  0.0000E+00  0.0000E+00
    -22.399  0.0000E+00  0.0000E+00
    -22.286  0.0000E+00  0.0000E+00
    -22.173  0.0000E+00  0.0000E+00
    -22.060  0.0000E+00  0.0000E+00
    -21.947  0.0000E+00  0.0000E+00
    -21.834  0.0000E+00  0.0000E+00
    -21.721  0.0000E+00  0.0000E+00
    -21.608  0.0000E+00  0.0000E+00
    -21.495  0.0000E+00  0.0000E+00
    -21.382  0.7484E-05  0.8457E-06
    -21.269  0.1281E+04  0.1447E+03
    -21.156  0.4184E+03  0.1920E+03
    -21.043  0.0000E+00  0.1920E+03
    -20.929  0.0000E+00  0.1920E+03
    -20.816  0.0000E+00  0.1920E+03
    -20.703  0.0000E+00  0.1920E+03
    -20.590  0.0000E+00  0.1920E+03
    -20.477  0.0000E+00  0.1920E+03
    -20.364  0.0000E+00  0.1920E+03
    -20.251  0.0000E+00  0.1920E+03
    -20.138  0.0000E+00  0.1920E+03
    -20.025  0.0000E+00  0.1920E+03
    -19.912  0.0000E+00  0.1920E+03
    -19.799  0.0000E+00  0.1920E+03
    -19.686  0.0000E+00  0.1920E+03
    -19.573  0.0000E+00  0.1920E+03
    -19.460  0.0000E+00  0.1920E+03
    -19.347  0.0000E+00  0.1920E+03
    -19.234  0.0000E+00  0.1920E+03
    -19.121  0.0000E+00  0.1920E+03
    -19.008  0.0000E+00  0.1920E+03
    -18.895  0.0000E+00  0.1920E+03
    -18.782  0.0000E+00  0.1920E+03
    -18.669  0.0000E+00  0.1920E+03
    -18.556  0.0000E+00  0.1920E+03
    -18.443  0.0000E+00  0.1920E+03
    -18.330  0.0000E+00  0.1920E+03
    -18.217  0.0000E+00  0.1920E+03
    -18.104  0.0000E+00  0.1920E+03
    -17.991  0.0000E+00  0.1920E+03
    -17.878  0.0000E+00  0.1920E+03
    -17.765  0.0000E+00  0.1920E+03
    -17.652  0.0000E+00  0.1920E+03
    -17.539  0.0000E+00  0.1920E+03
    -17.426  0.0000E+00  0.1920E+03
    -17.313  0.0000E+00  0.1920E+03
    -17.200  0.0000E+00  0.1920E+03
    -17.087  0.0000E+00  0.1920E+03
    -16.974  0.0000E+00  0.1920E+03
    -16.861  0.0000E+00  0.1920E+03
    -16.748  0.0000E+00  0.1920E+03
    -16.635  0.0000E+00  0.1920E+03
    -16.522  0.0000E+00  0.1920E+03
    -16.409  0.0000E+00  0.1920E+03
    -16.296  0.0000E+00  0.1920E+03
    -16.183  0.0000E+00  0.1920E+03
    -16.070  0.0000E+00  0.1920E+03
    -15.957  0.0000E+00  0.1920E+03
    -15.844  0.0000E+00  0.1920E+03
    -15.731  0.0000E+00  0.1920E+03
    -15.618  0.0000E+00  0.1920E+03
    -15.505  0.0000E+00  0.1920E+03
    -15.392  0.0000E+00  0.1920E+03
    -15.279  0.0000E+00  0.1920E+03
    -15.166  0.0000E+00  0.1920E+03
    -15.053  0.0000E+00  0.1920E+03
    -14.940  0.0000E+00  0.1920E+03
    -14.827  0.0000E+00  0.1920E+03
    -14.714  0.0000E+00  0.1920E+03
    -14.601  0.0000E+00  0.1920E+03
    -14.488  0.0000E+00  0.1920E+03
    -14.375  0.0000E+00  0.1920E+03
    -14.262  0.0000E+00  0.1920E+03
    -14.149  0.0000E+00  0.1920E+03
    -14.036  0.0000E+00  0.1920E+03
    -13.923  0.0000E+00  0.1920E+03
    -13.810  0.0000E+00  0.1920E+03
    -13.697  0.0000E+00  0.1920E+03
    -13.584  0.0000E+00  0.1920E+03
    -13.471  0.1596E-14  0.1920E+03
    -13.358  0.1118E+01  0.1921E+03
    -13.245  0.1914E+02  0.1943E+03
    -13.132  0.4855E+02  0.1998E+03
    -13.019  0.1251E+03  0.2139E+03
    -12.906  0.3679E+03  0.2555E+03
    -12.793  0.4548E+01  0.2560E+03
    -12.680  0.0000E+00  0.2560E+03
    -12.567  0.0000E+00  0.2560E+03
    -12.454  0.0000E+00  0.2560E+03
    -12.341  0.0000E+00  0.2560E+03
    -12.228  0.0000E+00  0.2560E+03
    -12.115  0.0000E+00  0.2560E+03
    -12.002  0.0000E+00  0.2560E+03
    -11.889  0.0000E+00  0.2560E+03
    -11.776  0.0000E+00  0.2560E+03
    -11.663  0.0000E+00  0.2560E+03
    -11.550  0.0000E+00  0.2560E+03
    -11.437  0.0000E+00  0.2560E+03
    -11.324  0.0000E+00  0.2560E+03
    -11.211  0.0000E+00  0.2560E+03
    -11.098  0.0000E+00  0.2560E+03
    -10.985  0.0000E+00  0.2560E+03
    -10.872  0.0000E+00  0.2560E+03
    -10.759  0.0000E+00  0.2560E+03
    -10.646  0.0000E+00  0.2560E+03
    -10.533  0.0000E+00  0.2560E+03
    -10.420  0.0000E+00  0.2560E+03
    -10.306  0.0000E+00  0.2560E+03
    -10.193  0.0000E+00  0.2560E+03
    -10.080  0.0000E+00  0.2560E+03
     -9.967  0.0000E+00  0.2560E+03
     -9.854  0.0000E+00  0.2560E+03
     -9.741  0.0000E+00  0.2560E+03
     -9.628  0.0000E+00  0.2560E+03
     -9.515  0.0000E+00  0.2560E+03
     -9.402  0.0000E+00  0.2560E+03
     -9.289  0.0000E+00  0.2560E+03
     -9.176  0.0000E+00  0.2560E+03
     -9.063  0.0000E+00  0.2560E+03
     -8.950  0.0000E+00  0.2560E+03
     -8.837  0.0000E+00  0.2560E+03
     -8.724  0.0000E+00  0.2560E+03
     -8.611  0.0000E+00  0.2560E+03
     -8.498  0.0000E+00  0.2560E+03
     -8.385  0.0000E+00  0.2560E+03
     -8.272  0.0000E+00  0.2560E+03
     -8.159  0.0000E+00  0.2560E+03
     -8.046  0.0000E+00  0.2560E+03
     -7.933  0.0000E+00  0.2560E+03
     -7.820  0.0000E+00  0.2560E+03
     -7.707  0.0000E+00  0.2560E+03
     -7.594  0.0000E+00  0.2560E+03
     -7.481  0.0000E+00  0.2560E+03
     -7.368  0.0000E+00  0.2560E+03
     -7.255  0.0000E+00  0.2560E+03
     -7.142  0.0000E+00  0.2560E+03
     -7.029  0.0000E+00  0.2560E+03
     -6.916  0.0000E+00  0.2560E+03
     -6.803  0.0000E+00  0.2560E+03
     -6.690  0.0000E+00  0.2560E+03
     -6.577  0.0000E+00  0.2560E+03
     -6.464  0.0000E+00  0.2560E+03
     -6.351  0.0000E+00  0.2560E+03
     -6.238  0.0000E+00  0.2560E+03
     -6.125  0.0000E+00  0.2560E+03
     -6.012  0.0000E+00  0.2560E+03
     -5.899  0.0000E+00  0.2560E+03
     -5.786  0.0000E+00  0.2560E+03
     -5.673  0.0000E+00  0.2560E+03
     -5.560  0.0000E+00  0.2560E+03
     -5.447  0.0000E+00  0.2560E+03
     -5.334  0.0000E+00  0.2560E+03
     -5.221  0.0000E+00  0.2560E+03
     -5.108  0.0000E+00  0.2560E+03
     -4.995  0.0000E+00  0.2560E+03
     -4.882  0.0000E+00  0.2560E+03
     -4.769  0.0000E+00  0.2560E+03
     -4.656  0.0000E+00  0.2560E+03
     -4.543  0.0000E+00  0.2560E+03
     -4.430  0.0000E+00  0.2560E+03
     -4.317  0.0000E+00  0.2560E+03
     -4.204  0.0000E+00  0.2560E+03
     -4.091  0.0000E+00  0.2560E+03
     -3.978  0.0000E+00  0.2560E+03
     -3.865  0.0000E+00  0.2560E+03
     -3.752  0.0000E+00  0.2560E+03
     -3.639  0.0000E+00  0.2560E+03
     -3.526  0.0000E+00  0.2560E+03
     -3.413  0.0000E+00  0.2560E+03
     -3.300  0.0000E+00  0.2560E+03
     -3.187  0.0000E+00  0.2560E+03
     -3.074  0.0000E+00  0.2560E+03
     -2.961  0.0000E+00  0.2560E+03
     -2.848  0.0000E+00  0.2560E+03
     -2.735  0.6097E-01  0.2560E+03
     -2.622  0.8788E+01  0.2570E+03
     -2.509  0.2004E+02  0.2593E+03
     -2.396  0.8662E+02  0.2691E+03
     -2.283  0.8044E+02  0.2781E+03
     -2.170  0.1563E+03  0.2958E+03
     -2.057  0.7471E+02  0.3043E+03
     -1.944  0.5541E+02  0.3105E+03
     -1.831  0.5875E+02  0.3172E+03
     -1.718  0.7608E+02  0.3257E+03
     -1.605  0.6390E-10  0.3258E+03
     -1.492  0.5964E+02  0.3325E+03
     -1.379  0.2047E+03  0.3556E+03
     -1.266  0.2760E+02  0.3587E+03
     -1.153  0.2466E+03  0.3866E+03
     -1.040  0.1419E+03  0.4027E+03
     -0.927  0.2534E+03  0.4313E+03
     -0.814  0.6688E+02  0.4388E+03
     -0.701  0.7431E+02  0.4472E+03
     -0.588  0.6690E+01  0.4480E+03
     -0.475  0.0000E+00  0.4480E+03
     -0.362  0.0000E+00  0.4480E+03
     -0.249  0.0000E+00  0.4480E+03
     -0.136  0.0000E+00  0.4480E+03
     -0.023  0.0000E+00  0.4480E+03
      0.090  0.0000E+00  0.4480E+03
      0.203  0.0000E+00  0.4480E+03
      0.317  0.0000E+00  0.4480E+03
      0.430  0.0000E+00  0.4480E+03
      0.543  0.0000E+00  0.4480E+03
      0.656  0.0000E+00  0.4480E+03
      0.769  0.0000E+00  0.4480E+03
      0.882  0.0000E+00  0.4480E+03
      0.995  0.0000E+00  0.4480E+03
      1.108  0.0000E+00  0.4480E+03
      1.221  0.0000E+00  0.4480E+03
      1.334  0.0000E+00  0.4480E+03
      1.447  0.0000E+00  0.4480E+03
      1.560  0.0000E+00  0.4480E+03
      1.673  0.0000E+00  0.4480E+03
      1.786  0.0000E+00  0.4480E+03
      1.899  0.0000E+00  0.4480E+03
      2.012  0.0000E+00  0.4480E+03
      2.125  0.0000E+00  0.4480E+03
      2.238  0.0000E+00  0.4480E+03
      2.351  0.0000E+00  0.4480E+03
      2.464  0.0000E+00  0.4480E+03
      2.577  0.0000E+00  0.4480E+03
      2.690  0.0000E+00  0.4480E+03
      2.803  0.0000E+00  0.4480E+03
      2.916  0.0000E+00  0.4480E+03
      3.029  0.0000E+00  0.4480E+03
      3.142  0.0000E+00  0.4480E+03
      3.255  0.0000E+00  0.4480E+03
      3.368  0.0000E+00  0.4480E+03
      3.481  0.0000E+00  0.4480E+03
      3.594  0.0000E+00  0.4480E+03
      3.707  0.0000E+00  0.4480E+03
      3.820  0.0000E+00  0.4480E+03
      3.933  0.0000E+00  0.4480E+03
      4.046  0.0000E+00  0.4480E+03
      4.159  0.0000E+00  0.4480E+03
      4.272  0.1478E-05  0.4480E+03
      4.385  0.2210E+01  0.4482E+03
      4.498  0.1764E-02  0.4482E+03
      4.611  0.0000E+00  0.4482E+03
      4.724  0.0000E+00  0.4482E+03
      4.837  0.0000E+00  0.4482E+03
      4.950  0.3405E-05  0.4483E+03
      5.063  0.1324E+02  0.4497E+03
      5.176  0.3192E-01  0.4498E+03
      5.289  0.0000E+00  0.4498E+03
      5.402  0.0000E+00  0.4498E+03
      5.515  0.1363E+01  0.4499E+03
      5.628  0.2518E+02  0.4527E+03
      5.741  0.1416E-07  0.4528E+03
      5.854  0.1638E+02  0.4546E+03
      5.967  0.1319E+01  0.4548E+03
      6.080  0.0000E+00  0.4548E+03
      6.193  0.0000E+00  0.4548E+03
      6.306  0.2750E-03  0.4548E+03
      6.419  0.1357E+02  0.4563E+03
      6.532  0.8548E+01  0.4572E+03
      6.645  0.3501E+02  0.4612E+03
      6.758  0.7092E+02  0.4692E+03
      6.871  0.5835E+02  0.4758E+03
      6.984  0.1245E+02  0.4772E+03
      7.097  0.2456E+01  0.4775E+03
      7.210  0.3941E+01  0.4779E+03
      7.323  0.2788E+01  0.4783E+03
      7.436  0.8021E+02  0.4873E+03
      7.549  0.1655E+03  0.5060E+03
      7.662  0.6421E+01  0.5068E+03
      7.775  0.2654E+02  0.5097E+03
      7.888  0.5611E-01  0.5098E+03
      8.001  0.5304E+02  0.5157E+03
      8.114  0.1735E-02  0.5158E+03
      8.227  0.1357E+02  0.5173E+03
      8.340  0.9256E+02  0.5277E+03
      8.453  0.5086E-01  0.5278E+03
      8.566  0.1389E+03  0.5435E+03
      8.679  0.2033E+02  0.5457E+03
      8.792  0.1208E-06  0.5458E+03
      8.905  0.7373E+02  0.5541E+03
      9.018  0.1274E+03  0.5685E+03
      9.131  0.9006E+01  0.5695E+03
      9.244  0.1739E+02  0.5715E+03
      9.357  0.2685E+02  0.5745E+03
      9.470  0.6838E+00  0.5746E+03
      9.583  0.1259E+02  0.5760E+03
      9.696  0.0000E+00  0.5760E+03
      9.809  0.0000E+00  0.5760E+03
      9.922  0.0000E+00  0.5760E+03
     10.035  0.0000E+00  0.5760E+03
     10.148  0.0000E+00  0.5760E+03
     10.261  0.0000E+00  0.5760E+03
     10.374  0.0000E+00  0.5760E+03
     10.487  0.0000E+00  0.5760E+03
     10.600  0.0000E+00  0.5760E+03
     10.713  0.0000E+00  0.5760E+03
     10.826  0.0000E+00  0.5760E+03
     10.939  0.0000E+00  0.5760E+03
     11.053  0.0000E+00  0.5760E+03
