       N       E                     dE             d eps       ncg     rms          rms(c)
DAV:   1     0.439869546481E+04    0.43987E+04   -0.17102E+05  4864   0.125E+03
DAV:   2     0.367055690003E+03   -0.40316E+04   -0.38332E+04  5152   0.367E+02
DAV:   3    -0.204875485197E+03   -0.57193E+03   -0.56750E+03  5568   0.156E+02
DAV:   4    -0.228128468857E+03   -0.23253E+02   -0.23137E+02  5536   0.335E+01
DAV:   5    -0.229002754218E+03   -0.87429E+00   -0.87285E+00  5824   0.633E+00    0.106E+01
DAV:   6    -0.224138980599E+03    0.48638E+01   -0.94769E+00  5664   0.532E+00    0.776E+00
DAV:   7    -0.223777107698E+03    0.36187E+00   -0.20630E+00  6304   0.234E+00    0.533E+00
DAV:   8    -0.223902162751E+03   -0.12506E+00   -0.26321E-01  5312   0.124E+00    0.139E+00
DAV:   9    -0.223896815110E+03    0.53476E-02   -0.11498E-02  5664   0.262E-01    0.577E-01
DAV:  10    -0.223901015869E+03   -0.42008E-02   -0.16161E-02  5312   0.226E-01    0.256E-01
DAV:  11    -0.223900456503E+03    0.55937E-03   -0.12087E-03  6048   0.787E-02    0.844E-02
DAV:  12    -0.223900422954E+03    0.33549E-04   -0.11767E-04  5952   0.219E-02    0.218E-02
DAV:  13    -0.223900419219E+03    0.37349E-05   -0.29232E-05  5344   0.972E-03    0.380E-03
DAV:  14    -0.223900421313E+03   -0.20939E-05   -0.26528E-06  5664   0.408E-03    0.678E-03
DAV:  15    -0.223900422042E+03   -0.72952E-06   -0.30916E-07  5952   0.189E-03    0.418E-03
DAV:  16    -0.223900422561E+03   -0.51910E-06   -0.16077E-07  5664   0.101E-03    0.140E-03
DAV:  17    -0.223900422752E+03   -0.19050E-06   -0.23617E-08  4704   0.805E-04    0.186E-04
DAV:  18    -0.223900422840E+03   -0.88447E-07   -0.81744E-09  3648   0.496E-04    0.439E-04
DAV:  19    -0.223900422798E+03    0.41720E-07   -0.82012E-09  3264   0.330E-04    0.320E-04
DAV:  20    -0.223900422769E+03    0.29271E-07   -0.29472E-09  3520   0.343E-04    0.239E-04
DAV:  21    -0.223900422737E+03    0.31658E-07   -0.24241E-09  3072   0.161E-04    0.133E-04
DAV:  22    -0.223900422734E+03    0.36525E-08   -0.84750E-10  3072   0.110E-04
   1 F= -.22390042E+03 E0= -.22390042E+03  d E =-.345745E-14
