 vasp.6.3.2 27Jun22 (build Oct 14 2022 12:13:54) complex                        
  
 executed on             LinuxIFC date 2025.08.28  22:12:18
 running on   32 total cores
 distrk:  each k-point on   32 cores,    1 groups
 distr:  one band on NCORE=   1 cores,   32 groups


--------------------------------------------------------------------------------------------------------


 INCAR:
   ENCUT = 341.213600
   SIGMA = 0.020000
   EDIFF = 1.00e-08
   GGA = PS
   PREC = Accurate
   IALGO = 38
   IBRION = -1
   ISMEAR = 0
   NELMIN = 5
   ADDGRID = .TRUE.
   LCHARG = .FALSE.
   LWAVE = .FALSE.
   LREAL = .FALSE.

 POTCAR:    PAW_PBE Na_pv 19Sep2006               
 POTCAR:    PAW_PBE Cl 06Sep2000                  
 -----------------------------------------------------------------------------
|                                                                             |
|           W    W    AA    RRRRR   N    N  II  N    N   GGGG   !!!           |
|           W    W   A  A   R    R  NN   N  II  NN   N  G    G  !!!           |
|           W    W  A    A  R    R  N N  N  II  N N  N  G       !!!           |
|           W WW W  AAAAAA  RRRRR   N  N N  II  N  N N  G  GGG   !            |
|           WW  WW  A    A  R   R   N   NN  II  N   NN  G    G                |
|           W    W  A    A  R    R  N    N  II  N    N   GGGG   !!!           |
|                                                                             |
|     For optimal performance we recommend to set                             |
|       NCORE = 2 up to number-of-cores-per-socket                            |
|     NCORE specifies how many cores store one orbital (NPAR=cpu/NCORE).      |
|     This setting can greatly improve the performance of VASP for DFT.       |
|     The default, NCORE=1 might be grossly inefficient on modern             |
|     multi-core architectures or massively parallel machines. Do your        |
|     own testing! More info at https://www.vasp.at/wiki/index.php/NCORE      |
|     Unfortunately you need to use the default for GW and RPA                |
|     calculations (for HF NCORE is supported but not extensively tested      |
|     yet).                                                                   |
|                                                                             |
 -----------------------------------------------------------------------------

 POTCAR:    PAW_PBE Na_pv 19Sep2006               
   SHA256 =  6a2f546d9e11350984debacf3dc457d8cffc0868e817d445faca461816a32b94 Na_pv/POTCAR          
   COPYR  = (c) Copyright 19Sep2006 Georg Kresse                                                    
   COPYR  = This file is part of the software VASP. Any use, copying, and all other rights are regul
   COPYR  = If you do not have a valid VASP license, you may not use, copy or distribute this file. 
   VRHFIN =Na: p6s1                                                                                 
   LEXCH  = PE                                                                                      
   EATOM  =   766.0439 eV,   56.3026 Ry                                                             
                                                                                                    
   TITEL  = PAW_PBE Na_pv 19Sep2006                                                                 
   LULTRA =        F    use ultrasoft PP ?                                                          
   IUNSCR =        1    unscreen: 0-lin 1-nonlin 2-no                                               
   RPACOR =    1.800    partial core radius                                                         
   POMASS =   22.990; ZVAL   =    7.000    mass and valenz                                          
   RCORE  =    2.200    outmost cutoff radius                                                       
   RWIGS  =    2.200; RWIGS  =    1.164    wigner-seitz radius (au A)                               
   ENMAX  =  259.561; ENMIN  =  194.671 eV                                                          
   ICORE  =        2    local potential                                                             
   LCOR   =        T    correct aug charges                                                         
   LPAW   =        T    paw PP                                                                      
   EAUG   =  368.056                                                                                
   DEXC   =    0.000                                                                                
   RMAX   =    2.245    core radius for proj-oper                                                   
   RAUG   =    1.300    factor for augmentation sphere                                              
   RDEP   =    2.259    radius for radial grids                                                     
   RDEPT  =    1.738    core radius for aug-charge                                                  
                                                                                                    
   Atomic configuration                                                                             
    5 entries                                                                                       
     n  l   j            E        occ.                                                              
     1  0  0.50     -1033.6933   2.0000                                                             
     2  0  0.50       -56.7526   2.0000                                                             
     2  1  1.50       -28.6721   6.0000                                                             
     3  0  0.50        -2.7440   1.0000                                                             
     3  2  1.50        -1.3606   0.0000                                                             
   Description                                                                                      
     l       E           TYP  RCUT    TYP  RCUT                                                     
     1    -28.6720912     23  2.000                                                                 
     1      6.8029130     23  2.000                                                                 
     0     -2.7439560     23  2.200                                                                 
     0     34.0145650     23  2.200                                                                 
     2     -1.3605826     23  2.200                                                                 
  local pseudopotential read in
  partial core-charges read in
  partial kinetic energy density read in
  atomic valenz-charges read in
  non local Contribution for L=           1  read in
    real space projection operators read in
  non local Contribution for L=           1  read in
    real space projection operators read in
  non local Contribution for L=           0  read in
    real space projection operators read in
  non local Contribution for L=           0  read in
    real space projection operators read in
    PAW grid and wavefunctions read in
 
   number of l-projection  operators is LMAX  =           4
   number of lm-projection operators is LMMAX =           8
 
 POTCAR:    PAW_PBE Cl 06Sep2000                  
   SHA256 =  9f1b6e6ed4247ac726a768b330d26d7667cc3c95a39ff49c1d064c2d9dcce931 Cl/POTCAR             
   COPYR  = (c) Copyright 06Sep2000 Georg Kresse                                                    
   COPYR  = This file is part of the software VASP. Any use, copying, and all other rights are regul
   COPYR  = If you do not have a valid VASP license, you may not use, copy or distribute this file. 
   VRHFIN =Cl: s2p5                                                                                 
   LEXCH  = PE                                                                                      
   EATOM  =   409.7259 eV,   30.1140 Ry                                                             
                                                                                                    
   TITEL  = PAW_PBE Cl 06Sep2000                                                                    
   LULTRA =        F    use ultrasoft PP ?                                                          
   IUNSCR =        1    unscreen: 0-lin 1-nonlin 2-no                                               
   RPACOR =    1.500    partial core radius                                                         
   POMASS =   35.453; ZVAL   =    7.000    mass and valenz                                          
   RCORE  =    1.900    outmost cutoff radius                                                       
   RWIGS  =    2.100; RWIGS  =    1.111    wigner-seitz radius (au A)                               
   ENMAX  =  262.472; ENMIN  =  196.854 eV                                                          
   ICORE  =        2    local potential                                                             
   LCOR   =        T    correct aug charges                                                         
   LPAW   =        T    paw PP                                                                      
   EAUG   =  356.192                                                                                
   DEXC   =    0.000                                                                                
   RMAX   =    1.945    core radius for proj-oper                                                   
   RAUG   =    1.300    factor for augmentation sphere                                              
   RDEP   =    2.020    radius for radial grids                                                     
   RDEPT  =    1.678    core radius for aug-charge                                                  
                                                                                                    
   Atomic configuration                                                                             
    6 entries                                                                                       
     n  l   j            E        occ.                                                              
     1  0  0.50     -2751.1850   2.0000                                                             
     2  0  0.50      -252.6861   2.0000                                                             
     2  1  1.50      -191.6157   6.0000                                                             
     3  0  0.50       -20.6916   2.0000                                                             
     3  1  0.50        -8.5949   5.0000                                                             
     3  2  1.50        -8.1635   0.0000                                                             
   Description                                                                                      
     l       E           TYP  RCUT    TYP  RCUT                                                     
     0    -20.6915656     23  1.900                                                                 
     0    -22.0521482     23  1.900                                                                 
     1     -8.5948577     23  1.900                                                                 
     1     -5.3847331     23  1.900                                                                 
     2     -8.1634956     23  1.900                                                                 
  local pseudopotential read in
  partial core-charges read in
  partial kinetic energy density read in
  atomic valenz-charges read in
  non local Contribution for L=           0  read in
    real space projection operators read in
  non local Contribution for L=           0  read in
    real space projection operators read in
  non local Contribution for L=           1  read in
    real space projection operators read in
  non local Contribution for L=           1  read in
    real space projection operators read in
    PAW grid and wavefunctions read in
 
   number of l-projection  operators is LMAX  =           4
   number of lm-projection operators is LMMAX =           8
 
 -----------------------------------------------------------------------------
|                                                                             |
|               ----> ADVICE to this user running VASP <----                  |
|                                                                             |
|     You have a (more or less) 'large supercell' and for larger cells it     |
|     might be more efficient to use real-space projection operators.         |
|     Therefore, try LREAL= Auto in the INCAR file.                           |
|     Mind: For very accurate calculation, you might also keep the            |
|     reciprocal projection scheme (i.e. LREAL=.FALSE.).                      |
|                                                                             |
 -----------------------------------------------------------------------------

 -----------------------------------------------------------------------------
|                                                                             |
|               ----> ADVICE to this user running VASP <----                  |
|                                                                             |
|     You enforced a specific xc type in the INCAR file but a different       |
|     type was found in the POTCAR file.                                      |
|     I HOPE YOU KNOW WHAT YOU ARE DOING!                                     |
|                                                                             |
 -----------------------------------------------------------------------------

  PAW_PBE Na_pv 19Sep2006               :
 energy of atom  1       EATOM= -766.0439
 kinetic energy error for atom=    0.0189 (will be added to EATOM!!)
  PAW_PBE Cl 06Sep2000                  :
 energy of atom  2       EATOM= -409.7259
 kinetic energy error for atom=    0.0106 (will be added to EATOM!!)
 
 
 POSCAR: Na Cl
  positions in cartesian coordinates
  No initial velocities read in
 exchange correlation table for  LEXCH =       14
   RHO(1)=    0.500       N(1)  =     2000
   RHO(2)=  100.500       N(2)  =     4000
 


--------------------------------------------------------------------------------------------------------


 ion  position               nearest neighbor table
   1  0.000  0.000  0.000-
   2  0.250  0.250  0.000-
   3  0.250  0.000  0.250-
   4  0.000  0.250  0.250-
   5  0.000  0.000  0.500-
   6  0.250  0.250  0.500-
   7  0.250  0.000  0.750-
   8  0.000  0.250  0.750-
   9  0.000  0.500  0.000-
  10  0.250  0.750  0.000-
  11  0.250  0.500  0.250-
  12  0.000  0.750  0.250-
  13  0.000  0.500  0.500-
  14  0.250  0.750  0.500-
  15  0.250  0.500  0.750-
  16  0.000  0.750  0.750-
  17  0.500  0.000  0.000-
  18  0.750  0.250  0.000-
  19  0.750  0.000  0.250-
  20  0.500  0.250  0.250-
  21  0.500  0.000  0.500-
  22  0.750  0.250  0.500-
  23  0.750  0.000  0.750-
  24  0.500  0.250  0.750-
  25  0.500  0.500  0.000-
  26  0.750  0.750  0.000-
  27  0.750  0.500  0.250-
  28  0.500  0.750  0.250-
  29  0.500  0.500  0.500-
  30  0.750  0.750  0.500-
  31  0.750  0.500  0.750-
  32  0.500  0.750  0.750-
  33  0.247  0.250  0.250-
  34  0.000  0.000  0.253-
  35  0.000  0.250  0.000-
  36  0.250  0.000  0.000-
  37  0.250  0.250  0.750-
  38  0.000  0.000  0.750-
  39  0.000  0.250  0.500-
  40  0.250  0.000  0.500-
  41  0.250  0.750  0.250-
  42  0.000  0.500  0.250-
  43  0.000  0.750  0.000-
  44  0.250  0.500  0.000-
  45  0.250  0.750  0.750-
  46  0.000  0.500  0.750-
  47  0.000  0.750  0.500-
  48  0.250  0.500  0.500-
  49  0.750  0.250  0.250-
  50  0.500  0.000  0.250-
  51  0.500  0.250  0.000-
  52  0.750  0.000  0.000-
  53  0.750  0.250  0.750-
  54  0.500  0.000  0.750-
  55  0.500  0.250  0.500-
  56  0.750  0.000  0.500-
  57  0.750  0.750  0.250-
  58  0.500  0.500  0.250-
  59  0.500  0.750  0.000-
  60  0.750  0.500  0.000-
  61  0.750  0.750  0.750-
  62  0.500  0.500  0.750-
  63  0.500  0.750  0.500-
  64  0.750  0.500  0.500-
 
  LATTYP: Found a simple cubic cell.
 ALAT       =    11.2040023600
  
  Lattice vectors:
  
 A1 = (  11.2040023600,   0.0000000000,   0.0000000000)
 A2 = (   0.0000000000,  11.2040023600,   0.0000000000)
 A3 = (   0.0000000000,   0.0000000000,  11.2040023600)


Analysis of symmetry for initial positions (statically):
=====================================================================
 Subroutine PRICEL returns:
 Original cell was already a primitive cell.
 

 Routine SETGRP: Setting up the symmetry group for a 
 simple cubic supercell.


 Subroutine GETGRP returns: Found  1 space group operations
 (whereof  1 operations were pure point group operations)
 out of a pool of 48 trial point group operations.


The static configuration has the point symmetry C_1 .


Analysis of symmetry for dynamics (positions and initial velocities):
=====================================================================
 Subroutine PRICEL returns:
 Original cell was already a primitive cell.
 

 Routine SETGRP: Setting up the symmetry group for a 
 simple cubic supercell.


 Subroutine GETGRP returns: Found  1 space group operations
 (whereof  1 operations were pure point group operations)
 out of a pool of 48 trial point group operations.


The dynamic configuration has the point symmetry C_1 .


 Subroutine INISYM returns: Found  1 space group operations
 (whereof  1 operations are pure point group operations),
 and found     1 'primitive' translations


----------------------------------------------------------------------------------------

                                     Primitive cell                                     

  volume of cell :    1406.4347

  direct lattice vectors                    reciprocal lattice vectors
    11.204002360  0.000000000  0.000000000     0.089253819  0.000000000  0.000000000
     0.000000000 11.204002360  0.000000000     0.000000000  0.089253819  0.000000000
     0.000000000  0.000000000 11.204002360     0.000000000  0.000000000  0.089253819

  length of vectors
    11.204002360 11.204002360 11.204002360     0.089253819  0.089253819  0.089253819

  position of ions in fractional coordinates (direct lattice)
     0.000000000  0.000000000  0.000000000
     0.250000000  0.250000000  0.000000000
     0.250000000  0.000000000  0.250000000
     0.000000000  0.250000000  0.250000000
     0.000000000  0.000000000  0.500000000
     0.250000000  0.250000000  0.500000000
     0.250000000  0.000000000  0.750000000
     0.000000000  0.250000000  0.750000000
     0.000000000  0.500000000  0.000000000
     0.250000000  0.750000000  0.000000000
     0.250000000  0.500000000  0.250000000
     0.000000000  0.750000000  0.250000000
     0.000000000  0.500000000  0.500000000
     0.250000000  0.750000000  0.500000000
     0.250000000  0.500000000  0.750000000
     0.000000000  0.750000000  0.750000000
     0.500000000  0.000000000  0.000000000
     0.750000000  0.250000000  0.000000000
     0.750000000  0.000000000  0.250000000
     0.500000000  0.250000000  0.250000000
     0.500000000  0.000000000  0.500000000
     0.750000000  0.250000000  0.500000000
     0.750000000  0.000000000  0.750000000
     0.500000000  0.250000000  0.750000000
     0.500000000  0.500000000  0.000000000
     0.750000000  0.750000000  0.000000000
     0.750000000  0.500000000  0.250000000
     0.500000000  0.750000000  0.250000000
     0.500000000  0.500000000  0.500000000
     0.750000000  0.750000000  0.500000000
     0.750000000  0.500000000  0.750000000
     0.500000000  0.750000000  0.750000000
     0.247322385  0.250000000  0.250000000
     0.000000000  0.000000000  0.252677615
     0.000000000  0.250000000  0.000000000
     0.250000000  0.000000000  0.000000000
     0.250000000  0.250000000  0.750000000
     0.000000000  0.000000000  0.750000000
     0.000000000  0.250000000  0.500000000
     0.250000000  0.000000000  0.500000000
     0.250000000  0.750000000  0.250000000
     0.000000000  0.500000000  0.250000000
     0.000000000  0.750000000  0.000000000
     0.250000000  0.500000000  0.000000000
     0.250000000  0.750000000  0.750000000
     0.000000000  0.500000000  0.750000000
     0.000000000  0.750000000  0.500000000
     0.250000000  0.500000000  0.500000000
     0.750000000  0.250000000  0.250000000
     0.500000000  0.000000000  0.250000000
     0.500000000  0.250000000  0.000000000
     0.750000000  0.000000000  0.000000000
     0.750000000  0.250000000  0.750000000
     0.500000000  0.000000000  0.750000000
     0.500000000  0.250000000  0.500000000
     0.750000000  0.000000000  0.500000000
     0.750000000  0.750000000  0.250000000
     0.500000000  0.500000000  0.250000000
     0.500000000  0.750000000  0.000000000
     0.750000000  0.500000000  0.000000000
     0.750000000  0.750000000  0.750000000
     0.500000000  0.500000000  0.750000000
     0.500000000  0.750000000  0.500000000
     0.750000000  0.500000000  0.500000000

  ion indices of the primitive-cell ions
   primitive index   ion index
                 1           1
                 2           2
                 3           3
                 4           4
                 5           5
                 6           6
                 7           7
                 8           8
                 9           9
                10          10
                11          11
                12          12
                13          13
                14          14
                15          15
                16          16
                17          17
                18          18
                19          19
                20          20
                21          21
                22          22
                23          23
                24          24
                25          25
                26          26
                27          27
                28          28
                29          29
                30          30
                31          31
                32          32
                33          33
                34          34
                35          35
                36          36
                37          37
                38          38
                39          39
                40          40
                41          41
                42          42
                43          43
                44          44
                45          45
                46          46
                47          47
                48          48
                49          49
                50          50
                51          51
                52          52
                53          53
                54          54
                55          55
                56          56
                57          57
                58          58
                59          59
                60          60
                61          61
                62          62
                63          63
                64          64

----------------------------------------------------------------------------------------

 
 
 KPOINTS: KPOINTS created by Atomic Simulation Env

Automatic generation of k-mesh.
 Grid dimensions read from file:
 generate k-points for:    2    2    2

 Generating k-lattice:

  Cartesian coordinates                     Fractional coordinates (reciprocal lattice)
     0.044626910  0.000000000  0.000000000     0.500000000  0.000000000  0.000000000
     0.000000000  0.044626910  0.000000000     0.000000000  0.500000000  0.000000000
     0.000000000  0.000000000  0.044626910     0.000000000  0.000000000  0.500000000

  Length of vectors
     0.044626910  0.044626910  0.044626910

  Shift w.r.t. Gamma in fractional coordinates (k-lattice)
     0.000000000  0.000000000  0.000000000

 
 Subroutine IBZKPT returns following result:
 ===========================================
 
 Found      8 irreducible k-points:
 
 Following reciprocal coordinates:
            Coordinates               Weight
  0.000000  0.000000  0.000000      1.000000
  0.500000  0.000000  0.000000      1.000000
  0.000000  0.500000  0.000000      1.000000
  0.000000  0.000000  0.500000      1.000000
  0.500000  0.500000  0.000000      1.000000
  0.000000  0.500000  0.500000      1.000000
  0.500000  0.000000  0.500000      1.000000
  0.500000  0.500000  0.500000      1.000000
 
 Following cartesian coordinates:
            Coordinates               Weight
  0.000000  0.000000  0.000000      1.000000
  0.044627  0.000000  0.000000      1.000000
  0.000000  0.044627  0.000000      1.000000
  0.000000  0.000000  0.044627      1.000000
  0.044627  0.044627  0.000000      1.000000
  0.000000  0.044627  0.044627      1.000000
  0.044627  0.000000  0.044627      1.000000
  0.044627  0.044627  0.044627      1.000000
 


--------------------------------------------------------------------------------------------------------




 Dimension of arrays:
   k-points           NKPTS =      8   k-points in BZ     NKDIM =      8   number of bands    NBANDS=    288
   number of dos      NEDOS =    301   number of ions     NIONS =     64
   non local maximal  LDIM  =      4   non local SUM 2l+1 LMDIM =      8
   total plane-waves  NPLWV = 343000
   max r-space proj   IRMAX =      1   max aug-charges    IRDMAX=  56280
   dimension x,y,z NGX =    70 NGY =   70 NGZ =   70
   dimension x,y,z NGXF=   140 NGYF=  140 NGZF=  140
   support grid    NGXF=   280 NGYF=  280 NGZF=  280
   ions per type =              32  32
   NGX,Y,Z   is equivalent  to a cutoff of  10.39, 10.39, 10.39 a.u.
   NGXF,Y,Z  is equivalent  to a cutoff of  20.77, 20.77, 20.77 a.u.

 SYSTEM =  unknown system                          
 POSCAR =  Na Cl                                   

 Startparameter for this run:
   NWRITE =      2    write-flag & timer
   PREC   = accura    normal or accurate (medium, high low for compatibility)
   ISTART =      0    job   : 0-new  1-cont  2-samecut
   ICHARG =      2    charge: 1-file 2-atom 10-const
   ISPIN  =      1    spin polarized calculation?
   LNONCOLLINEAR =      F non collinear calculations
   LSORBIT =      F    spin-orbit coupling
   INIWAV =      1    electr: 0-lowe 1-rand  2-diag
   LASPH  =      F    aspherical Exc in radial PAW
 Electronic Relaxation 1
   ENCUT  =  341.2 eV  25.08 Ry    5.01 a.u.  16.87 16.87 16.87*2*pi/ulx,y,z
   ENINI  =  341.2     initial cutoff
   ENAUG  =  368.1 eV  augmentation charge cutoff
   NELM   =     60;   NELMIN=  5; NELMDL= -5     # of ELM steps 
   EDIFF  = 0.1E-07   stopping-criterion for ELM
   LREAL  =      F    real-space projection
   NLSPLINE    = F    spline interpolate recip. space projectors
   LCOMPAT=      F    compatible to vasp.4.4
   GGA_COMPAT  = T    GGA compatible to vasp.4.4-vasp.4.6
   LMAXPAW     = -100 max onsite density
   LMAXMIX     =    2 max onsite mixed and CHGCAR
   VOSKOWN=      0    Vosko Wilk Nusair interpolation
   ROPT   =    0.00000   0.00000
 Ionic relaxation
   EDIFFG = 0.1E-06   stopping-criterion for IOM
   NSW    =      0    number of steps for IOM
   NBLOCK =      1;   KBLOCK =      1    inner block; outer block 
   IBRION =     -1    ionic relax: 0-MD 1-quasi-New 2-CG
   NFREE  =      0    steps in history (QN), initial steepest desc. (CG)
   ISIF   =      2    stress and relaxation
   IWAVPR =     10    prediction:  0-non 1-charg 2-wave 3-comb
   ISYM   =      2    0-nonsym 1-usesym 2-fastsym
   LCORR  =      T    Harris-Foulkes like correction to forces

   POTIM  = 0.5000    time-step for ionic-motion
   TEIN   =    0.0    initial temperature
   TEBEG  =    0.0;   TEEND  =   0.0 temperature during run
   SMASS  =  -3.00    Nose mass-parameter (am)
   estimated Nose-frequenzy (Omega)   =  0.10E-29 period in steps = 0.13E+47 mass=  -0.287E-26a.u.
   SCALEE = 1.0000    scale energy and forces
   NPACO  =    256;   APACO  = 10.0  distance and # of slots for P.C.
   PSTRESS=    0.0 pullay stress

  Mass of Ions in am
   POMASS =  22.99 35.45
  Ionic Valenz
   ZVAL   =   7.00  7.00
  Atomic Wigner-Seitz radii
   RWIGS  =  -1.00 -1.00
  virtual crystal weights 
   VCA    =   1.00  1.00
   NELECT =     448.0000    total number of electrons
   NUPDOWN=      -1.0000    fix difference up-down

 DOS related values:
   EMIN   =  10.00;   EMAX   =-10.00  energy-range for DOS
   EFERMI =   0.00
   ISMEAR =     0;   SIGMA  =   0.02  broadening in eV -4-tet -1-fermi 0-gaus

 Electronic relaxation 2 (details)
   IALGO  =     38    algorithm
   LDIAG  =      T    sub-space diagonalisation (order eigenvalues)
   LSUBROT=      F    optimize rotation matrix (better conditioning)
   TURBO    =      0    0=normal 1=particle mesh
   IRESTART =      0    0=no restart 2=restart with 2 vectors
   NREBOOT  =      0    no. of reboots
   NMIN     =      0    reboot dimension
   EREF     =   0.00    reference energy to select bands
   IMIX   =      4    mixing-type and parameters
     AMIX     =   0.40;   BMIX     =  1.00
     AMIX_MAG =   1.60;   BMIX_MAG =  1.00
     AMIN     =   0.10
     WC   =   100.;   INIMIX=   1;  MIXPRE=   1;  MAXMIX= -45

 Intra band minimization:
   WEIMIN = 0.0000     energy-eigenvalue tresh-hold
   EBREAK =  0.87E-11  absolut break condition
   DEPER  =   0.30     relativ break condition  

   TIME   =   0.40     timestep for ELM

  volume/ion in A,a.u.               =      21.98       148.30
  Fermi-wavevector in a.u.,A,eV,Ry     =   1.118049  2.112807 17.007750  1.250034
  Thomas-Fermi vector in A             =   2.254677
 
 Write flags
   LWAVE        =      F    write WAVECAR
   LDOWNSAMPLE  =      F    k-point downsampling of WAVECAR
   LCHARG       =      F    write CHGCAR
   LVTOT        =      F    write LOCPOT, total local potential
   LVHAR        =      F    write LOCPOT, Hartree potential only
   LELF         =      F    write electronic localiz. function (ELF)
   LORBIT       =      0    0 simple, 1 ext, 2 COOP (PROOUT), +10 PAW based schemes


 Dipole corrections
   LMONO  =      F    monopole corrections only (constant potential shift)
   LDIPOL =      F    correct potential (dipole corrections)
   IDIPOL =      0    1-x, 2-y, 3-z, 4-all directions 
   EPSILON=  1.0000000 bulk dielectric constant

 Exchange correlation treatment:
   GGA     =    PS    GGA type
   LEXCH   =    14    internal setting for exchange type
   LIBXC   =     F    Libxc                    
   VOSKOWN =     0    Vosko Wilk Nusair interpolation
   LHFCALC =     F    Hartree Fock is set to
   LHFONE  =     F    Hartree Fock one center treatment
   AEXX    =    0.0000 exact exchange contribution

 Linear response parameters
   LEPSILON=     F    determine dielectric tensor
   LRPA    =     F    only Hartree local field effects (RPA)
   LNABLA  =     F    use nabla operator in PAW spheres
   LVEL    =     F    velocity operator in full k-point grid
   CSHIFT  =0.1000    complex shift for real part using Kramers Kronig
   OMEGAMAX=  -1.0    maximum frequency
   DEG_THRESHOLD= 0.2000000E-02 threshold for treating states as degnerate
   RTIME   =   -0.100 relaxation time in fs
  (WPLASMAI=    0.000 imaginary part of plasma frequency in eV, 0.658/RTIME)
   DFIELD  = 0.0000000 0.0000000 0.0000000 field for delta impulse in time
 
  Optional k-point grid parameters
   LKPOINTS_OPT  =     F    use optional k-point grid
   KPOINTS_OPT_MODE=     1    mode for optional k-point grid
 
 Orbital magnetization related:
   ORBITALMAG=     F  switch on orbital magnetization
   LCHIMAG   =     F  perturbation theory with respect to B field
   DQ        =  0.001000  dq finite difference perturbation B field
   LLRAUG    =     F  two centre corrections for induced B field



--------------------------------------------------------------------------------------------------------


 Static calculation
 charge density and potential will be updated during run
 non-spin polarized calculation
 Variant of blocked Davidson
 Davidson routine will perform the subspace rotation
 perform sub-space diagonalisation
    after iterative eigenvector-optimisation
 modified Broyden-mixing scheme, WC =      100.0
 initial mixing is a Kerker type mixing with AMIX =  0.4000 and BMIX =      1.0000
 Hartree-type preconditioning will be used
 using additional bands           64
 reciprocal scheme for non local part
 use partial core corrections
 calculate Harris-corrections to forces 
   (improved forces if not selfconsistent)
 use gradient corrections 
 use of overlap-Matrix (Vanderbilt PP)
 Gauss-broadening in eV      SIGMA  =   0.02


--------------------------------------------------------------------------------------------------------


  energy-cutoff  :      341.21
  volume of cell :     1406.43
      direct lattice vectors                 reciprocal lattice vectors
    11.204002360  0.000000000  0.000000000     0.089253819  0.000000000  0.000000000
     0.000000000 11.204002360  0.000000000     0.000000000  0.089253819  0.000000000
     0.000000000  0.000000000 11.204002360     0.000000000  0.000000000  0.089253819

  length of vectors
    11.204002360 11.204002360 11.204002360     0.089253819  0.089253819  0.089253819


 
 k-points in units of 2pi/SCALE and weight: KPOINTS created by Atomic Simulation Env
   0.00000000  0.00000000  0.00000000       0.125
   0.04462691  0.00000000  0.00000000       0.125
   0.00000000  0.04462691  0.00000000       0.125
   0.00000000  0.00000000  0.04462691       0.125
   0.04462691  0.04462691  0.00000000       0.125
   0.00000000  0.04462691  0.04462691       0.125
   0.04462691  0.00000000  0.04462691       0.125
   0.04462691  0.04462691  0.04462691       0.125
 
 k-points in reciprocal lattice and weights: KPOINTS created by Atomic Simulation Env
   0.00000000  0.00000000  0.00000000       0.125
   0.50000000  0.00000000  0.00000000       0.125
   0.00000000  0.50000000  0.00000000       0.125
   0.00000000  0.00000000  0.50000000       0.125
   0.50000000  0.50000000  0.00000000       0.125
   0.00000000  0.50000000  0.50000000       0.125
   0.50000000  0.00000000  0.50000000       0.125
   0.50000000  0.50000000  0.50000000       0.125
 
 position of ions in fractional coordinates (direct lattice) 
   0.00000000  0.00000000  0.00000000
   0.25000000  0.25000000  0.00000000
   0.25000000  0.00000000  0.25000000
   0.00000000  0.25000000  0.25000000
   0.00000000  0.00000000  0.50000000
   0.25000000  0.25000000  0.50000000
   0.25000000  0.00000000  0.75000000
   0.00000000  0.25000000  0.75000000
   0.00000000  0.50000000  0.00000000
   0.25000000  0.75000000  0.00000000
   0.25000000  0.50000000  0.25000000
   0.00000000  0.75000000  0.25000000
   0.00000000  0.50000000  0.50000000
   0.25000000  0.75000000  0.50000000
   0.25000000  0.50000000  0.75000000
   0.00000000  0.75000000  0.75000000
   0.50000000  0.00000000  0.00000000
   0.75000000  0.25000000  0.00000000
   0.75000000  0.00000000  0.25000000
   0.50000000  0.25000000  0.25000000
   0.50000000  0.00000000  0.50000000
   0.75000000  0.25000000  0.50000000
   0.75000000  0.00000000  0.75000000
   0.50000000  0.25000000  0.75000000
   0.50000000  0.50000000  0.00000000
   0.75000000  0.75000000  0.00000000
   0.75000000  0.50000000  0.25000000
   0.50000000  0.75000000  0.25000000
   0.50000000  0.50000000  0.50000000
   0.75000000  0.75000000  0.50000000
   0.75000000  0.50000000  0.75000000
   0.50000000  0.75000000  0.75000000
   0.24732239  0.25000000  0.25000000
   0.00000000  0.00000000  0.25267761
   0.00000000  0.25000000  0.00000000
   0.25000000  0.00000000  0.00000000
   0.25000000  0.25000000  0.75000000
   0.00000000  0.00000000  0.75000000
   0.00000000  0.25000000  0.50000000
   0.25000000  0.00000000  0.50000000
   0.25000000  0.75000000  0.25000000
   0.00000000  0.50000000  0.25000000
   0.00000000  0.75000000  0.00000000
   0.25000000  0.50000000  0.00000000
   0.25000000  0.75000000  0.75000000
   0.00000000  0.50000000  0.75000000
   0.00000000  0.75000000  0.50000000
   0.25000000  0.50000000  0.50000000
   0.75000000  0.25000000  0.25000000
   0.50000000  0.00000000  0.25000000
   0.50000000  0.25000000  0.00000000
   0.75000000  0.00000000  0.00000000
   0.75000000  0.25000000  0.75000000
   0.50000000  0.00000000  0.75000000
   0.50000000  0.25000000  0.50000000
   0.75000000  0.00000000  0.50000000
   0.75000000  0.75000000  0.25000000
   0.50000000  0.50000000  0.25000000
   0.50000000  0.75000000  0.00000000
   0.75000000  0.50000000  0.00000000
   0.75000000  0.75000000  0.75000000
   0.50000000  0.50000000  0.75000000
   0.50000000  0.75000000  0.50000000
   0.75000000  0.50000000  0.50000000
 
 position of ions in cartesian coordinates  (Angst):
   0.00000000  0.00000000  0.00000000
   2.80100059  2.80100059  0.00000000
   2.80100059  0.00000000  2.80100059
   0.00000000  2.80100059  2.80100059
   0.00000000  0.00000000  5.60200118
   2.80100059  2.80100059  5.60200118
   2.80100059  0.00000000  8.40300177
   0.00000000  2.80100059  8.40300177
   0.00000000  5.60200118  0.00000000
   2.80100059  8.40300177  0.00000000
   2.80100059  5.60200118  2.80100059
   0.00000000  8.40300177  2.80100059
   0.00000000  5.60200118  5.60200118
   2.80100059  8.40300177  5.60200118
   2.80100059  5.60200118  8.40300177
   0.00000000  8.40300177  8.40300177
   5.60200118  0.00000000  0.00000000
   8.40300177  2.80100059  0.00000000
   8.40300177  0.00000000  2.80100059
   5.60200118  2.80100059  2.80100059
   5.60200118  0.00000000  5.60200118
   8.40300177  2.80100059  5.60200118
   8.40300177  0.00000000  8.40300177
   5.60200118  2.80100059  8.40300177
   5.60200118  5.60200118  0.00000000
   8.40300177  8.40300177  0.00000000
   8.40300177  5.60200118  2.80100059
   5.60200118  8.40300177  2.80100059
   5.60200118  5.60200118  5.60200118
   8.40300177  8.40300177  5.60200118
   8.40300177  5.60200118  8.40300177
   5.60200118  8.40300177  8.40300177
   2.77100059  2.80100059  2.80100059
   0.00000000  0.00000000  2.83100059
   0.00000000  2.80100059  0.00000000
   2.80100059  0.00000000  0.00000000
   2.80100059  2.80100059  8.40300177
   0.00000000  0.00000000  8.40300177
   0.00000000  2.80100059  5.60200118
   2.80100059  0.00000000  5.60200118
   2.80100059  8.40300177  2.80100059
   0.00000000  5.60200118  2.80100059
   0.00000000  8.40300177  0.00000000
   2.80100059  5.60200118  0.00000000
   2.80100059  8.40300177  8.40300177
   0.00000000  5.60200118  8.40300177
   0.00000000  8.40300177  5.60200118
   2.80100059  5.60200118  5.60200118
   8.40300177  2.80100059  2.80100059
   5.60200118  0.00000000  2.80100059
   5.60200118  2.80100059  0.00000000
   8.40300177  0.00000000  0.00000000
   8.40300177  2.80100059  8.40300177
   5.60200118  0.00000000  8.40300177
   5.60200118  2.80100059  5.60200118
   8.40300177  0.00000000  5.60200118
   8.40300177  8.40300177  2.80100059
   5.60200118  5.60200118  2.80100059
   5.60200118  8.40300177  0.00000000
   8.40300177  5.60200118  0.00000000
   8.40300177  8.40300177  8.40300177
   5.60200118  5.60200118  8.40300177
   5.60200118  8.40300177  5.60200118
   8.40300177  5.60200118  5.60200118
 


--------------------------------------------------------------------------------------------------------


 k-point   1 :   0.0000 0.0000 0.0000  plane waves:   20005
 k-point   2 :   0.5000 0.0000 0.0000  plane waves:   20138
 k-point   3 :   0.0000 0.5000 0.0000  plane waves:   20138
 k-point   4 :   0.0000 0.0000 0.5000  plane waves:   20138
 k-point   5 :   0.5000 0.5000 0.0000  plane waves:   20160
 k-point   6 :   0.0000 0.5000 0.5000  plane waves:   20160
 k-point   7 :   0.5000 0.0000 0.5000  plane waves:   20160
 k-point   8 :   0.5000 0.5000 0.5000  plane waves:   20336

 maximum and minimum number of plane-waves per node :     20336    20005

 maximum number of plane-waves:     20336
 maximum index in each direction: 
   IXMAX=   16   IYMAX=   16   IZMAX=   16
   IXMIN=  -17   IYMIN=  -17   IZMIN=  -17


 serial   3D FFT for wavefunctions
 parallel 3D FFT for charge:
    minimum data exchange during FFTs selected (reduces bandwidth)


 total amount of memory used by VASP MPI-rank0   129658. kBytes
=======================================================================

   base      :      30000. kBytes
   nonl-proj :      41680. kBytes
   fftplans  :      14405. kBytes
   grid      :      19342. kBytes
   one-center:        196. kBytes
   wavefun   :      24035. kBytes
 
     INWAV:  cpu time      0.0000: real time      0.0000
 Broyden mixing: mesh for mixing (old mesh)
   NGX = 33   NGY = 33   NGZ = 33
  (NGX  =140   NGY  =140   NGZ  =140)
  gives a total of  35937 points

 initial charge density was supplied:
 charge density of overlapping atoms calculated
 number of electron     448.0000000 magnetization 
 keeping initial charge density in first step


--------------------------------------------------------------------------------------------------------


 Maximum index for augmentation-charges         1834 (set IRDMAX)


--------------------------------------------------------------------------------------------------------


 First call to EWALD:  gamma=   0.158
 Maximum number of real-space cells 3x 3x 3
 Maximum number of reciprocal cells 3x 3x 3

    FEWALD:  cpu time      0.0016: real time      0.0016


--------------------------------------- Iteration      1(   1)  ---------------------------------------


    POTLOK:  cpu time      0.0429: real time      0.0434
    SETDIJ:  cpu time      0.0322: real time      0.0324
     EDDAV:  cpu time     10.1598: real time     10.2132
       DOS:  cpu time      0.0007: real time      0.0007
    --------------------------------------------
      LOOP:  cpu time     10.2355: real time     10.2897

 eigenvalue-minimisations  :  4864
 total energy-change (2. order) : 0.4398695E+04  (-0.1710226E+05)
 number of electron     448.0000000 magnetization 
 augmentation part      448.0000000 magnetization 

 Free energy of the ion-electron system (eV)
  ---------------------------------------------------
  alpha Z        PSCENC =       751.52672365
  Ewald energy   TEWEN  =    -22871.34031752
  -Hartree energ DENC   =     -8992.24802658
  -exchange      EXHF   =         0.00000000
  -V(xc)+E(xc)   XCENC  =      1456.53429110
  PAW double counting   =     26466.43774078   -29286.08056155
  entropy T*S    EENTRO =        -0.00453917
  eigenvalues    EBANDS =      -658.30931582
  atomic energy  EATOM  =     37532.17946992
  Solvation  Ediel_sol  =         0.00000000
  ---------------------------------------------------
  free energy    TOTEN  =      4398.69546481 eV

  energy without entropy =     4398.70000398  energy(sigma->0) =     4398.69773439


--------------------------------------------------------------------------------------------------------




--------------------------------------- Iteration      1(   2)  ---------------------------------------


     EDDAV:  cpu time     10.6313: real time     10.6897
       DOS:  cpu time      0.0004: real time      0.0004
    --------------------------------------------
      LOOP:  cpu time     10.6317: real time     10.6901

 eigenvalue-minimisations  :  5152
 total energy-change (2. order) :-0.4031640E+04  (-0.3833217E+04)
 number of electron     448.0000000 magnetization 
 augmentation part      448.0000000 magnetization 

 Free energy of the ion-electron system (eV)
  ---------------------------------------------------
  alpha Z        PSCENC =       751.52672365
  Ewald energy   TEWEN  =    -22871.34031752
  -Hartree energ DENC   =     -8992.24802658
  -exchange      EXHF   =         0.00000000
  -V(xc)+E(xc)   XCENC  =      1456.53429110
  PAW double counting   =     26466.43774078   -29286.08056155
  entropy T*S    EENTRO =        -0.00000000
  eigenvalues    EBANDS =     -4689.95362980
  atomic energy  EATOM  =     37532.17946992
  Solvation  Ediel_sol  =         0.00000000
  ---------------------------------------------------
  free energy    TOTEN  =       367.05569000 eV

  energy without entropy =      367.05569000  energy(sigma->0) =      367.05569000


--------------------------------------------------------------------------------------------------------




--------------------------------------- Iteration      1(   3)  ---------------------------------------


     EDDAV:  cpu time     11.3372: real time     11.4003
       DOS:  cpu time      0.0004: real time      0.0004
    --------------------------------------------
      LOOP:  cpu time     11.3376: real time     11.4007

 eigenvalue-minimisations  :  5568
 total energy-change (2. order) :-0.5719312E+03  (-0.5674977E+03)
 number of electron     448.0000000 magnetization 
 augmentation part      448.0000000 magnetization 

 Free energy of the ion-electron system (eV)
  ---------------------------------------------------
  alpha Z        PSCENC =       751.52672365
  Ewald energy   TEWEN  =    -22871.34031752
  -Hartree energ DENC   =     -8992.24802658
  -exchange      EXHF   =         0.00000000
  -V(xc)+E(xc)   XCENC  =      1456.53429110
  PAW double counting   =     26466.43774078   -29286.08056155
  entropy T*S    EENTRO =        -0.00000000
  eigenvalues    EBANDS =     -5261.88480500
  atomic energy  EATOM  =     37532.17946992
  Solvation  Ediel_sol  =         0.00000000
  ---------------------------------------------------
  free energy    TOTEN  =      -204.87548520 eV

  energy without entropy =     -204.87548520  energy(sigma->0) =     -204.87548520


--------------------------------------------------------------------------------------------------------




--------------------------------------- Iteration      1(   4)  ---------------------------------------


     EDDAV:  cpu time     11.2802: real time     11.3391
       DOS:  cpu time      0.0005: real time      0.0005
    --------------------------------------------
      LOOP:  cpu time     11.2807: real time     11.3395

 eigenvalue-minimisations  :  5536
 total energy-change (2. order) :-0.2325298E+02  (-0.2313703E+02)
 number of electron     448.0000000 magnetization 
 augmentation part      448.0000000 magnetization 

 Free energy of the ion-electron system (eV)
  ---------------------------------------------------
  alpha Z        PSCENC =       751.52672365
  Ewald energy   TEWEN  =    -22871.34031752
  -Hartree energ DENC   =     -8992.24802658
  -exchange      EXHF   =         0.00000000
  -V(xc)+E(xc)   XCENC  =      1456.53429110
  PAW double counting   =     26466.43774078   -29286.08056155
  entropy T*S    EENTRO =        -0.00000000
  eigenvalues    EBANDS =     -5285.13778866
  atomic energy  EATOM  =     37532.17946992
  Solvation  Ediel_sol  =         0.00000000
  ---------------------------------------------------
  free energy    TOTEN  =      -228.12846886 eV

  energy without entropy =     -228.12846886  energy(sigma->0) =     -228.12846886


--------------------------------------------------------------------------------------------------------




--------------------------------------- Iteration      1(   5)  ---------------------------------------


     EDDAV:  cpu time     11.7517: real time     11.8135
       DOS:  cpu time      0.0003: real time      0.0003
    CHARGE:  cpu time      0.3338: real time      0.3354
    MIXING:  cpu time      0.0018: real time      0.0018
    --------------------------------------------
      LOOP:  cpu time     12.0875: real time     12.1510

 eigenvalue-minimisations  :  5824
 total energy-change (2. order) :-0.8742854E+00  (-0.8728450E+00)
 number of electron     448.0000022 magnetization 
 augmentation part      111.6447057 magnetization 

 Broyden mixing:
  rms(total) = 0.10606E+01    rms(broyden)= 0.10602E+01
  rms(prec ) = 0.14935E+01
  weight for this iteration     100.00

 Free energy of the ion-electron system (eV)
  ---------------------------------------------------
  alpha Z        PSCENC =       751.52672365
  Ewald energy   TEWEN  =    -22871.34031752
  -Hartree energ DENC   =     -8992.24802658
  -exchange      EXHF   =         0.00000000
  -V(xc)+E(xc)   XCENC  =      1456.53429110
  PAW double counting   =     26466.43774078   -29286.08056155
  entropy T*S    EENTRO =        -0.00000000
  eigenvalues    EBANDS =     -5286.01207402
  atomic energy  EATOM  =     37532.17946992
  Solvation  Ediel_sol  =         0.00000000
  ---------------------------------------------------
  free energy    TOTEN  =      -229.00275422 eV

  energy without entropy =     -229.00275422  energy(sigma->0) =     -229.00275422


--------------------------------------------------------------------------------------------------------




--------------------------------------- Iteration      1(   6)  ---------------------------------------


    POTLOK:  cpu time      0.0383: real time      0.0401
    SETDIJ:  cpu time      0.0300: real time      0.0304
     EDDAV:  cpu time     11.4680: real time     11.5297
       DOS:  cpu time      0.0004: real time      0.0004
    CHARGE:  cpu time      0.3307: real time      0.3323
    MIXING:  cpu time      0.0012: real time      0.0012
    --------------------------------------------
      LOOP:  cpu time     11.8687: real time     11.9340

 eigenvalue-minimisations  :  5664
 total energy-change (2. order) : 0.4863774E+01  (-0.9476908E+00)
 number of electron     448.0000022 magnetization 
 augmentation part      112.4576122 magnetization 

 Broyden mixing:
  rms(total) = 0.77586E+00    rms(broyden)= 0.77581E+00
  rms(prec ) = 0.89192E+00
  weight for this iteration     100.00

 eigenvalues of (default mixing * dielectric matrix)
  average eigenvalue GAMMA=   1.0748
  1.0748

 Free energy of the ion-electron system (eV)
  ---------------------------------------------------
  alpha Z        PSCENC =       751.52672365
  Ewald energy   TEWEN  =    -22871.34031752
  -Hartree energ DENC   =     -9061.76083074
  -exchange      EXHF   =         0.00000000
  -V(xc)+E(xc)   XCENC  =      1465.42952280
  PAW double counting   =     27290.50632887   -30102.48495913
  entropy T*S    EENTRO =        -0.00000000
  eigenvalues    EBANDS =     -5228.19491846
  atomic energy  EATOM  =     37532.17946992
  Solvation  Ediel_sol  =         0.00000000
  ---------------------------------------------------
  free energy    TOTEN  =      -224.13898060 eV

  energy without entropy =     -224.13898060  energy(sigma->0) =     -224.13898060


--------------------------------------------------------------------------------------------------------




--------------------------------------- Iteration      1(   7)  ---------------------------------------


    POTLOK:  cpu time      0.0375: real time      0.0377
    SETDIJ:  cpu time      0.0301: real time      0.0303
     EDDAV:  cpu time     12.5415: real time     12.6085
       DOS:  cpu time      0.0004: real time      0.0004
    CHARGE:  cpu time      0.3275: real time      0.3292
    MIXING:  cpu time      0.0011: real time      0.0012
    --------------------------------------------
      LOOP:  cpu time     12.9381: real time     13.0072

 eigenvalue-minimisations  :  6304
 total energy-change (2. order) : 0.3618729E+00  (-0.2062959E+00)
 number of electron     448.0000022 magnetization 
 augmentation part      112.8272128 magnetization 

 Broyden mixing:
  rms(total) = 0.53255E+00    rms(broyden)= 0.53252E+00
  rms(prec ) = 0.56258E+00
  weight for this iteration     100.00

 eigenvalues of (default mixing * dielectric matrix)
  average eigenvalue GAMMA=   2.1513
  1.4385  2.8641

 Free energy of the ion-electron system (eV)
  ---------------------------------------------------
  alpha Z        PSCENC =       751.52672365
  Ewald energy   TEWEN  =    -22871.34031752
  -Hartree energ DENC   =     -9085.82666727
  -exchange      EXHF   =         0.00000000
  -V(xc)+E(xc)   XCENC  =      1470.12531903
  PAW double counting   =     28329.34203295   -31142.06498897
  entropy T*S    EENTRO =        -0.00000000
  eigenvalues    EBANDS =     -5207.71867949
  atomic energy  EATOM  =     37532.17946992
  Solvation  Ediel_sol  =         0.00000000
  ---------------------------------------------------
  free energy    TOTEN  =      -223.77710770 eV

  energy without entropy =     -223.77710770  energy(sigma->0) =     -223.77710770


--------------------------------------------------------------------------------------------------------




--------------------------------------- Iteration      1(   8)  ---------------------------------------


    POTLOK:  cpu time      0.0382: real time      0.0389
    SETDIJ:  cpu time      0.0299: real time      0.0300
     EDDAV:  cpu time     10.9698: real time     11.0267
       DOS:  cpu time      0.0004: real time      0.0004
    CHARGE:  cpu time      0.3340: real time      0.3359
    MIXING:  cpu time      0.0015: real time      0.0015
    --------------------------------------------
      LOOP:  cpu time     11.3737: real time     11.4334

 eigenvalue-minimisations  :  5312
 total energy-change (2. order) :-0.1250551E+00  (-0.2632123E-01)
 number of electron     448.0000022 magnetization 
 augmentation part      112.8096084 magnetization 

 Broyden mixing:
  rms(total) = 0.13916E+00    rms(broyden)= 0.13916E+00
  rms(prec ) = 0.14199E+00
  weight for this iteration     100.00

 eigenvalues of (default mixing * dielectric matrix)
  average eigenvalue GAMMA=   1.5574
  2.5166  1.3843  0.7714

 Free energy of the ion-electron system (eV)
  ---------------------------------------------------
  alpha Z        PSCENC =       751.52672365
  Ewald energy   TEWEN  =    -22871.34031752
  -Hartree energ DENC   =     -9075.31724867
  -exchange      EXHF   =         0.00000000
  -V(xc)+E(xc)   XCENC  =      1472.34168848
  PAW double counting   =     29804.04379309   -32623.87590732
  entropy T*S    EENTRO =        -0.00000000
  eigenvalues    EBANDS =     -5213.46036439
  atomic energy  EATOM  =     37532.17946992
  Solvation  Ediel_sol  =         0.00000000
  ---------------------------------------------------
  free energy    TOTEN  =      -223.90216275 eV

  energy without entropy =     -223.90216275  energy(sigma->0) =     -223.90216275


--------------------------------------------------------------------------------------------------------




--------------------------------------- Iteration      1(   9)  ---------------------------------------


    POTLOK:  cpu time      0.0385: real time      0.0414
    SETDIJ:  cpu time      0.0300: real time      0.0302
     EDDAV:  cpu time     11.5050: real time     11.5651
       DOS:  cpu time      0.0004: real time      0.0004
    CHARGE:  cpu time      0.3274: real time      0.3292
    MIXING:  cpu time      0.0016: real time      0.0016
    --------------------------------------------
      LOOP:  cpu time     11.9028: real time     11.9679

 eigenvalue-minimisations  :  5664
 total energy-change (2. order) : 0.5347641E-02  (-0.1149776E-02)
 number of electron     448.0000022 magnetization 
 augmentation part      112.8321064 magnetization 

 Broyden mixing:
  rms(total) = 0.57734E-01    rms(broyden)= 0.57733E-01
  rms(prec ) = 0.59800E-01
  weight for this iteration     100.00

 eigenvalues of (default mixing * dielectric matrix)
  average eigenvalue GAMMA=   1.9839
  2.7729  2.7729  1.0003  1.3897

 Free energy of the ion-electron system (eV)
  ---------------------------------------------------
  alpha Z        PSCENC =       751.52672365
  Ewald energy   TEWEN  =    -22871.34031752
  -Hartree energ DENC   =     -9078.02787887
  -exchange      EXHF   =         0.00000000
  -V(xc)+E(xc)   XCENC  =      1472.35953704
  PAW double counting   =     29625.33153443   -32444.31995641
  entropy T*S    EENTRO =        -0.00000000
  eigenvalues    EBANDS =     -5211.60592736
  atomic energy  EATOM  =     37532.17946992
  Solvation  Ediel_sol  =         0.00000000
  ---------------------------------------------------
  free energy    TOTEN  =      -223.89681511 eV

  energy without entropy =     -223.89681511  energy(sigma->0) =     -223.89681511


--------------------------------------------------------------------------------------------------------




--------------------------------------- Iteration      1(  10)  ---------------------------------------


    POTLOK:  cpu time      0.0376: real time      0.0379
    SETDIJ:  cpu time      0.0299: real time      0.0300
     EDDAV:  cpu time     10.9163: real time     10.9737
       DOS:  cpu time      0.0004: real time      0.0004
    CHARGE:  cpu time      0.3281: real time      0.3299
    MIXING:  cpu time      0.0021: real time      0.0021
    --------------------------------------------
      LOOP:  cpu time     11.3144: real time     11.3741

 eigenvalue-minimisations  :  5312
 total energy-change (2. order) :-0.4200760E-02  (-0.1616136E-02)
 number of electron     448.0000022 magnetization 
 augmentation part      112.8593902 magnetization 

 Broyden mixing:
  rms(total) = 0.25639E-01    rms(broyden)= 0.25637E-01
  rms(prec ) = 0.27472E-01
  weight for this iteration     100.00

 eigenvalues of (default mixing * dielectric matrix)
  average eigenvalue GAMMA=   1.7100
  2.9337  2.5104  1.2991  1.0190  0.7875

 Free energy of the ion-electron system (eV)
  ---------------------------------------------------
  alpha Z        PSCENC =       751.52672365
  Ewald energy   TEWEN  =    -22871.34031752
  -Hartree energ DENC   =     -9079.29658567
  -exchange      EXHF   =         0.00000000
  -V(xc)+E(xc)   XCENC  =      1472.59146078
  PAW double counting   =     29460.20465780   -32279.42347338
  entropy T*S    EENTRO =        -0.00000000
  eigenvalues    EBANDS =     -5210.34295145
  atomic energy  EATOM  =     37532.17946992
  Solvation  Ediel_sol  =         0.00000000
  ---------------------------------------------------
  free energy    TOTEN  =      -223.90101587 eV

  energy without entropy =     -223.90101587  energy(sigma->0) =     -223.90101587


--------------------------------------------------------------------------------------------------------




--------------------------------------- Iteration      1(  11)  ---------------------------------------


    POTLOK:  cpu time      0.0377: real time      0.0380
    SETDIJ:  cpu time      0.0300: real time      0.0302
     EDDAV:  cpu time     12.1168: real time     12.1887
       DOS:  cpu time      0.0005: real time      0.0005
    CHARGE:  cpu time      0.3274: real time      0.3293
    MIXING:  cpu time      0.0020: real time      0.0020
    --------------------------------------------
      LOOP:  cpu time     12.5144: real time     12.5887

 eigenvalue-minimisations  :  6048
 total energy-change (2. order) : 0.5593666E-03  (-0.1208692E-03)
 number of electron     448.0000022 magnetization 
 augmentation part      112.8515592 magnetization 

 Broyden mixing:
  rms(total) = 0.84430E-02    rms(broyden)= 0.84429E-02
  rms(prec ) = 0.88640E-02
  weight for this iteration     100.00

 eigenvalues of (default mixing * dielectric matrix)
  average eigenvalue GAMMA=   1.5493
  2.9142  2.4603  1.3168  1.0115  0.7964  0.7964

 Free energy of the ion-electron system (eV)
  ---------------------------------------------------
  alpha Z        PSCENC =       751.52672365
  Ewald energy   TEWEN  =    -22871.34031752
  -Hartree energ DENC   =     -9078.32651317
  -exchange      EXHF   =         0.00000000
  -V(xc)+E(xc)   XCENC  =      1472.52808253
  PAW double counting   =     29487.30294785   -32306.66741680
  entropy T*S    EENTRO =        -0.00000000
  eigenvalues    EBANDS =     -5211.10343297
  atomic energy  EATOM  =     37532.17946992
  Solvation  Ediel_sol  =         0.00000000
  ---------------------------------------------------
  free energy    TOTEN  =      -223.90045650 eV

  energy without entropy =     -223.90045650  energy(sigma->0) =     -223.90045650


--------------------------------------------------------------------------------------------------------




--------------------------------------- Iteration      1(  12)  ---------------------------------------


    POTLOK:  cpu time      0.0376: real time      0.0400
    SETDIJ:  cpu time      0.0304: real time      0.0305
     EDDAV:  cpu time     11.9774: real time     12.0395
       DOS:  cpu time      0.0004: real time      0.0004
    CHARGE:  cpu time      0.3273: real time      0.3292
    MIXING:  cpu time      0.0019: real time      0.0019
    --------------------------------------------
      LOOP:  cpu time     12.3750: real time     12.4415

 eigenvalue-minimisations  :  5952
 total energy-change (2. order) : 0.3354919E-04  (-0.1176721E-04)
 number of electron     448.0000022 magnetization 
 augmentation part      112.8491358 magnetization 

 Broyden mixing:
  rms(total) = 0.21814E-02    rms(broyden)= 0.21810E-02
  rms(prec ) = 0.24421E-02
  weight for this iteration     100.00

 eigenvalues of (default mixing * dielectric matrix)
  average eigenvalue GAMMA=   1.5672
  2.8890  2.4010  1.4191  1.1810  1.1810  1.0976  0.8018

 Free energy of the ion-electron system (eV)
  ---------------------------------------------------
  alpha Z        PSCENC =       751.52672365
  Ewald energy   TEWEN  =    -22871.34031752
  -Hartree energ DENC   =     -9078.20312144
  -exchange      EXHF   =         0.00000000
  -V(xc)+E(xc)   XCENC  =      1472.51919415
  PAW double counting   =     29496.72024123   -32316.09067160
  entropy T*S    EENTRO =        -0.00000000
  eigenvalues    EBANDS =     -5211.21194135
  atomic energy  EATOM  =     37532.17946992
  Solvation  Ediel_sol  =         0.00000000
  ---------------------------------------------------
  free energy    TOTEN  =      -223.90042295 eV

  energy without entropy =     -223.90042295  energy(sigma->0) =     -223.90042295


--------------------------------------------------------------------------------------------------------




--------------------------------------- Iteration      1(  13)  ---------------------------------------


    POTLOK:  cpu time      0.0376: real time      0.0378
    SETDIJ:  cpu time      0.0305: real time      0.0307
     EDDAV:  cpu time     10.9845: real time     11.0436
       DOS:  cpu time      0.0003: real time      0.0003
    CHARGE:  cpu time      0.3275: real time      0.3294
    MIXING:  cpu time      0.0019: real time      0.0019
    --------------------------------------------
      LOOP:  cpu time     11.3823: real time     11.4436

 eigenvalue-minimisations  :  5344
 total energy-change (2. order) : 0.3734895E-05  (-0.2923206E-05)
 number of electron     448.0000022 magnetization 
 augmentation part      112.8477417 magnetization 

 Broyden mixing:
  rms(total) = 0.37990E-03    rms(broyden)= 0.37914E-03
  rms(prec ) = 0.45782E-03
  weight for this iteration     100.00

 eigenvalues of (default mixing * dielectric matrix)
  average eigenvalue GAMMA=   1.6004
  2.9836  2.2737  2.2737  1.1523  1.1523  0.9689  0.9995  0.9995

 Free energy of the ion-electron system (eV)
  ---------------------------------------------------
  alpha Z        PSCENC =       751.52672365
  Ewald energy   TEWEN  =    -22871.34031752
  -Hartree energ DENC   =     -9078.11447525
  -exchange      EXHF   =         0.00000000
  -V(xc)+E(xc)   XCENC  =      1472.51067794
  PAW double counting   =     29498.79114242   -32318.16724573
  entropy T*S    EENTRO =        -0.00000000
  eigenvalues    EBANDS =     -5211.28639465
  atomic energy  EATOM  =     37532.17946992
  Solvation  Ediel_sol  =         0.00000000
  ---------------------------------------------------
  free energy    TOTEN  =      -223.90041922 eV

  energy without entropy =     -223.90041922  energy(sigma->0) =     -223.90041922


--------------------------------------------------------------------------------------------------------




--------------------------------------- Iteration      1(  14)  ---------------------------------------


    POTLOK:  cpu time      0.0378: real time      0.0387
    SETDIJ:  cpu time      0.0300: real time      0.0302
     EDDAV:  cpu time     11.4640: real time     11.5233
       DOS:  cpu time      0.0004: real time      0.0004
    CHARGE:  cpu time      0.3264: real time      0.3284
    MIXING:  cpu time      0.0013: real time      0.0013
    --------------------------------------------
      LOOP:  cpu time     11.8599: real time     11.9223

 eigenvalue-minimisations  :  5664
 total energy-change (2. order) :-0.2093861E-05  (-0.2652768E-06)
 number of electron     448.0000022 magnetization 
 augmentation part      112.8477414 magnetization 

 Broyden mixing:
  rms(total) = 0.67849E-03    rms(broyden)= 0.67842E-03
  rms(prec ) = 0.69929E-03
  weight for this iteration     100.00

 eigenvalues of (default mixing * dielectric matrix)
  average eigenvalue GAMMA=   1.6368
  3.0128  2.6121  2.6121  1.3729  1.2084  1.2084  0.9458  0.9458  0.8132

 Free energy of the ion-electron system (eV)
  ---------------------------------------------------
  alpha Z        PSCENC =       751.52672365
  Ewald energy   TEWEN  =    -22871.34031752
  -Hartree energ DENC   =     -9078.13565882
  -exchange      EXHF   =         0.00000000
  -V(xc)+E(xc)   XCENC  =      1472.51273026
  PAW double counting   =     29499.66368494   -32319.03368317
  entropy T*S    EENTRO =        -0.00000000
  eigenvalues    EBANDS =     -5211.27337059
  atomic energy  EATOM  =     37532.17946992
  Solvation  Ediel_sol  =         0.00000000
  ---------------------------------------------------
  free energy    TOTEN  =      -223.90042131 eV

  energy without entropy =     -223.90042131  energy(sigma->0) =     -223.90042131


--------------------------------------------------------------------------------------------------------




--------------------------------------- Iteration      1(  15)  ---------------------------------------


    POTLOK:  cpu time      0.0380: real time      0.0410
    SETDIJ:  cpu time      0.0300: real time      0.0302
     EDDAV:  cpu time     11.9625: real time     12.0258
       DOS:  cpu time      0.0004: real time      0.0004
    CHARGE:  cpu time      0.3276: real time      0.3294
    MIXING:  cpu time      0.0016: real time      0.0016
    --------------------------------------------
      LOOP:  cpu time     12.3601: real time     12.4284

 eigenvalue-minimisations  :  5952
 total energy-change (2. order) :-0.7295239E-06  (-0.3091627E-07)
 number of electron     448.0000022 magnetization 
 augmentation part      112.8477399 magnetization 

 Broyden mixing:
  rms(total) = 0.41816E-03    rms(broyden)= 0.41809E-03
  rms(prec ) = 0.43223E-03
  weight for this iteration     100.00

 eigenvalues of (default mixing * dielectric matrix)
  average eigenvalue GAMMA=   1.5964
  3.0666  2.6109  2.6109  1.4173  1.3089  1.3089  0.9520  0.8866  0.9010  0.9010

 Free energy of the ion-electron system (eV)
  ---------------------------------------------------
  alpha Z        PSCENC =       751.52672365
  Ewald energy   TEWEN  =    -22871.34031752
  -Hartree energ DENC   =     -9078.15360014
  -exchange      EXHF   =         0.00000000
  -V(xc)+E(xc)   XCENC  =      1472.51286172
  PAW double counting   =     29499.12154451   -32318.48722222
  entropy T*S    EENTRO =        -0.00000000
  eigenvalues    EBANDS =     -5211.25988198
  atomic energy  EATOM  =     37532.17946992
  Solvation  Ediel_sol  =         0.00000000
  ---------------------------------------------------
  free energy    TOTEN  =      -223.90042204 eV

  energy without entropy =     -223.90042204  energy(sigma->0) =     -223.90042204


--------------------------------------------------------------------------------------------------------




--------------------------------------- Iteration      1(  16)  ---------------------------------------


    POTLOK:  cpu time      0.0378: real time      0.0380
    SETDIJ:  cpu time      0.0300: real time      0.0301
     EDDAV:  cpu time     11.5067: real time     11.5687
       DOS:  cpu time      0.0004: real time      0.0004
    CHARGE:  cpu time      0.3260: real time      0.3276
    MIXING:  cpu time      0.0017: real time      0.0017
    --------------------------------------------
      LOOP:  cpu time     11.9025: real time     11.9665

 eigenvalue-minimisations  :  5664
 total energy-change (2. order) :-0.5191032E-06  (-0.1607743E-07)
 number of electron     448.0000022 magnetization 
 augmentation part      112.8478247 magnetization 

 Broyden mixing:
  rms(total) = 0.13954E-03    rms(broyden)= 0.13932E-03
  rms(prec ) = 0.14587E-03
  weight for this iteration     100.00

 eigenvalues of (default mixing * dielectric matrix)
  average eigenvalue GAMMA=   1.6075
  3.0996  2.5411  2.5411  1.5905  1.5905  1.3566  1.1268  1.1268  0.9163  0.9163
  0.8775

 Free energy of the ion-electron system (eV)
  ---------------------------------------------------
  alpha Z        PSCENC =       751.52672365
  Ewald energy   TEWEN  =    -22871.34031752
  -Hartree energ DENC   =     -9078.16441243
  -exchange      EXHF   =         0.00000000
  -V(xc)+E(xc)   XCENC  =      1472.51338995
  PAW double counting   =     29498.58230270   -32317.94715412
  entropy T*S    EENTRO =        -0.00000000
  eigenvalues    EBANDS =     -5211.25042473
  atomic energy  EATOM  =     37532.17946992
  Solvation  Ediel_sol  =         0.00000000
  ---------------------------------------------------
  free energy    TOTEN  =      -223.90042256 eV

  energy without entropy =     -223.90042256  energy(sigma->0) =     -223.90042256


--------------------------------------------------------------------------------------------------------




--------------------------------------- Iteration      1(  17)  ---------------------------------------


    POTLOK:  cpu time      0.0385: real time      0.0404
    SETDIJ:  cpu time      0.0308: real time      0.0310
     EDDAV:  cpu time      9.9781: real time     10.0301
       DOS:  cpu time      0.0004: real time      0.0004
    CHARGE:  cpu time      0.3259: real time      0.3276
    MIXING:  cpu time      0.0016: real time      0.0016
    --------------------------------------------
      LOOP:  cpu time     10.3754: real time     10.4312

 eigenvalue-minimisations  :  4704
 total energy-change (2. order) :-0.1904991E-06  (-0.2361677E-08)
 number of electron     448.0000022 magnetization 
 augmentation part      112.8478498 magnetization 

 Broyden mixing:
  rms(total) = 0.18571E-04    rms(broyden)= 0.16838E-04
  rms(prec ) = 0.26651E-04
  weight for this iteration     100.00

 eigenvalues of (default mixing * dielectric matrix)
  average eigenvalue GAMMA=   1.5957
  3.1742  2.9016  2.3177  1.8486  1.4459  1.4459  1.1864  1.1864  0.9347  0.9347
  0.9128  0.8598

 Free energy of the ion-electron system (eV)
  ---------------------------------------------------
  alpha Z        PSCENC =       751.52672365
  Ewald energy   TEWEN  =    -22871.34031752
  -Hartree energ DENC   =     -9078.16834518
  -exchange      EXHF   =         0.00000000
  -V(xc)+E(xc)   XCENC  =      1472.51355032
  PAW double counting   =     29498.30901995   -32317.67385032
  entropy T*S    EENTRO =        -0.00000000
  eigenvalues    EBANDS =     -5211.24667359
  atomic energy  EATOM  =     37532.17946992
  Solvation  Ediel_sol  =         0.00000000
  ---------------------------------------------------
  free energy    TOTEN  =      -223.90042275 eV

  energy without entropy =     -223.90042275  energy(sigma->0) =     -223.90042275


--------------------------------------------------------------------------------------------------------




--------------------------------------- Iteration      1(  18)  ---------------------------------------


    POTLOK:  cpu time      0.0376: real time      0.0379
    SETDIJ:  cpu time      0.0309: real time      0.0310
     EDDAV:  cpu time      8.3058: real time      8.3488
       DOS:  cpu time      0.0004: real time      0.0004
    CHARGE:  cpu time      0.3263: real time      0.3281
    MIXING:  cpu time      0.0019: real time      0.0019
    --------------------------------------------
      LOOP:  cpu time      8.7031: real time      8.7482

 eigenvalue-minimisations  :  3648
 total energy-change (2. order) :-0.8844654E-07  (-0.8174417E-09)
 number of electron     448.0000022 magnetization 
 augmentation part      112.8478619 magnetization 

 Broyden mixing:
  rms(total) = 0.43857E-04    rms(broyden)= 0.43156E-04
  rms(prec ) = 0.45890E-04
  weight for this iteration     100.00

 eigenvalues of (default mixing * dielectric matrix)
  average eigenvalue GAMMA=   1.5842
  3.2265  2.9237  2.3145  2.3145  1.2262  1.2262  1.2976  1.1470  1.1470  1.0367
  1.0088  0.8627  0.8627

 Free energy of the ion-electron system (eV)
  ---------------------------------------------------
  alpha Z        PSCENC =       751.52672365
  Ewald energy   TEWEN  =    -22871.34031752
  -Hartree energ DENC   =     -9078.17117232
  -exchange      EXHF   =         0.00000000
  -V(xc)+E(xc)   XCENC  =      1472.51362239
  PAW double counting   =     29498.22925726   -32317.59375693
  entropy T*S    EENTRO =        -0.00000000
  eigenvalues    EBANDS =     -5211.24424930
  atomic energy  EATOM  =     37532.17946992
  Solvation  Ediel_sol  =         0.00000000
  ---------------------------------------------------
  free energy    TOTEN  =      -223.90042284 eV

  energy without entropy =     -223.90042284  energy(sigma->0) =     -223.90042284


--------------------------------------------------------------------------------------------------------




--------------------------------------- Iteration      1(  19)  ---------------------------------------


    POTLOK:  cpu time      0.0377: real time      0.0380
    SETDIJ:  cpu time      0.0310: real time      0.0312
     EDDAV:  cpu time      7.6749: real time      7.7149
       DOS:  cpu time      0.0004: real time      0.0004
    CHARGE:  cpu time      0.3285: real time      0.3303
    MIXING:  cpu time      0.0018: real time      0.0018
    --------------------------------------------
      LOOP:  cpu time      8.0744: real time      8.1165

 eigenvalue-minimisations  :  3264
 total energy-change (2. order) : 0.4172034E-07  (-0.8201225E-09)
 number of electron     448.0000022 magnetization 
 augmentation part      112.8478592 magnetization 

 Broyden mixing:
  rms(total) = 0.31958E-04    rms(broyden)= 0.30990E-04
  rms(prec ) = 0.32652E-04
  weight for this iteration     100.00

 eigenvalues of (default mixing * dielectric matrix)
  average eigenvalue GAMMA=   1.6205
  3.4895  2.9548  2.4748  2.4748  1.5991  1.5991  1.3149  1.1625  1.1625  0.9945
  0.9945  0.8611  0.8611  0.7436

 Free energy of the ion-electron system (eV)
  ---------------------------------------------------
  alpha Z        PSCENC =       751.52672365
  Ewald energy   TEWEN  =    -22871.34031752
  -Hartree energ DENC   =     -9078.17085665
  -exchange      EXHF   =         0.00000000
  -V(xc)+E(xc)   XCENC  =      1472.51362288
  PAW double counting   =     29498.25891947   -32317.62346287
  entropy T*S    EENTRO =        -0.00000000
  eigenvalues    EBANDS =     -5211.24452169
  atomic energy  EATOM  =     37532.17946992
  Solvation  Ediel_sol  =         0.00000000
  ---------------------------------------------------
  free energy    TOTEN  =      -223.90042280 eV

  energy without entropy =     -223.90042280  energy(sigma->0) =     -223.90042280


--------------------------------------------------------------------------------------------------------




--------------------------------------- Iteration      1(  20)  ---------------------------------------


    POTLOK:  cpu time      0.0383: real time      0.0392
    SETDIJ:  cpu time      0.0310: real time      0.0311
     EDDAV:  cpu time      8.0826: real time      8.1271
       DOS:  cpu time      0.0004: real time      0.0004
    CHARGE:  cpu time      0.3244: real time      0.3264
    MIXING:  cpu time      0.0024: real time      0.0024
    --------------------------------------------
      LOOP:  cpu time      8.4791: real time      8.5265

 eigenvalue-minimisations  :  3520
 total energy-change (2. order) : 0.2927118E-07  (-0.2947161E-09)
 number of electron     448.0000022 magnetization 
 augmentation part      112.8478580 magnetization 

 Broyden mixing:
  rms(total) = 0.23889E-04    rms(broyden)= 0.22578E-04
  rms(prec ) = 0.23385E-04
  weight for this iteration     100.00

 eigenvalues of (default mixing * dielectric matrix)
  average eigenvalue GAMMA=   1.6170
  3.8950  2.9711  2.5808  2.5808  1.5094  1.5094  1.3783  1.2226  1.2226  0.9786
  0.9786  0.9155  0.9155  0.7987  0.7987

 Free energy of the ion-electron system (eV)
  ---------------------------------------------------
  alpha Z        PSCENC =       751.52672365
  Ewald energy   TEWEN  =    -22871.34031752
  -Hartree energ DENC   =     -9078.17011452
  -exchange      EXHF   =         0.00000000
  -V(xc)+E(xc)   XCENC  =      1472.51358276
  PAW double counting   =     29498.27332455   -32317.63782168
  entropy T*S    EENTRO =        -0.00000000
  eigenvalues    EBANDS =     -5211.24526994
  atomic energy  EATOM  =     37532.17946992
  Solvation  Ediel_sol  =         0.00000000
  ---------------------------------------------------
  free energy    TOTEN  =      -223.90042277 eV

  energy without entropy =     -223.90042277  energy(sigma->0) =     -223.90042277


--------------------------------------------------------------------------------------------------------




--------------------------------------- Iteration      1(  21)  ---------------------------------------


    POTLOK:  cpu time      0.0384: real time      0.0411
    SETDIJ:  cpu time      0.0304: real time      0.0307
     EDDAV:  cpu time      7.3745: real time      7.4153
       DOS:  cpu time      0.0006: real time      0.0006
    CHARGE:  cpu time      0.3269: real time      0.3287
    MIXING:  cpu time      0.0020: real time      0.0020
    --------------------------------------------
      LOOP:  cpu time      7.7727: real time      7.8183

 eigenvalue-minimisations  :  3072
 total energy-change (2. order) : 0.3165769E-07  (-0.2424067E-09)
 number of electron     448.0000022 magnetization 
 augmentation part      112.8478552 magnetization 

 Broyden mixing:
  rms(total) = 0.13303E-04    rms(broyden)= 0.10773E-04
  rms(prec ) = 0.11410E-04
  weight for this iteration     100.00
  WARNING: grid for Broyden might be to small

 eigenvalues of (default mixing * dielectric matrix)
  average eigenvalue GAMMA=   1.6172
  4.2202  2.9906  2.6694  2.4783  1.6172  1.6172  1.2786  1.2786  1.1963  1.0304
  1.0304  0.9649  0.9649  0.8864  0.8864  0.7651

 Free energy of the ion-electron system (eV)
  ---------------------------------------------------
  alpha Z        PSCENC =       751.52672365
  Ewald energy   TEWEN  =    -22871.34031752
  -Hartree energ DENC   =     -9078.16944566
  -exchange      EXHF   =         0.00000000
  -V(xc)+E(xc)   XCENC  =      1472.51355297
  PAW double counting   =     29498.30104462   -32317.66559386
  entropy T*S    EENTRO =        -0.00000000
  eigenvalues    EBANDS =     -5211.24585685
  atomic energy  EATOM  =     37532.17946992
  Solvation  Ediel_sol  =         0.00000000
  ---------------------------------------------------
  free energy    TOTEN  =      -223.90042274 eV

  energy without entropy =     -223.90042274  energy(sigma->0) =     -223.90042274


--------------------------------------------------------------------------------------------------------




--------------------------------------- Iteration      1(  22)  ---------------------------------------


    POTLOK:  cpu time      0.0391: real time      0.0394
    SETDIJ:  cpu time      0.0326: real time      0.0327
     EDDAV:  cpu time      7.3889: real time      7.4270
       DOS:  cpu time      0.0004: real time      0.0004
[...]
         0         1         2         3         4         5         6         7         8         9
 total charge-density along one line
 
 pseudopotential strength for first ion, spin component:           1
-25.402   0.000   0.000   2.517  -0.000  -0.000  -0.000  -0.000
  0.000 -25.403   0.000  -0.000   2.517  -0.000   0.001   0.002
  0.000   0.000 -25.402  -0.000  -0.000   2.517  -0.000  -0.000
  2.517  -0.000  -0.000   6.526   0.000   0.000   0.000  -0.000
 -0.000   2.517  -0.000   0.000   6.526   0.000  -0.000  -0.000
 -0.000  -0.000   2.517   0.000   0.000   6.526  -0.000  -0.000
 -0.000   0.001  -0.000   0.000  -0.000  -0.000   1.428   6.994
 -0.000   0.002  -0.000  -0.000  -0.000  -0.000   6.994  33.992
 total augmentation occupancy for first ion, spin component:           1
  2.002  -0.000  -0.000   0.002  -0.000  -0.000   0.000  -0.000
 -0.000   2.002  -0.000  -0.000   0.002  -0.000  -0.002   0.001
 -0.000  -0.000   2.002  -0.000  -0.000   0.002   0.000  -0.000
  0.002  -0.000  -0.000   0.017  -0.000  -0.000   0.000   0.000
 -0.000   0.002  -0.000  -0.000   0.017  -0.000  -0.002   0.000
 -0.000  -0.000   0.002  -0.000  -0.000   0.017  -0.000   0.000
  0.000  -0.002   0.000   0.000  -0.002  -0.000   0.399  -0.001
 -0.000   0.001  -0.000   0.000   0.000   0.000  -0.001   0.000


------------------------ aborting loop because EDIFF is reached ----------------------------------------


    CHARGE:  cpu time      0.3296: real time      0.3312
    FORLOC:  cpu time      0.0117: real time      0.0117
    FORNL :  cpu time      2.2259: real time      2.2390
    STRESS:  cpu time     12.5056: real time     12.5669
    FORCOR:  cpu time      0.0449: real time      0.0451
    FORHAR:  cpu time      0.0191: real time      0.0191
    MIXING:  cpu time      0.0013: real time      0.0013
    OFIELD:  cpu time      0.0000: real time      0.0000

  FORCE on cell =-STRESS in cart. coord.  units (eV):
  Direction    XX          YY          ZZ          XY          YZ          ZX
  --------------------------------------------------------------------------------------
  Alpha Z   751.52672   751.52672   751.52672
  Ewald   -7623.77537 -7623.92711 -7623.77517    -0.00013    -0.01423    -0.00741
  Hartree  3026.07339  3026.02235  3026.07355    -0.00010    -0.01204    -0.00613
  E(xc)   -2014.34816 -2014.34823 -2014.34816    -0.00000    -0.00000    -0.00000
  Local   -2024.95898 -2024.76109 -2024.95934     0.00023     0.02650     0.01372
  n-local  1887.62579  1887.62046  1887.62579     0.00000     0.00001    -0.00001
  augment   687.00934   687.00943   687.00904    -0.00000    -0.00005    -0.00009
  Kinetic  5310.52536  5310.52548  5310.52538    -0.00001    -0.00051    -0.00029
  Fock        0.00000     0.00000     0.00000     0.00000     0.00000     0.00000
  -------------------------------------------------------------------------------------
  Total      -0.32189    -0.33198    -0.32219    -0.00000    -0.00034    -0.00021
  in kB      -0.36669    -0.37818    -0.36704    -0.00000    -0.00038    -0.00024
  external pressure =       -0.37 kB  Pullay stress =        0.00 kB


 VOLUME and BASIS-vectors are now :
 -----------------------------------------------------------------------------
  energy-cutoff  :      341.21
  volume of cell :     1406.43
      direct lattice vectors                 reciprocal lattice vectors
    11.204002360  0.000000000  0.000000000     0.089253819  0.000000000  0.000000000
     0.000000000 11.204002360  0.000000000     0.000000000  0.089253819  0.000000000
     0.000000000  0.000000000 11.204002360     0.000000000  0.000000000  0.089253819

  length of vectors
    11.204002360 11.204002360 11.204002360     0.089253819  0.089253819  0.089253819


 FORCES acting on ions
    electron-ion (+dipol)            ewald-force                    non-local-force                 convergence-correction
 -----------------------------------------------------------------------------------------------
   0.621E-01 0.168E+00 -.195E+01   -.614E-01 -.161E+00 0.184E+01   -.430E-03 -.613E-02 0.133E+00   0.243E-06 0.223E-05 0.311E-05
   -.795E+00 0.166E+00 -.813E-01   0.759E+00 -.159E+00 0.799E-01   0.316E-01 -.603E-02 0.125E-02   -.372E-05 0.184E-05 0.327E-06
   -.945E+00 -.159E-01 0.961E+00   0.903E+00 0.153E-01 -.918E+00   0.369E-01 0.770E-03 -.376E-01   -.273E-05 0.248E-06 0.344E-05
   0.218E+01 0.159E-01 0.961E+00   -.206E+01 -.153E-01 -.918E+00   -.143E+00 -.768E-03 -.375E-01   -.226E-05 -.339E-06 0.217E-05
   0.620E-01 0.168E+00 -.235E+01   -.614E-01 -.161E+00 0.222E+01   -.373E-03 -.602E-02 0.149E+00   0.143E-06 0.145E-05 0.352E-06
   -.113E+01 -.168E+00 -.461E-01   0.108E+01 0.161E+00 0.462E-01   0.437E-01 0.607E-02 -.401E-03   -.683E-05 -.210E-05 -.405E-06
   -.114E+00 -.386E-03 -.300E+00   0.111E+00 0.398E-03 0.281E+00   0.274E-02 -.946E-05 0.155E-01   0.944E-06 -.333E-06 -.330E-05
   0.151E-01 -.159E-02 -.300E+00   -.162E-01 0.158E-02 0.281E+00   0.932E-03 0.967E-05 0.155E-01   -.287E-06 -.494E-08 -.259E-05
   0.620E-01 -.168E+00 0.150E+00   -.614E-01 0.161E+00 -.142E+00   -.403E-03 0.610E-02 -.693E-02   0.219E-06 -.191E-05 0.128E-05
   0.536E-01 -.166E+00 -.658E-01   -.496E-01 0.159E+00 0.650E-01   -.331E-02 0.603E-02 0.501E-03   0.174E-05 -.187E-05 -.285E-06
   -.961E+00 0.159E-01 0.113E+00   0.918E+00 -.153E-01 -.109E+00   0.376E-01 -.773E-03 -.272E-02   -.319E-05 -.406E-06 0.474E-06
   0.151E-01 -.159E-01 0.961E+00   -.162E-01 0.153E-01 -.918E+00   0.932E-03 0.775E-03 -.377E-01   -.450E-06 0.540E-06 0.290E-05
   0.620E-01 -.168E+00 -.183E+00   -.614E-01 0.161E+00 0.177E+00   -.399E-03 0.606E-02 0.514E-02   -.114E-05 -.112E-05 0.211E-06
   -.281E+00 0.168E+00 -.617E-01   0.270E+00 -.161E+00 0.610E-01   0.882E-02 -.607E-02 0.412E-03   -.200E-05 0.170E-05 0.307E-06
   -.113E+00 0.386E-03 -.971E-01   0.110E+00 -.398E-03 0.935E-01   0.274E-02 0.956E-05 0.295E-02   -.744E-06 0.198E-06 -.702E-06
   0.160E-02 0.159E-02 -.300E+00   -.163E-02 -.158E-02 0.281E+00   0.226E-04 -.974E-05 0.156E-01   -.345E-06 -.878E-07 -.479E-05
   0.654E-01 -.166E+00 -.184E+00   -.646E-01 0.159E+00 0.178E+00   -.497E-03 0.604E-02 0.518E-02   -.470E-07 -.230E-05 -.230E-05
   0.133E+00 0.166E+00 -.638E-01   -.122E+00 -.159E+00 0.631E-01   -.954E-02 -.604E-02 0.501E-03   0.274E-05 0.200E-05 -.345E-08
   0.284E+00 0.159E-02 0.961E+00   -.266E+00 -.158E-02 -.918E+00   -.148E-01 -.102E-04 -.377E-01   0.210E-05 -.121E-07 0.302E-05
   0.212E+01 0.387E-03 0.113E+00   -.200E+01 -.398E-03 -.109E+00   -.139E+00 0.948E-05 -.275E-02   -.681E-06 0.285E-06 0.131E-05
   0.654E-01 -.166E+00 0.151E+00   -.646E-01 0.159E+00 -.143E+00   -.522E-03 0.603E-02 -.696E-02   -.158E-06 -.202E-05 0.169E-05
   0.468E+00 -.168E+00 -.636E-01   -.442E+00 0.161E+00 0.630E-01   -.216E-01 0.608E-02 0.411E-03   0.727E-05 -.113E-05 0.389E-06
   0.987E-01 0.290E-03 -.300E+00   -.950E-01 -.274E-03 0.281E+00   -.296E-02 -.129E-04 0.156E-01   -.895E-06 -.222E-06 -.317E-05
   0.175E-01 -.290E-03 -.971E-01   -.185E-01 0.274E-03 0.935E-01   0.850E-03 0.135E-04 0.295E-02   -.673E-07 -.345E-06 -.123E-06
   0.654E-01 0.166E+00 -.169E+00   -.646E-01 -.159E+00 0.162E+00   -.508E-03 -.603E-02 0.605E-02   0.123E-07 0.267E-05 -.249E-05
   -.693E-01 -.166E+00 -.651E-01   0.656E-01 0.159E+00 0.644E-01   0.309E-02 0.604E-02 0.498E-03   -.182E-05 -.179E-05 0.144E-07
   0.299E+00 -.159E-02 0.113E+00   -.281E+00 0.158E-02 -.109E+00   -.156E-01 0.977E-05 -.273E-02   0.283E-05 0.140E-06 0.422E-06
   0.175E-01 -.386E-03 0.113E+00   -.185E-01 0.398E-03 -.109E+00   0.850E-03 -.993E-05 -.273E-02   0.309E-06 0.197E-07 -.655E-07
   0.654E-01 0.166E+00 0.165E+00   -.646E-01 -.159E+00 -.157E+00   -.511E-03 -.603E-02 -.605E-02   0.239E-06 0.201E-05 0.172E-05
   0.265E+00 0.168E+00 -.623E-01   -.254E+00 -.161E+00 0.617E-01   -.904E-02 -.608E-02 0.416E-03   0.403E-05 0.990E-06 0.150E-06
   0.974E-01 -.290E-03 -.971E-01   -.937E-01 0.274E-03 0.935E-01   -.297E-02 0.133E-04 0.295E-02   0.499E-06 0.550E-09 -.690E-06
   0.275E-02 0.290E-03 -.971E-01   -.273E-02 -.274E-03 0.935E-01   -.209E-04 -.131E-04 0.295E-02   -.102E-06 -.199E-06 -.447E-06
   -.402E+01 0.271E-02 0.317E+00   0.397E+01 -.267E-02 -.313E+00   0.121E+00 -.741E-04 -.598E-02   -.754E-05 0.208E-06 0.330E-05
   0.252E+00 0.487E+00 0.401E+01   -.247E+00 -.479E+00 -.397E+01   -.930E-02 -.140E-01 -.121E+00   -.286E-06 0.193E-05 0.652E-05
   0.252E+00 0.478E+00 0.231E+00   -.247E+00 -.470E+00 -.228E+00   -.932E-02 -.137E-01 -.485E-02   0.350E-07 0.118E-05 0.216E-05
   0.166E+00 -.262E-02 -.258E+00   -.162E+00 0.259E-02 0.253E+00   -.783E-02 0.540E-04 0.927E-02   -.164E-05 -.580E-07 -.626E-06
   -.166E+00 -.780E-03 -.176E+00   0.164E+00 0.777E-03 0.173E+00   0.392E-02 0.710E-05 0.392E-02   -.289E-05 -.317E-06 -.295E-05
   0.702E-02 0.401E-01 -.522E+00   -.709E-02 -.392E-01 0.516E+00   0.124E-03 -.145E-02 0.959E-02   0.269E-06 0.171E-05 -.591E-05
   0.252E+00 -.487E+00 -.739E+00   -.247E+00 0.479E+00 0.726E+00   -.928E-02 0.140E-01 0.233E-01   0.218E-07 -.161E-05 -.218E-05
   -.798E+00 -.264E-02 -.250E+00   0.787E+00 0.259E-02 0.244E+00   0.199E-01 0.887E-04 0.921E-02   -.451E-05 -.237E-07 0.263E-06
   -.163E+00 -.263E-02 0.312E+00   0.161E+00 0.259E-02 -.308E+00   0.384E-02 0.708E-04 -.589E-02   -.261E-05 -.286E-06 0.295E-05
   0.252E+00 -.487E+00 0.166E+00   -.247E+00 0.479E+00 -.163E+00   -.930E-02 0.140E-01 -.391E-02   0.139E-06 -.183E-05 0.368E-05
   0.702E-02 -.478E+00 -.216E+00   -.709E-02 0.470E+00 0.211E+00   0.121E-03 0.137E-01 0.778E-02   0.430E-06 -.140E-05 0.149E-05
   -.272E+00 0.263E-02 -.113E-01   0.269E+00 -.259E-02 0.114E-01   0.446E-02 -.652E-04 -.171E-04   -.137E-05 0.242E-06 0.120E-06
   -.690E-01 0.782E-03 -.176E+00   0.682E-01 -.777E-03 0.173E+00   0.133E-02 -.839E-05 0.392E-02   0.738E-06 0.376E-06 -.286E-05
   0.702E-02 -.401E-01 -.131E+00   -.709E-02 0.392E-01 0.128E+00   0.124E-03 0.145E-02 0.496E-02   0.171E-06 -.140E-05 -.338E-05
   0.701E-02 0.487E+00 -.292E+00   -.709E-02 -.479E+00 0.286E+00   0.129E-03 -.141E-01 0.108E-01   -.104E-06 0.105E-05 -.140E-05
   -.352E+00 0.264E-02 -.438E-02   0.347E+00 -.259E-02 0.450E-02   0.734E-02 -.780E-04 -.201E-03   -.473E-05 0.380E-06 -.233E-06
   0.519E+00 0.263E-02 0.312E+00   -.513E+00 -.259E-02 -.308E+00   -.952E-02 -.712E-04 -.589E-02   0.610E-05 -.225E-06 0.284E-05
   0.256E+00 -.478E+00 0.166E+00   -.250E+00 0.470E+00 -.163E+00   -.922E-02 0.137E-01 -.392E-02   0.853E-06 -.201E-05 0.363E-05
   0.256E+00 0.399E-01 -.487E+00   -.250E+00 -.391E-01 0.479E+00   -.921E-02 -.143E-02 0.136E-01   0.254E-06 0.127E-05 -.183E-05
   -.302E+00 0.783E-03 -.255E+00   0.297E+00 -.777E-03 0.250E+00   0.982E-02 -.120E-04 0.922E-02   0.156E-05 -.198E-06 0.103E-06
   0.132E+00 -.782E-03 -.176E+00   -.129E+00 0.777E-03 0.173E+00   -.496E-02 0.841E-05 0.392E-02   0.325E-05 -.255E-06 -.291E-05
   0.872E-02 -.399E-01 -.131E+00   -.877E-02 0.391E-01 0.128E+00   0.853E-04 0.143E-02 0.496E-02   -.227E-06 -.175E-05 -.302E-05
   0.256E+00 -.401E-01 0.471E+00   -.250E+00 0.392E-01 -.463E+00   -.921E-02 0.145E-02 -.139E-01   -.202E-07 -.174E-05 0.164E-05
   0.662E+00 0.779E-03 -.253E+00   -.652E+00 -.777E-03 0.248E+00   -.180E-01 -.248E-05 0.932E-02   0.467E-05 -.982E-08 -.321E-06
   0.129E+00 -.264E-02 0.312E+00   -.126E+00 0.259E-02 -.308E+00   -.488E-02 0.725E-04 -.590E-02   0.280E-05 -.136E-07 0.306E-05
   0.256E+00 0.478E+00 0.682E-01   -.250E+00 -.470E+00 -.674E-01   -.922E-02 -.137E-01 -.132E-02   0.457E-06 0.175E-05 0.190E-06
   0.872E-02 -.399E-01 -.486E-01   -.877E-02 0.391E-01 0.478E-01   0.873E-04 0.143E-02 0.134E-02   -.364E-06 -.164E-05 -.134E-05
   0.136E+00 -.782E-03 -.793E-02   -.134E+00 0.777E-03 0.799E-02   -.249E-02 0.957E-05 -.936E-04   0.118E-05 -.715E-08 0.255E-06
   0.646E-01 0.782E-03 -.176E+00   -.638E-01 -.777E-03 0.173E+00   -.136E-02 -.811E-05 0.392E-02   -.373E-06 0.812E-07 -.320E-05
   0.872E-02 0.399E-01 -.639E-01   -.877E-02 -.391E-01 0.630E-01   0.863E-04 -.143E-02 0.135E-02   -.210E-06 0.202E-05 0.396E-06
   0.872E-02 0.401E-01 0.329E-01   -.877E-02 -.392E-01 -.320E-01   0.840E-04 -.145E-02 -.155E-02   -.200E-06 0.179E-05 0.177E-05
   0.216E+00 -.780E-03 -.780E-02   -.212E+00 0.777E-03 0.787E-02   -.537E-02 0.570E-05 -.117E-03   0.450E-05 0.158E-06 -.137E-06
 -----------------------------------------------------------------------------------------------
   0.150E+00 -.433E-05 -.150E+00   0.728E-13 -.713E-13 -.860E-13   -.150E+00 0.483E-05 0.150E+00   -.378E-05 -.502E-06 0.401E-05
 
 
 POSITION                                       TOTAL-FORCE (eV/Angst)
 -----------------------------------------------------------------------------------
      0.00000      0.00000      0.00000         0.000220      0.001310      0.017500
      2.80100      2.80100      0.00000        -0.003729      0.001289     -0.000138
      2.80100      0.00000      2.80100        -0.005103      0.000092      0.005007
      0.00000      2.80100      2.80100        -0.020276     -0.000092      0.004994
      0.00000      0.00000      5.60200         0.000206      0.001288      0.018972
      2.80100      2.80100      5.60200        -0.006304     -0.001297     -0.000299
      2.80100      0.00000      8.40300        -0.000610      0.000002     -0.002832
      0.00000      2.80100      8.40300        -0.000167     -0.000003     -0.002830
      0.00000      5.60200      0.00000         0.000214     -0.001303      0.001450
      2.80100      8.40300      0.00000         0.000685     -0.001290     -0.000234
      2.80100      5.60200      2.80100        -0.005013     -0.000092      0.000605
      0.00000      8.40300      2.80100        -0.000167      0.000092      0.005025
      0.00000      5.60200      5.60200         0.000213     -0.001294     -0.001131
      2.80100      8.40300      5.60200        -0.001908      0.001299     -0.000216
      2.80100      5.60200      8.40300        -0.000610     -0.000002     -0.000669
      0.00000      8.40300      8.40300        -0.000006      0.000003     -0.002839
      5.60200      0.00000      0.00000         0.000233     -0.001291     -0.001139
      8.40300      2.80100      0.00000         0.001547      0.001292     -0.000233
      8.40300      0.00000      2.80100         0.002926      0.000003      0.005023
      5.60200      2.80100      2.80100        -0.016207     -0.000002      0.000609
      5.60200      0.00000      5.60200         0.000238     -0.001290      0.001457
      8.40300      2.80100      5.60200         0.004131     -0.001300     -0.000216
      8.40300      0.00000      8.40300         0.000672      0.000003     -0.002837
      5.60200      2.80100      8.40300        -0.000151     -0.000003     -0.000670
      5.60200      5.60200      0.00000         0.000235      0.001291     -0.001294
      8.40300      8.40300      0.00000        -0.000623     -0.001292     -0.000233
      8.40300      5.60200      2.80100         0.002836     -0.000003      0.000607
      5.60200      8.40300      2.80100        -0.000151      0.000002      0.000607
      5.60200      5.60200      5.60200         0.000236      0.001290      0.001296
      8.40300      8.40300      5.60200         0.001971      0.001301     -0.000217
      8.40300      5.60200      8.40300         0.000673     -0.000003     -0.000670
      5.60200      8.40300      8.40300         0.000004      0.000003     -0.000669
      2.77100      2.80100      2.80100         0.076017     -0.000031     -0.002372
      0.00000      0.00000      2.83100        -0.003918     -0.005883     -0.075986
      0.00000      2.80100      0.00000        -0.003926     -0.005730     -0.002033
      2.80100      0.00000      0.00000        -0.003392      0.000024      0.003882
      2.80100      2.80100      8.40300         0.001552      0.000004      0.001544
      0.00000      0.00000      8.40300         0.000053     -0.000576      0.003843
      0.00000      2.80100      5.60200        -0.003909      0.005879      0.009790
      2.80100      0.00000      5.60200         0.008215      0.000037      0.003879
      2.80100      8.40300      2.80100         0.001519      0.000031     -0.002338
      0.00000      5.60200      2.80100        -0.003918      0.005883     -0.001548
      0.00000      8.40300      0.00000         0.000052      0.005741      0.003291
      2.80100      5.60200      0.00000         0.001771     -0.000028     -0.000009
      2.80100      8.40300      8.40300         0.000523     -0.000003      0.001546
      0.00000      5.60200      8.40300         0.000054      0.000576      0.001959
      0.00000      8.40300      5.60200         0.000055     -0.005890      0.004499
      2.80100      5.60200      5.60200         0.002912     -0.000033     -0.000085
      8.40300      2.80100      2.80100        -0.003813     -0.000031     -0.002337
      5.60200      0.00000      2.80100        -0.003860      0.005734     -0.001550
      5.60200      2.80100      0.00000        -0.003862     -0.000568      0.005697
      8.40300      0.00000      0.00000         0.004190     -0.000007      0.003860
      8.40300      2.80100      8.40300        -0.001963      0.000003      0.001547
      5.60200      0.00000      8.40300         0.000038      0.000568      0.001961
      5.60200      2.80100      5.60200        -0.003861      0.000576     -0.005788
      8.40300      0.00000      5.60200        -0.007433     -0.000001      0.003924
      8.40300      8.40300      2.80100        -0.001929      0.000030     -0.002341
      5.60200      5.60200      2.80100        -0.003860     -0.005735     -0.000520
      5.60200      8.40300      0.00000         0.000038      0.000568      0.000530
      8.40300      5.60200      0.00000        -0.000980      0.000005     -0.000041
      8.40300      8.40300      8.40300        -0.000531     -0.000003      0.001548
      5.60200      5.60200      8.40300         0.000037     -0.000567      0.000528
      5.60200      8.40300      5.60200         0.000037     -0.000576     -0.000620
      8.40300      5.60200      5.60200        -0.002122      0.000002     -0.000050
 -----------------------------------------------------------------------------------
    total drift:                               -0.000201     -0.000000      0.000198


--------------------------------------------------------------------------------------------------------



  FREE ENERGIE OF THE ION-ELECTRON SYSTEM (eV)
  ---------------------------------------------------
  free  energy   TOTEN  =      -223.90042273 eV

  energy  without entropy=     -223.90042273  energy(sigma->0) =     -223.90042273
 


--------------------------------------------------------------------------------------------------------


    POTLOK:  cpu time      0.0711: real time      0.0714


--------------------------------------------------------------------------------------------------------


     LOOP+:  cpu time    253.4795: real time    254.8518
    4ORBIT:  cpu time      0.0000: real time      0.0000

 total amount of memory used by VASP MPI-rank0   129658. kBytes
=======================================================================

   base      :      30000. kBytes
   nonl-proj :      41680. kBytes
   fftplans  :      14405. kBytes
   grid      :      19342. kBytes
   one-center:        196. kBytes
   wavefun   :      24035. kBytes
 
  
  
 General timing and accounting informations for this job:
 ========================================================
  
                  Total CPU time used (sec):      257.833
                            User time (sec):      257.206
                          System time (sec):        0.627
                         Elapsed time (sec):      259.634
  
                   Maximum memory used (kb):      321808.
                   Average memory used (kb):          N/A
  
                          Minor page faults:       125831
                          Major page faults:            0
                 Voluntary context switches:          871
