<?xml version="1.0" encoding="ISO-8859-1"?>
<modeling>
 <generator>
  <i name="program" type="string">vasp </i>
  <i name="version" type="string">6.3.2  </i>
  <i name="subversion" type="string">27Jun22 (build Oct 14 2022 12:13:54) complex                          parallel </i>
  <i name="platform" type="string">LinuxIFC </i>
  <i name="date" type="string">2025 08 28 </i>
  <i name="time" type="string">22:12:18 </i>
 </generator>
 <incar>
  <i type="string" name="PREC">Accurate</i>
  <i type="int" name="IALGO">    38</i>
  <i type="logical" name="ADDGRID"> T  </i>
  <i type="int" name="NELMIN">     5</i>
  <i type="int" name="IBRION">    -1</i>
  <i name="EDIFF">      0.00000001</i>
  <i name="ENCUT">    341.21360000</i>
  <i type="logical" name="LREAL"> F  </i>
  <i type="int" name="ISMEAR">     0</i>
  <i name="SIGMA">      0.02000000</i>
  <i type="logical" name="LWAVE"> F  </i>
  <i type="logical" name="LCHARG"> F  </i>
  <i type="string" name="GGA">PS</i>
 </incar>
 <primitive_cell>
  <structure name="primitive_cell" >
   <crystal>
    <varray name="basis" >
     <v>      11.20400236       0.00000000       0.00000000 </v>
     <v>       0.00000000      11.20400236       0.00000000 </v>
     <v>       0.00000000       0.00000000      11.20400236 </v>
    </varray>
    <i name="volume">   1406.43470641 </i>
    <varray name="rec_basis" >
     <v>       0.08925382       0.00000000       0.00000000 </v>
     <v>       0.00000000       0.08925382       0.00000000 </v>
     <v>       0.00000000       0.00000000       0.08925382 </v>
    </varray>
   </crystal>
   <varray name="positions" >
    <v>       0.00000000       0.00000000       0.00000000 </v>
    <v>       0.25000000       0.25000000       0.00000000 </v>
    <v>       0.25000000       0.00000000       0.25000000 </v>
    <v>       0.00000000       0.25000000       0.25000000 </v>
    <v>       0.00000000       0.00000000       0.50000000 </v>
    <v>       0.25000000       0.25000000       0.50000000 </v>
    <v>       0.25000000       0.00000000       0.75000000 </v>
    <v>       0.00000000       0.25000000       0.75000000 </v>
    <v>       0.00000000       0.50000000       0.00000000 </v>
    <v>       0.25000000       0.75000000       0.00000000 </v>
    <v>       0.25000000       0.50000000       0.25000000 </v>
    <v>       0.00000000       0.75000000       0.25000000 </v>
    <v>       0.00000000       0.50000000       0.50000000 </v>
    <v>       0.25000000       0.75000000       0.50000000 </v>
    <v>       0.25000000       0.50000000       0.75000000 </v>
    <v>       0.00000000       0.75000000       0.75000000 </v>
    <v>       0.50000000       0.00000000       0.00000000 </v>
    <v>       0.75000000       0.25000000       0.00000000 </v>
    <v>       0.75000000       0.00000000       0.25000000 </v>
    <v>       0.50000000       0.25000000       0.25000000 </v>
    <v>       0.50000000       0.00000000       0.50000000 </v>
    <v>       0.75000000       0.25000000       0.50000000 </v>
    <v>       0.75000000       0.00000000       0.75000000 </v>
    <v>       0.50000000       0.25000000       0.75000000 </v>
    <v>       0.50000000       0.50000000       0.00000000 </v>
    <v>       0.75000000       0.75000000       0.00000000 </v>
    <v>       0.75000000       0.50000000       0.25000000 </v>
    <v>       0.50000000       0.75000000       0.25000000 </v>
    <v>       0.50000000       0.50000000       0.50000000 </v>
    <v>       0.75000000       0.75000000       0.50000000 </v>
    <v>       0.75000000       0.50000000       0.75000000 </v>
    <v>       0.50000000       0.75000000       0.75000000 </v>
    <v>       0.24732239       0.25000000       0.25000000 </v>
    <v>       0.00000000       0.00000000       0.25267761 </v>
    <v>       0.00000000       0.25000000       0.00000000 </v>
    <v>       0.25000000       0.00000000       0.00000000 </v>
    <v>       0.25000000       0.25000000       0.75000000 </v>
    <v>       0.00000000       0.00000000       0.75000000 </v>
    <v>       0.00000000       0.25000000       0.50000000 </v>
    <v>       0.25000000       0.00000000       0.50000000 </v>
    <v>       0.25000000       0.75000000       0.25000000 </v>
    <v>       0.00000000       0.50000000       0.25000000 </v>
    <v>       0.00000000       0.75000000       0.00000000 </v>
    <v>       0.25000000       0.50000000       0.00000000 </v>
    <v>       0.25000000       0.75000000       0.75000000 </v>
    <v>       0.00000000       0.50000000       0.75000000 </v>
    <v>       0.00000000       0.75000000       0.50000000 </v>
    <v>       0.25000000       0.50000000       0.50000000 </v>
    <v>       0.75000000       0.25000000       0.25000000 </v>
    <v>       0.50000000       0.00000000       0.25000000 </v>
    <v>       0.50000000       0.25000000       0.00000000 </v>
    <v>       0.75000000       0.00000000       0.00000000 </v>
    <v>       0.75000000       0.25000000       0.75000000 </v>
    <v>       0.50000000       0.00000000       0.75000000 </v>
    <v>       0.50000000       0.25000000       0.50000000 </v>
    <v>       0.75000000       0.00000000       0.50000000 </v>
    <v>       0.75000000       0.75000000       0.25000000 </v>
    <v>       0.50000000       0.50000000       0.25000000 </v>
    <v>       0.50000000       0.75000000       0.00000000 </v>
    <v>       0.75000000       0.50000000       0.00000000 </v>
    <v>       0.75000000       0.75000000       0.75000000 </v>
    <v>       0.50000000       0.50000000       0.75000000 </v>
    <v>       0.50000000       0.75000000       0.50000000 </v>
    <v>       0.75000000       0.50000000       0.50000000 </v>
   </varray>
  </structure>
  <varray name="primitive_index" >
   <v type="int" >        1 </v>
   <v type="int" >        2 </v>
   <v type="int" >        3 </v>
   <v type="int" >        4 </v>
   <v type="int" >        5 </v>
   <v type="int" >        6 </v>
   <v type="int" >        7 </v>
   <v type="int" >        8 </v>
   <v type="int" >        9 </v>
   <v type="int" >       10 </v>
   <v type="int" >       11 </v>
   <v type="int" >       12 </v>
   <v type="int" >       13 </v>
   <v type="int" >       14 </v>
   <v type="int" >       15 </v>
   <v type="int" >       16 </v>
   <v type="int" >       17 </v>
   <v type="int" >       18 </v>
   <v type="int" >       19 </v>
   <v type="int" >       20 </v>
   <v type="int" >       21 </v>
   <v type="int" >       22 </v>
   <v type="int" >       23 </v>
   <v type="int" >       24 </v>
   <v type="int" >       25 </v>
   <v type="int" >       26 </v>
   <v type="int" >       27 </v>
   <v type="int" >       28 </v>
   <v type="int" >       29 </v>
   <v type="int" >       30 </v>
   <v type="int" >       31 </v>
   <v type="int" >       32 </v>
   <v type="int" >       33 </v>
   <v type="int" >       34 </v>
   <v type="int" >       35 </v>
   <v type="int" >       36 </v>
   <v type="int" >       37 </v>
   <v type="int" >       38 </v>
   <v type="int" >       39 </v>
   <v type="int" >       40 </v>
   <v type="int" >       41 </v>
   <v type="int" >       42 </v>
   <v type="int" >       43 </v>
   <v type="int" >       44 </v>
   <v type="int" >       45 </v>
   <v type="int" >       46 </v>
   <v type="int" >       47 </v>
   <v type="int" >       48 </v>
   <v type="int" >       49 </v>
   <v type="int" >       50 </v>
   <v type="int" >       51 </v>
   <v type="int" >       52 </v>
   <v type="int" >       53 </v>
   <v type="int" >       54 </v>
   <v type="int" >       55 </v>
   <v type="int" >       56 </v>
   <v type="int" >       57 </v>
   <v type="int" >       58 </v>
   <v type="int" >       59 </v>
   <v type="int" >       60 </v>
   <v type="int" >       61 </v>
   <v type="int" >       62 </v>
   <v type="int" >       63 </v>
   <v type="int" >       64 </v>
  </varray>
 </primitive_cell>
 <kpoints>
  <generation param="Gamma">
   <v type="int" name="divisions">       2        2        2 </v>
   <v name="usershift">      0.00000000       0.00000000       0.00000000 </v>
   <v name="genvec1">      0.50000000       0.00000000       0.00000000 </v>
   <v name="genvec2">      0.00000000       0.50000000       0.00000000 </v>
   <v name="genvec3">      0.00000000       0.00000000       0.50000000 </v>
   <v name="shift">      0.00000000       0.00000000       0.00000000 </v>
  </generation>
  <varray name="kpointlist" >
   <v>       0.00000000       0.00000000       0.00000000 </v>
   <v>       0.50000000       0.00000000       0.00000000 </v>
   <v>       0.00000000       0.50000000       0.00000000 </v>
   <v>       0.00000000       0.00000000       0.50000000 </v>
   <v>       0.50000000       0.50000000       0.00000000 </v>
   <v>       0.00000000       0.50000000       0.50000000 </v>
   <v>       0.50000000       0.00000000       0.50000000 </v>
   <v>       0.50000000       0.50000000       0.50000000 </v>
  </varray>
  <varray name="weights" >
   <v>       0.12500000 </v>
   <v>       0.12500000 </v>
   <v>       0.12500000 </v>
   <v>       0.12500000 </v>
   <v>       0.12500000 </v>
   <v>       0.12500000 </v>
   <v>       0.12500000 </v>
   <v>       0.12500000 </v>
  </varray>
 </kpoints>
 <parameters>
  <separator name="general" >
   <i type="string" name="SYSTEM">unknown system</i>
   <i type="logical" name="LCOMPAT"> F  </i>
  </separator>
  <separator name="electronic" >
   <i type="string" name="PREC">accura</i>
   <i name="ENMAX">    341.21360000</i>
   <i name="ENAUG">    368.05600000</i>
   <i name="EDIFF">      0.00000001</i>
   <i type="int" name="IALGO">    38</i>
   <i type="int" name="IWAVPR">    10</i>
   <i type="int" name="NBANDS">   288</i>
   <i type="int" name="NBANDSLOW">    -1</i>
   <i type="int" name="NBANDSHIGH">    -1</i>
   <i name="NELECT">    448.00000000</i>
   <i type="int" name="TURBO">     0</i>
   <i type="int" name="IRESTART">     0</i>
   <i type="int" name="NREBOOT">     0</i>
   <i type="int" name="NMIN">     0</i>
   <i name="EREF">      0.00000000</i>
   <separator name="electronic smearing" >
    <i type="int" name="ISMEAR">     0</i>
    <i name="SIGMA">      0.02000000</i>
    <i name="KSPACING">      0.50000000</i>
    <i type="logical" name="KGAMMA"> T  </i>
    <i type="logical" name="KBLOWUP"> T  </i>
   </separator>
   <separator name="electronic projectors" >
    <i type="logical" name="LREAL"> F  </i>
    <v name="ROPT">      0.00000000      0.00000000</v>
    <i type="int" name="LMAXPAW">  -100</i>
    <i type="int" name="LMAXMIX">     2</i>
    <i type="logical" name="NLSPLINE"> F  </i>
   </separator>
   <separator name="electronic startup" >
    <i type="int" name="ISTART">     0</i>
    <i type="int" name="ICHARG">     2</i>
    <i type="int" name="INIWAV">     1</i>
   </separator>
   <separator name="electronic spin" >
    <i type="int" name="ISPIN">     1</i>
    <i type="logical" name="LNONCOLLINEAR"> F  </i>
    <v name="MAGMOM">      1.00000000      1.00000000      1.00000000      1.00000000      1.00000000      1.00000000      1.00000000      1.00000000      1.00000000      1.00000000      1.00000000      1.00000000      1.00000000      1.00000000      1.00000000      1.00000000      1.00000000      1.00000000      1.00000000      1.00000000
      1.00000000      1.00000000      1.00000000      1.00000000      1.00000000      1.00000000      1.00000000      1.00000000      1.00000000      1.00000000      1.00000000      1.00000000      1.00000000      1.00000000      1.00000000      1.00000000      1.00000000      1.00000000      1.00000000      1.00000000
      1.00000000      1.00000000      1.00000000      1.00000000      1.00000000      1.00000000      1.00000000      1.00000000      1.00000000      1.00000000      1.00000000      1.00000000      1.00000000      1.00000000      1.00000000      1.00000000      1.00000000      1.00000000      1.00000000      1.00000000
      1.00000000      1.00000000      1.00000000      1.00000000</v>
    <i name="NUPDOWN">     -1.00000000</i>
    <i type="logical" name="LSORBIT"> F  </i>
    <v name="SAXIS">      0.00000000      0.00000000      1.00000000</v>
    <i type="logical" name="LSPIRAL"> F  </i>
    <v name="QSPIRAL">      0.00000000      0.00000000      0.00000000</v>
    <i type="logical" name="LZEROZ"> F  </i>
   </separator>
   <separator name="electronic exchange-correlation" >
    <i type="logical" name="LASPH"> F  </i>
    <i type="logical" name="LMETAGGA"> F  </i>
   </separator>
   <separator name="electronic convergence" >
    <i type="int" name="NELM">    60</i>
    <i type="int" name="NELMDL">    -5</i>
    <i type="int" name="NELMIN">     5</i>
    <i name="ENINI">    341.21360000</i>
    <separator name="electronic convergence detail" >
     <i type="logical" name="LDIAG"> T  </i>
     <i type="logical" name="LSUBROT"> F  </i>
     <i name="WEIMIN">      0.00000000</i>
     <i name="EBREAK">      0.00000000</i>
     <i name="DEPER">      0.30000000</i>
     <i type="int" name="NRMM">     4</i>
     <i name="TIME">      0.40000000</i>
    </separator>
   </separator>
   <separator name="electronic mixer" >
    <i name="AMIX">      0.40000000</i>
    <i name="BMIX">      1.00000000</i>
    <i name="AMIN">      0.10000000</i>
    <i name="AMIX_MAG">      1.60000000</i>
    <i name="BMIX_MAG">      1.00000000</i>
    <separator name="electronic mixer details" >
     <i type="int" name="IMIX">     4</i>
     <i type="logical" name="MIXFIRST"> F  </i>
     <i type="int" name="MAXMIX">   -45</i>
     <i name="WC">    100.00000000</i>
     <i type="int" name="INIMIX">     1</i>
     <i type="int" name="MIXPRE">     1</i>
     <i type="int" name="MREMOVE">     5</i>
    </separator>
   </separator>
   <separator name="electronic dipolcorrection" >
    <i type="logical" name="LDIPOL"> F  </i>
    <i type="logical" name="LMONO"> F  </i>
    <i type="int" name="IDIPOL">     0</i>
    <i name="EPSILON">      1.00000000</i>
    <v name="DIPOL">   -100.00000000   -100.00000000   -100.00000000</v>
    <i name="EFIELD">      0.00000000</i>
   </separator>
  </separator>
  <separator name="grids" >
   <i type="int" name="NGX">    70</i>
   <i type="int" name="NGY">    70</i>
   <i type="int" name="NGZ">    70</i>
   <i type="int" name="NGXF">   140</i>
   <i type="int" name="NGYF">   140</i>
   <i type="int" name="NGZF">   140</i>
   <i type="logical" name="ADDGRID"> T  </i>
  </separator>
  <separator name="ionic" >
   <i type="int" name="NSW">     0</i>
   <i type="int" name="IBRION">    -1</i>
   <i type="int" name="MDALGO">     0</i>
   <i type="int" name="ISIF">     2</i>
   <i name="PSTRESS">      0.00000000</i>
   <i name="EDIFFG">      0.00000010</i>
   <i type="int" name="NFREE">     0</i>
   <i name="POTIM">      0.50000000</i>
   <i name="SMASS">     -3.00000000</i>
   <i name="SCALEE">      1.00000000</i>
  </separator>
  <separator name="ionic md" >
   <i name="TEBEG">      0.00010000</i>
   <i name="TEEND">      0.00010000</i>
   <i type="int" name="NBLOCK">     1</i>
   <i type="int" name="KBLOCK">     1</i>
   <i type="int" name="NPACO">   256</i>
   <i name="APACO">     10.00000000</i>
  </separator>
  <separator name="symmetry" >
   <i type="int" name="ISYM">     2</i>
   <i name="SYMPREC">      0.00001000</i>
  </separator>
  <separator name="dos" >
   <i type="int" name="LORBIT">     0</i>
   <v name="RWIGS">     -1.00000000     -1.00000000</v>
   <i type="int" name="NEDOS">   301</i>
   <i name="EMIN">     10.00000000</i>
   <i name="EMAX">    -10.00000000</i>
   <i name="EFERMI">      0.00000000</i>
  </separator>
  <separator name="writing" >
   <i type="int" name="NWRITE">     2</i>
   <i type="logical" name="LWAVE"> F  </i>
   <i type="logical" name="LDOWNSAMPLE"> F  </i>
   <i type="logical" name="LCHARG"> F  </i>
   <i type="logical" name="LPARD"> F  </i>
   <i type="logical" name="LVTOT"> F  </i>
   <i type="logical" name="LVHAR"> F  </i>
   <i type="logical" name="LELF"> F  </i>
   <i type="logical" name="LOPTICS"> F  </i>
   <v name="STM">      0.00000000      0.00000000      0.00000000      0.00000000      0.00000000      0.00000000      0.00000000</v>
  </separator>
  <separator name="performance" >
   <i type="int" name="NPAR">    32</i>
   <i type="int" name="NSIM">     4</i>
   <i type="int" name="NBLK">    -1</i>
   <i type="logical" name="LPLANE"> T  </i>
   <i type="logical" name="LSCALAPACK"> T  </i>
   <i type="logical" name="LSCAAWARE"> F  </i>
   <i type="logical" name="LSCALU"> F  </i>
   <i type="logical" name="LASYNC"> F  </i>
   <i type="logical" name="LORBITALREAL"> F  </i>
  </separator>
  <separator name="miscellaneous" >
   <i type="int" name="IDIOT">     3</i>
   <i type="int" name="PHON_NSTRUCT">    -1</i>
   <i type="logical" name="LMUSIC"> F  </i>
   <v name="POMASS">     22.99000000     35.45300000</v>
   <v name="DARWINR">      0.00000000      0.00000000</v>
   <v name="DARWINV">      1.00000000      1.00000000</v>
   <i type="logical" name="LCORR"> T  </i>
  </separator>
  <i type="logical" name="GGA_COMPAT"> T  </i>
  <i type="logical" name="LBERRY"> F  </i>
  <i type="int" name="ICORELEVEL">     0</i>
  <i type="logical" name="LDAU"> F  </i>
  <i type="int" name="I_CONSTRAINED_M">     0</i>
  <separator name="electronic exchange-correlation" >
   <i type="string" name="GGA">PS</i>
   <i type="int" name="VOSKOWN">     0</i>
   <i type="logical" name="LHFCALC"> F  </i>
   <i type="string" name="PRECFOCK"></i>
   <i type="logical" name="LSYMGRAD"> F  </i>
   <i type="logical" name="LHFONE"> F  </i>
   <i type="logical" name="LRHFCALC"> F  </i>
   <i type="logical" name="LTHOMAS"> F  </i>
   <i type="logical" name="LMODELHF"> F  </i>
   <i type="logical" name="LFOCKACE"> F  </i>
   <i name="ENCUT4O">     -1.00000000</i>
   <i type="int" name="EXXOEP">     0</i>
   <i type="int" name="FOURORBIT">     0</i>
   <i name="AEXX">      0.00000000</i>
   <i name="HFALPHA">      0.00000000</i>
   <i name="MCALPHA">      0.00000000</i>
   <i name="ALDAX">      1.00000000</i>
   <i name="AGGAX">      1.00000000</i>
   <i name="ALDAC">      1.00000000</i>
   <i name="AGGAC">      1.00000000</i>
   <i type="int" name="NKREDX">     1</i>
   <i type="int" name="NKREDY">     1</i>
   <i type="int" name="NKREDZ">     1</i>
   <i type="logical" name="SHIFTRED"> F  </i>
   <i type="logical" name="ODDONLY"> F  </i>
   <i type="logical" name="EVENONLY"> F  </i>
   <i type="int" name="LMAXFOCK">     0</i>
   <i type="int" name="NMAXFOCKAE">     0</i>
   <i type="logical" name="LFOCKAEDFT"> F  </i>
   <i name="HFSCREEN">      0.00000000</i>
   <i name="HFSCREENC">      0.00000000</i>
   <i type="int" name="NBANDSGWLOW">     0</i>
  </separator>
  <separator name="vdW DFT" >
   <i type="logical" name="LUSE_VDW"> F  </i>
   <i name="Zab_VDW">     -0.84910000</i>
   <i name="PARAM1">      0.12340000</i>
   <i name="PARAM2">      1.00000000</i>
   <i name="PARAM3">      0.00000000</i>
  </separator>
  <separator name="model GW" >
   <i type="int" name="MODEL_GW">     0</i>
   <i name="MODEL_EPS0">     13.18532537</i>
   <i name="MODEL_ALPHA">      1.00000000</i>
  </separator>
  <separator name="linear response parameters" >
   <i type="logical" name="LEPSILON"> F  </i>
   <i type="logical" name="LRPA"> F  </i>
   <i type="logical" name="LNABLA"> F  </i>
   <i type="logical" name="LVEL"> F  </i>
   <i name="CSHIFT">      0.10000000</i>
   <i name="OMEGAMAX">     -1.00000000</i>
   <i name="DEG_THRESHOLD">      0.00200000</i>
   <i name="RTIME">     -0.10000000</i>
   <i name="WPLASMAI">      0.00000000</i>
   <v name="DFIELD">      0.00000000      0.00000000      0.00000000</v>
   <v name="WPLASMA">      0.00000000      0.00000000      0.00000000      0.00000000      0.00000000      0.00000000      0.00000000      0.00000000      0.00000000</v>
  </separator>
  <separator name="orbital magnetization" >
   <i type="logical" name="NUCIND"> F  </i>
   <v name="MAGPOS">      0.00000000      0.00000000      0.00000000</v>
   <i type="logical" name="LNICSALL"> T  </i>
   <i type="logical" name="ORBITALMAG"> F  </i>
   <i type="logical" name="LMAGBLOCH"> F  </i>
   <i type="logical" name="LCHIMAG"> F  </i>
   <i type="logical" name="LGAUGE"> T  </i>
   <i type="int" name="MAGATOM">     0</i>
   <v name="MAGDIPOL">      0.00000000      0.00000000      0.00000000</v>
   <v name="AVECCONST">      0.00000000      0.00000000      0.00000000</v>
  </separator>
  <separator name="response functions" >
   <i type="logical" name="LFINITE_TEMPERATURE"> F  </i>
   <i type="logical" name="LADDER"> F  </i>
   <i type="logical" name="LRPAFORCE"> F  </i>
   <i type="logical" name="LFXC"> F  </i>
   <i type="logical" name="LHARTREE"> T  </i>
   <i type="int" name="IBSE">     0</i>
   <v type="int" name="KPOINT">    -1     0     0     0</v>
   <i type="logical" name="LTCTC"> F  </i>
   <i type="logical" name="LTCTE"> F  </i>
   <i type="logical" name="LTETE"> F  </i>
   <i type="logical" name="LTRIPLET"> F  </i>
   <i type="logical" name="LFXCEPS"> F  </i>
   <i type="logical" name="LFXHEG"> F  </i>
   <i type="int" name="NATURALO">     2</i>
   <i type="logical" name="LHOLEGF"> F  </i>
   <i type="logical" name="L2ORDER"> F  </i>
   <i type="logical" name="LDMP1"> F  </i>
   <i type="logical" name="LMP2LT"> F  </i>
   <i type="logical" name="LSMP2LT"> F  </i>
   <i type="logical" name="LGWLF"> F  </i>
   <i name="ENCUTGW">     -2.00000000</i>
   <i name="ENCUTGWSOFT">     -2.00000000</i>
   <i name="ENCUTLF">     -1.00000000</i>
   <i type="logical" name="LESF_SPLINES"> F  </i>
   <i type="int" name="LMAXMP2">    -1</i>
   <i name="SCISSOR">      0.00000000</i>
   <i type="int" name="NOMEGA">     0</i>
   <i type="int" name="NOMEGAR">     0</i>
   <i type="int" name="NBANDSGW">    -1</i>
   <i type="int" name="NBANDSO">    -1</i>
   <i type="int" name="NBANDSV">    -1</i>
   <i type="int" name="NELMGW">     1</i>
   <i type="int" name="NELMHF">     1</i>
   <i type="int" name="DIM">     3</i>
   <i type="int" name="IESPILON">     4</i>
   <i type="int" name="ANTIRES">     0</i>
   <i name="OMEGAMAX">    -30.00000000</i>
   <i name="OMEGAMIN">    -30.00000000</i>
   <i name="OMEGATL">   -200.00000000</i>
   <i type="int" name="OMEGAGRID">     0</i>
   <i name="CSHIFT">     -0.10000000</i>
   <i type="logical" name="LSELFENERGY"> F  </i>
   <i type="logical" name="LSPECTRAL"> F  </i>
   <i type="logical" name="LSPECTRALGW"> F  </i>
   <i type="logical" name="LSINGLES"> F  </i>
   <i type="logical" name="LFERMIGW"> F  </i>
   <i type="logical" name="ODDONLYGW"> F  </i>
   <i type="logical" name="EVENONLYGW"> F  </i>
   <i type="int" name="NKREDLFX">     1</i>
   <i type="int" name="NKREDLFY">     1</i>
   <i type="int" name="NKREDLFZ">     1</i>
   <i type="int" name="MAXMEM">  2800</i>
   <i type="int" name="TELESCOPE">     0</i>
   <i type="int" name="NTAUPAR">    -1</i>
   <i type="int" name="NOMEGAPAR">    -1</i>
   <i name="DAMP_NEWTON">      0.80000001</i>
   <i name="LAMBDA">      1.00000000</i>
  </separator>
  <separator name="External order field" >
   <i name="OFIELD_KAPPA">      0.00000000</i>
   <v name="OFIELD_K">      0.00000000      0.00000000      0.00000000</v>
   <i name="OFIELD_Q6_NEAR">      0.00000000</i>
   <i name="OFIELD_Q6_FAR">      0.00000000</i>
   <i name="OFIELD_A">      0.00000000</i>
  </separator>
  <separator name="optional k-points parameters" >
   <i type="int" name="KPOINTS_OPT_MODE">     1</i>
   <i type="logical" name="LKPOINTS_OPT"> F  </i>
  </separator>
 </parameters>
 <atominfo>
  <atoms>      64 </atoms>
  <types>       2 </types>
  <array name="atoms" >
   <dimension dim="1">ion</dimension>
   <field type="string">element</field>
   <field type="int">atomtype</field>
   <set>
    <rc><c>Na</c><c>   1</c></rc>
    <rc><c>Na</c><c>   1</c></rc>
    <rc><c>Na</c><c>   1</c></rc>
    <rc><c>Na</c><c>   1</c></rc>
    <rc><c>Na</c><c>   1</c></rc>
    <rc><c>Na</c><c>   1</c></rc>
    <rc><c>Na</c><c>   1</c></rc>
    <rc><c>Na</c><c>   1</c></rc>
    <rc><c>Na</c><c>   1</c></rc>
    <rc><c>Na</c><c>   1</c></rc>
    <rc><c>Na</c><c>   1</c></rc>
    <rc><c>Na</c><c>   1</c></rc>
    <rc><c>Na</c><c>   1</c></rc>
    <rc><c>Na</c><c>   1</c></rc>
    <rc><c>Na</c><c>   1</c></rc>
    <rc><c>Na</c><c>   1</c></rc>
    <rc><c>Na</c><c>   1</c></rc>
    <rc><c>Na</c><c>   1</c></rc>
    <rc><c>Na</c><c>   1</c></rc>
    <rc><c>Na</c><c>   1</c></rc>
    <rc><c>Na</c><c>   1</c></rc>
    <rc><c>Na</c><c>   1</c></rc>
    <rc><c>Na</c><c>   1</c></rc>
    <rc><c>Na</c><c>   1</c></rc>
    <rc><c>Na</c><c>   1</c></rc>
    <rc><c>Na</c><c>   1</c></rc>
    <rc><c>Na</c><c>   1</c></rc>
    <rc><c>Na</c><c>   1</c></rc>
    <rc><c>Na</c><c>   1</c></rc>
    <rc><c>Na</c><c>   1</c></rc>
    <rc><c>Na</c><c>   1</c></rc>
    <rc><c>Na</c><c>   1</c></rc>
    <rc><c>Cl</c><c>   2</c></rc>
    <rc><c>Cl</c><c>   2</c></rc>
    <rc><c>Cl</c><c>   2</c></rc>
    <rc><c>Cl</c><c>   2</c></rc>
    <rc><c>Cl</c><c>   2</c></rc>
    <rc><c>Cl</c><c>   2</c></rc>
    <rc><c>Cl</c><c>   2</c></rc>
    <rc><c>Cl</c><c>   2</c></rc>
    <rc><c>Cl</c><c>   2</c></rc>
    <rc><c>Cl</c><c>   2</c></rc>
    <rc><c>Cl</c><c>   2</c></rc>
    <rc><c>Cl</c><c>   2</c></rc>
    <rc><c>Cl</c><c>   2</c></rc>
    <rc><c>Cl</c><c>   2</c></rc>
    <rc><c>Cl</c><c>   2</c></rc>
    <rc><c>Cl</c><c>   2</c></rc>
    <rc><c>Cl</c><c>   2</c></rc>
    <rc><c>Cl</c><c>   2</c></rc>
    <rc><c>Cl</c><c>   2</c></rc>
    <rc><c>Cl</c><c>   2</c></rc>
    <rc><c>Cl</c><c>   2</c></rc>
    <rc><c>Cl</c><c>   2</c></rc>
    <rc><c>Cl</c><c>   2</c></rc>
    <rc><c>Cl</c><c>   2</c></rc>
    <rc><c>Cl</c><c>   2</c></rc>
    <rc><c>Cl</c><c>   2</c></rc>
    <rc><c>Cl</c><c>   2</c></rc>
    <rc><c>Cl</c><c>   2</c></rc>
    <rc><c>Cl</c><c>   2</c></rc>
    <rc><c>Cl</c><c>   2</c></rc>
    <rc><c>Cl</c><c>   2</c></rc>
    <rc><c>Cl</c><c>   2</c></rc>
   </set>
  </array>
  <array name="atomtypes" >
   <dimension dim="1">type</dimension>
   <field type="int">atomspertype</field>
   <field type="string">element</field>
   <field>mass</field>
   <field>valence</field>
   <field type="string">pseudopotential</field>
   <set>
    <rc><c>  32</c><c>Na</c><c>     22.99000000</c><c>      7.00000000</c><c>  PAW_PBE Na_pv 19Sep2006               </c></rc>
    <rc><c>  32</c><c>Cl</c><c>     35.45300000</c><c>      7.00000000</c><c>  PAW_PBE Cl 06Sep2000                  </c></rc>
   </set>
  </array>
 </atominfo>
 <structure name="initialpos" >
  <crystal>
   <varray name="basis" >
    <v>      11.20400236       0.00000000       0.00000000 </v>
    <v>       0.00000000      11.20400236       0.00000000 </v>
    <v>       0.00000000       0.00000000      11.20400236 </v>
   </varray>
   <i name="volume">   1406.43470641 </i>
   <varray name="rec_basis" >
    <v>       0.08925382       0.00000000       0.00000000 </v>
    <v>       0.00000000       0.08925382       0.00000000 </v>
    <v>       0.00000000       0.00000000       0.08925382 </v>
   </varray>
  </crystal>
  <varray name="positions" >
   <v>       0.00000000       0.00000000       0.00000000 </v>
   <v>       0.25000000       0.25000000       0.00000000 </v>
   <v>       0.25000000       0.00000000       0.25000000 </v>
   <v>       0.00000000       0.25000000       0.25000000 </v>
   <v>       0.00000000       0.00000000       0.50000000 </v>
   <v>       0.25000000       0.25000000       0.50000000 </v>
   <v>       0.25000000       0.00000000       0.75000000 </v>
   <v>       0.00000000       0.25000000       0.75000000 </v>
   <v>       0.00000000       0.50000000       0.00000000 </v>
   <v>       0.25000000       0.75000000       0.00000000 </v>
   <v>       0.25000000       0.50000000       0.25000000 </v>
   <v>       0.00000000       0.75000000       0.25000000 </v>
   <v>       0.00000000       0.50000000       0.50000000 </v>
   <v>       0.25000000       0.75000000       0.50000000 </v>
   <v>       0.25000000       0.50000000       0.75000000 </v>
   <v>       0.00000000       0.75000000       0.75000000 </v>
   <v>       0.50000000       0.00000000       0.00000000 </v>
   <v>       0.75000000       0.25000000       0.00000000 </v>
   <v>       0.75000000       0.00000000       0.25000000 </v>
   <v>       0.50000000       0.25000000       0.25000000 </v>
   <v>       0.50000000       0.00000000       0.50000000 </v>
   <v>       0.75000000       0.25000000       0.50000000 </v>
   <v>       0.75000000       0.00000000       0.75000000 </v>
   <v>       0.50000000       0.25000000       0.75000000 </v>
   <v>       0.50000000       0.50000000       0.00000000 </v>
   <v>       0.75000000       0.75000000       0.00000000 </v>
   <v>       0.75000000       0.50000000       0.25000000 </v>
   <v>       0.50000000       0.75000000       0.25000000 </v>
   <v>       0.50000000       0.50000000       0.50000000 </v>
   <v>       0.75000000       0.75000000       0.50000000 </v>
   <v>       0.75000000       0.50000000       0.75000000 </v>
   <v>       0.50000000       0.75000000       0.75000000 </v>
   <v>       0.24732239       0.25000000       0.25000000 </v>
   <v>       0.00000000       0.00000000       0.25267761 </v>
   <v>       0.00000000       0.25000000       0.00000000 </v>
   <v>       0.25000000       0.00000000       0.00000000 </v>
   <v>       0.25000000       0.25000000       0.75000000 </v>
   <v>       0.00000000       0.00000000       0.75000000 </v>
   <v>       0.00000000       0.25000000       0.50000000 </v>
   <v>       0.25000000       0.00000000       0.50000000 </v>
   <v>       0.25000000       0.75000000       0.25000000 </v>
   <v>       0.00000000       0.50000000       0.25000000 </v>
   <v>       0.00000000       0.75000000       0.00000000 </v>
   <v>       0.25000000       0.50000000       0.00000000 </v>
   <v>       0.25000000       0.75000000       0.75000000 </v>
   <v>       0.00000000       0.50000000       0.75000000 </v>
   <v>       0.00000000       0.75000000       0.50000000 </v>
   <v>       0.25000000       0.50000000       0.50000000 </v>
   <v>       0.75000000       0.25000000       0.25000000 </v>
   <v>       0.50000000       0.00000000       0.25000000 </v>
   <v>       0.50000000       0.25000000       0.00000000 </v>
   <v>       0.75000000       0.00000000       0.00000000 </v>
   <v>       0.75000000       0.25000000       0.75000000 </v>
   <v>       0.50000000       0.00000000       0.75000000 </v>
   <v>       0.50000000       0.25000000       0.50000000 </v>
   <v>       0.75000000       0.00000000       0.50000000 </v>
   <v>       0.75000000       0.75000000       0.25000000 </v>
   <v>       0.50000000       0.50000000       0.25000000 </v>
   <v>       0.50000000       0.75000000       0.00000000 </v>
   <v>       0.75000000       0.50000000       0.00000000 </v>
   <v>       0.75000000       0.75000000       0.75000000 </v>
   <v>       0.50000000       0.50000000       0.75000000 </v>
   <v>       0.50000000       0.75000000       0.50000000 </v>
   <v>       0.75000000       0.50000000       0.50000000 </v>
  </varray>
 </structure>
 <calculation>
  <scstep>
   <time name="dav">   10.16   10.21</time>
   <time name="total">   10.24   10.29</time>
   <energy>
    <i name="alphaZ">    751.52672365 </i>
    <i name="ewald"> -22871.34031752 </i>
    <i name="hartreedc">  -8992.24802658 </i>
    <i name="XCdc">   1456.53429110 </i>
    <i name="pawpsdc">  26466.43774078 </i>
    <i name="pawaedc"> -29286.08056155 </i>
    <i name="eentropy">     -0.00453917 </i>
    <i name="bandstr">   -658.30931582 </i>
    <i name="atom">  37532.17946992 </i>
    <i name="e_fr_energy">   4398.69546481 </i>
    <i name="e_wo_entrp">   4398.70000398 </i>
    <i name="e_0_energy">   4398.69773439 </i>
   </energy>
  </scstep>
  <scstep>
   <time name="dav">   10.63   10.69</time>
   <time name="total">   10.63   10.69</time>
   <energy>
    <i name="e_fr_energy">    367.05569000 </i>
    <i name="e_wo_entrp">    367.05569000 </i>
    <i name="e_0_energy">    367.05569000 </i>
   </energy>
  </scstep>
  <scstep>
   <time name="dav">   11.34   11.40</time>
   <time name="total">   11.34   11.40</time>
   <energy>
    <i name="e_fr_energy">   -204.87548520 </i>
    <i name="e_wo_entrp">   -204.87548520 </i>
    <i name="e_0_energy">   -204.87548520 </i>
   </energy>
  </scstep>
  <scstep>
   <time name="dav">   11.28   11.34</time>
   <time name="total">   11.28   11.34</time>
   <energy>
    <i name="e_fr_energy">   -228.12846886 </i>
    <i name="e_wo_entrp">   -228.12846886 </i>
    <i name="e_0_energy">   -228.12846886 </i>
   </energy>
  </scstep>
  <scstep>
   <time name="dav">   11.75   11.81</time>
   <time name="total">   12.09   12.15</time>
   <energy>
    <i name="e_fr_energy">   -229.00275422 </i>
    <i name="e_wo_entrp">   -229.00275422 </i>
    <i name="e_0_energy">   -229.00275422 </i>
   </energy>
  </scstep>
  <scstep>
   <time name="dav">   11.47   11.53</time>
   <time name="total">   11.87   11.93</time>
   <energy>
    <i name="e_fr_energy">   -224.13898060 </i>
    <i name="e_wo_entrp">   -224.13898060 </i>
    <i name="e_0_energy">   -224.13898060 </i>
   </energy>
  </scstep>
  <scstep>
   <time name="dav">   12.54   12.61</time>
   <time name="total">   12.94   13.01</time>
   <energy>
    <i name="e_fr_energy">   -223.77710770 </i>
    <i name="e_wo_entrp">   -223.77710770 </i>
    <i name="e_0_energy">   -223.77710770 </i>
   </energy>
  </scstep>
  <scstep>
   <time name="dav">   10.97   11.03</time>
   <time name="total">   11.37   11.43</time>
   <energy>
    <i name="e_fr_energy">   -223.90216275 </i>
    <i name="e_wo_entrp">   -223.90216275 </i>
    <i name="e_0_energy">   -223.90216275 </i>
   </energy>
  </scstep>
  <scstep>
   <time name="dav">   11.50   11.57</time>
   <time name="total">   11.90   11.97</time>
   <energy>
    <i name="e_fr_energy">   -223.89681511 </i>
    <i name="e_wo_entrp">   -223.89681511 </i>
    <i name="e_0_energy">   -223.89681511 </i>
   </energy>
  </scstep>
  <scstep>
   <time name="dav">   10.92   10.97</time>
   <time name="total">   11.31   11.37</time>
   <energy>
    <i name="e_fr_energy">   -223.90101587 </i>
    <i name="e_wo_entrp">   -223.90101587 </i>
    <i name="e_0_energy">   -223.90101587 </i>
   </energy>
  </scstep>
  <scstep>
   <time name="dav">   12.12   12.19</time>
   <time name="total">   12.51   12.59</time>
   <energy>
    <i name="e_fr_energy">   -223.90045650 </i>
    <i name="e_wo_entrp">   -223.90045650 </i>
    <i name="e_0_energy">   -223.90045650 </i>
   </energy>
  </scstep>
  <scstep>
   <time name="dav">   11.98   12.04</time>
   <time name="total">   12.38   12.44</time>
   <energy>
    <i name="e_fr_energy">   -223.90042295 </i>
    <i name="e_wo_entrp">   -223.90042295 </i>
    <i name="e_0_energy">   -223.90042295 </i>
   </energy>
  </scstep>
  <scstep>
   <time name="dav">   10.98   11.04</time>
   <time name="total">   11.38   11.44</time>
   <energy>
    <i name="e_fr_energy">   -223.90041922 </i>
    <i name="e_wo_entrp">   -223.90041922 </i>
    <i name="e_0_energy">   -223.90041922 </i>
   </energy>
  </scstep>
  <scstep>
   <time name="dav">   11.46   11.52</time>
   <time name="total">   11.86   11.92</time>
   <energy>
    <i name="e_fr_energy">   -223.90042131 </i>
    <i name="e_wo_entrp">   -223.90042131 </i>
    <i name="e_0_energy">   -223.90042131 </i>
   </energy>
  </scstep>
  <scstep>
   <time name="dav">   11.96   12.03</time>
   <time name="total">   12.36   12.43</time>
   <energy>
    <i name="e_fr_energy">   -223.90042204 </i>
    <i name="e_wo_entrp">   -223.90042204 </i>
    <i name="e_0_energy">   -223.90042204 </i>
   </energy>
  </scstep>
  <scstep>
   <time name="dav">   11.51   11.57</time>
   <time name="total">   11.90   11.97</time>
   <energy>
    <i name="e_fr_energy">   -223.90042256 </i>
    <i name="e_wo_entrp">   -223.90042256 </i>
    <i name="e_0_energy">   -223.90042256 </i>
   </energy>
  </scstep>
  <scstep>
   <time name="dav">    9.98   10.03</time>
   <time name="total">   10.38   10.43</time>
   <energy>
    <i name="e_fr_energy">   -223.90042275 </i>
    <i name="e_wo_entrp">   -223.90042275 </i>
    <i name="e_0_energy">   -223.90042275 </i>
   </energy>
  </scstep>
  <scstep>
   <time name="dav">    8.31    8.35</time>
   <time name="total">    8.70    8.75</time>
   <energy>
    <i name="e_fr_energy">   -223.90042284 </i>
    <i name="e_wo_entrp">   -223.90042284 </i>
    <i name="e_0_energy">   -223.90042284 </i>
   </energy>
  </scstep>
  <scstep>
   <time name="dav">    7.67    7.71</time>
   <time name="total">    8.07    8.12</time>
   <energy>
    <i name="e_fr_energy">   -223.90042280 </i>
    <i name="e_wo_entrp">   -223.90042280 </i>
    <i name="e_0_energy">   -223.90042280 </i>
   </energy>
  </scstep>
  <scstep>
   <time name="dav">    8.08    8.13</time>
   <time name="total">    8.48    8.53</time>
   <energy>
    <i name="e_fr_energy">   -223.90042277 </i>
    <i name="e_wo_entrp">   -223.90042277 </i>
    <i name="e_0_energy">   -223.90042277 </i>
   </energy>
  </scstep>
  <scstep>
   <time name="dav">    7.37    7.42</time>
   <time name="total">    7.77    7.82</time>
   <energy>
    <i name="e_fr_energy">   -223.90042274 </i>
    <i name="e_wo_entrp">   -223.90042274 </i>
    <i name="e_0_energy">   -223.90042274 </i>
   </energy>
  </scstep>
  <scstep>
   <time name="dav">    7.39    7.43</time>
   <time name="total">    7.46    7.50</time>
   <energy>
    <i name="alphaZ">    751.52672365 </i>
    <i name="ewald"> -22871.34031752 </i>
    <i name="hartreedc">  -9078.16935775 </i>
    <i name="XCdc">   1472.51354846 </i>
    <i name="pawpsdc">  29498.30164044 </i>
    <i name="pawaedc"> -32317.66624510 </i>
    <i name="eentropy">     -0.00000000 </i>
    <i name="bandstr">  -5211.24588484 </i>
    <i name="atom">  37532.17946992 </i>
    <i name="e_fr_energy">   -223.90042273 </i>
    <i name="e_wo_entrp">   -223.90042273 </i>
    <i name="e_0_energy">   -223.90042273 </i>
   </energy>
  </scstep>
  <structure>
   <crystal>
    <varray name="basis" >
     <v>      11.20400236       0.00000000       0.00000000 </v>
     <v>       0.00000000      11.20400236       0.00000000 </v>
     <v>       0.00000000       0.00000000      11.20400236 </v>
    </varray>
    <i name="volume">   1406.43470641 </i>
    <varray name="rec_basis" >
     <v>       0.08925382       0.00000000       0.00000000 </v>
     <v>       0.00000000       0.08925382       0.00000000 </v>
     <v>       0.00000000       0.00000000       0.08925382 </v>
    </varray>
   </crystal>
   <varray name="positions" >
    <v>       0.00000000       0.00000000       0.00000000 </v>
    <v>       0.25000000       0.25000000       0.00000000 </v>
    <v>       0.25000000       0.00000000       0.25000000 </v>
    <v>       0.00000000       0.25000000       0.25000000 </v>
    <v>       0.00000000       0.00000000       0.50000000 </v>
    <v>       0.25000000       0.25000000       0.50000000 </v>
    <v>       0.25000000       0.00000000       0.75000000 </v>
    <v>       0.00000000       0.25000000       0.75000000 </v>
    <v>       0.00000000       0.50000000       0.00000000 </v>
    <v>       0.25000000       0.75000000       0.00000000 </v>
    <v>       0.25000000       0.50000000       0.25000000 </v>
    <v>       0.00000000       0.75000000       0.25000000 </v>
    <v>       0.00000000       0.50000000       0.50000000 </v>
    <v>       0.25000000       0.75000000       0.50000000 </v>
    <v>       0.25000000       0.50000000       0.75000000 </v>
    <v>       0.00000000       0.75000000       0.75000000 </v>
    <v>       0.50000000       0.00000000       0.00000000 </v>
    <v>       0.75000000       0.25000000       0.00000000 </v>
    <v>       0.75000000       0.00000000       0.25000000 </v>
    <v>       0.50000000       0.25000000       0.25000000 </v>
    <v>       0.50000000       0.00000000       0.50000000 </v>
    <v>       0.75000000       0.25000000       0.50000000 </v>
    <v>       0.75000000       0.00000000       0.75000000 </v>
    <v>       0.50000000       0.25000000       0.75000000 </v>
    <v>       0.50000000       0.50000000       0.00000000 </v>
    <v>       0.75000000       0.75000000       0.00000000 </v>
    <v>       0.75000000       0.50000000       0.25000000 </v>
    <v>       0.50000000       0.75000000       0.25000000 </v>
    <v>       0.50000000       0.50000000       0.50000000 </v>
    <v>       0.75000000       0.75000000       0.50000000 </v>
    <v>       0.75000000       0.50000000       0.75000000 </v>
    <v>       0.50000000       0.75000000       0.75000000 </v>
    <v>       0.24732239       0.25000000       0.25000000 </v>
    <v>       0.00000000       0.00000000       0.25267761 </v>
    <v>       0.00000000       0.25000000       0.00000000 </v>
    <v>       0.25000000       0.00000000       0.00000000 </v>
    <v>       0.25000000       0.25000000       0.75000000 </v>
    <v>       0.00000000       0.00000000       0.75000000 </v>
    <v>       0.00000000       0.25000000       0.50000000 </v>
    <v>       0.25000000       0.00000000       0.50000000 </v>
    <v>       0.25000000       0.75000000       0.25000000 </v>
    <v>       0.00000000       0.50000000       0.25000000 </v>
    <v>       0.00000000       0.75000000       0.00000000 </v>
    <v>       0.25000000       0.50000000       0.00000000 </v>
    <v>       0.25000000       0.75000000       0.75000000 </v>
    <v>       0.00000000       0.50000000       0.75000000 </v>
    <v>       0.00000000       0.75000000       0.50000000 </v>
    <v>       0.25000000       0.50000000       0.50000000 </v>
    <v>       0.75000000       0.25000000       0.25000000 </v>
    <v>       0.50000000       0.00000000       0.25000000 </v>
    <v>       0.50000000       0.25000000       0.00000000 </v>
    <v>       0.75000000       0.00000000       0.00000000 </v>
    <v>       0.75000000       0.25000000       0.75000000 </v>
    <v>       0.50000000       0.00000000       0.75000000 </v>
    <v>       0.50000000       0.25000000       0.50000000 </v>
    <v>       0.75000000       0.00000000       0.50000000 </v>
    <v>       0.75000000       0.75000000       0.25000000 </v>
    <v>       0.50000000       0.50000000       0.25000000 </v>
    <v>       0.50000000       0.75000000       0.00000000 </v>
    <v>       0.75000000       0.50000000       0.00000000 </v>
    <v>       0.75000000       0.75000000       0.75000000 </v>
    <v>       0.50000000       0.50000000       0.75000000 </v>
    <v>       0.50000000       0.75000000       0.50000000 </v>
    <v>       0.75000000       0.50000000       0.50000000 </v>
   </varray>
  </structure>
  <varray name="forces" >
   <v>       0.00022034       0.00131000       0.01749980 </v>
   <v>      -0.00372911       0.00128868      -0.00013770 </v>
   <v>      -0.00510311       0.00009197       0.00500739 </v>
   <v>      -0.02027597      -0.00009202       0.00499362 </v>
   <v>       0.00020639       0.00128763       0.01897237 </v>
   <v>      -0.00630366      -0.00129712      -0.00029909 </v>
   <v>      -0.00061008       0.00000193      -0.00283231 </v>
   <v>      -0.00016742      -0.00000272      -0.00282974 </v>
   <v>       0.00021382      -0.00130289       0.00145031 </v>
   <v>       0.00068547      -0.00129008      -0.00023416 </v>
   <v>      -0.00501296      -0.00009171       0.00060454 </v>
   <v>      -0.00016727       0.00009183       0.00502545 </v>
   <v>       0.00021270      -0.00129430      -0.00113057 </v>
   <v>      -0.00190812       0.00129850      -0.00021577 </v>
   <v>      -0.00061017      -0.00000197      -0.00066878 </v>
   <v>      -0.00000565       0.00000269      -0.00283856 </v>
   <v>       0.00023339      -0.00129068      -0.00113890 </v>
   <v>       0.00154671       0.00129179      -0.00023307 </v>
   <v>       0.00292642       0.00000291       0.00502252 </v>
   <v>      -0.01620653      -0.00000194       0.00060897 </v>
   <v>       0.00023761      -0.00128954       0.00145729 </v>
   <v>       0.00413132      -0.00130001      -0.00021643 </v>
   <v>       0.00067240       0.00000297      -0.00283694 </v>
   <v>      -0.00015140      -0.00000288      -0.00066996 </v>
   <v>       0.00023525       0.00129057      -0.00129402 </v>
   <v>      -0.00062344      -0.00129232      -0.00023350 </v>
   <v>       0.00283634      -0.00000280       0.00060716 </v>
   <v>      -0.00015149       0.00000185       0.00060698 </v>
   <v>       0.00023588       0.00128976       0.00129565 </v>
   <v>       0.00197109       0.00130056      -0.00021699 </v>
   <v>       0.00067251      -0.00000290      -0.00066962 </v>
   <v>       0.00000383       0.00000288      -0.00066920 </v>
   <v>       0.07601651      -0.00003140      -0.00237164 </v>
   <v>      -0.00391777      -0.00588319      -0.07598602 </v>
   <v>      -0.00392645      -0.00573020      -0.00203269 </v>
   <v>      -0.00339235       0.00002350       0.00388245 </v>
   <v>       0.00155213       0.00000366       0.00154437 </v>
   <v>       0.00005344      -0.00057564       0.00384263 </v>
   <v>      -0.00390927       0.00587910       0.00979006 </v>
   <v>       0.00821464       0.00003733       0.00387924 </v>
   <v>       0.00151860       0.00003051      -0.00233788 </v>
   <v>      -0.00391803       0.00588318      -0.00154813 </v>
   <v>       0.00005208       0.00574119       0.00329145 </v>
   <v>       0.00177092      -0.00002774      -0.00000860 </v>
   <v>       0.00052310      -0.00000285       0.00154602 </v>
   <v>       0.00005356       0.00057558       0.00195880 </v>
   <v>       0.00005454      -0.00588969       0.00449940 </v>
   <v>       0.00291191      -0.00003264      -0.00008475 </v>
   <v>      -0.00381264      -0.00003058      -0.00233689 </v>
   <v>      -0.00386001       0.00573443      -0.00154961 </v>
   <v>      -0.00386180      -0.00056815       0.00569669 </v>
   <v>       0.00419020      -0.00000671       0.00386035 </v>
   <v>      -0.00196274       0.00000291       0.00154668 </v>
   <v>       0.00003788       0.00056800       0.00196062 </v>
   <v>      -0.00386056       0.00057581      -0.00578756 </v>
   <v>      -0.00743346      -0.00000071       0.00392362 </v>
   <v>      -0.00192876       0.00003010      -0.00234056 </v>
   <v>      -0.00386042      -0.00573478      -0.00051998 </v>
   <v>       0.00003828       0.00056786       0.00053035 </v>
   <v>      -0.00097967       0.00000451      -0.00004097 </v>
   <v>      -0.00053133      -0.00000312       0.00154841 </v>
   <v>       0.00003727      -0.00056718       0.00052818 </v>
   <v>       0.00003707      -0.00057614      -0.00062037 </v>
   <v>      -0.00212201       0.00000243      -0.00005040 </v>
  </varray>
  <varray name="stress" >
   <v>      -0.36669453      -0.00000356      -0.00023761 </v>
   <v>      -0.00000365      -0.37818052      -0.00038268 </v>
   <v>      -0.00023758      -0.00038268      -0.36703673 </v>
  </varray>
  <energy>
   <i name="e_fr_energy">   -223.90042273 </i>
   <i name="e_wo_entrp">   -223.90042273 </i>
   <i name="e_0_energy">   -223.90042273 </i>
  </energy>
  <time name="totalsc">  253.48  254.85</time>
  <eigenvalues>
   <array>
    <dimension dim="1">band</dimension>
    <dimension dim="2">kpoint</dimension>
    <dimension dim="3">spin</dimension>
    <field>eigene</field>
    <field>occ</field>
    <set>
     <set comment="spin 1">
      <set comment="kpoint 1">
       <r>  -21.3096    1.0000 </r>
       <r>  -21.3094    1.0000 </r>
       <r>  -21.3086    1.0000 </r>
       <r>  -21.3075    1.0000 </r>
       <r>  -21.3047    1.0000 </r>
       <r>  -21.3044    1.0000 </r>
       <r>  -21.3007    1.0000 </r>
       <r>  -21.2991    1.0000 </r>
       <r>  -21.2987    1.0000 </r>
       <r>  -21.2977    1.0000 </r>
       <r>  -21.2937    1.0000 </r>
       <r>  -21.2936    1.0000 </r>
       <r>  -21.2935    1.0000 </r>
       <r>  -21.2934    1.0000 </r>
       <r>  -21.2933    1.0000 </r>
       <r>  -21.2933    1.0000 </r>
       <r>  -21.2925    1.0000 </r>
       <r>  -21.2921    1.0000 </r>
       <r>  -21.2919    1.0000 </r>
       <r>  -21.2905    1.0000 </r>
       <r>  -21.2905    1.0000 </r>
       <r>  -21.2897    1.0000 </r>
       <r>  -21.2882    1.0000 </r>
       <r>  -21.2881    1.0000 </r>
       <r>  -21.2875    1.0000 </r>
       <r>  -21.2863    1.0000 </r>
       <r>  -21.2861    1.0000 </r>
       <r>  -21.2860    1.0000 </r>
       <r>  -21.2859    1.0000 </r>
       <r>  -21.2854    1.0000 </r>
       <r>  -21.2851    1.0000 </r>
       <r>  -21.2850    1.0000 </r>
       <r>  -21.2848    1.0000 </r>
       <r>  -21.2841    1.0000 </r>
       <r>  -21.2840    1.0000 </r>
       <r>  -21.2835    1.0000 </r>
       <r>  -21.2833    1.0000 </r>
       <r>  -21.2830    1.0000 </r>
       <r>  -21.2825    1.0000 </r>
       <r>  -21.2825    1.0000 </r>
       <r>  -21.2823    1.0000 </r>
       <r>  -21.2820    1.0000 </r>
       <r>  -21.2816    1.0000 </r>
       <r>  -21.2811    1.0000 </r>
       <r>  -21.2806    1.0000 </r>
       <r>  -21.2805    1.0000 </r>
       <r>  -21.2804    1.0000 </r>
       <r>  -21.2801    1.0000 </r>
       <r>  -21.2800    1.0000 </r>
       <r>  -21.2800    1.0000 </r>
       <r>  -21.2799    1.0000 </r>
       <r>  -21.2799    1.0000 </r>
       <r>  -21.2798    1.0000 </r>
       <r>  -21.2798    1.0000 </r>
       <r>  -21.2793    1.0000 </r>
       <r>  -21.2790    1.0000 </r>
       <r>  -21.2787    1.0000 </r>
       <r>  -21.2783    1.0000 </r>
       <r>  -21.2779    1.0000 </r>
       <r>  -21.2775    1.0000 </r>
       <r>  -21.2766    1.0000 </r>
       <r>  -21.2759    1.0000 </r>
       <r>  -21.2758    1.0000 </r>
       <r>  -21.2758    1.0000 </r>
       <r>  -21.2754    1.0000 </r>
       <r>  -21.2751    1.0000 </r>
       <r>  -21.2750    1.0000 </r>
       <r>  -21.2747    1.0000 </r>
       <r>  -21.2745    1.0000 </r>
       <r>  -21.2742    1.0000 </r>
       <r>  -21.2739    1.0000 </r>
       <r>  -21.2738    1.0000 </r>
       <r>  -21.2736    1.0000 </r>
       <r>  -21.2734    1.0000 </r>
       <r>  -21.2725    1.0000 </r>
       <r>  -21.2724    1.0000 </r>
       <r>  -21.2722    1.0000 </r>
       <r>  -21.2716    1.0000 </r>
       <r>  -21.2715    1.0000 </r>
       <r>  -21.2714    1.0000 </r>
       <r>  -21.2713    1.0000 </r>
       <r>  -21.2712    1.0000 </r>
       <r>  -21.2711    1.0000 </r>
       <r>  -21.2710    1.0000 </r>
       <r>  -21.2708    1.0000 </r>
       <r>  -21.2706    1.0000 </r>
       <r>  -21.2705    1.0000 </r>
       <r>  -21.2692    1.0000 </r>
       <r>  -21.2682    1.0000 </r>
       <r>  -21.2679    1.0000 </r>
       <r>  -21.2581    1.0000 </r>
       <r>  -21.2563    1.0000 </r>
       <r>  -21.2556    1.0000 </r>
       <r>  -21.2530    1.0000 </r>
       <r>  -21.2526    1.0000 </r>
       <r>  -21.2509    1.0000 </r>
       <r>  -13.3580    1.0000 </r>
       <r>  -13.1394    1.0000 </r>
       <r>  -13.1381    1.0000 </r>
       <r>  -13.1374    1.0000 </r>
       <r>  -13.1374    1.0000 </r>
       <r>  -13.1364    1.0000 </r>
       <r>  -13.1358    1.0000 </r>
       <r>  -13.0156    1.0000 </r>
       <r>  -13.0146    1.0000 </r>
       <r>  -13.0145    1.0000 </r>
       <r>  -13.0125    1.0000 </r>
       <r>  -13.0122    1.0000 </r>
       <r>  -13.0112    1.0000 </r>
       <r>  -13.0112    1.0000 </r>
       <r>  -13.0112    1.0000 </r>
       <r>  -13.0098    1.0000 </r>
       <r>  -13.0089    1.0000 </r>
       <r>  -13.0087    1.0000 </r>
       <r>  -13.0079    1.0000 </r>
       <r>  -12.9900    1.0000 </r>
       <r>  -12.9891    1.0000 </r>
       <r>  -12.9890    1.0000 </r>
       <r>  -12.9881    1.0000 </r>
       <r>  -12.9420    1.0000 </r>
       <r>  -12.9411    1.0000 </r>
       <r>  -12.9407    1.0000 </r>
       <r>  -12.9237    1.0000 </r>
       <r>  -12.9220    1.0000 </r>
       <r>  -12.9213    1.0000 </r>
       <r>  -12.9211    1.0000 </r>
       <r>  -12.9199    1.0000 </r>
       <r>  -12.9174    1.0000 </r>
       <r>   -2.7000    1.0000 </r>
       <r>   -2.7000    1.0000 </r>
       <r>   -2.6999    1.0000 </r>
       <r>   -2.6999    1.0000 </r>
       <r>   -2.4240    1.0000 </r>
       <r>   -2.4240    1.0000 </r>
       <r>   -2.4239    1.0000 </r>
       <r>   -2.2057    1.0000 </r>
       <r>   -2.2053    1.0000 </r>
       <r>   -2.2050    1.0000 </r>
       <r>   -2.2048    1.0000 </r>
       <r>   -2.2045    1.0000 </r>
       <r>   -2.2042    1.0000 </r>
       <r>   -2.2042    1.0000 </r>
       <r>   -2.2038    1.0000 </r>
       <r>   -2.2037    1.0000 </r>
       <r>   -2.2035    1.0000 </r>
       <r>   -2.2034    1.0000 </r>
       <r>   -2.2027    1.0000 </r>
       <r>   -1.9279    1.0000 </r>
       <r>   -1.9268    1.0000 </r>
       <r>   -1.9262    1.0000 </r>
       <r>   -1.9261    1.0000 </r>
       <r>   -1.9248    1.0000 </r>
       <r>   -1.9246    1.0000 </r>
       <r>   -1.9246    1.0000 </r>
       <r>   -1.9243    1.0000 </r>
       <r>   -1.9234    1.0000 </r>
       <r>   -1.9231    1.0000 </r>
       <r>   -1.9222    1.0000 </r>
       <r>   -1.9220    1.0000 </r>
       <r>   -1.7970    1.0000 </r>
       <r>   -1.7969    1.0000 </r>
       <r>   -1.7966    1.0000 </r>
       <r>   -1.7966    1.0000 </r>
       <r>   -1.7963    1.0000 </r>
       <r>   -1.7963    1.0000 </r>
       <r>   -1.5100    1.0000 </r>
       <r>   -1.5090    1.0000 </r>
       <r>   -1.5078    1.0000 </r>
       <r>   -1.5056    1.0000 </r>
       <r>   -1.5055    1.0000 </r>
       <r>   -1.5054    1.0000 </r>
       <r>   -1.5053    1.0000 </r>
       <r>   -1.5053    1.0000 </r>
       <r>   -1.5051    1.0000 </r>
       <r>   -1.5028    1.0000 </r>
       <r>   -1.5017    1.0000 </r>
       <r>   -1.5009    1.0000 </r>
       <r>   -1.4652    1.0000 </r>
       <r>   -1.4638    1.0000 </r>
       <r>   -1.4629    1.0000 </r>
       <r>   -1.4628    1.0000 </r>
       <r>   -1.4617    1.0000 </r>
       <r>   -1.4602    1.0000 </r>
       <r>   -1.2947    1.0000 </r>
       <r>   -1.2947    1.0000 </r>
       <r>   -1.2946    1.0000 </r>
       <r>   -1.2946    1.0000 </r>
       <r>   -1.2945    1.0000 </r>
       <r>   -1.2945    1.0000 </r>
       <r>   -1.0047    1.0000 </r>
       <r>   -1.0036    1.0000 </r>
       <r>   -1.0032    1.0000 </r>
       <r>   -1.0015    1.0000 </r>
       <r>   -1.0011    1.0000 </r>
       <r>   -1.0009    1.0000 </r>
       <r>   -1.0009    1.0000 </r>
       <r>   -1.0006    1.0000 </r>
       <r>   -1.0004    1.0000 </r>
       <r>   -0.9986    1.0000 </r>
       <r>   -0.9979    1.0000 </r>
       <r>   -0.9962    1.0000 </r>
       <r>   -0.9524    1.0000 </r>
       <r>   -0.9520    1.0000 </r>
       <r>   -0.9516    1.0000 </r>
       <r>   -0.9511    1.0000 </r>
       <r>   -0.9493    1.0000 </r>
       <r>   -0.9486    1.0000 </r>
       <r>   -0.9479    1.0000 </r>
       <r>   -0.9477    1.0000 </r>
       <r>   -0.9475    1.0000 </r>
       <r>   -0.9474    1.0000 </r>
       <r>   -0.9470    1.0000 </r>
       <r>   -0.9468    1.0000 </r>
       <r>   -0.9457    1.0000 </r>
       <r>   -0.9456    1.0000 </r>
       <r>   -0.9454    1.0000 </r>
       <r>   -0.9450    1.0000 </r>
       <r>   -0.9429    1.0000 </r>
       <r>   -0.9419    1.0000 </r>
       <r>   -0.9412    1.0000 </r>
       <r>   -0.9401    1.0000 </r>
       <r>   -0.6649    1.0000 </r>
       <r>   -0.6648    1.0000 </r>
       <r>   -0.6648    1.0000 </r>
       <r>    4.3402    0.0000 </r>
       <r>    6.3591    0.0000 </r>
       <r>    6.3638    0.0000 </r>
       <r>    6.3680    0.0000 </r>
       <r>    6.3681    0.0000 </r>
       <r>    6.3712    0.0000 </r>
       <r>    6.3770    0.0000 </r>
       <r>    6.4446    0.0000 </r>
       <r>    6.4447    0.0000 </r>
       <r>    6.4448    0.0000 </r>
       <r>    6.4451    0.0000 </r>
       <r>    6.8279    0.0000 </r>
       <r>    6.8280    0.0000 </r>
       <r>    6.8281    0.0000 </r>
       <r>    7.2067    0.0000 </r>
       <r>    7.2068    0.0000 </r>
       <r>    7.2068    0.0000 </r>
       <r>    7.4518    0.0000 </r>
       <r>    7.4557    0.0000 </r>
       <r>    7.4584    0.0000 </r>
       <r>    7.4603    0.0000 </r>
       <r>    7.4606    0.0000 </r>
       <r>    7.4642    0.0000 </r>
       <r>    7.4642    0.0000 </r>
       <r>    7.4654    0.0000 </r>
       <r>    7.4680    0.0000 </r>
       <r>    7.4692    0.0000 </r>
       <r>    7.4736    0.0000 </r>
       <r>    7.4780    0.0000 </r>
       <r>    8.1611    0.0000 </r>
       <r>    8.1653    0.0000 </r>
       <r>    8.1682    0.0000 </r>
       <r>    8.1683    0.0000 </r>
       <r>    8.1713    0.0000 </r>
       <r>    8.1756    0.0000 </r>
       <r>    8.2768    0.0000 </r>
       <r>    8.2788    0.0000 </r>
       <r>    8.2796    0.0000 </r>
       <r>    8.2797    0.0000 </r>
       <r>    8.2812    0.0000 </r>
       <r>    8.2816    0.0000 </r>
       <r>    8.8866    0.0000 </r>
       <r>    8.8905    0.0000 </r>
       <r>    8.8927    0.0000 </r>
       <r>    8.8986    0.0000 </r>
       <r>    8.8990    0.0000 </r>
       <r>    8.9005    0.0000 </r>
       <r>    8.9012    0.0000 </r>
       <r>    8.9015    0.0000 </r>
       <r>    8.9027    0.0000 </r>
       <r>    8.9046    0.0000 </r>
       <r>    8.9050    0.0000 </r>
       <r>    8.9069    0.0000 </r>
       <r>    8.9106    0.0000 </r>
       <r>    8.9129    0.0000 </r>
       <r>    8.9136    0.0000 </r>
       <r>    8.9147    0.0000 </r>
       <r>    8.9161    0.0000 </r>
       <r>    8.9166    0.0000 </r>
       <r>    8.9168    0.0000 </r>
       <r>    8.9182    0.0000 </r>
       <r>    8.9228    0.0000 </r>
       <r>    8.9284    0.0000 </r>
       <r>    8.9349    0.0000 </r>
      </set>
      <set comment="kpoint 2">
       <r>  -21.3085    1.0000 </r>
       <r>  -21.3083    1.0000 </r>
       <r>  -21.3078    1.0000 </r>
       <r>  -21.3056    1.0000 </r>
       <r>  -21.3052    1.0000 </r>
       <r>  -21.3048    1.0000 </r>
       <r>  -21.3004    1.0000 </r>
       <r>  -21.2983    1.0000 </r>
       <r>  -21.2980    1.0000 </r>
       <r>  -21.2978    1.0000 </r>
       <r>  -21.2975    1.0000 </r>
       <r>  -21.2956    1.0000 </r>
       <r>  -21.2935    1.0000 </r>
       <r>  -21.2933    1.0000 </r>
       <r>  -21.2924    1.0000 </r>
       <r>  -21.2923    1.0000 </r>
       <r>  -21.2920    1.0000 </r>
       <r>  -21.2920    1.0000 </r>
       <r>  -21.2916    1.0000 </r>
       <r>  -21.2916    1.0000 </r>
       <r>  -21.2911    1.0000 </r>
       <r>  -21.2906    1.0000 </r>
       <r>  -21.2893    1.0000 </r>
       <r>  -21.2883    1.0000 </r>
       <r>  -21.2882    1.0000 </r>
       <r>  -21.2882    1.0000 </r>
       <r>  -21.2877    1.0000 </r>
       <r>  -21.2876    1.0000 </r>
       <r>  -21.2870    1.0000 </r>
       <r>  -21.2865    1.0000 </r>
       <r>  -21.2863    1.0000 </r>
       <r>  -21.2858    1.0000 </r>
       <r>  -21.2856    1.0000 </r>
       <r>  -21.2855    1.0000 </r>
       <r>  -21.2847    1.0000 </r>
       <r>  -21.2841    1.0000 </r>
       <r>  -21.2831    1.0000 </r>
       <r>  -21.2829    1.0000 </r>
       <r>  -21.2826    1.0000 </r>
       <r>  -21.2825    1.0000 </r>
       <r>  -21.2824    1.0000 </r>
       <r>  -21.2823    1.0000 </r>
       <r>  -21.2814    1.0000 </r>
       <r>  -21.2811    1.0000 </r>
       <r>  -21.2808    1.0000 </r>
       <r>  -21.2804    1.0000 </r>
       <r>  -21.2800    1.0000 </r>
       <r>  -21.2799    1.0000 </r>
       <r>  -21.2798    1.0000 </r>
       <r>  -21.2784    1.0000 </r>
       <r>  -21.2784    1.0000 </r>
       <r>  -21.2782    1.0000 </r>
       <r>  -21.2780    1.0000 </r>
       <r>  -21.2777    1.0000 </r>
       <r>  -21.2773    1.0000 </r>
       <r>  -21.2773    1.0000 </r>
       <r>  -21.2771    1.0000 </r>
       <r>  -21.2768    1.0000 </r>
       <r>  -21.2766    1.0000 </r>
       <r>  -21.2764    1.0000 </r>
       <r>  -21.2762    1.0000 </r>
       <r>  -21.2758    1.0000 </r>
       <r>  -21.2757    1.0000 </r>
       <r>  -21.2756    1.0000 </r>
       <r>  -21.2753    1.0000 </r>
       <r>  -21.2750    1.0000 </r>
       <r>  -21.2749    1.0000 </r>
       <r>  -21.2745    1.0000 </r>
       <r>  -21.2745    1.0000 </r>
       <r>  -21.2742    1.0000 </r>
       <r>  -21.2742    1.0000 </r>
       <r>  -21.2740    1.0000 </r>
       <r>  -21.2740    1.0000 </r>
       <r>  -21.2734    1.0000 </r>
       <r>  -21.2733    1.0000 </r>
       <r>  -21.2731    1.0000 </r>
       <r>  -21.2728    1.0000 </r>
       <r>  -21.2725    1.0000 </r>
       <r>  -21.2717    1.0000 </r>
       <r>  -21.2716    1.0000 </r>
       <r>  -21.2715    1.0000 </r>
       <r>  -21.2713    1.0000 </r>
       <r>  -21.2713    1.0000 </r>
       <r>  -21.2712    1.0000 </r>
       <r>  -21.2711    1.0000 </r>
       <r>  -21.2709    1.0000 </r>
       <r>  -21.2704    1.0000 </r>
       <r>  -21.2698    1.0000 </r>
       <r>  -21.2693    1.0000 </r>
       <r>  -21.2683    1.0000 </r>
       <r>  -21.2582    1.0000 </r>
       <r>  -21.2563    1.0000 </r>
       <r>  -21.2557    1.0000 </r>
       <r>  -21.2532    1.0000 </r>
       <r>  -21.2526    1.0000 </r>
       <r>  -21.2509    1.0000 </r>
       <r>  -13.2930    1.0000 </r>
       <r>  -13.2894    1.0000 </r>
       <r>  -13.1006    1.0000 </r>
       <r>  -13.0991    1.0000 </r>
       <r>  -13.0981    1.0000 </r>
       <r>  -13.0978    1.0000 </r>
       <r>  -13.0963    1.0000 </r>
       <r>  -13.0953    1.0000 </r>
       <r>  -13.0947    1.0000 </r>
       <r>  -13.0938    1.0000 </r>
       <r>  -13.0051    1.0000 </r>
       <r>  -13.0051    1.0000 </r>
       <r>  -13.0015    1.0000 </r>
       <r>  -13.0014    1.0000 </r>
       <r>  -13.0008    1.0000 </r>
       <r>  -13.0004    1.0000 </r>
       <r>  -12.9974    1.0000 </r>
       <r>  -12.9964    1.0000 </r>
       <r>  -12.9960    1.0000 </r>
       <r>  -12.9927    1.0000 </r>
       <r>  -12.9475    1.0000 </r>
       <r>  -12.9465    1.0000 </r>
       <r>  -12.9463    1.0000 </r>
       <r>  -12.9444    1.0000 </r>
       <r>  -12.9432    1.0000 </r>
       <r>  -12.9416    1.0000 </r>
       <r>  -12.9405    1.0000 </r>
       <r>  -12.9402    1.0000 </r>
       <r>  -12.9351    1.0000 </r>
       <r>  -12.9307    1.0000 </r>
       <r>  -12.9306    1.0000 </r>
       <r>  -12.9251    1.0000 </r>
       <r>   -2.5075    1.0000 </r>
       <r>   -2.5067    1.0000 </r>
       <r>   -2.5047    1.0000 </r>
       <r>   -2.5047    1.0000 </r>
       <r>   -2.5041    1.0000 </r>
       <r>   -2.5039    1.0000 </r>
       <r>   -2.5018    1.0000 </r>
       <r>   -2.5011    1.0000 </r>
       <r>   -2.2891    1.0000 </r>
       <r>   -2.2890    1.0000 </r>
       <r>   -2.2863    1.0000 </r>
       <r>   -2.2862    1.0000 </r>
       <r>   -2.2762    1.0000 </r>
       <r>   -2.2721    1.0000 </r>
       <r>   -2.1391    1.0000 </r>
       <r>   -2.1376    1.0000 </r>
       <r>   -2.1371    1.0000 </r>
       <r>   -2.1366    1.0000 </r>
       <r>   -2.1362    1.0000 </r>
       <r>   -2.1361    1.0000 </r>
       <r>   -2.1352    1.0000 </r>
       <r>   -2.1333    1.0000 </r>
       <r>   -1.9870    1.0000 </r>
       <r>   -1.9867    1.0000 </r>
       <r>   -1.9866    1.0000 </r>
       <r>   -1.9860    1.0000 </r>
       <r>   -1.9846    1.0000 </r>
       <r>   -1.9843    1.0000 </r>
       <r>   -1.9842    1.0000 </r>
       <r>   -1.9839    1.0000 </r>
       <r>   -1.8111    1.0000 </r>
       <r>   -1.8109    1.0000 </r>
       <r>   -1.8108    1.0000 </r>
       <r>   -1.8098    1.0000 </r>
       <r>   -1.8095    1.0000 </r>
       <r>   -1.8073    1.0000 </r>
       <r>   -1.8066    1.0000 </r>
       <r>   -1.8041    1.0000 </r>
       <r>   -1.5010    1.0000 </r>
       <r>   -1.5010    1.0000 </r>
       <r>   -1.4945    1.0000 </r>
       <r>   -1.4945    1.0000 </r>
       <r>   -1.3844    1.0000 </r>
       <r>   -1.3809    1.0000 </r>
       <r>   -1.3801    1.0000 </r>
       <r>   -1.3763    1.0000 </r>
       <r>   -1.2143    1.0000 </r>
       <r>   -1.2140    1.0000 </r>
       <r>   -1.2113    1.0000 </r>
       <r>   -1.2107    1.0000 </r>
       <r>   -1.1953    1.0000 </r>
       <r>   -1.1922    1.0000 </r>
       <r>   -1.1921    1.0000 </r>
       <r>   -1.1913    1.0000 </r>
       <r>   -1.1910    1.0000 </r>
       <r>   -1.1908    1.0000 </r>
       <r>   -1.1897    1.0000 </r>
       <r>   -1.1881    1.0000 </r>
       <r>   -1.1782    1.0000 </r>
       <r>   -1.1778    1.0000 </r>
       <r>   -1.1764    1.0000 </r>
       <r>   -1.1760    1.0000 </r>
       <r>   -1.1730    1.0000 </r>
       <r>   -1.1710    1.0000 </r>
       <r>   -1.1703    1.0000 </r>
       <r>   -1.1697    1.0000 </r>
       <r>   -1.1636    1.0000 </r>
       <r>   -1.1634    1.0000 </r>
       <r>   -1.1617    1.0000 </r>
       <r>   -1.1604    1.0000 </r>
       <r>   -1.1587    1.0000 </r>
       <r>   -1.1575    1.0000 </r>
       <r>   -1.1561    1.0000 </r>
       <r>   -1.1529    1.0000 </r>
       <r>   -1.0858    1.0000 </r>
       <r>   -1.0807    1.0000 </r>
       <r>   -0.9516    1.0000 </r>
       <r>   -0.9511    1.0000 </r>
       <r>   -0.9472    1.0000 </r>
       <r>   -0.9470    1.0000 </r>
       <r>   -0.9469    1.0000 </r>
       <r>   -0.9468    1.0000 </r>
       <r>   -0.9426    1.0000 </r>
       <r>   -0.9419    1.0000 </r>
       <r>   -0.9355    1.0000 </r>
       <r>   -0.9339    1.0000 </r>
       <r>   -0.9331    1.0000 </r>
       <r>   -0.9330    1.0000 </r>
       <r>   -0.9322    1.0000 </r>
       <r>   -0.9313    1.0000 </r>
       <r>   -0.9305    1.0000 </r>
       <r>   -0.9281    1.0000 </r>
       <r>   -0.7712    1.0000 </r>
       <r>   -0.7712    1.0000 </r>
       <r>   -0.7653    1.0000 </r>
       <r>   -0.7653    1.0000 </r>
       <r>    5.0188    0.0000 </r>
       <r>    5.0258    0.0000 </r>
       <r>    6.7096    0.0000 </r>
       <r>    6.7127    0.0000 </r>
       <r>    6.7130    0.0000 </r>
       <r>    6.7158    0.0000 </r>
       <r>    6.7173    0.0000 </r>
       <r>    6.7196    0.0000 </r>
       <r>    6.7255    0.0000 </r>
       <r>    6.7298    0.0000 </r>
       <r>    6.8382    0.0000 </r>
       <r>    6.8386    0.0000 </r>
       <r>    6.8389    0.0000 </r>
       <r>    6.8408    0.0000 </r>
       <r>    6.8441    0.0000 </r>
       <r>    6.8461    0.0000 </r>
       <r>    6.8499    0.0000 </r>
       <r>    6.8504    0.0000 </r>
       <r>    6.9683    0.0000 </r>
       <r>    6.9743    0.0000 </r>
       <r>    7.3562    0.0000 </r>
       <r>    7.3625    0.0000 </r>
       <r>    7.3626    0.0000 </r>
       <r>    7.3691    0.0000 </r>
       <r>    7.4789    0.0000 </r>
       <r>    7.4816    0.0000 </r>
       <r>    7.7110    0.0000 </r>
       <r>    7.7110    0.0000 </r>
       <r>    7.7182    0.0000 </r>
       <r>    7.7183    0.0000 </r>
       <r>    8.2556    0.0000 </r>
       <r>    8.2614    0.0000 </r>
       <r>    8.2631    0.0000 </r>
       <r>    8.2638    0.0000 </r>
       <r>    8.2655    0.0000 </r>
       <r>    8.2671    0.0000 </r>
       <r>    8.2723    0.0000 </r>
       <r>    8.2768    0.0000 </r>
       <r>    8.5251    0.0000 </r>
       <r>    8.5289    0.0000 </r>
       <r>    8.5302    0.0000 </r>
       <r>    8.5316    0.0000 </r>
       <r>    8.5345    0.0000 </r>
       <r>    8.5362    0.0000 </r>
       <r>    8.5373    0.0000 </r>
       <r>    8.5379    0.0000 </r>
       <r>    8.5386    0.0000 </r>
       <r>    8.5392    0.0000 </r>
       <r>    8.5411    0.0000 </r>
       <r>    8.5426    0.0000 </r>
       <r>    8.5452    0.0000 </r>
       <r>    8.5467    0.0000 </r>
       <r>    8.5492    0.0000 </r>
       <r>    8.5525    0.0000 </r>
       <r>    8.9451    0.0000 </r>
       <r>    8.9463    0.0000 </r>
       <r>    8.9471    0.0000 </r>
       <r>    8.9492    0.0000 </r>
       <r>    8.9506    0.0000 </r>
       <r>    8.9518    0.0000 </r>
       <r>    8.9536    0.0000 </r>
       <r>    8.9641    0.0000 </r>
       <r>    9.4921    0.0000 </r>
       <r>    9.5054    0.0000 </r>
      </set>
      <set comment="kpoint 3">
       <r>  -21.3084    1.0000 </r>
       <r>  -21.3080    1.0000 </r>
       <r>  -21.3079    1.0000 </r>
       <r>  -21.3061    1.0000 </r>
       <r>  -21.3048    1.0000 </r>
       <r>  -21.3047    1.0000 </r>
       <r>  -21.2997    1.0000 </r>
       <r>  -21.2994    1.0000 </r>
       <r>  -21.2988    1.0000 </r>
       <r>  -21.2986    1.0000 </r>
       <r>  -21.2959    1.0000 </r>
       <r>  -21.2959    1.0000 </r>
       <r>  -21.2948    1.0000 </r>
       <r>  -21.2945    1.0000 </r>
       <r>  -21.2925    1.0000 </r>
       <r>  -21.2920    1.0000 </r>
       <r>  -21.2916    1.0000 </r>
       <r>  -21.2914    1.0000 </r>
       <r>  -21.2910    1.0000 </r>
       <r>  -21.2909    1.0000 </r>
       <r>  -21.2906    1.0000 </r>
       <r>  -21.2903    1.0000 </r>
       <r>  -21.2896    1.0000 </r>
       <r>  -21.2890    1.0000 </r>
       <r>  -21.2888    1.0000 </r>
       <r>  -21.2885    1.0000 </r>
       <r>  -21.2883    1.0000 </r>
       <r>  -21.2878    1.0000 </r>
       <r>  -21.2874    1.0000 </r>
       <r>  -21.2862    1.0000 </r>
       <r>  -21.2854    1.0000 </r>
       <r>  -21.2853    1.0000 </r>
       <r>  -21.2843    1.0000 </r>
       <r>  -21.2841    1.0000 </r>
       <r>  -21.2840    1.0000 </r>
       <r>  -21.2839    1.0000 </r>
       <r>  -21.2839    1.0000 </r>
       <r>  -21.2833    1.0000 </r>
       <r>  -21.2830    1.0000 </r>
       <r>  -21.2826    1.0000 </r>
       <r>  -21.2822    1.0000 </r>
       <r>  -21.2820    1.0000 </r>
       <r>  -21.2818    1.0000 </r>
       <r>  -21.2816    1.0000 </r>
       <r>  -21.2809    1.0000 </r>
       <r>  -21.2804    1.0000 </r>
       <r>  -21.2803    1.0000 </r>
       <r>  -21.2801    1.0000 </r>
       <r>  -21.2796    1.0000 </r>
       <r>  -21.2791    1.0000 </r>
       <r>  -21.2787    1.0000 </r>
       <r>  -21.2781    1.0000 </r>
       <r>  -21.2777    1.0000 </r>
       <r>  -21.2772    1.0000 </r>
       <r>  -21.2771    1.0000 </r>
       <r>  -21.2771    1.0000 </r>
       <r>  -21.2769    1.0000 </r>
       <r>  -21.2767    1.0000 </r>
       <r>  -21.2765    1.0000 </r>
       <r>  -21.2764    1.0000 </r>
       <r>  -21.2763    1.0000 </r>
       <r>  -21.2763    1.0000 </r>
       <r>  -21.2761    1.0000 </r>
       <r>  -21.2760    1.0000 </r>
       <r>  -21.2757    1.0000 </r>
       <r>  -21.2757    1.0000 </r>
       <r>  -21.2752    1.0000 </r>
       <r>  -21.2745    1.0000 </r>
       <r>  -21.2744    1.0000 </r>
       <r>  -21.2740    1.0000 </r>
       <r>  -21.2740    1.0000 </r>
       <r>  -21.2739    1.0000 </r>
       <r>  -21.2738    1.0000 </r>
       <r>  -21.2733    1.0000 </r>
       <r>  -21.2730    1.0000 </r>
       <r>  -21.2729    1.0000 </r>
       <r>  -21.2727    1.0000 </r>
       <r>  -21.2724    1.0000 </r>
       <r>  -21.2719    1.0000 </r>
       <r>  -21.2719    1.0000 </r>
       <r>  -21.2718    1.0000 </r>
       <r>  -21.2713    1.0000 </r>
       <r>  -21.2713    1.0000 </r>
       <r>  -21.2712    1.0000 </r>
       <r>  -21.2711    1.0000 </r>
       <r>  -21.2707    1.0000 </r>
       <r>  -21.2705    1.0000 </r>
       <r>  -21.2696    1.0000 </r>
       <r>  -21.2688    1.0000 </r>
       <r>  -21.2686    1.0000 </r>
       <r>  -21.2580    1.0000 </r>
       <r>  -21.2564    1.0000 </r>
       <r>  -21.2556    1.0000 </r>
       <r>  -21.2531    1.0000 </r>
       <r>  -21.2527    1.0000 </r>
       <r>  -21.2511    1.0000 </r>
       <r>  -13.2913    1.0000 </r>
       <r>  -13.2912    1.0000 </r>
       <r>  -13.0990    1.0000 </r>
       <r>  -13.0986    1.0000 </r>
       <r>  -13.0973    1.0000 </r>
       <r>  -13.0970    1.0000 </r>
       <r>  -13.0969    1.0000 </r>
       <r>  -13.0962    1.0000 </r>
       <r>  -13.0957    1.0000 </r>
       <r>  -13.0950    1.0000 </r>
       <r>  -13.0020    1.0000 </r>
       <r>  -13.0016    1.0000 </r>
       <r>  -13.0011    1.0000 </r>
       <r>  -13.0008    1.0000 </r>
       <r>  -13.0007    1.0000 </r>
       <r>  -13.0006    1.0000 </r>
       <r>  -13.0006    1.0000 </r>
       <r>  -13.0001    1.0000 </r>
       <r>  -12.9950    1.0000 </r>
       <r>  -12.9949    1.0000 </r>
       <r>  -12.9467    1.0000 </r>
       <r>  -12.9461    1.0000 </r>
       <r>  -12.9439    1.0000 </r>
       <r>  -12.9438    1.0000 </r>
       <r>  -12.9436    1.0000 </r>
       <r>  -12.9433    1.0000 </r>
       <r>  -12.9423    1.0000 </r>
       <r>  -12.9416    1.0000 </r>
       <r>  -12.9307    1.0000 </r>
       <r>  -12.9306    1.0000 </r>
       <r>  -12.9294    1.0000 </r>
       <r>  -12.9290    1.0000 </r>
       <r>   -2.5054    1.0000 </r>
       <r>   -2.5051    1.0000 </r>
       <r>   -2.5046    1.0000 </r>
       <r>   -2.5045    1.0000 </r>
       <r>   -2.5041    1.0000 </r>
       <r>   -2.5041    1.0000 </r>
       <r>   -2.5035    1.0000 </r>
       <r>   -2.5033    1.0000 </r>
       <r>   -2.2877    1.0000 </r>
       <r>   -2.2877    1.0000 </r>
       <r>   -2.2876    1.0000 </r>
       <r>   -2.2876    1.0000 </r>
       <r>   -2.2741    1.0000 </r>
       <r>   -2.2741    1.0000 </r>
       <r>   -2.1381    1.0000 </r>
       <r>   -2.1376    1.0000 </r>
       <r>   -2.1366    1.0000 </r>
       <r>   -2.1366    1.0000 </r>
       <r>   -2.1362    1.0000 </r>
       <r>   -2.1362    1.0000 </r>
       <r>   -2.1349    1.0000 </r>
       <r>   -2.1349    1.0000 </r>
       <r>   -1.9862    1.0000 </r>
       <r>   -1.9859    1.0000 </r>
       <r>   -1.9855    1.0000 </r>
       <r>   -1.9854    1.0000 </r>
       <r>   -1.9854    1.0000 </r>
       <r>   -1.9853    1.0000 </r>
       <r>   -1.9849    1.0000 </r>
       <r>   -1.9847    1.0000 </r>
       <r>   -1.8137    1.0000 </r>
       <r>   -1.8105    1.0000 </r>
       <r>   -1.8089    1.0000 </r>
       <r>   -1.8088    1.0000 </r>
       <r>   -1.8087    1.0000 </r>
       <r>   -1.8086    1.0000 </r>
       <r>   -1.8057    1.0000 </r>
       <r>   -1.8051    1.0000 </r>
       <r>   -1.4978    1.0000 </r>
       <r>   -1.4978    1.0000 </r>
       <r>   -1.4978    1.0000 </r>
       <r>   -1.4978    1.0000 </r>
       <r>   -1.3805    1.0000 </r>
       <r>   -1.3805    1.0000 </r>
       <r>   -1.3804    1.0000 </r>
       <r>   -1.3804    1.0000 </r>
       <r>   -1.2130    1.0000 </r>
       <r>   -1.2128    1.0000 </r>
       <r>   -1.2126    1.0000 </r>
       <r>   -1.2125    1.0000 </r>
       <r>   -1.1925    1.0000 </r>
       <r>   -1.1918    1.0000 </r>
       <r>   -1.1916    1.0000 </r>
       <r>   -1.1910    1.0000 </r>
       <r>   -1.1908    1.0000 </r>
       <r>   -1.1907    1.0000 </r>
       <r>   -1.1902    1.0000 </r>
       <r>   -1.1900    1.0000 </r>
       <r>   -1.1781    1.0000 </r>
       <r>   -1.1759    1.0000 </r>
       <r>   -1.1745    1.0000 </r>
       <r>   -1.1740    1.0000 </r>
       <r>   -1.1738    1.0000 </r>
       <r>   -1.1735    1.0000 </r>
       <r>   -1.1726    1.0000 </r>
       <r>   -1.1709    1.0000 </r>
       <r>   -1.1631    1.0000 </r>
       <r>   -1.1608    1.0000 </r>
       <r>   -1.1598    1.0000 </r>
       <r>   -1.1595    1.0000 </r>
       <r>   -1.1592    1.0000 </r>
       <r>   -1.1590    1.0000 </r>
       <r>   -1.1570    1.0000 </r>
       <r>   -1.1568    1.0000 </r>
       <r>   -1.0833    1.0000 </r>
       <r>   -1.0832    1.0000 </r>
       <r>   -0.9484    1.0000 </r>
       <r>   -0.9476    1.0000 </r>
       <r>   -0.9469    1.0000 </r>
       <r>   -0.9469    1.0000 </r>
       <r>   -0.9467    1.0000 </r>
       <r>   -0.9466    1.0000 </r>
       <r>   -0.9462    1.0000 </r>
       <r>   -0.9453    1.0000 </r>
       <r>   -0.9354    1.0000 </r>
       <r>   -0.9347    1.0000 </r>
       <r>   -0.9334    1.0000 </r>
       <r>   -0.9324    1.0000 </r>
       <r>   -0.9322    1.0000 </r>
       <r>   -0.9312    1.0000 </r>
       <r>   -0.9300    1.0000 </r>
       <r>   -0.9283    1.0000 </r>
       <r>   -0.7683    1.0000 </r>
       <r>   -0.7683    1.0000 </r>
       <r>   -0.7682    1.0000 </r>
       <r>   -0.7681    1.0000 </r>
       <r>    5.0222    0.0000 </r>
       <r>    5.0223    0.0000 </r>
       <r>    6.7076    0.0000 </r>
       <r>    6.7123    0.0000 </r>
       <r>    6.7169    0.0000 </r>
       <r>    6.7173    0.0000 </r>
       <r>    6.7179    0.0000 </r>
       <r>    6.7185    0.0000 </r>
       <r>    6.7231    0.0000 </r>
       <r>    6.7291    0.0000 </r>
       <r>    6.8374    0.0000 </r>
       <r>    6.8400    0.0000 </r>
       <r>    6.8405    0.0000 </r>
       <r>    6.8429    0.0000 </r>
       <r>    6.8437    0.0000 </r>
       <r>    6.8463    0.0000 </r>
       <r>    6.8466    0.0000 </r>
       <r>    6.8499    0.0000 </r>
       <r>    6.9712    0.0000 </r>
       <r>    6.9713    0.0000 </r>
       <r>    7.3625    0.0000 </r>
       <r>    7.3625    0.0000 </r>
       <r>    7.3627    0.0000 </r>
       <r>    7.3627    0.0000 </r>
       <r>    7.4802    0.0000 </r>
       <r>    7.4803    0.0000 </r>
       <r>    7.7145    0.0000 </r>
       <r>    7.7146    0.0000 </r>
       <r>    7.7146    0.0000 </r>
       <r>    7.7147    0.0000 </r>
       <r>    8.2587    0.0000 </r>
       <r>    8.2604    0.0000 </r>
       <r>    8.2647    0.0000 </r>
       <r>    8.2649    0.0000 </r>
       <r>    8.2666    0.0000 </r>
       <r>    8.2668    0.0000 </r>
       <r>    8.2694    0.0000 </r>
       <r>    8.2753    0.0000 </r>
       <r>    8.5262    0.0000 </r>
       <r>    8.5307    0.0000 </r>
       <r>    8.5315    0.0000 </r>
       <r>    8.5335    0.0000 </r>
       <r>    8.5341    0.0000 </r>
       <r>    8.5356    0.0000 </r>
       <r>    8.5371    0.0000 </r>
       <r>    8.5379    0.0000 </r>
       <r>    8.5385    0.0000 </r>
       <r>    8.5391    0.0000 </r>
       <r>    8.5408    0.0000 </r>
       <r>    8.5411    0.0000 </r>
       <r>    8.5428    0.0000 </r>
       <r>    8.5461    0.0000 </r>
       <r>    8.5480    0.0000 </r>
       <r>    8.5526    0.0000 </r>
       <r>    8.9412    0.0000 </r>
       <r>    8.9434    0.0000 </r>
       <r>    8.9502    0.0000 </r>
       <r>    8.9508    0.0000 </r>
       <r>    8.9510    0.0000 </r>
       <r>    8.9512    0.0000 </r>
       <r>    8.9555    0.0000 </r>
       <r>    8.9640    0.0000 </r>
       <r>    9.4878    0.0000 </r>
       <r>    9.5069    0.0000 </r>
      </set>
      <set comment="kpoint 4">
       <r>  -21.3083    1.0000 </r>
       <r>  -21.3083    1.0000 </r>
       <r>  -21.3079    1.0000 </r>
       <r>  -21.3066    1.0000 </r>
       <r>  -21.3050    1.0000 </r>
       <r>  -21.3046    1.0000 </r>
       <r>  -21.2994    1.0000 </r>
       <r>  -21.2985    1.0000 </r>
       <r>  -21.2978    1.0000 </r>
       <r>  -21.2971    1.0000 </r>
       <r>  -21.2967    1.0000 </r>
       <r>  -21.2957    1.0000 </r>
       <r>  -21.2957    1.0000 </r>
       <r>  -21.2942    1.0000 </r>
       <r>  -21.2930    1.0000 </r>
       <r>  -21.2927    1.0000 </r>
       <r>  -21.2917    1.0000 </r>
       <r>  -21.2915    1.0000 </r>
       <r>  -21.2915    1.0000 </r>
       <r>  -21.2912    1.0000 </r>
       <r>  -21.2909    1.0000 </r>
       <r>  -21.2898    1.0000 </r>
       <r>  -21.2894    1.0000 </r>
       <r>  -21.2893    1.0000 </r>
       <r>  -21.2888    1.0000 </r>
       <r>  -21.2885    1.0000 </r>
       <r>  -21.2876    1.0000 </r>
       <r>  -21.2874    1.0000 </r>
       <r>  -21.2873    1.0000 </r>
       <r>  -21.2861    1.0000 </r>
       <r>  -21.2860    1.0000 </r>
       <r>  -21.2858    1.0000 </r>
[...]
      </set>
     </set>
    </set>
   </array>
  </eigenvalues>
  <separator name="orbital magnetization" >
   <v name="MAGDIPOLOUT">      0.00000000      0.00000000      0.00000000</v>
  </separator>
  <dos>
   <i name="efermi">     -0.55933096 </i>
   <total>
    <array>
     <dimension dim="1">gridpoints</dimension>
     <dimension dim="2">spin</dimension>
     <field>energy</field>
     <field>total</field>
     <field>integrated</field>
     <set>
      <set comment="spin 1">
       <r>   -22.8507     0.0000     0.0000 </r>
       <r>   -22.7377     0.0000     0.0000 </r>
       <r>   -22.6247     0.0000     0.0000 </r>
       <r>   -22.5116     0.0000     0.0000 </r>
       <r>   -22.3986     0.0000     0.0000 </r>
       <r>   -22.2856     0.0000     0.0000 </r>
       <r>   -22.1726     0.0000     0.0000 </r>
       <r>   -22.0596     0.0000     0.0000 </r>
       <r>   -21.9466     0.0000     0.0000 </r>
       <r>   -21.8336     0.0000     0.0000 </r>
       <r>   -21.7206     0.0000     0.0000 </r>
       <r>   -21.6076     0.0000     0.0000 </r>
       <r>   -21.4945     0.0000     0.0000 </r>
       <r>   -21.3815     0.0000     0.0000 </r>
       <r>   -21.2685  1280.5293   144.7134 </r>
       <r>   -21.1555   418.4263   192.0000 </r>
       <r>   -21.0425     0.0000   192.0000 </r>
       <r>   -20.9295     0.0000   192.0000 </r>
       <r>   -20.8165     0.0000   192.0000 </r>
       <r>   -20.7035     0.0000   192.0000 </r>
       <r>   -20.5905     0.0000   192.0000 </r>
       <r>   -20.4774     0.0000   192.0000 </r>
       <r>   -20.3644     0.0000   192.0000 </r>
       <r>   -20.2514     0.0000   192.0000 </r>
       <r>   -20.1384     0.0000   192.0000 </r>
       <r>   -20.0254     0.0000   192.0000 </r>
       <r>   -19.9124     0.0000   192.0000 </r>
       <r>   -19.7994     0.0000   192.0000 </r>
       <r>   -19.6864     0.0000   192.0000 </r>
       <r>   -19.5734     0.0000   192.0000 </r>
       <r>   -19.4604     0.0000   192.0000 </r>
       <r>   -19.3473     0.0000   192.0000 </r>
       <r>   -19.2343     0.0000   192.0000 </r>
       <r>   -19.1213     0.0000   192.0000 </r>
       <r>   -19.0083     0.0000   192.0000 </r>
       <r>   -18.8953     0.0000   192.0000 </r>
       <r>   -18.7823     0.0000   192.0000 </r>
       <r>   -18.6693     0.0000   192.0000 </r>
       <r>   -18.5563     0.0000   192.0000 </r>
       <r>   -18.4433     0.0000   192.0000 </r>
       <r>   -18.3302     0.0000   192.0000 </r>
       <r>   -18.2172     0.0000   192.0000 </r>
       <r>   -18.1042     0.0000   192.0000 </r>
       <r>   -17.9912     0.0000   192.0000 </r>
       <r>   -17.8782     0.0000   192.0000 </r>
       <r>   -17.7652     0.0000   192.0000 </r>
       <r>   -17.6522     0.0000   192.0000 </r>
       <r>   -17.5392     0.0000   192.0000 </r>
       <r>   -17.4262     0.0000   192.0000 </r>
       <r>   -17.3132     0.0000   192.0000 </r>
       <r>   -17.2001     0.0000   192.0000 </r>
       <r>   -17.0871     0.0000   192.0000 </r>
       <r>   -16.9741     0.0000   192.0000 </r>
       <r>   -16.8611     0.0000   192.0000 </r>
       <r>   -16.7481     0.0000   192.0000 </r>
       <r>   -16.6351     0.0000   192.0000 </r>
       <r>   -16.5221     0.0000   192.0000 </r>
       <r>   -16.4091     0.0000   192.0000 </r>
       <r>   -16.2961     0.0000   192.0000 </r>
       <r>   -16.1830     0.0000   192.0000 </r>
       <r>   -16.0700     0.0000   192.0000 </r>
       <r>   -15.9570     0.0000   192.0000 </r>
       <r>   -15.8440     0.0000   192.0000 </r>
       <r>   -15.7310     0.0000   192.0000 </r>
       <r>   -15.6180     0.0000   192.0000 </r>
       <r>   -15.5050     0.0000   192.0000 </r>
       <r>   -15.3920     0.0000   192.0000 </r>
       <r>   -15.2790     0.0000   192.0000 </r>
       <r>   -15.1660     0.0000   192.0000 </r>
       <r>   -15.0529     0.0000   192.0000 </r>
       <r>   -14.9399     0.0000   192.0000 </r>
       <r>   -14.8269     0.0000   192.0000 </r>
       <r>   -14.7139     0.0000   192.0000 </r>
       <r>   -14.6009     0.0000   192.0000 </r>
       <r>   -14.4879     0.0000   192.0000 </r>
       <r>   -14.3749     0.0000   192.0000 </r>
       <r>   -14.2619     0.0000   192.0000 </r>
       <r>   -14.1489     0.0000   192.0000 </r>
       <r>   -14.0358     0.0000   192.0000 </r>
       <r>   -13.9228     0.0000   192.0000 </r>
       <r>   -13.8098     0.0000   192.0000 </r>
       <r>   -13.6968     0.0000   192.0000 </r>
       <r>   -13.5838     0.0000   192.0000 </r>
       <r>   -13.4708     0.0000   192.0000 </r>
       <r>   -13.3578     1.1180   192.1264 </r>
       <r>   -13.2448    19.1366   194.2890 </r>
       <r>   -13.1318    48.5546   199.7763 </r>
       <r>   -13.0187   125.0647   213.9104 </r>
       <r>   -12.9057   367.8773   255.4851 </r>
       <r>   -12.7927     4.5476   256.0000 </r>
       <r>   -12.6797     0.0000   256.0000 </r>
       <r>   -12.5667     0.0000   256.0000 </r>
       <r>   -12.4537     0.0000   256.0000 </r>
       <r>   -12.3407     0.0000   256.0000 </r>
       <r>   -12.2277     0.0000   256.0000 </r>
       <r>   -12.1147     0.0000   256.0000 </r>
       <r>   -12.0017     0.0000   256.0000 </r>
       <r>   -11.8886     0.0000   256.0000 </r>
       <r>   -11.7756     0.0000   256.0000 </r>
       <r>   -11.6626     0.0000   256.0000 </r>
       <r>   -11.5496     0.0000   256.0000 </r>
       <r>   -11.4366     0.0000   256.0000 </r>
       <r>   -11.3236     0.0000   256.0000 </r>
       <r>   -11.2106     0.0000   256.0000 </r>
       <r>   -11.0976     0.0000   256.0000 </r>
       <r>   -10.9846     0.0000   256.0000 </r>
       <r>   -10.8715     0.0000   256.0000 </r>
       <r>   -10.7585     0.0000   256.0000 </r>
       <r>   -10.6455     0.0000   256.0000 </r>
       <r>   -10.5325     0.0000   256.0000 </r>
       <r>   -10.4195     0.0000   256.0000 </r>
       <r>   -10.3065     0.0000   256.0000 </r>
       <r>   -10.1935     0.0000   256.0000 </r>
       <r>   -10.0805     0.0000   256.0000 </r>
       <r>    -9.9675     0.0000   256.0000 </r>
       <r>    -9.8545     0.0000   256.0000 </r>
       <r>    -9.7414     0.0000   256.0000 </r>
       <r>    -9.6284     0.0000   256.0000 </r>
       <r>    -9.5154     0.0000   256.0000 </r>
       <r>    -9.4024     0.0000   256.0000 </r>
       <r>    -9.2894     0.0000   256.0000 </r>
       <r>    -9.1764     0.0000   256.0000 </r>
       <r>    -9.0634     0.0000   256.0000 </r>
       <r>    -8.9504     0.0000   256.0000 </r>
       <r>    -8.8374     0.0000   256.0000 </r>
       <r>    -8.7243     0.0000   256.0000 </r>
       <r>    -8.6113     0.0000   256.0000 </r>
       <r>    -8.4983     0.0000   256.0000 </r>
       <r>    -8.3853     0.0000   256.0000 </r>
       <r>    -8.2723     0.0000   256.0000 </r>
       <r>    -8.1593     0.0000   256.0000 </r>
       <r>    -8.0463     0.0000   256.0000 </r>
       <r>    -7.9333     0.0000   256.0000 </r>
       <r>    -7.8203     0.0000   256.0000 </r>
       <r>    -7.7073     0.0000   256.0000 </r>
       <r>    -7.5942     0.0000   256.0000 </r>
       <r>    -7.4812     0.0000   256.0000 </r>
       <r>    -7.3682     0.0000   256.0000 </r>
       <r>    -7.2552     0.0000   256.0000 </r>
       <r>    -7.1422     0.0000   256.0000 </r>
       <r>    -7.0292     0.0000   256.0000 </r>
       <r>    -6.9162     0.0000   256.0000 </r>
       <r>    -6.8032     0.0000   256.0000 </r>
       <r>    -6.6902     0.0000   256.0000 </r>
       <r>    -6.5771     0.0000   256.0000 </r>
       <r>    -6.4641     0.0000   256.0000 </r>
       <r>    -6.3511     0.0000   256.0000 </r>
       <r>    -6.2381     0.0000   256.0000 </r>
       <r>    -6.1251     0.0000   256.0000 </r>
       <r>    -6.0121     0.0000   256.0000 </r>
       <r>    -5.8991     0.0000   256.0000 </r>
       <r>    -5.7861     0.0000   256.0000 </r>
       <r>    -5.6731     0.0000   256.0000 </r>
       <r>    -5.5601     0.0000   256.0000 </r>
       <r>    -5.4470     0.0000   256.0000 </r>
       <r>    -5.3340     0.0000   256.0000 </r>
       <r>    -5.2210     0.0000   256.0000 </r>
       <r>    -5.1080     0.0000   256.0000 </r>
       <r>    -4.9950     0.0000   256.0000 </r>
       <r>    -4.8820     0.0000   256.0000 </r>
       <r>    -4.7690     0.0000   256.0000 </r>
       <r>    -4.6560     0.0000   256.0000 </r>
       <r>    -4.5430     0.0000   256.0000 </r>
       <r>    -4.4299     0.0000   256.0000 </r>
       <r>    -4.3169     0.0000   256.0000 </r>
       <r>    -4.2039     0.0000   256.0000 </r>
       <r>    -4.0909     0.0000   256.0000 </r>
       <r>    -3.9779     0.0000   256.0000 </r>
       <r>    -3.8649     0.0000   256.0000 </r>
       <r>    -3.7519     0.0000   256.0000 </r>
       <r>    -3.6389     0.0000   256.0000 </r>
       <r>    -3.5259     0.0000   256.0000 </r>
       <r>    -3.4128     0.0000   256.0000 </r>
       <r>    -3.2998     0.0000   256.0000 </r>
       <r>    -3.1868     0.0000   256.0000 </r>
       <r>    -3.0738     0.0000   256.0000 </r>
       <r>    -2.9608     0.0000   256.0000 </r>
       <r>    -2.8478     0.0000   256.0000 </r>
       <r>    -2.7348     0.0610   256.0069 </r>
       <r>    -2.6218     8.7878   257.0000 </r>
       <r>    -2.5088    20.0403   259.2648 </r>
       <r>    -2.3958    86.6183   269.0536 </r>
       <r>    -2.2827    80.4379   278.1439 </r>
       <r>    -2.1697   156.2959   295.8075 </r>
       <r>    -2.0567    74.7057   304.2500 </r>
       <r>    -1.9437    55.4148   310.5125 </r>
       <r>    -1.8307    58.7510   317.1519 </r>
       <r>    -1.7177    76.0818   325.7500 </r>
       <r>    -1.6047     0.0000   325.7500 </r>
       <r>    -1.4917    59.6395   332.4899 </r>
       <r>    -1.3787   204.6785   355.6207 </r>
       <r>    -1.2656    27.6040   358.7403 </r>
       <r>    -1.1526   246.6184   386.6108 </r>
       <r>    -1.0396   141.9448   402.6521 </r>
       <r>    -0.9266   253.3841   431.2872 </r>
       <r>    -0.8136    66.8825   438.8465 </r>
       <r>    -0.7006    74.3070   447.2439 </r>
       <r>    -0.5876     6.6902   448.0000 </r>
       <r>    -0.4746     0.0000   448.0000 </r>
       <r>    -0.3616     0.0000   448.0000 </r>
       <r>    -0.2486     0.0000   448.0000 </r>
       <r>    -0.1355     0.0000   448.0000 </r>
       <r>    -0.0225     0.0000   448.0000 </r>
       <r>     0.0905     0.0000   448.0000 </r>
       <r>     0.2035     0.0000   448.0000 </r>
       <r>     0.3165     0.0000   448.0000 </r>
       <r>     0.4295     0.0000   448.0000 </r>
       <r>     0.5425     0.0000   448.0000 </r>
       <r>     0.6555     0.0000   448.0000 </r>
       <r>     0.7685     0.0000   448.0000 </r>
       <r>     0.8816     0.0000   448.0000 </r>
       <r>     0.9946     0.0000   448.0000 </r>
       <r>     1.1076     0.0000   448.0000 </r>
       <r>     1.2206     0.0000   448.0000 </r>
       <r>     1.3336     0.0000   448.0000 </r>
       <r>     1.4466     0.0000   448.0000 </r>
       <r>     1.5596     0.0000   448.0000 </r>
       <r>     1.6726     0.0000   448.0000 </r>
       <r>     1.7856     0.0000   448.0000 </r>
       <r>     1.8986     0.0000   448.0000 </r>
       <r>     2.0117     0.0000   448.0000 </r>
       <r>     2.1247     0.0000   448.0000 </r>
       <r>     2.2377     0.0000   448.0000 </r>
       <r>     2.3507     0.0000   448.0000 </r>
       <r>     2.4637     0.0000   448.0000 </r>
       <r>     2.5767     0.0000   448.0000 </r>
       <r>     2.6897     0.0000   448.0000 </r>
       <r>     2.8027     0.0000   448.0000 </r>
       <r>     2.9157     0.0000   448.0000 </r>
       <r>     3.0288     0.0000   448.0000 </r>
       <r>     3.1418     0.0000   448.0000 </r>
       <r>     3.2548     0.0000   448.0000 </r>
       <r>     3.3678     0.0000   448.0000 </r>
       <r>     3.4808     0.0000   448.0000 </r>
       <r>     3.5938     0.0000   448.0000 </r>
       <r>     3.7068     0.0000   448.0000 </r>
       <r>     3.8198     0.0000   448.0000 </r>
       <r>     3.9328     0.0000   448.0000 </r>
       <r>     4.0459     0.0000   448.0000 </r>
       <r>     4.1589     0.0000   448.0000 </r>
       <r>     4.2719     0.0000   448.0000 </r>
       <r>     4.3849     2.2104   448.2498 </r>
       <r>     4.4979     0.0018   448.2500 </r>
       <r>     4.6109     0.0000   448.2500 </r>
       <r>     4.7239     0.0000   448.2500 </r>
       <r>     4.8369     0.0000   448.2500 </r>
       <r>     4.9499     0.0000   448.2500 </r>
       <r>     5.0629    13.2412   449.7464 </r>
       <r>     5.1760     0.0319   449.7500 </r>
       <r>     5.2890     0.0000   449.7500 </r>
       <r>     5.4020     0.0000   449.7500 </r>
       <r>     5.5150     1.3627   449.9040 </r>
       <r>     5.6280    25.1835   452.7500 </r>
       <r>     5.7410     0.0000   452.7500 </r>
       <r>     5.8540    16.3787   454.6010 </r>
       <r>     5.9670     1.3187   454.7500 </r>
       <r>     6.0800     0.0000   454.7500 </r>
       <r>     6.1931     0.0000   454.7500 </r>
       <r>     6.3061     0.0003   454.7500 </r>
       <r>     6.4191    13.5718   456.2838 </r>
       <r>     6.5321     8.5482   457.2500 </r>
       <r>     6.6451    35.0097   461.2065 </r>
       <r>     6.7581    70.9200   469.2212 </r>
       <r>     6.8711    58.3468   475.8151 </r>
       <r>     6.9841    12.4530   477.2225 </r>
       <r>     7.0971     2.4558   477.5000 </r>
       <r>     7.2101     3.9413   477.9454 </r>
       <r>     7.3232     2.7882   478.2605 </r>
       <r>     7.4362    80.2111   487.3252 </r>
       <r>     7.5492   165.4659   506.0247 </r>
       <r>     7.6622     6.4211   506.7504 </r>
       <r>     7.7752    26.5421   509.7500 </r>
       <r>     7.8882     0.0561   509.7563 </r>
       <r>     8.0012    53.0360   515.7500 </r>
       <r>     8.1142     0.0017   515.7502 </r>
       <r>     8.2272    13.5721   517.2840 </r>
       <r>     8.3403    92.5585   527.7441 </r>
       <r>     8.4533     0.0509   527.7500 </r>
       <r>     8.5663   138.9487   543.4527 </r>
       <r>     8.6793    20.3284   545.7500 </r>
       <r>     8.7923     0.0000   545.7500 </r>
       <r>     8.9053    73.7337   554.0827 </r>
       <r>     9.0183   127.4175   568.4822 </r>
       <r>     9.1313     9.0057   569.5000 </r>
       <r>     9.2443    17.3888   571.4651 </r>
       <r>     9.3573    26.8549   574.5000 </r>
       <r>     9.4704     0.6838   574.5773 </r>
       <r>     9.5834    12.5892   576.0000 </r>
       <r>     9.6964     0.0000   576.0000 </r>
       <r>     9.8094     0.0000   576.0000 </r>
       <r>     9.9224     0.0000   576.0000 </r>
       <r>    10.0354     0.0000   576.0000 </r>
       <r>    10.1484     0.0000   576.0000 </r>
       <r>    10.2614     0.0000   576.0000 </r>
       <r>    10.3744     0.0000   576.0000 </r>
       <r>    10.4875     0.0000   576.0000 </r>
       <r>    10.6005     0.0000   576.0000 </r>
       <r>    10.7135     0.0000   576.0000 </r>
       <r>    10.8265     0.0000   576.0000 </r>
       <r>    10.9395     0.0000   576.0000 </r>
       <r>    11.0525     0.0000   576.0000 </r>
      </set>
     </set>
    </array>
   </total>
  </dos>
 </calculation>
 <structure name="finalpos" >
  <crystal>
   <varray name="basis" >
    <v>      11.20400236       0.00000000       0.00000000 </v>
    <v>       0.00000000      11.20400236       0.00000000 </v>
    <v>       0.00000000       0.00000000      11.20400236 </v>
   </varray>
   <i name="volume">   1406.43470641 </i>
   <varray name="rec_basis" >
    <v>       0.08925382       0.00000000       0.00000000 </v>
    <v>       0.00000000       0.08925382       0.00000000 </v>
    <v>       0.00000000       0.00000000       0.08925382 </v>
   </varray>
  </crystal>
  <varray name="positions" >
   <v>       0.00000000       0.00000000       0.00000000 </v>
   <v>       0.25000000       0.25000000       0.00000000 </v>
   <v>       0.25000000       0.00000000       0.25000000 </v>
   <v>       0.00000000       0.25000000       0.25000000 </v>
   <v>       0.00000000       0.00000000       0.50000000 </v>
   <v>       0.25000000       0.25000000       0.50000000 </v>
   <v>       0.25000000       0.00000000       0.75000000 </v>
   <v>       0.00000000       0.25000000       0.75000000 </v>
   <v>       0.00000000       0.50000000       0.00000000 </v>
   <v>       0.25000000       0.75000000       0.00000000 </v>
   <v>       0.25000000       0.50000000       0.25000000 </v>
   <v>       0.00000000       0.75000000       0.25000000 </v>
   <v>       0.00000000       0.50000000       0.50000000 </v>
   <v>       0.25000000       0.75000000       0.50000000 </v>
   <v>       0.25000000       0.50000000       0.75000000 </v>
   <v>       0.00000000       0.75000000       0.75000000 </v>
   <v>       0.50000000       0.00000000       0.00000000 </v>
   <v>       0.75000000       0.25000000       0.00000000 </v>
   <v>       0.75000000       0.00000000       0.25000000 </v>
   <v>       0.50000000       0.25000000       0.25000000 </v>
   <v>       0.50000000       0.00000000       0.50000000 </v>
   <v>       0.75000000       0.25000000       0.50000000 </v>
   <v>       0.75000000       0.00000000       0.75000000 </v>
   <v>       0.50000000       0.25000000       0.75000000 </v>
   <v>       0.50000000       0.50000000       0.00000000 </v>
   <v>       0.75000000       0.75000000       0.00000000 </v>
   <v>       0.75000000       0.50000000       0.25000000 </v>
   <v>       0.50000000       0.75000000       0.25000000 </v>
   <v>       0.50000000       0.50000000       0.50000000 </v>
   <v>       0.75000000       0.75000000       0.50000000 </v>
   <v>       0.75000000       0.50000000       0.75000000 </v>
   <v>       0.50000000       0.75000000       0.75000000 </v>
   <v>       0.24732239       0.25000000       0.25000000 </v>
   <v>       0.00000000       0.00000000       0.25267761 </v>
   <v>       0.00000000       0.25000000       0.00000000 </v>
   <v>       0.25000000       0.00000000       0.00000000 </v>
   <v>       0.25000000       0.25000000       0.75000000 </v>
   <v>       0.00000000       0.00000000       0.75000000 </v>
   <v>       0.00000000       0.25000000       0.50000000 </v>
   <v>       0.25000000       0.00000000       0.50000000 </v>
   <v>       0.25000000       0.75000000       0.25000000 </v>
   <v>       0.00000000       0.50000000       0.25000000 </v>
   <v>       0.00000000       0.75000000       0.00000000 </v>
   <v>       0.25000000       0.50000000       0.00000000 </v>
   <v>       0.25000000       0.75000000       0.75000000 </v>
   <v>       0.00000000       0.50000000       0.75000000 </v>
   <v>       0.00000000       0.75000000       0.50000000 </v>
   <v>       0.25000000       0.50000000       0.50000000 </v>
   <v>       0.75000000       0.25000000       0.25000000 </v>
   <v>       0.50000000       0.00000000       0.25000000 </v>
   <v>       0.50000000       0.25000000       0.00000000 </v>
   <v>       0.75000000       0.00000000       0.00000000 </v>
   <v>       0.75000000       0.25000000       0.75000000 </v>
   <v>       0.50000000       0.00000000       0.75000000 </v>
   <v>       0.50000000       0.25000000       0.50000000 </v>
   <v>       0.75000000       0.00000000       0.50000000 </v>
   <v>       0.75000000       0.75000000       0.25000000 </v>
   <v>       0.50000000       0.50000000       0.25000000 </v>
   <v>       0.50000000       0.75000000       0.00000000 </v>
   <v>       0.75000000       0.50000000       0.00000000 </v>
   <v>       0.75000000       0.75000000       0.75000000 </v>
   <v>       0.50000000       0.50000000       0.75000000 </v>
   <v>       0.50000000       0.75000000       0.50000000 </v>
   <v>       0.75000000       0.50000000       0.50000000 </v>
  </varray>
 </structure>
</modeling>
