  64  64   0   0
  0.2197554E+02  0.1120400E-08  0.1120400E-08  0.1120400E-08  0.5000000E-15
  1.000000000000000E-004
  CAR 
 unknown system                          
     11.06334800    -22.85087629  301     -0.55227382      1.00000000
    -22.851  0.0000E+00  0.0000E+00
    -22.738  0.0000E+00  0.0000E+00
    -22.625  0.0000E+00  0.0000E+00
    -22.512  0.0000E+00  0.0000E+00
    -22.399  0.0000E+00  0.0000E+00
    -22.286  0.0000E+00  0.0000E+00
    -22.173  0.0000E+00  0.0000E+00
    -22.060  0.0000E+00  0.0000E+00
    -21.946  0.0000E+00  0.0000E+00
    -21.833  0.0000E+00  0.0000E+00
    -21.720  0.0000E+00  0.0000E+00
    -21.607  0.0000E+00  0.0000E+00
    -21.494  0.0000E+00  0.0000E+00
    -21.381  0.6284E-05  0.7104E-06
    -21.268  0.1299E+04  0.1469E+03
    -21.155  0.3990E+03  0.1920E+03
    -21.042  0.0000E+00  0.1920E+03
    -20.929  0.0000E+00  0.1920E+03
    -20.816  0.0000E+00  0.1920E+03
    -20.703  0.0000E+00  0.1920E+03
    -20.590  0.0000E+00  0.1920E+03
    -20.477  0.0000E+00  0.1920E+03
    -20.364  0.0000E+00  0.1920E+03
    -20.251  0.0000E+00  0.1920E+03
    -20.138  0.0000E+00  0.1920E+03
    -20.025  0.0000E+00  0.1920E+03
    -19.912  0.0000E+00  0.1920E+03
    -19.799  0.0000E+00  0.1920E+03
    -19.686  0.0000E+00  0.1920E+03
    -19.573  0.0000E+00  0.1920E+03
    -19.459  0.0000E+00  0.1920E+03
    -19.346  0.0000E+00  0.1920E+03
    -19.233  0.0000E+00  0.1920E+03
    -19.120  0.0000E+00  0.1920E+03
    -19.007  0.0000E+00  0.1920E+03
    -18.894  0.0000E+00  0.1920E+03
    -18.781  0.0000E+00  0.1920E+03
    -18.668  0.0000E+00  0.1920E+03
    -18.555  0.0000E+00  0.1920E+03
    -18.442  0.0000E+00  0.1920E+03
    -18.329  0.0000E+00  0.1920E+03
    -18.216  0.0000E+00  0.1920E+03
    -18.103  0.0000E+00  0.1920E+03
    -17.990  0.0000E+00  0.1920E+03
    -17.877  0.0000E+00  0.1920E+03
    -17.764  0.0000E+00  0.1920E+03
    -17.651  0.0000E+00  0.1920E+03
    -17.538  0.0000E+00  0.1920E+03
    -17.425  0.0000E+00  0.1920E+03
    -17.312  0.0000E+00  0.1920E+03
    -17.199  0.0000E+00  0.1920E+03
    -17.085  0.0000E+00  0.1920E+03
    -16.972  0.0000E+00  0.1920E+03
    -16.859  0.0000E+00  0.1920E+03
    -16.746  0.0000E+00  0.1920E+03
    -16.633  0.0000E+00  0.1920E+03
    -16.520  0.0000E+00  0.1920E+03
    -16.407  0.0000E+00  0.1920E+03
    -16.294  0.0000E+00  0.1920E+03
    -16.181  0.0000E+00  0.1920E+03
    -16.068  0.0000E+00  0.1920E+03
    -15.955  0.0000E+00  0.1920E+03
    -15.842  0.0000E+00  0.1920E+03
    -15.729  0.0000E+00  0.1920E+03
    -15.616  0.0000E+00  0.1920E+03
    -15.503  0.0000E+00  0.1920E+03
    -15.390  0.0000E+00  0.1920E+03
    -15.277  0.0000E+00  0.1920E+03
    -15.164  0.0000E+00  0.1920E+03
    -15.051  0.0000E+00  0.1920E+03
    -14.938  0.0000E+00  0.1920E+03
    -14.825  0.0000E+00  0.1920E+03
    -14.711  0.0000E+00  0.1920E+03
    -14.598  0.0000E+00  0.1920E+03
    -14.485  0.0000E+00  0.1920E+03
    -14.372  0.0000E+00  0.1920E+03
    -14.259  0.0000E+00  0.1920E+03
    -14.146  0.0000E+00  0.1920E+03
    -14.033  0.0000E+00  0.1920E+03
    -13.920  0.0000E+00  0.1920E+03
    -13.807  0.0000E+00  0.1920E+03
    -13.694  0.0000E+00  0.1920E+03
    -13.581  0.0000E+00  0.1920E+03
    -13.468  0.8839E-14  0.1920E+03
    -13.355  0.1303E+01  0.1921E+03
    -13.242  0.2064E+02  0.1945E+03
    -13.129  0.4825E+02  0.1999E+03
    -13.016  0.1291E+03  0.2145E+03
    -12.903  0.3635E+03  0.2556E+03
    -12.790  0.3286E+01  0.2560E+03
    -12.677  0.0000E+00  0.2560E+03
    -12.564  0.0000E+00  0.2560E+03
    -12.451  0.0000E+00  0.2560E+03
    -12.337  0.0000E+00  0.2560E+03
    -12.224  0.0000E+00  0.2560E+03
    -12.111  0.0000E+00  0.2560E+03
    -11.998  0.0000E+00  0.2560E+03
    -11.885  0.0000E+00  0.2560E+03
    -11.772  0.0000E+00  0.2560E+03
    -11.659  0.0000E+00  0.2560E+03
    -11.546  0.0000E+00  0.2560E+03
    -11.433  0.0000E+00  0.2560E+03
    -11.320  0.0000E+00  0.2560E+03
    -11.207  0.0000E+00  0.2560E+03
    -11.094  0.0000E+00  0.2560E+03
    -10.981  0.0000E+00  0.2560E+03
    -10.868  0.0000E+00  0.2560E+03
    -10.755  0.0000E+00  0.2560E+03
    -10.642  0.0000E+00  0.2560E+03
    -10.529  0.0000E+00  0.2560E+03
    -10.416  0.0000E+00  0.2560E+03
    -10.303  0.0000E+00  0.2560E+03
    -10.190  0.0000E+00  0.2560E+03
    -10.077  0.0000E+00  0.2560E+03
     -9.963  0.0000E+00  0.2560E+03
     -9.850  0.0000E+00  0.2560E+03
     -9.737  0.0000E+00  0.2560E+03
     -9.624  0.0000E+00  0.2560E+03
     -9.511  0.0000E+00  0.2560E+03
     -9.398  0.0000E+00  0.2560E+03
     -9.285  0.0000E+00  0.2560E+03
     -9.172  0.0000E+00  0.2560E+03
     -9.059  0.0000E+00  0.2560E+03
     -8.946  0.0000E+00  0.2560E+03
     -8.833  0.0000E+00  0.2560E+03
     -8.720  0.0000E+00  0.2560E+03
     -8.607  0.0000E+00  0.2560E+03
     -8.494  0.0000E+00  0.2560E+03
     -8.381  0.0000E+00  0.2560E+03
     -8.268  0.0000E+00  0.2560E+03
     -8.155  0.0000E+00  0.2560E+03
     -8.042  0.0000E+00  0.2560E+03
     -7.929  0.0000E+00  0.2560E+03
     -7.816  0.0000E+00  0.2560E+03
     -7.703  0.0000E+00  0.2560E+03
     -7.589  0.0000E+00  0.2560E+03
     -7.476  0.0000E+00  0.2560E+03
     -7.363  0.0000E+00  0.2560E+03
     -7.250  0.0000E+00  0.2560E+03
     -7.137  0.0000E+00  0.2560E+03
     -7.024  0.0000E+00  0.2560E+03
     -6.911  0.0000E+00  0.2560E+03
     -6.798  0.0000E+00  0.2560E+03
     -6.685  0.0000E+00  0.2560E+03
     -6.572  0.0000E+00  0.2560E+03
     -6.459  0.0000E+00  0.2560E+03
     -6.346  0.0000E+00  0.2560E+03
     -6.233  0.0000E+00  0.2560E+03
     -6.120  0.0000E+00  0.2560E+03
     -6.007  0.0000E+00  0.2560E+03
     -5.894  0.0000E+00  0.2560E+03
     -5.781  0.0000E+00  0.2560E+03
     -5.668  0.0000E+00  0.2560E+03
     -5.555  0.0000E+00  0.2560E+03
     -5.442  0.0000E+00  0.2560E+03
     -5.329  0.0000E+00  0.2560E+03
     -5.215  0.0000E+00  0.2560E+03
     -5.102  0.0000E+00  0.2560E+03
     -4.989  0.0000E+00  0.2560E+03
     -4.876  0.0000E+00  0.2560E+03
     -4.763  0.0000E+00  0.2560E+03
     -4.650  0.0000E+00  0.2560E+03
     -4.537  0.0000E+00  0.2560E+03
     -4.424  0.0000E+00  0.2560E+03
     -4.311  0.0000E+00  0.2560E+03
     -4.198  0.0000E+00  0.2560E+03
     -4.085  0.0000E+00  0.2560E+03
     -3.972  0.0000E+00  0.2560E+03
     -3.859  0.0000E+00  0.2560E+03
     -3.746  0.0000E+00  0.2560E+03
     -3.633  0.0000E+00  0.2560E+03
     -3.520  0.0000E+00  0.2560E+03
     -3.407  0.0000E+00  0.2560E+03
     -3.294  0.0000E+00  0.2560E+03
     -3.181  0.0000E+00  0.2560E+03
     -3.068  0.0000E+00  0.2560E+03
     -2.955  0.0000E+00  0.2560E+03
     -2.841  0.0000E+00  0.2560E+03
     -2.728  0.1965E+00  0.2560E+03
     -2.615  0.8649E+01  0.2570E+03
     -2.502  0.2956E+02  0.2603E+03
     -2.389  0.8062E+02  0.2695E+03
     -2.276  0.8507E+02  0.2791E+03
     -2.163  0.1531E+03  0.2964E+03
     -2.050  0.6964E+02  0.3043E+03
     -1.937  0.5817E+02  0.3108E+03
     -1.824  0.6560E+02  0.3182E+03
     -1.711  0.6640E+02  0.3257E+03
     -1.598  0.1218E-08  0.3258E+03
     -1.485  0.8408E+02  0.3353E+03
     -1.372  0.1864E+03  0.3563E+03
     -1.259  0.2204E+02  0.3588E+03
     -1.146  0.2597E+03  0.3882E+03
     -1.033  0.1329E+03  0.4032E+03
     -0.920  0.2619E+03  0.4328E+03
     -0.807  0.6012E+02  0.4396E+03
     -0.694  0.6772E+02  0.4473E+03
     -0.581  0.6512E+01  0.4480E+03
     -0.467  0.0000E+00  0.4480E+03
     -0.354  0.0000E+00  0.4480E+03
     -0.241  0.0000E+00  0.4480E+03
     -0.128  0.0000E+00  0.4480E+03
     -0.015  0.0000E+00  0.4480E+03
      0.098  0.0000E+00  0.4480E+03
      0.211  0.0000E+00  0.4480E+03
      0.324  0.0000E+00  0.4480E+03
      0.437  0.0000E+00  0.4480E+03
      0.550  0.0000E+00  0.4480E+03
      0.663  0.0000E+00  0.4480E+03
      0.776  0.0000E+00  0.4480E+03
      0.889  0.0000E+00  0.4480E+03
      1.002  0.0000E+00  0.4480E+03
      1.115  0.0000E+00  0.4480E+03
      1.228  0.0000E+00  0.4480E+03
      1.341  0.0000E+00  0.4480E+03
      1.454  0.0000E+00  0.4480E+03
      1.567  0.0000E+00  0.4480E+03
      1.680  0.0000E+00  0.4480E+03
      1.793  0.0000E+00  0.4480E+03
      1.907  0.0000E+00  0.4480E+03
      2.020  0.0000E+00  0.4480E+03
      2.133  0.0000E+00  0.4480E+03
      2.246  0.0000E+00  0.4480E+03
      2.359  0.0000E+00  0.4480E+03
      2.472  0.0000E+00  0.4480E+03
      2.585  0.0000E+00  0.4480E+03
      2.698  0.0000E+00  0.4480E+03
      2.811  0.0000E+00  0.4480E+03
      2.924  0.0000E+00  0.4480E+03
      3.037  0.0000E+00  0.4480E+03
      3.150  0.0000E+00  0.4480E+03
      3.263  0.0000E+00  0.4480E+03
      3.376  0.0000E+00  0.4480E+03
      3.489  0.0000E+00  0.4480E+03
      3.602  0.0000E+00  0.4480E+03
      3.715  0.0000E+00  0.4480E+03
      3.828  0.0000E+00  0.4480E+03
      3.941  0.0000E+00  0.4480E+03
      4.054  0.0000E+00  0.4480E+03
      4.167  0.0000E+00  0.4480E+03
      4.281  0.2623E-04  0.4480E+03
      4.394  0.2211E+01  0.4482E+03
      4.507  0.0000E+00  0.4482E+03
      4.620  0.0000E+00  0.4482E+03
      4.733  0.0000E+00  0.4482E+03
      4.846  0.0000E+00  0.4482E+03
      4.959  0.6090E-04  0.4483E+03
      5.072  0.1327E+02  0.4497E+03
      5.185  0.1281E-02  0.4498E+03
      5.298  0.0000E+00  0.4498E+03
      5.411  0.0000E+00  0.4498E+03
      5.524  0.3901E+01  0.4502E+03
      5.637  0.2264E+02  0.4527E+03
      5.750  0.4791E-06  0.4528E+03
      5.863  0.1738E+02  0.4547E+03
      5.976  0.3084E+00  0.4548E+03
      6.089  0.0000E+00  0.4548E+03
      6.202  0.0000E+00  0.4548E+03
      6.315  0.2385E-02  0.4548E+03
      6.428  0.1437E+02  0.4564E+03
      6.541  0.7747E+01  0.4573E+03
      6.654  0.4537E+02  0.4624E+03
      6.768  0.6076E+02  0.4692E+03
      6.881  0.5945E+02  0.4760E+03
      6.994  0.1278E+02  0.4774E+03
      7.107  0.7647E+00  0.4775E+03
      7.220  0.5438E+01  0.4781E+03
      7.333  0.1718E+01  0.4783E+03
      7.446  0.8285E+02  0.4877E+03
      7.559  0.1671E+03  0.5066E+03
      7.672  0.1659E+01  0.5068E+03
      7.785  0.2650E+02  0.5097E+03
      7.898  0.3958E+00  0.5098E+03
      8.011  0.5268E+02  0.5157E+03
      8.124  0.1550E-01  0.5158E+03
      8.237  0.1469E+02  0.5174E+03
      8.350  0.9144E+02  0.5277E+03
      8.463  0.3287E-04  0.5278E+03
      8.576  0.1522E+03  0.5450E+03
      8.689  0.7034E+01  0.5458E+03
      8.802  0.4949E-05  0.5458E+03
      8.915  0.8638E+02  0.5555E+03
      9.028  0.1212E+03  0.5692E+03
      9.142  0.2466E+01  0.5695E+03
      9.255  0.2481E+02  0.5723E+03
      9.368  0.1725E+02  0.5743E+03
      9.481  0.4133E+01  0.5747E+03
      9.594  0.1130E+02  0.5760E+03
      9.707  0.0000E+00  0.5760E+03
      9.820  0.0000E+00  0.5760E+03
      9.933  0.0000E+00  0.5760E+03
     10.046  0.0000E+00  0.5760E+03
     10.159  0.0000E+00  0.5760E+03
     10.272  0.0000E+00  0.5760E+03
     10.385  0.0000E+00  0.5760E+03
     10.498  0.0000E+00  0.5760E+03
     10.611  0.0000E+00  0.5760E+03
     10.724  0.0000E+00  0.5760E+03
     10.837  0.0000E+00  0.5760E+03
     10.950  0.0000E+00  0.5760E+03
     11.063  0.0000E+00  0.5760E+03
