       N       E                     dE             d eps       ncg     rms          rms(c)
DAV:   1     0.432197720868E+04    0.43220E+04   -0.17164E+05  4608   0.125E+03
DAV:   2     0.363876897323E+03   -0.39581E+04   -0.37659E+04  5120   0.368E+02
DAV:   3    -0.206176818219E+03   -0.57005E+03   -0.56579E+03  5600   0.156E+02
DAV:   4    -0.228192078859E+03   -0.22015E+02   -0.21914E+02  5568   0.331E+01
DAV:   5    -0.229004598025E+03   -0.81252E+00   -0.81114E+00  5728   0.616E+00    0.106E+01
DAV:   6    -0.224138556600E+03    0.48660E+01   -0.94843E+00  5728   0.530E+00    0.776E+00
DAV:   7    -0.223777380285E+03    0.36118E+00   -0.20660E+00  6272   0.234E+00    0.533E+00
DAV:   8    -0.223902594047E+03   -0.12521E+00   -0.26659E-01  5376   0.124E+00    0.142E+00
DAV:   9    -0.223897072409E+03    0.55216E-02   -0.11403E-02  5760   0.261E-01    0.599E-01
DAV:  10    -0.223901368637E+03   -0.42962E-02   -0.18081E-02  5408   0.227E-01    0.283E-01
DAV:  11    -0.223900658550E+03    0.71009E-03   -0.15498E-03  5824   0.809E-02    0.864E-02
DAV:  12    -0.223900621125E+03    0.37425E-04   -0.14258E-04  5920   0.231E-02    0.161E-02
DAV:  13    -0.223900621092E+03    0.33382E-07   -0.21613E-05  5696   0.796E-03    0.323E-03
DAV:  14    -0.223900622140E+03   -0.10480E-05   -0.22768E-06  5408   0.359E-03    0.862E-03
DAV:  15    -0.223900623322E+03   -0.11826E-05   -0.34572E-07  5536   0.169E-03    0.376E-03
DAV:  16    -0.223900623908E+03   -0.58555E-06   -0.17104E-07  5600   0.952E-04    0.504E-04
DAV:  17    -0.223900623916E+03   -0.86293E-08   -0.58308E-09  3776   0.626E-04
   1 F= -.22390062E+03 E0= -.22390062E+03  d E =-.746303E-16
