<?xml version="1.0" encoding="ISO-8859-1"?>
<modeling>
 <generator>
  <i name="program" type="string">vasp </i>
  <i name="version" type="string">6.3.2  </i>
  <i name="subversion" type="string">27Jun22 (build Oct 14 2022 12:13:54) complex                          parallel </i>
  <i name="platform" type="string">LinuxIFC </i>
  <i name="date" type="string">2025 08 28 </i>
  <i name="time" type="string">22:04:10 </i>
 </generator>
 <incar>
  <i type="string" name="PREC">Accurate</i>
  <i type="int" name="IALGO">    38</i>
  <i type="logical" name="ADDGRID"> T  </i>
  <i type="int" name="NELMIN">     5</i>
  <i type="int" name="IBRION">    -1</i>
  <i name="EDIFF">      0.00000001</i>
  <i name="ENCUT">    341.21360000</i>
  <i type="logical" name="LREAL"> F  </i>
  <i type="int" name="ISMEAR">     0</i>
  <i name="SIGMA">      0.02000000</i>
  <i type="logical" name="LWAVE"> F  </i>
  <i type="logical" name="LCHARG"> F  </i>
  <i type="string" name="GGA">PS</i>
 </incar>
 <primitive_cell>
  <structure name="primitive_cell" >
   <crystal>
    <varray name="basis" >
     <v>      11.20400236       0.00000000       0.00000000 </v>
     <v>       0.00000000      11.20400236       0.00000000 </v>
     <v>       0.00000000       0.00000000      11.20400236 </v>
    </varray>
    <i name="volume">   1406.43470641 </i>
    <varray name="rec_basis" >
     <v>       0.08925382       0.00000000       0.00000000 </v>
     <v>       0.00000000       0.08925382       0.00000000 </v>
     <v>       0.00000000       0.00000000       0.08925382 </v>
    </varray>
   </crystal>
   <varray name="positions" >
    <v>       0.00267761       0.00000000       0.00000000 </v>
    <v>       0.25000000       0.25000000       0.00000000 </v>
    <v>       0.25000000       0.00000000       0.25000000 </v>
    <v>       0.00000000       0.25000000       0.25000000 </v>
    <v>       0.00000000       0.00000000       0.50000000 </v>
    <v>       0.25000000       0.25000000       0.50000000 </v>
    <v>       0.25000000       0.00000000       0.75000000 </v>
    <v>       0.00000000       0.25000000       0.75000000 </v>
    <v>       0.00000000       0.50000000       0.00000000 </v>
    <v>       0.25000000       0.75000000       0.00000000 </v>
    <v>       0.25000000       0.50000000       0.25000000 </v>
    <v>       0.00000000       0.75000000       0.25000000 </v>
    <v>       0.00000000       0.50000000       0.50000000 </v>
    <v>       0.25000000       0.75000000       0.50000000 </v>
    <v>       0.25000000       0.50000000       0.75000000 </v>
    <v>       0.00000000       0.75000000       0.75000000 </v>
    <v>       0.50000000       0.00000000       0.00000000 </v>
    <v>       0.75000000       0.25000000       0.00000000 </v>
    <v>       0.75000000       0.00000000       0.25000000 </v>
    <v>       0.50000000       0.25000000       0.25000000 </v>
    <v>       0.50000000       0.00000000       0.50000000 </v>
    <v>       0.75000000       0.25000000       0.50000000 </v>
    <v>       0.75000000       0.00000000       0.75000000 </v>
    <v>       0.50000000       0.25000000       0.75000000 </v>
    <v>       0.50000000       0.50000000       0.00000000 </v>
    <v>       0.75000000       0.75000000       0.00000000 </v>
    <v>       0.75000000       0.50000000       0.25000000 </v>
    <v>       0.50000000       0.75000000       0.25000000 </v>
    <v>       0.50000000       0.50000000       0.50000000 </v>
    <v>       0.75000000       0.75000000       0.50000000 </v>
    <v>       0.75000000       0.50000000       0.75000000 </v>
    <v>       0.50000000       0.75000000       0.75000000 </v>
    <v>       0.25000000       0.25000000       0.25000000 </v>
    <v>       0.00000000       0.00267761       0.25000000 </v>
    <v>       0.00000000       0.25000000       0.00000000 </v>
    <v>       0.25000000       0.00000000       0.00000000 </v>
    <v>       0.25000000       0.25000000       0.75000000 </v>
    <v>       0.00000000       0.00000000       0.75000000 </v>
    <v>       0.00000000       0.25000000       0.50000000 </v>
    <v>       0.25000000       0.00000000       0.50000000 </v>
    <v>       0.25000000       0.75000000       0.25000000 </v>
    <v>       0.00000000       0.50000000       0.25000000 </v>
    <v>       0.00000000       0.75000000       0.00000000 </v>
    <v>       0.25000000       0.50000000       0.00000000 </v>
    <v>       0.25000000       0.75000000       0.75000000 </v>
    <v>       0.00000000       0.50000000       0.75000000 </v>
    <v>       0.00000000       0.75000000       0.50000000 </v>
    <v>       0.25000000       0.50000000       0.50000000 </v>
    <v>       0.75000000       0.25000000       0.25000000 </v>
    <v>       0.50000000       0.00000000       0.25000000 </v>
    <v>       0.50000000       0.25000000       0.00000000 </v>
    <v>       0.75000000       0.00000000       0.00000000 </v>
    <v>       0.75000000       0.25000000       0.75000000 </v>
    <v>       0.50000000       0.00000000       0.75000000 </v>
    <v>       0.50000000       0.25000000       0.50000000 </v>
    <v>       0.75000000       0.00000000       0.50000000 </v>
    <v>       0.75000000       0.75000000       0.25000000 </v>
    <v>       0.50000000       0.50000000       0.25000000 </v>
    <v>       0.50000000       0.75000000       0.00000000 </v>
    <v>       0.75000000       0.50000000       0.00000000 </v>
    <v>       0.75000000       0.75000000       0.75000000 </v>
    <v>       0.50000000       0.50000000       0.75000000 </v>
    <v>       0.50000000       0.75000000       0.50000000 </v>
    <v>       0.75000000       0.50000000       0.50000000 </v>
   </varray>
  </structure>
  <varray name="primitive_index" >
   <v type="int" >        1 </v>
   <v type="int" >        2 </v>
   <v type="int" >        3 </v>
   <v type="int" >        4 </v>
   <v type="int" >        5 </v>
   <v type="int" >        6 </v>
   <v type="int" >        7 </v>
   <v type="int" >        8 </v>
   <v type="int" >        9 </v>
   <v type="int" >       10 </v>
   <v type="int" >       11 </v>
   <v type="int" >       12 </v>
   <v type="int" >       13 </v>
   <v type="int" >       14 </v>
   <v type="int" >       15 </v>
   <v type="int" >       16 </v>
   <v type="int" >       17 </v>
   <v type="int" >       18 </v>
   <v type="int" >       19 </v>
   <v type="int" >       20 </v>
   <v type="int" >       21 </v>
   <v type="int" >       22 </v>
   <v type="int" >       23 </v>
   <v type="int" >       24 </v>
   <v type="int" >       25 </v>
   <v type="int" >       26 </v>
   <v type="int" >       27 </v>
   <v type="int" >       28 </v>
   <v type="int" >       29 </v>
   <v type="int" >       30 </v>
   <v type="int" >       31 </v>
   <v type="int" >       32 </v>
   <v type="int" >       33 </v>
   <v type="int" >       34 </v>
   <v type="int" >       35 </v>
   <v type="int" >       36 </v>
   <v type="int" >       37 </v>
   <v type="int" >       38 </v>
   <v type="int" >       39 </v>
   <v type="int" >       40 </v>
   <v type="int" >       41 </v>
   <v type="int" >       42 </v>
   <v type="int" >       43 </v>
   <v type="int" >       44 </v>
   <v type="int" >       45 </v>
   <v type="int" >       46 </v>
   <v type="int" >       47 </v>
   <v type="int" >       48 </v>
   <v type="int" >       49 </v>
   <v type="int" >       50 </v>
   <v type="int" >       51 </v>
   <v type="int" >       52 </v>
   <v type="int" >       53 </v>
   <v type="int" >       54 </v>
   <v type="int" >       55 </v>
   <v type="int" >       56 </v>
   <v type="int" >       57 </v>
   <v type="int" >       58 </v>
   <v type="int" >       59 </v>
   <v type="int" >       60 </v>
   <v type="int" >       61 </v>
   <v type="int" >       62 </v>
   <v type="int" >       63 </v>
   <v type="int" >       64 </v>
  </varray>
 </primitive_cell>
 <kpoints>
  <generation param="Gamma">
   <v type="int" name="divisions">       2        2        2 </v>
   <v name="usershift">      0.00000000       0.00000000       0.00000000 </v>
   <v name="genvec1">      0.50000000       0.00000000       0.00000000 </v>
   <v name="genvec2">      0.00000000       0.50000000       0.00000000 </v>
   <v name="genvec3">      0.00000000       0.00000000       0.50000000 </v>
   <v name="shift">      0.00000000       0.00000000       0.00000000 </v>
  </generation>
  <varray name="kpointlist" >
   <v>       0.00000000       0.00000000       0.00000000 </v>
   <v>       0.50000000       0.00000000       0.00000000 </v>
   <v>       0.00000000       0.50000000       0.00000000 </v>
   <v>       0.00000000       0.00000000       0.50000000 </v>
   <v>       0.50000000       0.50000000       0.00000000 </v>
   <v>       0.00000000       0.50000000       0.50000000 </v>
   <v>       0.50000000       0.00000000       0.50000000 </v>
   <v>       0.50000000       0.50000000       0.50000000 </v>
  </varray>
  <varray name="weights" >
   <v>       0.12500000 </v>
   <v>       0.12500000 </v>
   <v>       0.12500000 </v>
   <v>       0.12500000 </v>
   <v>       0.12500000 </v>
   <v>       0.12500000 </v>
   <v>       0.12500000 </v>
   <v>       0.12500000 </v>
  </varray>
 </kpoints>
 <parameters>
  <separator name="general" >
   <i type="string" name="SYSTEM">unknown system</i>
   <i type="logical" name="LCOMPAT"> F  </i>
  </separator>
  <separator name="electronic" >
   <i type="string" name="PREC">accura</i>
   <i name="ENMAX">    341.21360000</i>
   <i name="ENAUG">    368.05600000</i>
   <i name="EDIFF">      0.00000001</i>
   <i type="int" name="IALGO">    38</i>
   <i type="int" name="IWAVPR">    10</i>
   <i type="int" name="NBANDS">   288</i>
   <i type="int" name="NBANDSLOW">    -1</i>
   <i type="int" name="NBANDSHIGH">    -1</i>
   <i name="NELECT">    448.00000000</i>
   <i type="int" name="TURBO">     0</i>
   <i type="int" name="IRESTART">     0</i>
   <i type="int" name="NREBOOT">     0</i>
   <i type="int" name="NMIN">     0</i>
   <i name="EREF">      0.00000000</i>
   <separator name="electronic smearing" >
    <i type="int" name="ISMEAR">     0</i>
    <i name="SIGMA">      0.02000000</i>
    <i name="KSPACING">      0.50000000</i>
    <i type="logical" name="KGAMMA"> T  </i>
    <i type="logical" name="KBLOWUP"> T  </i>
   </separator>
   <separator name="electronic projectors" >
    <i type="logical" name="LREAL"> F  </i>
    <v name="ROPT">      0.00000000      0.00000000</v>
    <i type="int" name="LMAXPAW">  -100</i>
    <i type="int" name="LMAXMIX">     2</i>
    <i type="logical" name="NLSPLINE"> F  </i>
   </separator>
   <separator name="electronic startup" >
    <i type="int" name="ISTART">     0</i>
    <i type="int" name="ICHARG">     2</i>
    <i type="int" name="INIWAV">     1</i>
   </separator>
   <separator name="electronic spin" >
    <i type="int" name="ISPIN">     1</i>
    <i type="logical" name="LNONCOLLINEAR"> F  </i>
    <v name="MAGMOM">      1.00000000      1.00000000      1.00000000      1.00000000      1.00000000      1.00000000      1.00000000      1.00000000      1.00000000      1.00000000      1.00000000      1.00000000      1.00000000      1.00000000      1.00000000      1.00000000      1.00000000      1.00000000      1.00000000      1.00000000
      1.00000000      1.00000000      1.00000000      1.00000000      1.00000000      1.00000000      1.00000000      1.00000000      1.00000000      1.00000000      1.00000000      1.00000000      1.00000000      1.00000000      1.00000000      1.00000000      1.00000000      1.00000000      1.00000000      1.00000000
      1.00000000      1.00000000      1.00000000      1.00000000      1.00000000      1.00000000      1.00000000      1.00000000      1.00000000      1.00000000      1.00000000      1.00000000      1.00000000      1.00000000      1.00000000      1.00000000      1.00000000      1.00000000      1.00000000      1.00000000
      1.00000000      1.00000000      1.00000000      1.00000000</v>
    <i name="NUPDOWN">     -1.00000000</i>
    <i type="logical" name="LSORBIT"> F  </i>
    <v name="SAXIS">      0.00000000      0.00000000      1.00000000</v>
    <i type="logical" name="LSPIRAL"> F  </i>
    <v name="QSPIRAL">      0.00000000      0.00000000      0.00000000</v>
    <i type="logical" name="LZEROZ"> F  </i>
   </separator>
   <separator name="electronic exchange-correlation" >
    <i type="logical" name="LASPH"> F  </i>
    <i type="logical" name="LMETAGGA"> F  </i>
   </separator>
   <separator name="electronic convergence" >
    <i type="int" name="NELM">    60</i>
    <i type="int" name="NELMDL">    -5</i>
    <i type="int" name="NELMIN">     5</i>
    <i name="ENINI">    341.21360000</i>
    <separator name="electronic convergence detail" >
     <i type="logical" name="LDIAG"> T  </i>
     <i type="logical" name="LSUBROT"> F  </i>
     <i name="WEIMIN">      0.00000000</i>
     <i name="EBREAK">      0.00000000</i>
     <i name="DEPER">      0.30000000</i>
     <i type="int" name="NRMM">     4</i>
     <i name="TIME">      0.40000000</i>
    </separator>
   </separator>
   <separator name="electronic mixer" >
    <i name="AMIX">      0.40000000</i>
    <i name="BMIX">      1.00000000</i>
    <i name="AMIN">      0.10000000</i>
    <i name="AMIX_MAG">      1.60000000</i>
    <i name="BMIX_MAG">      1.00000000</i>
    <separator name="electronic mixer details" >
     <i type="int" name="IMIX">     4</i>
     <i type="logical" name="MIXFIRST"> F  </i>
     <i type="int" name="MAXMIX">   -45</i>
     <i name="WC">    100.00000000</i>
     <i type="int" name="INIMIX">     1</i>
     <i type="int" name="MIXPRE">     1</i>
     <i type="int" name="MREMOVE">     5</i>
    </separator>
   </separator>
   <separator name="electronic dipolcorrection" >
    <i type="logical" name="LDIPOL"> F  </i>
    <i type="logical" name="LMONO"> F  </i>
    <i type="int" name="IDIPOL">     0</i>
    <i name="EPSILON">      1.00000000</i>
    <v name="DIPOL">   -100.00000000   -100.00000000   -100.00000000</v>
    <i name="EFIELD">      0.00000000</i>
   </separator>
  </separator>
  <separator name="grids" >
   <i type="int" name="NGX">    70</i>
   <i type="int" name="NGY">    70</i>
   <i type="int" name="NGZ">    70</i>
   <i type="int" name="NGXF">   140</i>
   <i type="int" name="NGYF">   140</i>
   <i type="int" name="NGZF">   140</i>
   <i type="logical" name="ADDGRID"> T  </i>
  </separator>
  <separator name="ionic" >
   <i type="int" name="NSW">     0</i>
   <i type="int" name="IBRION">    -1</i>
   <i type="int" name="MDALGO">     0</i>
   <i type="int" name="ISIF">     2</i>
   <i name="PSTRESS">      0.00000000</i>
   <i name="EDIFFG">      0.00000010</i>
   <i type="int" name="NFREE">     0</i>
   <i name="POTIM">      0.50000000</i>
   <i name="SMASS">     -3.00000000</i>
   <i name="SCALEE">      1.00000000</i>
  </separator>
  <separator name="ionic md" >
   <i name="TEBEG">      0.00010000</i>
   <i name="TEEND">      0.00010000</i>
   <i type="int" name="NBLOCK">     1</i>
   <i type="int" name="KBLOCK">     1</i>
   <i type="int" name="NPACO">   256</i>
   <i name="APACO">     10.00000000</i>
  </separator>
  <separator name="symmetry" >
   <i type="int" name="ISYM">     2</i>
   <i name="SYMPREC">      0.00001000</i>
  </separator>
  <separator name="dos" >
   <i type="int" name="LORBIT">     0</i>
   <v name="RWIGS">     -1.00000000     -1.00000000</v>
   <i type="int" name="NEDOS">   301</i>
   <i name="EMIN">     10.00000000</i>
   <i name="EMAX">    -10.00000000</i>
   <i name="EFERMI">      0.00000000</i>
  </separator>
  <separator name="writing" >
   <i type="int" name="NWRITE">     2</i>
   <i type="logical" name="LWAVE"> F  </i>
   <i type="logical" name="LDOWNSAMPLE"> F  </i>
   <i type="logical" name="LCHARG"> F  </i>
   <i type="logical" name="LPARD"> F  </i>
   <i type="logical" name="LVTOT"> F  </i>
   <i type="logical" name="LVHAR"> F  </i>
   <i type="logical" name="LELF"> F  </i>
   <i type="logical" name="LOPTICS"> F  </i>
   <v name="STM">      0.00000000      0.00000000      0.00000000      0.00000000      0.00000000      0.00000000      0.00000000</v>
  </separator>
  <separator name="performance" >
   <i type="int" name="NPAR">    32</i>
   <i type="int" name="NSIM">     4</i>
   <i type="int" name="NBLK">    -1</i>
   <i type="logical" name="LPLANE"> T  </i>
   <i type="logical" name="LSCALAPACK"> T  </i>
   <i type="logical" name="LSCAAWARE"> F  </i>
   <i type="logical" name="LSCALU"> F  </i>
   <i type="logical" name="LASYNC"> F  </i>
   <i type="logical" name="LORBITALREAL"> F  </i>
  </separator>
  <separator name="miscellaneous" >
   <i type="int" name="IDIOT">     3</i>
   <i type="int" name="PHON_NSTRUCT">    -1</i>
   <i type="logical" name="LMUSIC"> F  </i>
   <v name="POMASS">     22.99000000     35.45300000</v>
   <v name="DARWINR">      0.00000000      0.00000000</v>
   <v name="DARWINV">      1.00000000      1.00000000</v>
   <i type="logical" name="LCORR"> T  </i>
  </separator>
  <i type="logical" name="GGA_COMPAT"> T  </i>
  <i type="logical" name="LBERRY"> F  </i>
  <i type="int" name="ICORELEVEL">     0</i>
  <i type="logical" name="LDAU"> F  </i>
  <i type="int" name="I_CONSTRAINED_M">     0</i>
  <separator name="electronic exchange-correlation" >
   <i type="string" name="GGA">PS</i>
   <i type="int" name="VOSKOWN">     0</i>
   <i type="logical" name="LHFCALC"> F  </i>
   <i type="string" name="PRECFOCK"></i>
   <i type="logical" name="LSYMGRAD"> F  </i>
   <i type="logical" name="LHFONE"> F  </i>
   <i type="logical" name="LRHFCALC"> F  </i>
   <i type="logical" name="LTHOMAS"> F  </i>
   <i type="logical" name="LMODELHF"> F  </i>
   <i type="logical" name="LFOCKACE"> F  </i>
   <i name="ENCUT4O">     -1.00000000</i>
   <i type="int" name="EXXOEP">     0</i>
   <i type="int" name="FOURORBIT">     0</i>
   <i name="AEXX">      0.00000000</i>
   <i name="HFALPHA">      0.00000000</i>
   <i name="MCALPHA">      0.00000000</i>
   <i name="ALDAX">      1.00000000</i>
   <i name="AGGAX">      1.00000000</i>
   <i name="ALDAC">      1.00000000</i>
   <i name="AGGAC">      1.00000000</i>
   <i type="int" name="NKREDX">     1</i>
   <i type="int" name="NKREDY">     1</i>
   <i type="int" name="NKREDZ">     1</i>
   <i type="logical" name="SHIFTRED"> F  </i>
   <i type="logical" name="ODDONLY"> F  </i>
   <i type="logical" name="EVENONLY"> F  </i>
   <i type="int" name="LMAXFOCK">     0</i>
   <i type="int" name="NMAXFOCKAE">     0</i>
   <i type="logical" name="LFOCKAEDFT"> F  </i>
   <i name="HFSCREEN">      0.00000000</i>
   <i name="HFSCREENC">      0.00000000</i>
   <i type="int" name="NBANDSGWLOW">     0</i>
  </separator>
  <separator name="vdW DFT" >
   <i type="logical" name="LUSE_VDW"> F  </i>
   <i name="Zab_VDW">     -0.84910000</i>
   <i name="PARAM1">      0.12340000</i>
   <i name="PARAM2">      1.00000000</i>
   <i name="PARAM3">      0.00000000</i>
  </separator>
  <separator name="model GW" >
   <i type="int" name="MODEL_GW">     0</i>
   <i name="MODEL_EPS0">     13.18532537</i>
   <i name="MODEL_ALPHA">      1.00000000</i>
  </separator>
  <separator name="linear response parameters" >
   <i type="logical" name="LEPSILON"> F  </i>
   <i type="logical" name="LRPA"> F  </i>
   <i type="logical" name="LNABLA"> F  </i>
   <i type="logical" name="LVEL"> F  </i>
   <i name="CSHIFT">      0.10000000</i>
   <i name="OMEGAMAX">     -1.00000000</i>
   <i name="DEG_THRESHOLD">      0.00200000</i>
   <i name="RTIME">     -0.10000000</i>
   <i name="WPLASMAI">      0.00000000</i>
   <v name="DFIELD">      0.00000000      0.00000000      0.00000000</v>
   <v name="WPLASMA">      0.00000000      0.00000000      0.00000000      0.00000000      0.00000000      0.00000000      0.00000000      0.00000000      0.00000000</v>
  </separator>
  <separator name="orbital magnetization" >
   <i type="logical" name="NUCIND"> F  </i>
   <v name="MAGPOS">      0.00000000      0.00000000      0.00000000</v>
   <i type="logical" name="LNICSALL"> T  </i>
   <i type="logical" name="ORBITALMAG"> F  </i>
   <i type="logical" name="LMAGBLOCH"> F  </i>
   <i type="logical" name="LCHIMAG"> F  </i>
   <i type="logical" name="LGAUGE"> T  </i>
   <i type="int" name="MAGATOM">     0</i>
   <v name="MAGDIPOL">      0.00000000      0.00000000      0.00000000</v>
   <v name="AVECCONST">      0.00000000      0.00000000      0.00000000</v>
  </separator>
  <separator name="response functions" >
   <i type="logical" name="LFINITE_TEMPERATURE"> F  </i>
   <i type="logical" name="LADDER"> F  </i>
   <i type="logical" name="LRPAFORCE"> F  </i>
   <i type="logical" name="LFXC"> F  </i>
   <i type="logical" name="LHARTREE"> T  </i>
   <i type="int" name="IBSE">     0</i>
   <v type="int" name="KPOINT">    -1     0     0     0</v>
   <i type="logical" name="LTCTC"> F  </i>
   <i type="logical" name="LTCTE"> F  </i>
   <i type="logical" name="LTETE"> F  </i>
   <i type="logical" name="LTRIPLET"> F  </i>
   <i type="logical" name="LFXCEPS"> F  </i>
   <i type="logical" name="LFXHEG"> F  </i>
   <i type="int" name="NATURALO">     2</i>
   <i type="logical" name="LHOLEGF"> F  </i>
   <i type="logical" name="L2ORDER"> F  </i>
   <i type="logical" name="LDMP1"> F  </i>
   <i type="logical" name="LMP2LT"> F  </i>
   <i type="logical" name="LSMP2LT"> F  </i>
   <i type="logical" name="LGWLF"> F  </i>
   <i name="ENCUTGW">     -2.00000000</i>
   <i name="ENCUTGWSOFT">     -2.00000000</i>
   <i name="ENCUTLF">     -1.00000000</i>
   <i type="logical" name="LESF_SPLINES"> F  </i>
   <i type="int" name="LMAXMP2">    -1</i>
   <i name="SCISSOR">      0.00000000</i>
   <i type="int" name="NOMEGA">     0</i>
   <i type="int" name="NOMEGAR">     0</i>
   <i type="int" name="NBANDSGW">    -1</i>
   <i type="int" name="NBANDSO">    -1</i>
   <i type="int" name="NBANDSV">    -1</i>
   <i type="int" name="NELMGW">     1</i>
   <i type="int" name="NELMHF">     1</i>
   <i type="int" name="DIM">     3</i>
   <i type="int" name="IESPILON">     4</i>
   <i type="int" name="ANTIRES">     0</i>
   <i name="OMEGAMAX">    -30.00000000</i>
   <i name="OMEGAMIN">    -30.00000000</i>
   <i name="OMEGATL">   -200.00000000</i>
   <i type="int" name="OMEGAGRID">     0</i>
   <i name="CSHIFT">     -0.10000000</i>
   <i type="logical" name="LSELFENERGY"> F  </i>
   <i type="logical" name="LSPECTRAL"> F  </i>
   <i type="logical" name="LSPECTRALGW"> F  </i>
   <i type="logical" name="LSINGLES"> F  </i>
   <i type="logical" name="LFERMIGW"> F  </i>
   <i type="logical" name="ODDONLYGW"> F  </i>
   <i type="logical" name="EVENONLYGW"> F  </i>
   <i type="int" name="NKREDLFX">     1</i>
   <i type="int" name="NKREDLFY">     1</i>
   <i type="int" name="NKREDLFZ">     1</i>
   <i type="int" name="MAXMEM">  2800</i>
   <i type="int" name="TELESCOPE">     0</i>
   <i type="int" name="NTAUPAR">    -1</i>
   <i type="int" name="NOMEGAPAR">    -1</i>
   <i name="DAMP_NEWTON">      0.80000001</i>
   <i name="LAMBDA">      1.00000000</i>
  </separator>
  <separator name="External order field" >
   <i name="OFIELD_KAPPA">      0.00000000</i>
   <v name="OFIELD_K">      0.00000000      0.00000000      0.00000000</v>
   <i name="OFIELD_Q6_NEAR">      0.00000000</i>
   <i name="OFIELD_Q6_FAR">      0.00000000</i>
   <i name="OFIELD_A">      0.00000000</i>
  </separator>
  <separator name="optional k-points parameters" >
   <i type="int" name="KPOINTS_OPT_MODE">     1</i>
   <i type="logical" name="LKPOINTS_OPT"> F  </i>
  </separator>
 </parameters>
 <atominfo>
  <atoms>      64 </atoms>
  <types>       2 </types>
  <array name="atoms" >
   <dimension dim="1">ion</dimension>
   <field type="string">element</field>
   <field type="int">atomtype</field>
   <set>
    <rc><c>Na</c><c>   1</c></rc>
    <rc><c>Na</c><c>   1</c></rc>
    <rc><c>Na</c><c>   1</c></rc>
    <rc><c>Na</c><c>   1</c></rc>
    <rc><c>Na</c><c>   1</c></rc>
    <rc><c>Na</c><c>   1</c></rc>
    <rc><c>Na</c><c>   1</c></rc>
    <rc><c>Na</c><c>   1</c></rc>
    <rc><c>Na</c><c>   1</c></rc>
    <rc><c>Na</c><c>   1</c></rc>
    <rc><c>Na</c><c>   1</c></rc>
    <rc><c>Na</c><c>   1</c></rc>
    <rc><c>Na</c><c>   1</c></rc>
    <rc><c>Na</c><c>   1</c></rc>
    <rc><c>Na</c><c>   1</c></rc>
    <rc><c>Na</c><c>   1</c></rc>
    <rc><c>Na</c><c>   1</c></rc>
    <rc><c>Na</c><c>   1</c></rc>
    <rc><c>Na</c><c>   1</c></rc>
    <rc><c>Na</c><c>   1</c></rc>
    <rc><c>Na</c><c>   1</c></rc>
    <rc><c>Na</c><c>   1</c></rc>
    <rc><c>Na</c><c>   1</c></rc>
    <rc><c>Na</c><c>   1</c></rc>
    <rc><c>Na</c><c>   1</c></rc>
    <rc><c>Na</c><c>   1</c></rc>
    <rc><c>Na</c><c>   1</c></rc>
    <rc><c>Na</c><c>   1</c></rc>
    <rc><c>Na</c><c>   1</c></rc>
    <rc><c>Na</c><c>   1</c></rc>
    <rc><c>Na</c><c>   1</c></rc>
    <rc><c>Na</c><c>   1</c></rc>
    <rc><c>Cl</c><c>   2</c></rc>
    <rc><c>Cl</c><c>   2</c></rc>
    <rc><c>Cl</c><c>   2</c></rc>
    <rc><c>Cl</c><c>   2</c></rc>
    <rc><c>Cl</c><c>   2</c></rc>
    <rc><c>Cl</c><c>   2</c></rc>
    <rc><c>Cl</c><c>   2</c></rc>
    <rc><c>Cl</c><c>   2</c></rc>
    <rc><c>Cl</c><c>   2</c></rc>
    <rc><c>Cl</c><c>   2</c></rc>
    <rc><c>Cl</c><c>   2</c></rc>
    <rc><c>Cl</c><c>   2</c></rc>
    <rc><c>Cl</c><c>   2</c></rc>
    <rc><c>Cl</c><c>   2</c></rc>
    <rc><c>Cl</c><c>   2</c></rc>
    <rc><c>Cl</c><c>   2</c></rc>
    <rc><c>Cl</c><c>   2</c></rc>
    <rc><c>Cl</c><c>   2</c></rc>
    <rc><c>Cl</c><c>   2</c></rc>
    <rc><c>Cl</c><c>   2</c></rc>
    <rc><c>Cl</c><c>   2</c></rc>
    <rc><c>Cl</c><c>   2</c></rc>
    <rc><c>Cl</c><c>   2</c></rc>
    <rc><c>Cl</c><c>   2</c></rc>
    <rc><c>Cl</c><c>   2</c></rc>
    <rc><c>Cl</c><c>   2</c></rc>
    <rc><c>Cl</c><c>   2</c></rc>
    <rc><c>Cl</c><c>   2</c></rc>
    <rc><c>Cl</c><c>   2</c></rc>
    <rc><c>Cl</c><c>   2</c></rc>
    <rc><c>Cl</c><c>   2</c></rc>
    <rc><c>Cl</c><c>   2</c></rc>
   </set>
  </array>
  <array name="atomtypes" >
   <dimension dim="1">type</dimension>
   <field type="int">atomspertype</field>
   <field type="string">element</field>
   <field>mass</field>
   <field>valence</field>
   <field type="string">pseudopotential</field>
   <set>
    <rc><c>  32</c><c>Na</c><c>     22.99000000</c><c>      7.00000000</c><c>  PAW_PBE Na_pv 19Sep2006               </c></rc>
    <rc><c>  32</c><c>Cl</c><c>     35.45300000</c><c>      7.00000000</c><c>  PAW_PBE Cl 06Sep2000                  </c></rc>
   </set>
  </array>
 </atominfo>
 <structure name="initialpos" >
  <crystal>
   <varray name="basis" >
    <v>      11.20400236       0.00000000       0.00000000 </v>
    <v>       0.00000000      11.20400236       0.00000000 </v>
    <v>       0.00000000       0.00000000      11.20400236 </v>
   </varray>
   <i name="volume">   1406.43470641 </i>
   <varray name="rec_basis" >
    <v>       0.08925382       0.00000000       0.00000000 </v>
    <v>       0.00000000       0.08925382       0.00000000 </v>
    <v>       0.00000000       0.00000000       0.08925382 </v>
   </varray>
  </crystal>
  <varray name="positions" >
   <v>       0.00267761       0.00000000       0.00000000 </v>
   <v>       0.25000000       0.25000000       0.00000000 </v>
   <v>       0.25000000       0.00000000       0.25000000 </v>
   <v>       0.00000000       0.25000000       0.25000000 </v>
   <v>       0.00000000       0.00000000       0.50000000 </v>
   <v>       0.25000000       0.25000000       0.50000000 </v>
   <v>       0.25000000       0.00000000       0.75000000 </v>
   <v>       0.00000000       0.25000000       0.75000000 </v>
   <v>       0.00000000       0.50000000       0.00000000 </v>
   <v>       0.25000000       0.75000000       0.00000000 </v>
   <v>       0.25000000       0.50000000       0.25000000 </v>
   <v>       0.00000000       0.75000000       0.25000000 </v>
   <v>       0.00000000       0.50000000       0.50000000 </v>
   <v>       0.25000000       0.75000000       0.50000000 </v>
   <v>       0.25000000       0.50000000       0.75000000 </v>
   <v>       0.00000000       0.75000000       0.75000000 </v>
   <v>       0.50000000       0.00000000       0.00000000 </v>
   <v>       0.75000000       0.25000000       0.00000000 </v>
   <v>       0.75000000       0.00000000       0.25000000 </v>
   <v>       0.50000000       0.25000000       0.25000000 </v>
   <v>       0.50000000       0.00000000       0.50000000 </v>
   <v>       0.75000000       0.25000000       0.50000000 </v>
   <v>       0.75000000       0.00000000       0.75000000 </v>
   <v>       0.50000000       0.25000000       0.75000000 </v>
   <v>       0.50000000       0.50000000       0.00000000 </v>
   <v>       0.75000000       0.75000000       0.00000000 </v>
   <v>       0.75000000       0.50000000       0.25000000 </v>
   <v>       0.50000000       0.75000000       0.25000000 </v>
   <v>       0.50000000       0.50000000       0.50000000 </v>
   <v>       0.75000000       0.75000000       0.50000000 </v>
   <v>       0.75000000       0.50000000       0.75000000 </v>
   <v>       0.50000000       0.75000000       0.75000000 </v>
   <v>       0.25000000       0.25000000       0.25000000 </v>
   <v>       0.00000000       0.00267761       0.25000000 </v>
   <v>       0.00000000       0.25000000       0.00000000 </v>
   <v>       0.25000000       0.00000000       0.00000000 </v>
   <v>       0.25000000       0.25000000       0.75000000 </v>
   <v>       0.00000000       0.00000000       0.75000000 </v>
   <v>       0.00000000       0.25000000       0.50000000 </v>
   <v>       0.25000000       0.00000000       0.50000000 </v>
   <v>       0.25000000       0.75000000       0.25000000 </v>
   <v>       0.00000000       0.50000000       0.25000000 </v>
   <v>       0.00000000       0.75000000       0.00000000 </v>
   <v>       0.25000000       0.50000000       0.00000000 </v>
   <v>       0.25000000       0.75000000       0.75000000 </v>
   <v>       0.00000000       0.50000000       0.75000000 </v>
   <v>       0.00000000       0.75000000       0.50000000 </v>
   <v>       0.25000000       0.50000000       0.50000000 </v>
   <v>       0.75000000       0.25000000       0.25000000 </v>
   <v>       0.50000000       0.00000000       0.25000000 </v>
   <v>       0.50000000       0.25000000       0.00000000 </v>
   <v>       0.75000000       0.00000000       0.00000000 </v>
   <v>       0.75000000       0.25000000       0.75000000 </v>
   <v>       0.50000000       0.00000000       0.75000000 </v>
   <v>       0.50000000       0.25000000       0.50000000 </v>
   <v>       0.75000000       0.00000000       0.50000000 </v>
   <v>       0.75000000       0.75000000       0.25000000 </v>
   <v>       0.50000000       0.50000000       0.25000000 </v>
   <v>       0.50000000       0.75000000       0.00000000 </v>
   <v>       0.75000000       0.50000000       0.00000000 </v>
   <v>       0.75000000       0.75000000       0.75000000 </v>
   <v>       0.50000000       0.50000000       0.75000000 </v>
   <v>       0.50000000       0.75000000       0.50000000 </v>
   <v>       0.75000000       0.50000000       0.50000000 </v>
  </varray>
 </structure>
 <calculation>
  <scstep>
   <time name="dav">   10.00   10.05</time>
   <time name="total">   10.08   10.13</time>
   <energy>
    <i name="alphaZ">    751.52672365 </i>
    <i name="ewald"> -22871.34023656 </i>
    <i name="hartreedc">  -8992.24637414 </i>
    <i name="XCdc">   1456.53426374 </i>
    <i name="pawpsdc">  26466.43774078 </i>
    <i name="pawaedc"> -29286.08056155 </i>
    <i name="eentropy">     -0.00237911 </i>
    <i name="bandstr">   -735.03143806 </i>
    <i name="atom">  37532.17946992 </i>
    <i name="e_fr_energy">   4321.97720868 </i>
    <i name="e_wo_entrp">   4321.97958778 </i>
    <i name="e_0_energy">   4321.97839823 </i>
   </energy>
  </scstep>
  <scstep>
   <time name="dav">   10.88   10.94</time>
   <time name="total">   10.88   10.94</time>
   <energy>
    <i name="e_fr_energy">    363.87689732 </i>
    <i name="e_wo_entrp">    363.87689732 </i>
    <i name="e_0_energy">    363.87689732 </i>
   </energy>
  </scstep>
  <scstep>
   <time name="dav">   11.68   11.75</time>
   <time name="total">   11.68   11.75</time>
   <energy>
    <i name="e_fr_energy">   -206.17681822 </i>
    <i name="e_wo_entrp">   -206.17681822 </i>
    <i name="e_0_energy">   -206.17681822 </i>
   </energy>
  </scstep>
  <scstep>
   <time name="dav">   11.65   11.72</time>
   <time name="total">   11.65   11.72</time>
   <energy>
    <i name="e_fr_energy">   -228.19207886 </i>
    <i name="e_wo_entrp">   -228.19207886 </i>
    <i name="e_0_energy">   -228.19207886 </i>
   </energy>
  </scstep>
  <scstep>
   <time name="dav">   11.89   11.96</time>
   <time name="total">   12.22   12.29</time>
   <energy>
    <i name="e_fr_energy">   -229.00459803 </i>
    <i name="e_wo_entrp">   -229.00459803 </i>
    <i name="e_0_energy">   -229.00459803 </i>
   </energy>
  </scstep>
  <scstep>
   <time name="dav">   11.92   11.98</time>
   <time name="total">   12.32   12.38</time>
   <energy>
    <i name="e_fr_energy">   -224.13855660 </i>
    <i name="e_wo_entrp">   -224.13855660 </i>
    <i name="e_0_energy">   -224.13855660 </i>
   </energy>
  </scstep>
  <scstep>
   <time name="dav">   12.81   12.88</time>
   <time name="total">   13.21   13.28</time>
   <energy>
    <i name="e_fr_energy">   -223.77738028 </i>
    <i name="e_wo_entrp">   -223.77738028 </i>
    <i name="e_0_energy">   -223.77738028 </i>
   </energy>
  </scstep>
  <scstep>
   <time name="dav">   11.32   11.38</time>
   <time name="total">   11.72   11.78</time>
   <energy>
    <i name="e_fr_energy">   -223.90259405 </i>
    <i name="e_wo_entrp">   -223.90259405 </i>
    <i name="e_0_energy">   -223.90259405 </i>
   </energy>
  </scstep>
  <scstep>
   <time name="dav">   11.96   12.03</time>
   <time name="total">   12.36   12.42</time>
   <energy>
    <i name="e_fr_energy">   -223.89707241 </i>
    <i name="e_wo_entrp">   -223.89707241 </i>
    <i name="e_0_energy">   -223.89707241 </i>
   </energy>
  </scstep>
  <scstep>
   <time name="dav">   11.38   11.44</time>
   <time name="total">   11.78   11.85</time>
   <energy>
    <i name="e_fr_energy">   -223.90136864 </i>
    <i name="e_wo_entrp">   -223.90136864 </i>
    <i name="e_0_energy">   -223.90136864 </i>
   </energy>
  </scstep>
  <scstep>
   <time name="dav">   12.06   12.13</time>
   <time name="total">   12.46   12.53</time>
   <energy>
    <i name="e_fr_energy">   -223.90065855 </i>
    <i name="e_wo_entrp">   -223.90065855 </i>
    <i name="e_0_energy">   -223.90065855 </i>
   </energy>
  </scstep>
  <scstep>
   <time name="dav">   12.23   12.30</time>
   <time name="total">   12.63   12.70</time>
   <energy>
    <i name="e_fr_energy">   -223.90062113 </i>
    <i name="e_wo_entrp">   -223.90062113 </i>
    <i name="e_0_energy">   -223.90062113 </i>
   </energy>
  </scstep>
  <scstep>
   <time name="dav">   11.85   11.91</time>
   <time name="total">   12.24   12.31</time>
   <energy>
    <i name="e_fr_energy">   -223.90062109 </i>
    <i name="e_wo_entrp">   -223.90062109 </i>
    <i name="e_0_energy">   -223.90062109 </i>
   </energy>
  </scstep>
  <scstep>
   <time name="dav">   11.35   11.42</time>
   <time name="total">   11.75   11.82</time>
   <energy>
    <i name="e_fr_energy">   -223.90062214 </i>
    <i name="e_wo_entrp">   -223.90062214 </i>
    <i name="e_0_energy">   -223.90062214 </i>
   </energy>
  </scstep>
  <scstep>
   <time name="dav">   11.58   11.65</time>
   <time name="total">   11.98   12.05</time>
   <energy>
    <i name="e_fr_energy">   -223.90062332 </i>
    <i name="e_wo_entrp">   -223.90062332 </i>
    <i name="e_0_energy">   -223.90062332 </i>
   </energy>
  </scstep>
  <scstep>
   <time name="dav">   11.71   11.78</time>
   <time name="total">   12.11   12.18</time>
   <energy>
    <i name="e_fr_energy">   -223.90062391 </i>
    <i name="e_wo_entrp">   -223.90062391 </i>
    <i name="e_0_energy">   -223.90062391 </i>
   </energy>
  </scstep>
  <scstep>
   <time name="dav">    8.74    8.79</time>
   <time name="total">    8.81    8.86</time>
   <energy>
    <i name="alphaZ">    751.52672365 </i>
    <i name="ewald"> -22871.34023656 </i>
    <i name="hartreedc">  -9078.16141515 </i>
    <i name="XCdc">   1472.51341043 </i>
    <i name="pawpsdc">  29498.29111355 </i>
    <i name="pawaedc"> -32317.65593431 </i>
    <i name="eentropy">     -0.00000000 </i>
    <i name="bandstr">  -5211.25375545 </i>
    <i name="atom">  37532.17946992 </i>
    <i name="e_fr_energy">   -223.90062392 </i>
    <i name="e_wo_entrp">   -223.90062392 </i>
    <i name="e_0_energy">   -223.90062392 </i>
   </energy>
  </scstep>
  <structure>
   <crystal>
    <varray name="basis" >
     <v>      11.20400236       0.00000000       0.00000000 </v>
     <v>       0.00000000      11.20400236       0.00000000 </v>
     <v>       0.00000000       0.00000000      11.20400236 </v>
    </varray>
    <i name="volume">   1406.43470641 </i>
    <varray name="rec_basis" >
     <v>       0.08925382       0.00000000       0.00000000 </v>
     <v>       0.00000000       0.08925382       0.00000000 </v>
     <v>       0.00000000       0.00000000       0.08925382 </v>
    </varray>
   </crystal>
   <varray name="positions" >
    <v>       0.00267761       0.00000000       0.00000000 </v>
    <v>       0.25000000       0.25000000       0.00000000 </v>
    <v>       0.25000000       0.00000000       0.25000000 </v>
    <v>       0.00000000       0.25000000       0.25000000 </v>
    <v>       0.00000000       0.00000000       0.50000000 </v>
    <v>       0.25000000       0.25000000       0.50000000 </v>
    <v>       0.25000000       0.00000000       0.75000000 </v>
    <v>       0.00000000       0.25000000       0.75000000 </v>
    <v>       0.00000000       0.50000000       0.00000000 </v>
    <v>       0.25000000       0.75000000       0.00000000 </v>
    <v>       0.25000000       0.50000000       0.25000000 </v>
    <v>       0.00000000       0.75000000       0.25000000 </v>
    <v>       0.00000000       0.50000000       0.50000000 </v>
    <v>       0.25000000       0.75000000       0.50000000 </v>
    <v>       0.25000000       0.50000000       0.75000000 </v>
    <v>       0.00000000       0.75000000       0.75000000 </v>
    <v>       0.50000000       0.00000000       0.00000000 </v>
    <v>       0.75000000       0.25000000       0.00000000 </v>
    <v>       0.75000000       0.00000000       0.25000000 </v>
    <v>       0.50000000       0.25000000       0.25000000 </v>
    <v>       0.50000000       0.00000000       0.50000000 </v>
    <v>       0.75000000       0.25000000       0.50000000 </v>
    <v>       0.75000000       0.00000000       0.75000000 </v>
    <v>       0.50000000       0.25000000       0.75000000 </v>
    <v>       0.50000000       0.50000000       0.00000000 </v>
    <v>       0.75000000       0.75000000       0.00000000 </v>
    <v>       0.75000000       0.50000000       0.25000000 </v>
    <v>       0.50000000       0.75000000       0.25000000 </v>
    <v>       0.50000000       0.50000000       0.50000000 </v>
    <v>       0.75000000       0.75000000       0.50000000 </v>
    <v>       0.75000000       0.50000000       0.75000000 </v>
    <v>       0.50000000       0.75000000       0.75000000 </v>
    <v>       0.25000000       0.25000000       0.25000000 </v>
    <v>       0.00000000       0.00267761       0.25000000 </v>
    <v>       0.00000000       0.25000000       0.00000000 </v>
    <v>       0.25000000       0.00000000       0.00000000 </v>
    <v>       0.25000000       0.25000000       0.75000000 </v>
    <v>       0.00000000       0.00000000       0.75000000 </v>
    <v>       0.00000000       0.25000000       0.50000000 </v>
    <v>       0.25000000       0.00000000       0.50000000 </v>
    <v>       0.25000000       0.75000000       0.25000000 </v>
    <v>       0.00000000       0.50000000       0.25000000 </v>
    <v>       0.00000000       0.75000000       0.00000000 </v>
    <v>       0.25000000       0.50000000       0.00000000 </v>
    <v>       0.25000000       0.75000000       0.75000000 </v>
    <v>       0.00000000       0.50000000       0.75000000 </v>
    <v>       0.00000000       0.75000000       0.50000000 </v>
    <v>       0.25000000       0.50000000       0.50000000 </v>
    <v>       0.75000000       0.25000000       0.25000000 </v>
    <v>       0.50000000       0.00000000       0.25000000 </v>
    <v>       0.50000000       0.25000000       0.00000000 </v>
    <v>       0.75000000       0.00000000       0.00000000 </v>
    <v>       0.75000000       0.25000000       0.75000000 </v>
    <v>       0.50000000       0.00000000       0.75000000 </v>
    <v>       0.50000000       0.25000000       0.50000000 </v>
    <v>       0.75000000       0.00000000       0.50000000 </v>
    <v>       0.75000000       0.75000000       0.25000000 </v>
    <v>       0.50000000       0.50000000       0.25000000 </v>
    <v>       0.50000000       0.75000000       0.00000000 </v>
    <v>       0.75000000       0.50000000       0.00000000 </v>
    <v>       0.75000000       0.75000000       0.75000000 </v>
    <v>       0.50000000       0.50000000       0.75000000 </v>
    <v>       0.50000000       0.75000000       0.50000000 </v>
    <v>       0.75000000       0.50000000       0.50000000 </v>
   </varray>
  </structure>
  <varray name="forces" >
   <v>      -0.06281607       0.00501031       0.00008438 </v>
   <v>       0.00021462       0.00571192       0.00130286 </v>
   <v>       0.00142166       0.00503070       0.00592696 </v>
   <v>      -0.00164566       0.02025622      -0.00001782 </v>
   <v>      -0.00004865       0.00501062      -0.00009235 </v>
   <v>      -0.00133238      -0.00029182      -0.00130103 </v>
   <v>       0.00151302       0.00060714      -0.00592733 </v>
   <v>      -0.00166236       0.00014806       0.00001948 </v>
   <v>      -0.00005038      -0.00283168       0.00000284 </v>
   <v>       0.00280472      -0.00616391      -0.00129331 </v>
   <v>      -0.00003594      -0.00283540      -0.00007812 </v>
   <v>      -0.00168104       0.01622404      -0.00001826 </v>
   <v>      -0.00045156      -0.00283191      -0.00000239 </v>
   <v>       0.00125665      -0.00015875       0.00129218 </v>
   <v>      -0.00003589      -0.00066722       0.00007755 </v>
   <v>      -0.00166288       0.00017112       0.00001975 </v>
   <v>       0.00891583       0.00060450       0.00000773 </v>
   <v>       0.00280499      -0.00601479       0.00129533 </v>
   <v>       0.00160111       0.00499378      -0.00580135 </v>
   <v>       0.00115945       0.00017127       0.00000447 </v>
   <v>       0.00030880       0.00060476      -0.00000105 </v>
   <v>       0.00127758      -0.00014004      -0.00129659 </v>
   <v>       0.00150999       0.00060538       0.00580198 </v>
   <v>       0.00116277       0.00000919      -0.00000462 </v>
   <v>       0.00030773      -0.00066681       0.00000252 </v>
   <v>       0.00021848       0.00556680      -0.00128716 </v>
   <v>      -0.00001772      -0.00282739       0.00007391 </v>
   <v>       0.00116734       0.00014739       0.00000451 </v>
   <v>       0.00044034      -0.00066754      -0.00000290 </v>
   <v>      -0.00130954      -0.00030865       0.00128773 </v>
   <v>      -0.00001768      -0.00066642      -0.00007299 </v>
   <v>       0.00116230      -0.00000839      -0.00000328 </v>
   <v>       0.00567126       0.00261790      -0.00130838 </v>
   <v>       0.00499490      -0.07602691      -0.00012641 </v>
   <v>       0.00499094       0.00379536      -0.00588309 </v>
   <v>       0.02019156      -0.00231667       0.00003483 </v>
   <v>       0.00035888      -0.00135610       0.00130241 </v>
   <v>       0.00498387      -0.00153229       0.00012137 </v>
   <v>       0.00059049       0.00393127       0.00588236 </v>
   <v>       0.00014081      -0.00232418      -0.00003306 </v>
   <v>      -0.00595896       0.00517405      -0.00130471 </v>
   <v>       0.00059096       0.00382408       0.00000989 </v>
   <v>       0.00499120       0.00398507       0.00573380 </v>
   <v>       0.00017550       0.00153046       0.00000291 </v>
   <v>      -0.00077742       0.00126546       0.00130634 </v>
   <v>       0.00059088       0.00193161      -0.00001104 </v>
   <v>       0.00058802       0.00385717      -0.00573769 </v>
   <v>      -0.00000316       0.00153141       0.00000285 </v>
   <v>      -0.00612264       0.00518669       0.00128230 </v>
   <v>      -0.00282269      -0.00152974      -0.00001474 </v>
   <v>      -0.00282766      -0.00006608      -0.00057376 </v>
   <v>       0.01619523      -0.00231755       0.00002756 </v>
   <v>      -0.00081893       0.00122710      -0.00128509 </v>
   <v>      -0.00282435      -0.00050431       0.00001388 </v>
   <v>      -0.00065434      -0.00005560       0.00057796 </v>
   <v>       0.00016641      -0.00231614      -0.00002820 </v>
   <v>       0.00548715       0.00256781       0.00128349 </v>
   <v>      -0.00066434       0.00193059       0.00000403 </v>
   <v>      -0.00282308      -0.00001893       0.00056755 </v>
   <v>       0.00013322       0.00153122      -0.00000454 </v>
   <v>       0.00031999      -0.00131988      -0.00128506 </v>
   <v>      -0.00066441       0.00051124       0.00000025 </v>
   <v>      -0.00066374      -0.00003431      -0.00056534 </v>
   <v>      -0.00001522       0.00152772       0.00000372 </v>
  </varray>
  <varray name="stress" >
   <v>      -0.36596162       0.00032383      -0.00010571 </v>
   <v>       0.00032379      -0.36575257      -0.00011789 </v>
   <v>      -0.00010585      -0.00011810      -0.37755230 </v>
  </varray>
  <energy>
   <i name="e_fr_energy">   -223.90062392 </i>
   <i name="e_wo_entrp">   -223.90062392 </i>
   <i name="e_0_energy">   -223.90062392 </i>
  </energy>
  <time name="totalsc">  215.48  216.68</time>
  <eigenvalues>
   <array>
    <dimension dim="1">band</dimension>
    <dimension dim="2">kpoint</dimension>
    <dimension dim="3">spin</dimension>
    <field>eigene</field>
    <field>occ</field>
    <set>
     <set comment="spin 1">
      <set comment="kpoint 1">
       <r>  -21.3093    1.0000 </r>
       <r>  -21.3090    1.0000 </r>
       <r>  -21.3085    1.0000 </r>
       <r>  -21.3047    1.0000 </r>
       <r>  -21.3008    1.0000 </r>
       <r>  -21.3007    1.0000 </r>
       <r>  -21.3000    1.0000 </r>
       <r>  -21.2952    1.0000 </r>
       <r>  -21.2949    1.0000 </r>
       <r>  -21.2942    1.0000 </r>
       <r>  -21.2942    1.0000 </r>
       <r>  -21.2938    1.0000 </r>
       <r>  -21.2937    1.0000 </r>
       <r>  -21.2934    1.0000 </r>
       <r>  -21.2931    1.0000 </r>
       <r>  -21.2927    1.0000 </r>
       <r>  -21.2922    1.0000 </r>
       <r>  -21.2917    1.0000 </r>
       <r>  -21.2915    1.0000 </r>
       <r>  -21.2903    1.0000 </r>
       <r>  -21.2899    1.0000 </r>
       <r>  -21.2887    1.0000 </r>
       <r>  -21.2875    1.0000 </r>
       <r>  -21.2872    1.0000 </r>
       <r>  -21.2866    1.0000 </r>
       <r>  -21.2866    1.0000 </r>
       <r>  -21.2863    1.0000 </r>
       <r>  -21.2858    1.0000 </r>
       <r>  -21.2856    1.0000 </r>
       <r>  -21.2856    1.0000 </r>
       <r>  -21.2852    1.0000 </r>
       <r>  -21.2843    1.0000 </r>
       <r>  -21.2841    1.0000 </r>
       <r>  -21.2839    1.0000 </r>
       <r>  -21.2835    1.0000 </r>
       <r>  -21.2833    1.0000 </r>
       <r>  -21.2832    1.0000 </r>
       <r>  -21.2831    1.0000 </r>
       <r>  -21.2827    1.0000 </r>
       <r>  -21.2824    1.0000 </r>
       <r>  -21.2822    1.0000 </r>
       <r>  -21.2815    1.0000 </r>
       <r>  -21.2813    1.0000 </r>
       <r>  -21.2811    1.0000 </r>
       <r>  -21.2809    1.0000 </r>
       <r>  -21.2805    1.0000 </r>
       <r>  -21.2804    1.0000 </r>
       <r>  -21.2802    1.0000 </r>
       <r>  -21.2800    1.0000 </r>
       <r>  -21.2800    1.0000 </r>
       <r>  -21.2799    1.0000 </r>
       <r>  -21.2798    1.0000 </r>
       <r>  -21.2798    1.0000 </r>
       <r>  -21.2795    1.0000 </r>
       <r>  -21.2792    1.0000 </r>
       <r>  -21.2790    1.0000 </r>
       <r>  -21.2790    1.0000 </r>
       <r>  -21.2781    1.0000 </r>
       <r>  -21.2776    1.0000 </r>
       <r>  -21.2767    1.0000 </r>
       <r>  -21.2765    1.0000 </r>
       <r>  -21.2758    1.0000 </r>
       <r>  -21.2754    1.0000 </r>
       <r>  -21.2752    1.0000 </r>
       <r>  -21.2750    1.0000 </r>
       <r>  -21.2750    1.0000 </r>
       <r>  -21.2746    1.0000 </r>
       <r>  -21.2743    1.0000 </r>
       <r>  -21.2741    1.0000 </r>
       <r>  -21.2740    1.0000 </r>
       <r>  -21.2737    1.0000 </r>
       <r>  -21.2734    1.0000 </r>
       <r>  -21.2731    1.0000 </r>
       <r>  -21.2729    1.0000 </r>
       <r>  -21.2727    1.0000 </r>
       <r>  -21.2722    1.0000 </r>
       <r>  -21.2718    1.0000 </r>
       <r>  -21.2717    1.0000 </r>
       <r>  -21.2716    1.0000 </r>
       <r>  -21.2715    1.0000 </r>
       <r>  -21.2715    1.0000 </r>
       <r>  -21.2712    1.0000 </r>
       <r>  -21.2710    1.0000 </r>
       <r>  -21.2708    1.0000 </r>
       <r>  -21.2706    1.0000 </r>
       <r>  -21.2704    1.0000 </r>
       <r>  -21.2697    1.0000 </r>
       <r>  -21.2692    1.0000 </r>
       <r>  -21.2682    1.0000 </r>
       <r>  -21.2681    1.0000 </r>
       <r>  -21.2677    1.0000 </r>
       <r>  -21.2666    1.0000 </r>
       <r>  -21.2664    1.0000 </r>
       <r>  -21.2557    1.0000 </r>
       <r>  -21.2555    1.0000 </r>
       <r>  -21.2553    1.0000 </r>
       <r>  -13.3581    1.0000 </r>
       <r>  -13.1426    1.0000 </r>
       <r>  -13.1387    1.0000 </r>
       <r>  -13.1374    1.0000 </r>
       <r>  -13.1373    1.0000 </r>
       <r>  -13.1360    1.0000 </r>
       <r>  -13.1335    1.0000 </r>
       <r>  -13.0215    1.0000 </r>
       <r>  -13.0146    1.0000 </r>
       <r>  -13.0145    1.0000 </r>
       <r>  -13.0127    1.0000 </r>
       <r>  -13.0115    1.0000 </r>
       <r>  -13.0112    1.0000 </r>
       <r>  -13.0112    1.0000 </r>
       <r>  -13.0111    1.0000 </r>
       <r>  -13.0098    1.0000 </r>
       <r>  -13.0087    1.0000 </r>
       <r>  -13.0086    1.0000 </r>
       <r>  -13.0044    1.0000 </r>
       <r>  -12.9899    1.0000 </r>
       <r>  -12.9892    1.0000 </r>
       <r>  -12.9888    1.0000 </r>
       <r>  -12.9885    1.0000 </r>
       <r>  -12.9418    1.0000 </r>
       <r>  -12.9407    1.0000 </r>
       <r>  -12.9404    1.0000 </r>
       <r>  -12.9244    1.0000 </r>
       <r>  -12.9230    1.0000 </r>
       <r>  -12.9214    1.0000 </r>
       <r>  -12.9212    1.0000 </r>
       <r>  -12.9188    1.0000 </r>
       <r>  -12.9151    1.0000 </r>
       <r>   -2.7001    1.0000 </r>
       <r>   -2.7000    1.0000 </r>
       <r>   -2.7000    1.0000 </r>
       <r>   -2.6999    1.0000 </r>
       <r>   -2.4241    1.0000 </r>
       <r>   -2.4240    1.0000 </r>
       <r>   -2.4240    1.0000 </r>
       <r>   -2.2077    1.0000 </r>
       <r>   -2.2073    1.0000 </r>
       <r>   -2.2053    1.0000 </r>
       <r>   -2.2049    1.0000 </r>
       <r>   -2.2045    1.0000 </r>
       <r>   -2.2044    1.0000 </r>
       <r>   -2.2042    1.0000 </r>
       <r>   -2.2040    1.0000 </r>
       <r>   -2.2036    1.0000 </r>
       <r>   -2.2033    1.0000 </r>
       <r>   -2.2013    1.0000 </r>
       <r>   -2.2010    1.0000 </r>
       <r>   -1.9289    1.0000 </r>
       <r>   -1.9277    1.0000 </r>
       <r>   -1.9260    1.0000 </r>
       <r>   -1.9249    1.0000 </r>
       <r>   -1.9247    1.0000 </r>
       <r>   -1.9247    1.0000 </r>
       <r>   -1.9246    1.0000 </r>
       <r>   -1.9246    1.0000 </r>
       <r>   -1.9244    1.0000 </r>
       <r>   -1.9233    1.0000 </r>
       <r>   -1.9218    1.0000 </r>
       <r>   -1.9205    1.0000 </r>
       <r>   -1.7977    1.0000 </r>
       <r>   -1.7969    1.0000 </r>
       <r>   -1.7966    1.0000 </r>
       <r>   -1.7966    1.0000 </r>
       <r>   -1.7964    1.0000 </r>
       <r>   -1.7955    1.0000 </r>
       <r>   -1.5091    1.0000 </r>
       <r>   -1.5082    1.0000 </r>
       <r>   -1.5062    1.0000 </r>
       <r>   -1.5059    1.0000 </r>
       <r>   -1.5058    1.0000 </r>
       <r>   -1.5056    1.0000 </r>
       <r>   -1.5053    1.0000 </r>
       <r>   -1.5053    1.0000 </r>
       <r>   -1.5051    1.0000 </r>
       <r>   -1.5046    1.0000 </r>
       <r>   -1.5026    1.0000 </r>
       <r>   -1.5016    1.0000 </r>
       <r>   -1.4644    1.0000 </r>
       <r>   -1.4635    1.0000 </r>
       <r>   -1.4628    1.0000 </r>
       <r>   -1.4625    1.0000 </r>
       <r>   -1.4620    1.0000 </r>
       <r>   -1.4606    1.0000 </r>
       <r>   -1.2947    1.0000 </r>
       <r>   -1.2947    1.0000 </r>
       <r>   -1.2947    1.0000 </r>
       <r>   -1.2946    1.0000 </r>
       <r>   -1.2946    1.0000 </r>
       <r>   -1.2946    1.0000 </r>
       <r>   -1.0050    1.0000 </r>
       <r>   -1.0039    1.0000 </r>
       <r>   -1.0033    1.0000 </r>
       <r>   -1.0028    1.0000 </r>
       <r>   -1.0026    1.0000 </r>
       <r>   -1.0009    1.0000 </r>
       <r>   -1.0007    1.0000 </r>
       <r>   -1.0007    1.0000 </r>
       <r>   -0.9987    1.0000 </r>
       <r>   -0.9985    1.0000 </r>
       <r>   -0.9979    1.0000 </r>
       <r>   -0.9972    1.0000 </r>
       <r>   -0.9529    1.0000 </r>
       <r>   -0.9528    1.0000 </r>
       <r>   -0.9523    1.0000 </r>
       <r>   -0.9509    1.0000 </r>
       <r>   -0.9489    1.0000 </r>
       <r>   -0.9481    1.0000 </r>
       <r>   -0.9476    1.0000 </r>
       <r>   -0.9475    1.0000 </r>
       <r>   -0.9473    1.0000 </r>
       <r>   -0.9472    1.0000 </r>
       <r>   -0.9471    1.0000 </r>
       <r>   -0.9468    1.0000 </r>
       <r>   -0.9456    1.0000 </r>
       <r>   -0.9454    1.0000 </r>
       <r>   -0.9452    1.0000 </r>
       <r>   -0.9441    1.0000 </r>
       <r>   -0.9426    1.0000 </r>
       <r>   -0.9417    1.0000 </r>
       <r>   -0.9408    1.0000 </r>
       <r>   -0.9406    1.0000 </r>
       <r>   -0.6649    1.0000 </r>
       <r>   -0.6648    1.0000 </r>
       <r>   -0.6648    1.0000 </r>
       <r>    4.3403    0.0000 </r>
       <r>    6.3609    0.0000 </r>
       <r>    6.3655    0.0000 </r>
       <r>    6.3681    0.0000 </r>
       <r>    6.3682    0.0000 </r>
       <r>    6.3705    0.0000 </r>
       <r>    6.3749    0.0000 </r>
       <r>    6.4446    0.0000 </r>
       <r>    6.4447    0.0000 </r>
       <r>    6.4448    0.0000 </r>
       <r>    6.4448    0.0000 </r>
       <r>    6.8279    0.0000 </r>
       <r>    6.8280    0.0000 </r>
       <r>    6.8281    0.0000 </r>
       <r>    7.2068    0.0000 </r>
       <r>    7.2068    0.0000 </r>
       <r>    7.2069    0.0000 </r>
       <r>    7.4539    0.0000 </r>
       <r>    7.4575    0.0000 </r>
       <r>    7.4601    0.0000 </r>
       <r>    7.4624    0.0000 </r>
       <r>    7.4637    0.0000 </r>
       <r>    7.4642    0.0000 </r>
       <r>    7.4642    0.0000 </r>
       <r>    7.4647    0.0000 </r>
       <r>    7.4660    0.0000 </r>
       <r>    7.4683    0.0000 </r>
       <r>    7.4710    0.0000 </r>
       <r>    7.4739    0.0000 </r>
       <r>    8.1629    0.0000 </r>
       <r>    8.1664    0.0000 </r>
       <r>    8.1683    0.0000 </r>
       <r>    8.1684    0.0000 </r>
       <r>    8.1700    0.0000 </r>
       <r>    8.1740    0.0000 </r>
       <r>    8.2767    0.0000 </r>
       <r>    8.2783    0.0000 </r>
       <r>    8.2796    0.0000 </r>
       <r>    8.2796    0.0000 </r>
       <r>    8.2808    0.0000 </r>
       <r>    8.2825    0.0000 </r>
       <r>    8.8862    0.0000 </r>
       <r>    8.8936    0.0000 </r>
       <r>    8.8976    0.0000 </r>
       <r>    8.8979    0.0000 </r>
       <r>    8.9004    0.0000 </r>
       <r>    8.9007    0.0000 </r>
       <r>    8.9010    0.0000 </r>
       <r>    8.9012    0.0000 </r>
       <r>    8.9025    0.0000 </r>
       <r>    8.9034    0.0000 </r>
       <r>    8.9052    0.0000 </r>
       <r>    8.9072    0.0000 </r>
       <r>    8.9115    0.0000 </r>
       <r>    8.9135    0.0000 </r>
       <r>    8.9155    0.0000 </r>
       <r>    8.9162    0.0000 </r>
       <r>    8.9168    0.0000 </r>
       <r>    8.9170    0.0000 </r>
       <r>    8.9176    0.0000 </r>
       <r>    8.9185    0.0000 </r>
       <r>    8.9193    0.0000 </r>
       <r>    8.9246    0.0000 </r>
       <r>    8.9290    0.0000 </r>
      </set>
      <set comment="kpoint 2">
       <r>  -21.3083    1.0000 </r>
       <r>  -21.3080    1.0000 </r>
       <r>  -21.3077    1.0000 </r>
       <r>  -21.3026    1.0000 </r>
       <r>  -21.3009    1.0000 </r>
       <r>  -21.2999    1.0000 </r>
       <r>  -21.2996    1.0000 </r>
       <r>  -21.2969    1.0000 </r>
       <r>  -21.2962    1.0000 </r>
       <r>  -21.2958    1.0000 </r>
       <r>  -21.2949    1.0000 </r>
       <r>  -21.2941    1.0000 </r>
       <r>  -21.2935    1.0000 </r>
       <r>  -21.2927    1.0000 </r>
       <r>  -21.2922    1.0000 </r>
       <r>  -21.2921    1.0000 </r>
       <r>  -21.2920    1.0000 </r>
       <r>  -21.2916    1.0000 </r>
       <r>  -21.2913    1.0000 </r>
       <r>  -21.2908    1.0000 </r>
       <r>  -21.2902    1.0000 </r>
       <r>  -21.2895    1.0000 </r>
       <r>  -21.2891    1.0000 </r>
       <r>  -21.2889    1.0000 </r>
       <r>  -21.2886    1.0000 </r>
       <r>  -21.2882    1.0000 </r>
       <r>  -21.2877    1.0000 </r>
       <r>  -21.2874    1.0000 </r>
       <r>  -21.2868    1.0000 </r>
       <r>  -21.2867    1.0000 </r>
       <r>  -21.2865    1.0000 </r>
       <r>  -21.2861    1.0000 </r>
       <r>  -21.2855    1.0000 </r>
       <r>  -21.2854    1.0000 </r>
       <r>  -21.2847    1.0000 </r>
       <r>  -21.2840    1.0000 </r>
       <r>  -21.2834    1.0000 </r>
       <r>  -21.2829    1.0000 </r>
       <r>  -21.2828    1.0000 </r>
       <r>  -21.2828    1.0000 </r>
       <r>  -21.2822    1.0000 </r>
       <r>  -21.2817    1.0000 </r>
       <r>  -21.2807    1.0000 </r>
       <r>  -21.2805    1.0000 </r>
       <r>  -21.2801    1.0000 </r>
       <r>  -21.2796    1.0000 </r>
       <r>  -21.2793    1.0000 </r>
       <r>  -21.2791    1.0000 </r>
       <r>  -21.2788    1.0000 </r>
       <r>  -21.2785    1.0000 </r>
       <r>  -21.2783    1.0000 </r>
       <r>  -21.2776    1.0000 </r>
       <r>  -21.2775    1.0000 </r>
       <r>  -21.2774    1.0000 </r>
       <r>  -21.2772    1.0000 </r>
       <r>  -21.2769    1.0000 </r>
       <r>  -21.2768    1.0000 </r>
       <r>  -21.2765    1.0000 </r>
       <r>  -21.2762    1.0000 </r>
       <r>  -21.2761    1.0000 </r>
       <r>  -21.2758    1.0000 </r>
       <r>  -21.2754    1.0000 </r>
       <r>  -21.2754    1.0000 </r>
       <r>  -21.2751    1.0000 </r>
       <r>  -21.2749    1.0000 </r>
       <r>  -21.2747    1.0000 </r>
       <r>  -21.2746    1.0000 </r>
       <r>  -21.2744    1.0000 </r>
       <r>  -21.2743    1.0000 </r>
       <r>  -21.2741    1.0000 </r>
       <r>  -21.2739    1.0000 </r>
       <r>  -21.2739    1.0000 </r>
       <r>  -21.2737    1.0000 </r>
       <r>  -21.2735    1.0000 </r>
       <r>  -21.2730    1.0000 </r>
       <r>  -21.2729    1.0000 </r>
       <r>  -21.2727    1.0000 </r>
       <r>  -21.2724    1.0000 </r>
       <r>  -21.2721    1.0000 </r>
       <r>  -21.2720    1.0000 </r>
       <r>  -21.2719    1.0000 </r>
       <r>  -21.2716    1.0000 </r>
       <r>  -21.2713    1.0000 </r>
       <r>  -21.2712    1.0000 </r>
       <r>  -21.2708    1.0000 </r>
       <r>  -21.2705    1.0000 </r>
       <r>  -21.2700    1.0000 </r>
       <r>  -21.2699    1.0000 </r>
       <r>  -21.2686    1.0000 </r>
       <r>  -21.2683    1.0000 </r>
       <r>  -21.2680    1.0000 </r>
       <r>  -21.2668    1.0000 </r>
       <r>  -21.2666    1.0000 </r>
       <r>  -21.2558    1.0000 </r>
       <r>  -21.2556    1.0000 </r>
       <r>  -21.2554    1.0000 </r>
       <r>  -13.2939    1.0000 </r>
       <r>  -13.2888    1.0000 </r>
       <r>  -13.1047    1.0000 </r>
       <r>  -13.0994    1.0000 </r>
       <r>  -13.0977    1.0000 </r>
       <r>  -13.0971    1.0000 </r>
       <r>  -13.0966    1.0000 </r>
       <r>  -13.0961    1.0000 </r>
       <r>  -13.0945    1.0000 </r>
       <r>  -13.0909    1.0000 </r>
       <r>  -13.0093    1.0000 </r>
       <r>  -13.0040    1.0000 </r>
       <r>  -13.0007    1.0000 </r>
       <r>  -13.0006    1.0000 </r>
       <r>  -13.0006    1.0000 </r>
       <r>  -13.0005    1.0000 </r>
       <r>  -12.9987    1.0000 </r>
       <r>  -12.9968    1.0000 </r>
       <r>  -12.9961    1.0000 </r>
       <r>  -12.9906    1.0000 </r>
       <r>  -12.9504    1.0000 </r>
       <r>  -12.9466    1.0000 </r>
       <r>  -12.9443    1.0000 </r>
       <r>  -12.9441    1.0000 </r>
       <r>  -12.9438    1.0000 </r>
       <r>  -12.9432    1.0000 </r>
       <r>  -12.9412    1.0000 </r>
       <r>  -12.9377    1.0000 </r>
       <r>  -12.9342    1.0000 </r>
       <r>  -12.9311    1.0000 </r>
       <r>  -12.9298    1.0000 </r>
       <r>  -12.9234    1.0000 </r>
       <r>   -2.5081    1.0000 </r>
       <r>   -2.5081    1.0000 </r>
       <r>   -2.5064    1.0000 </r>
       <r>   -2.5051    1.0000 </r>
       <r>   -2.5035    1.0000 </r>
       <r>   -2.5023    1.0000 </r>
       <r>   -2.5007    1.0000 </r>
       <r>   -2.5007    1.0000 </r>
       <r>   -2.2902    1.0000 </r>
       <r>   -2.2901    1.0000 </r>
       <r>   -2.2852    1.0000 </r>
       <r>   -2.2852    1.0000 </r>
       <r>   -2.2769    1.0000 </r>
       <r>   -2.2716    1.0000 </r>
       <r>   -2.1418    1.0000 </r>
       <r>   -2.1376    1.0000 </r>
       <r>   -2.1367    1.0000 </r>
       <r>   -2.1365    1.0000 </r>
       <r>   -2.1363    1.0000 </r>
       <r>   -2.1361    1.0000 </r>
       <r>   -2.1352    1.0000 </r>
       <r>   -2.1312    1.0000 </r>
       <r>   -1.9879    1.0000 </r>
       <r>   -1.9877    1.0000 </r>
       <r>   -1.9859    1.0000 </r>
       <r>   -1.9854    1.0000 </r>
       <r>   -1.9853    1.0000 </r>
       <r>   -1.9849    1.0000 </r>
       <r>   -1.9832    1.0000 </r>
       <r>   -1.9831    1.0000 </r>
       <r>   -1.8141    1.0000 </r>
       <r>   -1.8117    1.0000 </r>
       <r>   -1.8104    1.0000 </r>
       <r>   -1.8099    1.0000 </r>
       <r>   -1.8077    1.0000 </r>
       <r>   -1.8071    1.0000 </r>
       <r>   -1.8059    1.0000 </r>
       <r>   -1.8034    1.0000 </r>
       <r>   -1.5000    1.0000 </r>
       <r>   -1.5000    1.0000 </r>
       <r>   -1.4955    1.0000 </r>
       <r>   -1.4955    1.0000 </r>
       <r>   -1.3860    1.0000 </r>
       <r>   -1.3804    1.0000 </r>
       <r>   -1.3803    1.0000 </r>
       <r>   -1.3753    1.0000 </r>
       <r>   -1.2154    1.0000 </r>
       <r>   -1.2149    1.0000 </r>
       <r>   -1.2105    1.0000 </r>
       <r>   -1.2100    1.0000 </r>
       <r>   -1.1935    1.0000 </r>
       <r>   -1.1931    1.0000 </r>
       <r>   -1.1928    1.0000 </r>
       <r>   -1.1914    1.0000 </r>
       <r>   -1.1907    1.0000 </r>
       <r>   -1.1903    1.0000 </r>
       <r>   -1.1896    1.0000 </r>
       <r>   -1.1888    1.0000 </r>
       <r>   -1.1796    1.0000 </r>
       <r>   -1.1777    1.0000 </r>
       <r>   -1.1751    1.0000 </r>
       <r>   -1.1748    1.0000 </r>
       <r>   -1.1739    1.0000 </r>
       <r>   -1.1730    1.0000 </r>
       <r>   -1.1711    1.0000 </r>
       <r>   -1.1678    1.0000 </r>
       <r>   -1.1639    1.0000 </r>
       <r>   -1.1620    1.0000 </r>
       <r>   -1.1607    1.0000 </r>
       <r>   -1.1605    1.0000 </r>
       <r>   -1.1584    1.0000 </r>
       <r>   -1.1578    1.0000 </r>
       <r>   -1.1564    1.0000 </r>
       <r>   -1.1548    1.0000 </r>
       <r>   -1.0856    1.0000 </r>
       <r>   -1.0807    1.0000 </r>
       <r>   -0.9519    1.0000 </r>
       <r>   -0.9517    1.0000 </r>
       <r>   -0.9470    1.0000 </r>
       <r>   -0.9469    1.0000 </r>
       <r>   -0.9469    1.0000 </r>
       <r>   -0.9465    1.0000 </r>
       <r>   -0.9424    1.0000 </r>
       <r>   -0.9419    1.0000 </r>
       <r>   -0.9382    1.0000 </r>
       <r>   -0.9345    1.0000 </r>
       <r>   -0.9337    1.0000 </r>
       <r>   -0.9327    1.0000 </r>
       <r>   -0.9319    1.0000 </r>
       <r>   -0.9306    1.0000 </r>
       <r>   -0.9298    1.0000 </r>
       <r>   -0.9258    1.0000 </r>
       <r>   -0.7706    1.0000 </r>
       <r>   -0.7706    1.0000 </r>
       <r>   -0.7659    1.0000 </r>
       <r>   -0.7658    1.0000 </r>
       <r>    5.0205    0.0000 </r>
       <r>    5.0242    0.0000 </r>
       <r>    6.7087    0.0000 </r>
       <r>    6.7154    0.0000 </r>
       <r>    6.7168    0.0000 </r>
       <r>    6.7175    0.0000 </r>
       <r>    6.7190    0.0000 </r>
       <r>    6.7197    0.0000 </r>
       <r>    6.7208    0.0000 </r>
       <r>    6.7268    0.0000 </r>
       <r>    6.8381    0.0000 </r>
       <r>    6.8388    0.0000 </r>
       <r>    6.8422    0.0000 </r>
       <r>    6.8430    0.0000 </r>
       <r>    6.8435    0.0000 </r>
       <r>    6.8443    0.0000 </r>
       <r>    6.8481    0.0000 </r>
       <r>    6.8484    0.0000 </r>
       <r>    6.9697    0.0000 </r>
       <r>    6.9726    0.0000 </r>
       <r>    7.3591    0.0000 </r>
       <r>    7.3624    0.0000 </r>
       <r>    7.3629    0.0000 </r>
       <r>    7.3659    0.0000 </r>
       <r>    7.4775    0.0000 </r>
       <r>    7.4830    0.0000 </r>
       <r>    7.7116    0.0000 </r>
       <r>    7.7116    0.0000 </r>
       <r>    7.7176    0.0000 </r>
       <r>    7.7176    0.0000 </r>
       <r>    8.2584    0.0000 </r>
       <r>    8.2632    0.0000 </r>
       <r>    8.2649    0.0000 </r>
       <r>    8.2650    0.0000 </r>
       <r>    8.2667    0.0000 </r>
       <r>    8.2669    0.0000 </r>
       <r>    8.2686    0.0000 </r>
       <r>    8.2733    0.0000 </r>
       <r>    8.5280    0.0000 </r>
       <r>    8.5315    0.0000 </r>
       <r>    8.5332    0.0000 </r>
       <r>    8.5340    0.0000 </r>
       <r>    8.5362    0.0000 </r>
       <r>    8.5366    0.0000 </r>
       <r>    8.5376    0.0000 </r>
       <r>    8.5377    0.0000 </r>
       <r>    8.5389    0.0000 </r>
       <r>    8.5391    0.0000 </r>
       <r>    8.5402    0.0000 </r>
       <r>    8.5412    0.0000 </r>
       <r>    8.5435    0.0000 </r>
       <r>    8.5438    0.0000 </r>
       <r>    8.5457    0.0000 </r>
       <r>    8.5487    0.0000 </r>
       <r>    8.9410    0.0000 </r>
       <r>    8.9465    0.0000 </r>
       <r>    8.9495    0.0000 </r>
       <r>    8.9505    0.0000 </r>
       <r>    8.9513    0.0000 </r>
       <r>    8.9523    0.0000 </r>
       <r>    8.9554    0.0000 </r>
       <r>    8.9610    0.0000 </r>
       <r>    9.4895    0.0000 </r>
       <r>    9.5001    0.0000 </r>
      </set>
      <set comment="kpoint 3">
       <r>  -21.3086    1.0000 </r>
       <r>  -21.3083    1.0000 </r>
       <r>  -21.3077    1.0000 </r>
       <r>  -21.3014    1.0000 </r>
       <r>  -21.2993    1.0000 </r>
       <r>  -21.2988    1.0000 </r>
       <r>  -21.2986    1.0000 </r>
       <r>  -21.2979    1.0000 </r>
       <r>  -21.2977    1.0000 </r>
       <r>  -21.2972    1.0000 </r>
       <r>  -21.2967    1.0000 </r>
       <r>  -21.2944    1.0000 </r>
       <r>  -21.2935    1.0000 </r>
       <r>  -21.2926    1.0000 </r>
       <r>  -21.2925    1.0000 </r>
       <r>  -21.2919    1.0000 </r>
       <r>  -21.2916    1.0000 </r>
       <r>  -21.2915    1.0000 </r>
       <r>  -21.2910    1.0000 </r>
       <r>  -21.2904    1.0000 </r>
       <r>  -21.2901    1.0000 </r>
       <r>  -21.2899    1.0000 </r>
       <r>  -21.2891    1.0000 </r>
       <r>  -21.2884    1.0000 </r>
       <r>  -21.2882    1.0000 </r>
       <r>  -21.2877    1.0000 </r>
       <r>  -21.2876    1.0000 </r>
       <r>  -21.2873    1.0000 </r>
       <r>  -21.2870    1.0000 </r>
       <r>  -21.2869    1.0000 </r>
       <r>  -21.2865    1.0000 </r>
       <r>  -21.2860    1.0000 </r>
       <r>  -21.2856    1.0000 </r>
       <r>  -21.2854    1.0000 </r>
       <r>  -21.2848    1.0000 </r>
       <r>  -21.2841    1.0000 </r>
       <r>  -21.2829    1.0000 </r>
       <r>  -21.2828    1.0000 </r>
       <r>  -21.2825    1.0000 </r>
       <r>  -21.2824    1.0000 </r>
       <r>  -21.2820    1.0000 </r>
       <r>  -21.2815    1.0000 </r>
       <r>  -21.2806    1.0000 </r>
       <r>  -21.2805    1.0000 </r>
       <r>  -21.2801    1.0000 </r>
       <r>  -21.2800    1.0000 </r>
       <r>  -21.2799    1.0000 </r>
       <r>  -21.2793    1.0000 </r>
       <r>  -21.2791    1.0000 </r>
       <r>  -21.2790    1.0000 </r>
       <r>  -21.2782    1.0000 </r>
       <r>  -21.2781    1.0000 </r>
       <r>  -21.2776    1.0000 </r>
       <r>  -21.2775    1.0000 </r>
       <r>  -21.2771    1.0000 </r>
       <r>  -21.2769    1.0000 </r>
       <r>  -21.2769    1.0000 </r>
       <r>  -21.2767    1.0000 </r>
       <r>  -21.2763    1.0000 </r>
       <r>  -21.2759    1.0000 </r>
       <r>  -21.2757    1.0000 </r>
       <r>  -21.2756    1.0000 </r>
       <r>  -21.2754    1.0000 </r>
       <r>  -21.2753    1.0000 </r>
       <r>  -21.2751    1.0000 </r>
       <r>  -21.2749    1.0000 </r>
       <r>  -21.2748    1.0000 </r>
       <r>  -21.2744    1.0000 </r>
       <r>  -21.2743    1.0000 </r>
       <r>  -21.2741    1.0000 </r>
       <r>  -21.2739    1.0000 </r>
       <r>  -21.2737    1.0000 </r>
       <r>  -21.2736    1.0000 </r>
       <r>  -21.2734    1.0000 </r>
       <r>  -21.2730    1.0000 </r>
       <r>  -21.2729    1.0000 </r>
       <r>  -21.2726    1.0000 </r>
       <r>  -21.2724    1.0000 </r>
       <r>  -21.2718    1.0000 </r>
       <r>  -21.2717    1.0000 </r>
       <r>  -21.2716    1.0000 </r>
       <r>  -21.2713    1.0000 </r>
       <r>  -21.2710    1.0000 </r>
       <r>  -21.2708    1.0000 </r>
       <r>  -21.2706    1.0000 </r>
       <r>  -21.2704    1.0000 </r>
       <r>  -21.2699    1.0000 </r>
       <r>  -21.2696    1.0000 </r>
       <r>  -21.2692    1.0000 </r>
       <r>  -21.2687    1.0000 </r>
       <r>  -21.2683    1.0000 </r>
       <r>  -21.2671    1.0000 </r>
       <r>  -21.2666    1.0000 </r>
       <r>  -21.2558    1.0000 </r>
       <r>  -21.2556    1.0000 </r>
       <r>  -21.2554    1.0000 </r>
       <r>  -13.2931    1.0000 </r>
       <r>  -13.2896    1.0000 </r>
       <r>  -13.1048    1.0000 </r>
       <r>  -13.0991    1.0000 </r>
       <r>  -13.0981    1.0000 </r>
       <r>  -13.0977    1.0000 </r>
       <r>  -13.0963    1.0000 </r>
       <r>  -13.0956    1.0000 </r>
       <r>  -13.0947    1.0000 </r>
       <r>  -13.0906    1.0000 </r>
       <r>  -13.0063    1.0000 </r>
       <r>  -13.0051    1.0000 </r>
       <r>  -13.0050    1.0000 </r>
       <r>  -13.0008    1.0000 </r>
       <r>  -13.0006    1.0000 </r>
       <r>  -13.0004    1.0000 </r>
       <r>  -12.9965    1.0000 </r>
       <r>  -12.9962    1.0000 </r>
       <r>  -12.9961    1.0000 </r>
       <r>  -12.9910    1.0000 </r>
       <r>  -12.9504    1.0000 </r>
       <r>  -12.9464    1.0000 </r>
       <r>  -12.9463    1.0000 </r>
       <r>  -12.9444    1.0000 </r>
       <r>  -12.9430    1.0000 </r>
       <r>  -12.9418    1.0000 </r>
       <r>  -12.9407    1.0000 </r>
       <r>  -12.9384    1.0000 </r>
       <r>  -12.9350    1.0000 </r>
       <r>  -12.9311    1.0000 </r>
       <r>  -12.9266    1.0000 </r>
       <r>  -12.9256    1.0000 </r>
       <r>   -2.5075    1.0000 </r>
       <r>   -2.5067    1.0000 </r>
       <r>   -2.5047    1.0000 </r>
       <r>   -2.5047    1.0000 </r>
       <r>   -2.5041    1.0000 </r>
       <r>   -2.5041    1.0000 </r>
       <r>   -2.5020    1.0000 </r>
       <r>   -2.5013    1.0000 </r>
       <r>   -2.2891    1.0000 </r>
       <r>   -2.2890    1.0000 </r>
       <r>   -2.2863    1.0000 </r>
       <r>   -2.2863    1.0000 </r>
       <r>   -2.2762    1.0000 </r>
       <r>   -2.2722    1.0000 </r>
       <r>   -2.1408    1.0000 </r>
       <r>   -2.1391    1.0000 </r>
       <r>   -2.1371    1.0000 </r>
       <r>   -2.1365    1.0000 </r>
       <r>   -2.1363    1.0000 </r>
       <r>   -2.1357    1.0000 </r>
       <r>   -2.1337    1.0000 </r>
       <r>   -2.1321    1.0000 </r>
       <r>   -1.9878    1.0000 </r>
       <r>   -1.9868    1.0000 </r>
       <r>   -1.9867    1.0000 </r>
       <r>   -1.9856    1.0000 </r>
       <r>   -1.9852    1.0000 </r>
       <r>   -1.9844    1.0000 </r>
       <r>   -1.9843    1.0000 </r>
       <r>   -1.9830    1.0000 </r>
       <r>   -1.8109    1.0000 </r>
       <r>   -1.8108    1.0000 </r>
       <r>   -1.8102    1.0000 </r>
       <r>   -1.8092    1.0000 </r>
       <r>   -1.8083    1.0000 </r>
       <r>   -1.8073    1.0000 </r>
       <r>   -1.8066    1.0000 </r>
       <r>   -1.8065    1.0000 </r>
       <r>   -1.5010    1.0000 </r>
       <r>   -1.5010    1.0000 </r>
       <r>   -1.4945    1.0000 </r>
       <r>   -1.4945    1.0000 </r>
       <r>   -1.3844    1.0000 </r>
       <r>   -1.3810    1.0000 </r>
       <r>   -1.3801    1.0000 </r>
       <r>   -1.3763    1.0000 </r>
       <r>   -1.2149    1.0000 </r>
       <r>   -1.2141    1.0000 </r>
       <r>   -1.2114    1.0000 </r>
       <r>   -1.2109    1.0000 </r>
       <r>   -1.1954    1.0000 </r>
       <r>   -1.1933    1.0000 </r>
       <r>   -1.1925    1.0000 </r>
       <r>   -1.1921    1.0000 </r>
       <r>   -1.1906    1.0000 </r>
       <r>   -1.1903    1.0000 </r>
       <r>   -1.1900    1.0000 </r>
       <r>   -1.1886    1.0000 </r>
       <r>   -1.1786    1.0000 </r>
       <r>   -1.1776    1.0000 </r>
       <r>   -1.1760    1.0000 </r>
       <r>   -1.1748    1.0000 </r>
       <r>   -1.1727    1.0000 </r>
       <r>   -1.1711    1.0000 </r>
       <r>   -1.1707    1.0000 </r>
       <r>   -1.1699    1.0000 </r>
       <r>   -1.1639    1.0000 </r>
       <r>   -1.1630    1.0000 </r>
       <r>   -1.1613    1.0000 </r>
       <r>   -1.1607    1.0000 </r>
       <r>   -1.1572    1.0000 </r>
       <r>   -1.1563    1.0000 </r>
       <r>   -1.1556    1.0000 </r>
       <r>   -1.1546    1.0000 </r>
       <r>   -1.0857    1.0000 </r>
       <r>   -1.0807    1.0000 </r>
       <r>   -0.9516    1.0000 </r>
       <r>   -0.9511    1.0000 </r>
       <r>   -0.9475    1.0000 </r>
       <r>   -0.9468    1.0000 </r>
       <r>   -0.9468    1.0000 </r>
       <r>   -0.9466    1.0000 </r>
       <r>   -0.9427    1.0000 </r>
       <r>   -0.9423    1.0000 </r>
       <r>   -0.9372    1.0000 </r>
       <r>   -0.9341    1.0000 </r>
       <r>   -0.9331    1.0000 </r>
       <r>   -0.9329    1.0000 </r>
       <r>   -0.9318    1.0000 </r>
       <r>   -0.9313    1.0000 </r>
       <r>   -0.9303    1.0000 </r>
       <r>   -0.9271    1.0000 </r>
       <r>   -0.7711    1.0000 </r>
       <r>   -0.7710    1.0000 </r>
       <r>   -0.7654    1.0000 </r>
       <r>   -0.7653    1.0000 </r>
       <r>    5.0188    0.0000 </r>
       <r>    5.0259    0.0000 </r>
       <r>    6.7097    0.0000 </r>
       <r>    6.7123    0.0000 </r>
       <r>    6.7161    0.0000 </r>
       <r>    6.7171    0.0000 </r>
       <r>    6.7196    0.0000 </r>
       <r>    6.7204    0.0000 </r>
       <r>    6.7238    0.0000 </r>
       <r>    6.7260    0.0000 </r>
       <r>    6.8384    0.0000 </r>
       <r>    6.8385    0.0000 </r>
       <r>    6.8403    0.0000 </r>
       <r>    6.8429    0.0000 </r>
       <r>    6.8436    0.0000 </r>
       <r>    6.8459    0.0000 </r>
       <r>    6.8482    0.0000 </r>
       <r>    6.8483    0.0000 </r>
       <r>    6.9683    0.0000 </r>
       <r>    6.9741    0.0000 </r>
       <r>    7.3562    0.0000 </r>
       <r>    7.3626    0.0000 </r>
       <r>    7.3626    0.0000 </r>
       <r>    7.3689    0.0000 </r>
       <r>    7.4789    0.0000 </r>
       <r>    7.4816    0.0000 </r>
       <r>    7.7110    0.0000 </r>
       <r>    7.7110    0.0000 </r>
       <r>    7.7182    0.0000 </r>
       <r>    7.7182    0.0000 </r>
       <r>    8.2557    0.0000 </r>
       <r>    8.2616    0.0000 </r>
       <r>    8.2648    0.0000 </r>
       <r>    8.2656    0.0000 </r>
       <r>    8.2662    0.0000 </r>
       <r>    8.2670    0.0000 </r>
       <r>    8.2701    0.0000 </r>
       <r>    8.2751    0.0000 </r>
       <r>    8.5262    0.0000 </r>
       <r>    8.5304    0.0000 </r>
       <r>    8.5314    0.0000 </r>
       <r>    8.5363    0.0000 </r>
       <r>    8.5364    0.0000 </r>
       <r>    8.5376    0.0000 </r>
       <r>    8.5379    0.0000 </r>
       <r>    8.5381    0.0000 </r>
       <r>    8.5389    0.0000 </r>
       <r>    8.5392    0.0000 </r>
       <r>    8.5397    0.0000 </r>
       <r>    8.5403    0.0000 </r>
       <r>    8.5407    0.0000 </r>
       <r>    8.5460    0.0000 </r>
       <r>    8.5468    0.0000 </r>
       <r>    8.5507    0.0000 </r>
       <r>    8.9427    0.0000 </r>
       <r>    8.9485    0.0000 </r>
       <r>    8.9495    0.0000 </r>
       <r>    8.9508    0.0000 </r>
       <r>    8.9511    0.0000 </r>
       <r>    8.9523    0.0000 </r>
       <r>    8.9534    0.0000 </r>
       <r>    8.9595    0.0000 </r>
       <r>    9.4961    0.0000 </r>
       <r>    9.5218    0.0000 </r>
      </set>
      <set comment="kpoint 4">
       <r>  -21.3083    1.0000 </r>
       <r>  -21.3078    1.0000 </r>
       <r>  -21.3077    1.0000 </r>
       <r>  -21.3011    1.0000 </r>
       <r>  -21.3006    1.0000 </r>
       <r>  -21.3000    1.0000 </r>
       <r>  -21.2998    1.0000 </r>
       <r>  -21.2996    1.0000 </r>
       <r>  -21.2970    1.0000 </r>
       <r>  -21.2963    1.0000 </r>
       <r>  -21.2954    1.0000 </r>
       <r>  -21.2937    1.0000 </r>
       <r>  -21.2926    1.0000 </r>
       <r>  -21.2925    1.0000 </r>
       <r>  -21.2924    1.0000 </r>
       <r>  -21.2919    1.0000 </r>
       <r>  -21.2915    1.0000 </r>
       <r>  -21.2913    1.0000 </r>
       <r>  -21.2908    1.0000 </r>
       <r>  -21.2906    1.0000 </r>
       <r>  -21.2904    1.0000 </r>
       <r>  -21.2895    1.0000 </r>
       <r>  -21.2891    1.0000 </r>
       <r>  -21.2887    1.0000 </r>
       <r>  -21.2884    1.0000 </r>
       <r>  -21.2882    1.0000 </r>
       <r>  -21.2880    1.0000 </r>
       <r>  -21.2875    1.0000 </r>
       <r>  -21.2874    1.0000 </r>
       <r>  -21.2867    1.0000 </r>
       <r>  -21.2853    1.0000 </r>
       <r>  -21.2848    1.0000 </r>
       <r>  -21.2845    1.0000 </r>
       <r>  -21.2844    1.0000 </r>
       <r>  -21.2842    1.0000 </r>
       <r>  -21.2842    1.0000 </r>
       <r>  -21.2839    1.0000 </r>
       <r>  -21.2834    1.0000 </r>
       <r>  -21.2833    1.0000 </r>
       <r>  -21.2825    1.0000 </r>
       <r>  -21.2824    1.0000 </r>
       <r>  -21.2819    1.0000 </r>
       <r>  -21.2816    1.0000 </r>
       <r>  -21.2810    1.0000 </r>
       <r>  -21.2807    1.0000 </r>
       <r>  -21.2803    1.0000 </r>
       <r>  -21.2797    1.0000 </r>
       <r>  -21.2792    1.0000 </r>
       <r>  -21.2790    1.0000 </r>
       <r>  -21.2783    1.0000 </r>
       <r>  -21.2783    1.0000 </r>
       <r>  -21.2778    1.0000 </r>
       <r>  -21.2776    1.0000 </r>
       <r>  -21.2773    1.0000 </r>
       <r>  -21.2771    1.0000 </r>
       <r>  -21.2768    1.0000 </r>
       <r>  -21.2766    1.0000 </r>
       <r>  -21.2765    1.0000 </r>
       <r>  -21.2764    1.0000 </r>
       <r>  -21.2762    1.0000 </r>
       <r>  -21.2761    1.0000 </r>
       <r>  -21.2760    1.0000 </r>
       <r>  -21.2757    1.0000 </r>
       <r>  -21.2756    1.0000 </r>
       <r>  -21.2754    1.0000 </r>
       <r>  -21.2751    1.0000 </r>
       <r>  -21.2749    1.0000 </r>
       <r>  -21.2745    1.0000 </r>
       <r>  -21.2744    1.0000 </r>
       <r>  -21.2742    1.0000 </r>
[...]
      </set>
     </set>
    </set>
   </array>
  </eigenvalues>
  <separator name="orbital magnetization" >
   <v name="MAGDIPOLOUT">      0.00000000      0.00000000      0.00000000</v>
  </separator>
  <dos>
   <i name="efermi">     -0.55227382 </i>
   <total>
    <array>
     <dimension dim="1">gridpoints</dimension>
     <dimension dim="2">spin</dimension>
     <field>energy</field>
     <field>total</field>
     <field>integrated</field>
     <set>
      <set comment="spin 1">
       <r>   -22.8509     0.0000     0.0000 </r>
       <r>   -22.7378     0.0000     0.0000 </r>
       <r>   -22.6248     0.0000     0.0000 </r>
       <r>   -22.5117     0.0000     0.0000 </r>
       <r>   -22.3987     0.0000     0.0000 </r>
       <r>   -22.2856     0.0000     0.0000 </r>
       <r>   -22.1726     0.0000     0.0000 </r>
       <r>   -22.0595     0.0000     0.0000 </r>
       <r>   -21.9465     0.0000     0.0000 </r>
       <r>   -21.8334     0.0000     0.0000 </r>
       <r>   -21.7204     0.0000     0.0000 </r>
       <r>   -21.6074     0.0000     0.0000 </r>
       <r>   -21.4943     0.0000     0.0000 </r>
       <r>   -21.3813     0.0000     0.0000 </r>
       <r>   -21.2682  1299.3979   146.8936 </r>
       <r>   -21.1552   399.0045   192.0000 </r>
       <r>   -21.0421     0.0000   192.0000 </r>
       <r>   -20.9291     0.0000   192.0000 </r>
       <r>   -20.8160     0.0000   192.0000 </r>
       <r>   -20.7030     0.0000   192.0000 </r>
       <r>   -20.5899     0.0000   192.0000 </r>
       <r>   -20.4769     0.0000   192.0000 </r>
       <r>   -20.3638     0.0000   192.0000 </r>
       <r>   -20.2508     0.0000   192.0000 </r>
       <r>   -20.1377     0.0000   192.0000 </r>
       <r>   -20.0247     0.0000   192.0000 </r>
       <r>   -19.9116     0.0000   192.0000 </r>
       <r>   -19.7986     0.0000   192.0000 </r>
       <r>   -19.6855     0.0000   192.0000 </r>
       <r>   -19.5725     0.0000   192.0000 </r>
       <r>   -19.4595     0.0000   192.0000 </r>
       <r>   -19.3464     0.0000   192.0000 </r>
       <r>   -19.2334     0.0000   192.0000 </r>
       <r>   -19.1203     0.0000   192.0000 </r>
       <r>   -19.0073     0.0000   192.0000 </r>
       <r>   -18.8942     0.0000   192.0000 </r>
       <r>   -18.7812     0.0000   192.0000 </r>
       <r>   -18.6681     0.0000   192.0000 </r>
       <r>   -18.5551     0.0000   192.0000 </r>
       <r>   -18.4420     0.0000   192.0000 </r>
       <r>   -18.3290     0.0000   192.0000 </r>
       <r>   -18.2159     0.0000   192.0000 </r>
       <r>   -18.1029     0.0000   192.0000 </r>
       <r>   -17.9898     0.0000   192.0000 </r>
       <r>   -17.8768     0.0000   192.0000 </r>
       <r>   -17.7637     0.0000   192.0000 </r>
       <r>   -17.6507     0.0000   192.0000 </r>
       <r>   -17.5376     0.0000   192.0000 </r>
       <r>   -17.4246     0.0000   192.0000 </r>
       <r>   -17.3116     0.0000   192.0000 </r>
       <r>   -17.1985     0.0000   192.0000 </r>
       <r>   -17.0855     0.0000   192.0000 </r>
       <r>   -16.9724     0.0000   192.0000 </r>
       <r>   -16.8594     0.0000   192.0000 </r>
       <r>   -16.7463     0.0000   192.0000 </r>
       <r>   -16.6333     0.0000   192.0000 </r>
       <r>   -16.5202     0.0000   192.0000 </r>
       <r>   -16.4072     0.0000   192.0000 </r>
       <r>   -16.2941     0.0000   192.0000 </r>
       <r>   -16.1811     0.0000   192.0000 </r>
       <r>   -16.0680     0.0000   192.0000 </r>
       <r>   -15.9550     0.0000   192.0000 </r>
       <r>   -15.8419     0.0000   192.0000 </r>
       <r>   -15.7289     0.0000   192.0000 </r>
       <r>   -15.6158     0.0000   192.0000 </r>
       <r>   -15.5028     0.0000   192.0000 </r>
       <r>   -15.3897     0.0000   192.0000 </r>
       <r>   -15.2767     0.0000   192.0000 </r>
       <r>   -15.1637     0.0000   192.0000 </r>
       <r>   -15.0506     0.0000   192.0000 </r>
       <r>   -14.9376     0.0000   192.0000 </r>
       <r>   -14.8245     0.0000   192.0000 </r>
       <r>   -14.7115     0.0000   192.0000 </r>
       <r>   -14.5984     0.0000   192.0000 </r>
       <r>   -14.4854     0.0000   192.0000 </r>
       <r>   -14.3723     0.0000   192.0000 </r>
       <r>   -14.2593     0.0000   192.0000 </r>
       <r>   -14.1462     0.0000   192.0000 </r>
       <r>   -14.0332     0.0000   192.0000 </r>
       <r>   -13.9201     0.0000   192.0000 </r>
       <r>   -13.8071     0.0000   192.0000 </r>
       <r>   -13.6940     0.0000   192.0000 </r>
       <r>   -13.5810     0.0000   192.0000 </r>
       <r>   -13.4679     0.0000   192.0000 </r>
       <r>   -13.3549     1.3033   192.1473 </r>
       <r>   -13.2418    20.6381   194.4804 </r>
       <r>   -13.1288    48.2456   199.9348 </r>
       <r>   -13.0158   129.1291   214.5328 </r>
       <r>   -12.9027   363.5103   255.6277 </r>
       <r>   -12.7897     3.2857   256.0000 </r>
       <r>   -12.6766     0.0000   256.0000 </r>
       <r>   -12.5636     0.0000   256.0000 </r>
       <r>   -12.4505     0.0000   256.0000 </r>
       <r>   -12.3375     0.0000   256.0000 </r>
       <r>   -12.2244     0.0000   256.0000 </r>
       <r>   -12.1114     0.0000   256.0000 </r>
       <r>   -11.9983     0.0000   256.0000 </r>
       <r>   -11.8853     0.0000   256.0000 </r>
       <r>   -11.7722     0.0000   256.0000 </r>
       <r>   -11.6592     0.0000   256.0000 </r>
       <r>   -11.5461     0.0000   256.0000 </r>
       <r>   -11.4331     0.0000   256.0000 </r>
       <r>   -11.3200     0.0000   256.0000 </r>
       <r>   -11.2070     0.0000   256.0000 </r>
       <r>   -11.0939     0.0000   256.0000 </r>
       <r>   -10.9809     0.0000   256.0000 </r>
       <r>   -10.8679     0.0000   256.0000 </r>
       <r>   -10.7548     0.0000   256.0000 </r>
       <r>   -10.6418     0.0000   256.0000 </r>
       <r>   -10.5287     0.0000   256.0000 </r>
       <r>   -10.4157     0.0000   256.0000 </r>
       <r>   -10.3026     0.0000   256.0000 </r>
       <r>   -10.1896     0.0000   256.0000 </r>
       <r>   -10.0765     0.0000   256.0000 </r>
       <r>    -9.9635     0.0000   256.0000 </r>
       <r>    -9.8504     0.0000   256.0000 </r>
       <r>    -9.7374     0.0000   256.0000 </r>
       <r>    -9.6243     0.0000   256.0000 </r>
       <r>    -9.5113     0.0000   256.0000 </r>
       <r>    -9.3982     0.0000   256.0000 </r>
       <r>    -9.2852     0.0000   256.0000 </r>
       <r>    -9.1721     0.0000   256.0000 </r>
       <r>    -9.0591     0.0000   256.0000 </r>
       <r>    -8.9460     0.0000   256.0000 </r>
       <r>    -8.8330     0.0000   256.0000 </r>
       <r>    -8.7199     0.0000   256.0000 </r>
       <r>    -8.6069     0.0000   256.0000 </r>
       <r>    -8.4939     0.0000   256.0000 </r>
       <r>    -8.3808     0.0000   256.0000 </r>
       <r>    -8.2678     0.0000   256.0000 </r>
       <r>    -8.1547     0.0000   256.0000 </r>
       <r>    -8.0417     0.0000   256.0000 </r>
       <r>    -7.9286     0.0000   256.0000 </r>
       <r>    -7.8156     0.0000   256.0000 </r>
       <r>    -7.7025     0.0000   256.0000 </r>
       <r>    -7.5895     0.0000   256.0000 </r>
       <r>    -7.4764     0.0000   256.0000 </r>
       <r>    -7.3634     0.0000   256.0000 </r>
       <r>    -7.2503     0.0000   256.0000 </r>
       <r>    -7.1373     0.0000   256.0000 </r>
       <r>    -7.0242     0.0000   256.0000 </r>
       <r>    -6.9112     0.0000   256.0000 </r>
       <r>    -6.7981     0.0000   256.0000 </r>
       <r>    -6.6851     0.0000   256.0000 </r>
       <r>    -6.5720     0.0000   256.0000 </r>
       <r>    -6.4590     0.0000   256.0000 </r>
       <r>    -6.3460     0.0000   256.0000 </r>
       <r>    -6.2329     0.0000   256.0000 </r>
       <r>    -6.1199     0.0000   256.0000 </r>
       <r>    -6.0068     0.0000   256.0000 </r>
       <r>    -5.8938     0.0000   256.0000 </r>
       <r>    -5.7807     0.0000   256.0000 </r>
       <r>    -5.6677     0.0000   256.0000 </r>
       <r>    -5.5546     0.0000   256.0000 </r>
       <r>    -5.4416     0.0000   256.0000 </r>
       <r>    -5.3285     0.0000   256.0000 </r>
       <r>    -5.2155     0.0000   256.0000 </r>
       <r>    -5.1024     0.0000   256.0000 </r>
       <r>    -4.9894     0.0000   256.0000 </r>
       <r>    -4.8763     0.0000   256.0000 </r>
       <r>    -4.7633     0.0000   256.0000 </r>
       <r>    -4.6502     0.0000   256.0000 </r>
       <r>    -4.5372     0.0000   256.0000 </r>
       <r>    -4.4241     0.0000   256.0000 </r>
       <r>    -4.3111     0.0000   256.0000 </r>
       <r>    -4.1981     0.0000   256.0000 </r>
       <r>    -4.0850     0.0000   256.0000 </r>
       <r>    -3.9720     0.0000   256.0000 </r>
       <r>    -3.8589     0.0000   256.0000 </r>
       <r>    -3.7459     0.0000   256.0000 </r>
       <r>    -3.6328     0.0000   256.0000 </r>
       <r>    -3.5198     0.0000   256.0000 </r>
       <r>    -3.4067     0.0000   256.0000 </r>
       <r>    -3.2937     0.0000   256.0000 </r>
       <r>    -3.1806     0.0000   256.0000 </r>
       <r>    -3.0676     0.0000   256.0000 </r>
       <r>    -2.9545     0.0000   256.0000 </r>
       <r>    -2.8415     0.0000   256.0000 </r>
       <r>    -2.7284     0.1965   256.0222 </r>
       <r>    -2.6154     8.6493   257.0000 </r>
       <r>    -2.5023    29.5570   260.3413 </r>
       <r>    -2.3893    80.6204   269.4553 </r>
       <r>    -2.2762    85.0723   279.0725 </r>
       <r>    -2.1632   153.0713   296.3775 </r>
       <r>    -2.0502    69.6389   304.2500 </r>
       <r>    -1.9371    58.1687   310.8258 </r>
       <r>    -1.8241    65.5997   318.2433 </r>
       <r>    -1.7110    66.4032   325.7500 </r>
       <r>    -1.5980     0.0000   325.7500 </r>
       <r>    -1.4849    84.0828   335.2553 </r>
       <r>    -1.3719   186.4330   356.3311 </r>
       <r>    -1.2588    22.0406   358.8227 </r>
       <r>    -1.1458   259.6910   388.1801 </r>
       <r>    -1.0327   132.9076   403.2056 </r>
       <r>    -0.9197   261.8860   432.8114 </r>
       <r>    -0.8066    60.1198   439.6084 </r>
       <r>    -0.6936    67.7165   447.2635 </r>
       <r>    -0.5805     6.5120   448.0000 </r>
       <r>    -0.4675     0.0000   448.0000 </r>
       <r>    -0.3544     0.0000   448.0000 </r>
       <r>    -0.2414     0.0000   448.0000 </r>
       <r>    -0.1283     0.0000   448.0000 </r>
       <r>    -0.0153     0.0000   448.0000 </r>
       <r>     0.0977     0.0000   448.0000 </r>
       <r>     0.2108     0.0000   448.0000 </r>
       <r>     0.3238     0.0000   448.0000 </r>
       <r>     0.4369     0.0000   448.0000 </r>
       <r>     0.5499     0.0000   448.0000 </r>
       <r>     0.6630     0.0000   448.0000 </r>
       <r>     0.7760     0.0000   448.0000 </r>
       <r>     0.8891     0.0000   448.0000 </r>
       <r>     1.0021     0.0000   448.0000 </r>
       <r>     1.1152     0.0000   448.0000 </r>
       <r>     1.2282     0.0000   448.0000 </r>
       <r>     1.3413     0.0000   448.0000 </r>
       <r>     1.4543     0.0000   448.0000 </r>
       <r>     1.5674     0.0000   448.0000 </r>
       <r>     1.6804     0.0000   448.0000 </r>
       <r>     1.7935     0.0000   448.0000 </r>
       <r>     1.9065     0.0000   448.0000 </r>
       <r>     2.0196     0.0000   448.0000 </r>
       <r>     2.1326     0.0000   448.0000 </r>
       <r>     2.2456     0.0000   448.0000 </r>
       <r>     2.3587     0.0000   448.0000 </r>
       <r>     2.4717     0.0000   448.0000 </r>
       <r>     2.5848     0.0000   448.0000 </r>
       <r>     2.6978     0.0000   448.0000 </r>
       <r>     2.8109     0.0000   448.0000 </r>
       <r>     2.9239     0.0000   448.0000 </r>
       <r>     3.0370     0.0000   448.0000 </r>
       <r>     3.1500     0.0000   448.0000 </r>
       <r>     3.2631     0.0000   448.0000 </r>
       <r>     3.3761     0.0000   448.0000 </r>
       <r>     3.4892     0.0000   448.0000 </r>
       <r>     3.6022     0.0000   448.0000 </r>
       <r>     3.7153     0.0000   448.0000 </r>
       <r>     3.8283     0.0000   448.0000 </r>
       <r>     3.9414     0.0000   448.0000 </r>
       <r>     4.0544     0.0000   448.0000 </r>
       <r>     4.1675     0.0000   448.0000 </r>
       <r>     4.2805     0.0000   448.0000 </r>
       <r>     4.3936     2.2113   448.2500 </r>
       <r>     4.5066     0.0000   448.2500 </r>
       <r>     4.6196     0.0000   448.2500 </r>
       <r>     4.7327     0.0000   448.2500 </r>
       <r>     4.8457     0.0000   448.2500 </r>
       <r>     4.9588     0.0001   448.2500 </r>
       <r>     5.0718    13.2651   449.7496 </r>
       <r>     5.1849     0.0013   449.7500 </r>
       <r>     5.2979     0.0000   449.7500 </r>
       <r>     5.4110     0.0000   449.7500 </r>
       <r>     5.5240     3.9014   450.1910 </r>
       <r>     5.6371    22.6361   452.7500 </r>
       <r>     5.7501     0.0000   452.7500 </r>
       <r>     5.8632    17.3832   454.7151 </r>
       <r>     5.9762     0.3084   454.7500 </r>
       <r>     6.0893     0.0000   454.7500 </r>
       <r>     6.2023     0.0000   454.7500 </r>
       <r>     6.3154     0.0024   454.7503 </r>
       <r>     6.4284    14.3650   456.3742 </r>
       <r>     6.5415     7.7469   457.2500 </r>
       <r>     6.6545    45.3658   462.3785 </r>
       <r>     6.7675    60.7602   469.2473 </r>
       <r>     6.8806    59.4534   475.9692 </r>
       <r>     6.9936    12.7760   477.4136 </r>
       <r>     7.1067     0.7647   477.5000 </r>
       <r>     7.2197     5.4376   478.1147 </r>
       <r>     7.3328     1.7182   478.3089 </r>
       <r>     7.4458    82.8454   487.6744 </r>
       <r>     7.5589   167.1154   506.5670 </r>
       <r>     7.6719     1.6593   506.7545 </r>
       <r>     7.7850    26.4973   509.7500 </r>
       <r>     7.8980     0.3958   509.7947 </r>
       <r>     8.0111    52.6793   515.7500 </r>
       <r>     8.1241     0.0155   515.7518 </r>
       <r>     8.2372    14.6874   517.4121 </r>
       <r>     8.3502    91.4433   527.7496 </r>
       <r>     8.4633     0.0000   527.7500 </r>
       <r>     8.5763   152.1896   544.9546 </r>
       <r>     8.6894     7.0338   545.7500 </r>
       <r>     8.8024     0.0000   545.7500 </r>
       <r>     8.9154    86.3832   555.5154 </r>
       <r>     9.0285   121.2393   569.2212 </r>
       <r>     9.1415     2.4663   569.5000 </r>
       <r>     9.2546    24.8128   572.3050 </r>
       <r>     9.3676    17.2520   574.2553 </r>
       <r>     9.4807     4.1329   574.7225 </r>
       <r>     9.5937    11.3003   576.0000 </r>
       <r>     9.7068     0.0000   576.0000 </r>
       <r>     9.8198     0.0000   576.0000 </r>
       <r>     9.9329     0.0000   576.0000 </r>
       <r>    10.0459     0.0000   576.0000 </r>
       <r>    10.1590     0.0000   576.0000 </r>
       <r>    10.2720     0.0000   576.0000 </r>
       <r>    10.3851     0.0000   576.0000 </r>
       <r>    10.4981     0.0000   576.0000 </r>
       <r>    10.6112     0.0000   576.0000 </r>
       <r>    10.7242     0.0000   576.0000 </r>
       <r>    10.8373     0.0000   576.0000 </r>
       <r>    10.9503     0.0000   576.0000 </r>
       <r>    11.0633     0.0000   576.0000 </r>
      </set>
     </set>
    </array>
   </total>
  </dos>
 </calculation>
 <structure name="finalpos" >
  <crystal>
   <varray name="basis" >
    <v>      11.20400236       0.00000000       0.00000000 </v>
    <v>       0.00000000      11.20400236       0.00000000 </v>
    <v>       0.00000000       0.00000000      11.20400236 </v>
   </varray>
   <i name="volume">   1406.43470641 </i>
   <varray name="rec_basis" >
    <v>       0.08925382       0.00000000       0.00000000 </v>
    <v>       0.00000000       0.08925382       0.00000000 </v>
    <v>       0.00000000       0.00000000       0.08925382 </v>
   </varray>
  </crystal>
  <varray name="positions" >
   <v>       0.00267761       0.00000000       0.00000000 </v>
   <v>       0.25000000       0.25000000       0.00000000 </v>
   <v>       0.25000000       0.00000000       0.25000000 </v>
   <v>       0.00000000       0.25000000       0.25000000 </v>
   <v>       0.00000000       0.00000000       0.50000000 </v>
   <v>       0.25000000       0.25000000       0.50000000 </v>
   <v>       0.25000000       0.00000000       0.75000000 </v>
   <v>       0.00000000       0.25000000       0.75000000 </v>
   <v>       0.00000000       0.50000000       0.00000000 </v>
   <v>       0.25000000       0.75000000       0.00000000 </v>
   <v>       0.25000000       0.50000000       0.25000000 </v>
   <v>       0.00000000       0.75000000       0.25000000 </v>
   <v>       0.00000000       0.50000000       0.50000000 </v>
   <v>       0.25000000       0.75000000       0.50000000 </v>
   <v>       0.25000000       0.50000000       0.75000000 </v>
   <v>       0.00000000       0.75000000       0.75000000 </v>
   <v>       0.50000000       0.00000000       0.00000000 </v>
   <v>       0.75000000       0.25000000       0.00000000 </v>
   <v>       0.75000000       0.00000000       0.25000000 </v>
   <v>       0.50000000       0.25000000       0.25000000 </v>
   <v>       0.50000000       0.00000000       0.50000000 </v>
   <v>       0.75000000       0.25000000       0.50000000 </v>
   <v>       0.75000000       0.00000000       0.75000000 </v>
   <v>       0.50000000       0.25000000       0.75000000 </v>
   <v>       0.50000000       0.50000000       0.00000000 </v>
   <v>       0.75000000       0.75000000       0.00000000 </v>
   <v>       0.75000000       0.50000000       0.25000000 </v>
   <v>       0.50000000       0.75000000       0.25000000 </v>
   <v>       0.50000000       0.50000000       0.50000000 </v>
   <v>       0.75000000       0.75000000       0.50000000 </v>
   <v>       0.75000000       0.50000000       0.75000000 </v>
   <v>       0.50000000       0.75000000       0.75000000 </v>
   <v>       0.25000000       0.25000000       0.25000000 </v>
   <v>       0.00000000       0.00267761       0.25000000 </v>
   <v>       0.00000000       0.25000000       0.00000000 </v>
   <v>       0.25000000       0.00000000       0.00000000 </v>
   <v>       0.25000000       0.25000000       0.75000000 </v>
   <v>       0.00000000       0.00000000       0.75000000 </v>
   <v>       0.00000000       0.25000000       0.50000000 </v>
   <v>       0.25000000       0.00000000       0.50000000 </v>
   <v>       0.25000000       0.75000000       0.25000000 </v>
   <v>       0.00000000       0.50000000       0.25000000 </v>
   <v>       0.00000000       0.75000000       0.00000000 </v>
   <v>       0.25000000       0.50000000       0.00000000 </v>
   <v>       0.25000000       0.75000000       0.75000000 </v>
   <v>       0.00000000       0.50000000       0.75000000 </v>
   <v>       0.00000000       0.75000000       0.50000000 </v>
   <v>       0.25000000       0.50000000       0.50000000 </v>
   <v>       0.75000000       0.25000000       0.25000000 </v>
   <v>       0.50000000       0.00000000       0.25000000 </v>
   <v>       0.50000000       0.25000000       0.00000000 </v>
   <v>       0.75000000       0.00000000       0.00000000 </v>
   <v>       0.75000000       0.25000000       0.75000000 </v>
   <v>       0.50000000       0.00000000       0.75000000 </v>
   <v>       0.50000000       0.25000000       0.50000000 </v>
   <v>       0.75000000       0.00000000       0.50000000 </v>
   <v>       0.75000000       0.75000000       0.25000000 </v>
   <v>       0.50000000       0.50000000       0.25000000 </v>
   <v>       0.50000000       0.75000000       0.00000000 </v>
   <v>       0.75000000       0.50000000       0.00000000 </v>
   <v>       0.75000000       0.75000000       0.75000000 </v>
   <v>       0.50000000       0.50000000       0.75000000 </v>
   <v>       0.50000000       0.75000000       0.50000000 </v>
   <v>       0.75000000       0.50000000       0.50000000 </v>
  </varray>
 </structure>
</modeling>
