  64  64   0   0
  0.2197554E+02  0.1120400E-08  0.1120400E-08  0.1120400E-08  0.5000000E-15
  1.000000000000000E-004
  CAR 
 unknown system                          
     11.06537742    -22.85116021  301     -0.55103672      1.00000000
    -22.851  0.0000E+00  0.0000E+00
    -22.738  0.0000E+00  0.0000E+00
    -22.625  0.0000E+00  0.0000E+00
    -22.512  0.0000E+00  0.0000E+00
    -22.399  0.0000E+00  0.0000E+00
    -22.286  0.0000E+00  0.0000E+00
    -22.173  0.0000E+00  0.0000E+00
    -22.060  0.0000E+00  0.0000E+00
    -21.947  0.0000E+00  0.0000E+00
    -21.834  0.0000E+00  0.0000E+00
    -21.721  0.0000E+00  0.0000E+00
    -21.608  0.0000E+00  0.0000E+00
    -21.494  0.0000E+00  0.0000E+00
    -21.381  0.7261E-05  0.8209E-06
    -21.268  0.1294E+04  0.1462E+03
    -21.155  0.4047E+03  0.1920E+03
    -21.042  0.0000E+00  0.1920E+03
    -20.929  0.0000E+00  0.1920E+03
    -20.816  0.0000E+00  0.1920E+03
    -20.703  0.0000E+00  0.1920E+03
    -20.590  0.0000E+00  0.1920E+03
    -20.477  0.0000E+00  0.1920E+03
    -20.364  0.0000E+00  0.1920E+03
    -20.251  0.0000E+00  0.1920E+03
    -20.138  0.0000E+00  0.1920E+03
    -20.025  0.0000E+00  0.1920E+03
    -19.912  0.0000E+00  0.1920E+03
    -19.799  0.0000E+00  0.1920E+03
    -19.686  0.0000E+00  0.1920E+03
    -19.573  0.0000E+00  0.1920E+03
    -19.460  0.0000E+00  0.1920E+03
    -19.346  0.0000E+00  0.1920E+03
    -19.233  0.0000E+00  0.1920E+03
    -19.120  0.0000E+00  0.1920E+03
    -19.007  0.0000E+00  0.1920E+03
    -18.894  0.0000E+00  0.1920E+03
    -18.781  0.0000E+00  0.1920E+03
    -18.668  0.0000E+00  0.1920E+03
    -18.555  0.0000E+00  0.1920E+03
    -18.442  0.0000E+00  0.1920E+03
    -18.329  0.0000E+00  0.1920E+03
    -18.216  0.0000E+00  0.1920E+03
    -18.103  0.0000E+00  0.1920E+03
    -17.990  0.0000E+00  0.1920E+03
    -17.877  0.0000E+00  0.1920E+03
    -17.764  0.0000E+00  0.1920E+03
    -17.651  0.0000E+00  0.1920E+03
    -17.538  0.0000E+00  0.1920E+03
    -17.425  0.0000E+00  0.1920E+03
    -17.311  0.0000E+00  0.1920E+03
    -17.198  0.0000E+00  0.1920E+03
    -17.085  0.0000E+00  0.1920E+03
    -16.972  0.0000E+00  0.1920E+03
    -16.859  0.0000E+00  0.1920E+03
    -16.746  0.0000E+00  0.1920E+03
    -16.633  0.0000E+00  0.1920E+03
    -16.520  0.0000E+00  0.1920E+03
    -16.407  0.0000E+00  0.1920E+03
    -16.294  0.0000E+00  0.1920E+03
    -16.181  0.0000E+00  0.1920E+03
    -16.068  0.0000E+00  0.1920E+03
    -15.955  0.0000E+00  0.1920E+03
    -15.842  0.0000E+00  0.1920E+03
    -15.729  0.0000E+00  0.1920E+03
    -15.616  0.0000E+00  0.1920E+03
    -15.503  0.0000E+00  0.1920E+03
    -15.390  0.0000E+00  0.1920E+03
    -15.276  0.0000E+00  0.1920E+03
    -15.163  0.0000E+00  0.1920E+03
    -15.050  0.0000E+00  0.1920E+03
    -14.937  0.0000E+00  0.1920E+03
    -14.824  0.0000E+00  0.1920E+03
    -14.711  0.0000E+00  0.1920E+03
    -14.598  0.0000E+00  0.1920E+03
    -14.485  0.0000E+00  0.1920E+03
    -14.372  0.0000E+00  0.1920E+03
    -14.259  0.0000E+00  0.1920E+03
    -14.146  0.0000E+00  0.1920E+03
    -14.033  0.0000E+00  0.1920E+03
    -13.920  0.0000E+00  0.1920E+03
    -13.807  0.0000E+00  0.1920E+03
    -13.694  0.0000E+00  0.1920E+03
    -13.581  0.0000E+00  0.1920E+03
    -13.468  0.1068E-13  0.1920E+03
    -13.355  0.1324E+01  0.1921E+03
    -13.241  0.2082E+02  0.1945E+03
    -13.128  0.4820E+02  0.2000E+03
    -13.015  0.1296E+03  0.2146E+03
    -12.902  0.3630E+03  0.2556E+03
    -12.789  0.3104E+01  0.2560E+03
    -12.676  0.0000E+00  0.2560E+03
    -12.563  0.0000E+00  0.2560E+03
    -12.450  0.0000E+00  0.2560E+03
    -12.337  0.0000E+00  0.2560E+03
    -12.224  0.0000E+00  0.2560E+03
    -12.111  0.0000E+00  0.2560E+03
    -11.998  0.0000E+00  0.2560E+03
    -11.885  0.0000E+00  0.2560E+03
    -11.772  0.0000E+00  0.2560E+03
    -11.659  0.0000E+00  0.2560E+03
    -11.546  0.0000E+00  0.2560E+03
    -11.433  0.0000E+00  0.2560E+03
    -11.320  0.0000E+00  0.2560E+03
    -11.206  0.0000E+00  0.2560E+03
    -11.093  0.0000E+00  0.2560E+03
    -10.980  0.0000E+00  0.2560E+03
    -10.867  0.0000E+00  0.2560E+03
    -10.754  0.0000E+00  0.2560E+03
    -10.641  0.0000E+00  0.2560E+03
    -10.528  0.0000E+00  0.2560E+03
    -10.415  0.0000E+00  0.2560E+03
    -10.302  0.0000E+00  0.2560E+03
    -10.189  0.0000E+00  0.2560E+03
    -10.076  0.0000E+00  0.2560E+03
     -9.963  0.0000E+00  0.2560E+03
     -9.850  0.0000E+00  0.2560E+03
     -9.737  0.0000E+00  0.2560E+03
     -9.624  0.0000E+00  0.2560E+03
     -9.511  0.0000E+00  0.2560E+03
     -9.398  0.0000E+00  0.2560E+03
     -9.285  0.0000E+00  0.2560E+03
     -9.171  0.0000E+00  0.2560E+03
     -9.058  0.0000E+00  0.2560E+03
     -8.945  0.0000E+00  0.2560E+03
     -8.832  0.0000E+00  0.2560E+03
     -8.719  0.0000E+00  0.2560E+03
     -8.606  0.0000E+00  0.2560E+03
     -8.493  0.0000E+00  0.2560E+03
     -8.380  0.0000E+00  0.2560E+03
     -8.267  0.0000E+00  0.2560E+03
     -8.154  0.0000E+00  0.2560E+03
     -8.041  0.0000E+00  0.2560E+03
     -7.928  0.0000E+00  0.2560E+03
     -7.815  0.0000E+00  0.2560E+03
     -7.702  0.0000E+00  0.2560E+03
     -7.589  0.0000E+00  0.2560E+03
     -7.476  0.0000E+00  0.2560E+03
     -7.363  0.0000E+00  0.2560E+03
     -7.250  0.0000E+00  0.2560E+03
     -7.136  0.0000E+00  0.2560E+03
     -7.023  0.0000E+00  0.2560E+03
     -6.910  0.0000E+00  0.2560E+03
     -6.797  0.0000E+00  0.2560E+03
     -6.684  0.0000E+00  0.2560E+03
     -6.571  0.0000E+00  0.2560E+03
     -6.458  0.0000E+00  0.2560E+03
     -6.345  0.0000E+00  0.2560E+03
     -6.232  0.0000E+00  0.2560E+03
     -6.119  0.0000E+00  0.2560E+03
     -6.006  0.0000E+00  0.2560E+03
     -5.893  0.0000E+00  0.2560E+03
     -5.780  0.0000E+00  0.2560E+03
     -5.667  0.0000E+00  0.2560E+03
     -5.554  0.0000E+00  0.2560E+03
     -5.441  0.0000E+00  0.2560E+03
     -5.328  0.0000E+00  0.2560E+03
     -5.215  0.0000E+00  0.2560E+03
     -5.102  0.0000E+00  0.2560E+03
     -4.988  0.0000E+00  0.2560E+03
     -4.875  0.0000E+00  0.2560E+03
     -4.762  0.0000E+00  0.2560E+03
     -4.649  0.0000E+00  0.2560E+03
     -4.536  0.0000E+00  0.2560E+03
     -4.423  0.0000E+00  0.2560E+03
     -4.310  0.0000E+00  0.2560E+03
     -4.197  0.0000E+00  0.2560E+03
     -4.084  0.0000E+00  0.2560E+03
     -3.971  0.0000E+00  0.2560E+03
     -3.858  0.0000E+00  0.2560E+03
     -3.745  0.0000E+00  0.2560E+03
     -3.632  0.0000E+00  0.2560E+03
     -3.519  0.0000E+00  0.2560E+03
     -3.406  0.0000E+00  0.2560E+03
     -3.293  0.0000E+00  0.2560E+03
     -3.180  0.0000E+00  0.2560E+03
     -3.067  0.0000E+00  0.2560E+03
     -2.953  0.0000E+00  0.2560E+03
     -2.840  0.0000E+00  0.2560E+03
     -2.727  0.2351E+00  0.2560E+03
     -2.614  0.8610E+01  0.2570E+03
     -2.501  0.3115E+02  0.2605E+03
     -2.388  0.7942E+02  0.2695E+03
     -2.275  0.8616E+02  0.2792E+03
     -2.162  0.1526E+03  0.2965E+03
     -2.049  0.6856E+02  0.3043E+03
     -1.936  0.5876E+02  0.3109E+03
     -1.823  0.6681E+02  0.3184E+03
     -1.710  0.6460E+02  0.3257E+03
     -1.597  0.2338E-08  0.3258E+03
     -1.484  0.8850E+02  0.3358E+03
     -1.371  0.1829E+03  0.3564E+03
     -1.258  0.2137E+02  0.3588E+03
     -1.145  0.2617E+03  0.3884E+03
     -1.032  0.1319E+03  0.4033E+03
     -0.918  0.2625E+03  0.4330E+03
     -0.805  0.5946E+02  0.4397E+03
     -0.692  0.6660E+02  0.4473E+03
     -0.579  0.6475E+01  0.4480E+03
     -0.466  0.0000E+00  0.4480E+03
     -0.353  0.0000E+00  0.4480E+03
     -0.240  0.0000E+00  0.4480E+03
     -0.127  0.0000E+00  0.4480E+03
     -0.014  0.0000E+00  0.4480E+03
      0.099  0.0000E+00  0.4480E+03
      0.212  0.0000E+00  0.4480E+03
      0.325  0.0000E+00  0.4480E+03
      0.438  0.0000E+00  0.4480E+03
      0.551  0.0000E+00  0.4480E+03
      0.664  0.0000E+00  0.4480E+03
      0.777  0.0000E+00  0.4480E+03
      0.890  0.0000E+00  0.4480E+03
      1.003  0.0000E+00  0.4480E+03
      1.117  0.0000E+00  0.4480E+03
      1.230  0.0000E+00  0.4480E+03
      1.343  0.0000E+00  0.4480E+03
      1.456  0.0000E+00  0.4480E+03
      1.569  0.0000E+00  0.4480E+03
      1.682  0.0000E+00  0.4480E+03
      1.795  0.0000E+00  0.4480E+03
      1.908  0.0000E+00  0.4480E+03
      2.021  0.0000E+00  0.4480E+03
      2.134  0.0000E+00  0.4480E+03
      2.247  0.0000E+00  0.4480E+03
      2.360  0.0000E+00  0.4480E+03
      2.473  0.0000E+00  0.4480E+03
      2.586  0.0000E+00  0.4480E+03
      2.699  0.0000E+00  0.4480E+03
      2.812  0.0000E+00  0.4480E+03
      2.925  0.0000E+00  0.4480E+03
      3.038  0.0000E+00  0.4480E+03
      3.152  0.0000E+00  0.4480E+03
      3.265  0.0000E+00  0.4480E+03
      3.378  0.0000E+00  0.4480E+03
      3.491  0.0000E+00  0.4480E+03
      3.604  0.0000E+00  0.4480E+03
      3.717  0.0000E+00  0.4480E+03
      3.830  0.0000E+00  0.4480E+03
      3.943  0.0000E+00  0.4480E+03
      4.056  0.0000E+00  0.4480E+03
      4.169  0.0000E+00  0.4480E+03
      4.282  0.4284E-04  0.4480E+03
      4.395  0.2211E+01  0.4482E+03
      4.508  0.0000E+00  0.4482E+03
      4.621  0.0000E+00  0.4482E+03
      4.734  0.0000E+00  0.4482E+03
      4.847  0.0000E+00  0.4482E+03
      4.960  0.1038E-03  0.4483E+03
      5.073  0.1327E+02  0.4497E+03
      5.187  0.0000E+00  0.4498E+03
      5.300  0.0000E+00  0.4498E+03
      5.413  0.0000E+00  0.4498E+03
      5.526  0.4640E+01  0.4503E+03
      5.639  0.2190E+02  0.4527E+03
      5.752  0.9978E-06  0.4528E+03
      5.865  0.1746E+02  0.4547E+03
      5.978  0.2342E+00  0.4548E+03
      6.091  0.0000E+00  0.4548E+03
      6.204  0.0000E+00  0.4548E+03
      6.317  0.4088E-02  0.4548E+03
      6.430  0.1460E+02  0.4564E+03
      6.543  0.7510E+01  0.4573E+03
      6.656  0.4668E+02  0.4625E+03
      6.769  0.5945E+02  0.4692E+03
      6.882  0.5952E+02  0.4760E+03
      6.995  0.1287E+02  0.4774E+03
      7.108  0.5943E+00  0.4775E+03
      7.222  0.5646E+01  0.4781E+03
      7.335  0.1686E+01  0.4783E+03
      7.448  0.8368E+02  0.4878E+03
      7.561  0.1665E+03  0.5066E+03
      7.674  0.1297E+01  0.5068E+03
      7.787  0.2648E+02  0.5097E+03
      7.900  0.5936E+00  0.5098E+03
      8.013  0.5248E+02  0.5157E+03
      8.126  0.2339E-01  0.5158E+03
      8.239  0.1522E+02  0.5175E+03
      8.352  0.9090E+02  0.5277E+03
      8.465  0.8001E-04  0.5278E+03
      8.578  0.1536E+03  0.5451E+03
      8.691  0.5631E+01  0.5458E+03
      8.804  0.1021E-04  0.5458E+03
      8.917  0.8827E+02  0.5557E+03
      9.030  0.1200E+03  0.5693E+03
      9.143  0.1859E+01  0.5695E+03
      9.256  0.3138E+02  0.5730E+03
      9.370  0.1285E+02  0.5745E+03
      9.483  0.2353E+01  0.5748E+03
      9.596  0.1092E+02  0.5760E+03
      9.709  0.0000E+00  0.5760E+03
      9.822  0.0000E+00  0.5760E+03
      9.935  0.0000E+00  0.5760E+03
     10.048  0.0000E+00  0.5760E+03
     10.161  0.0000E+00  0.5760E+03
     10.274  0.0000E+00  0.5760E+03
     10.387  0.0000E+00  0.5760E+03
     10.500  0.0000E+00  0.5760E+03
     10.613  0.0000E+00  0.5760E+03
     10.726  0.0000E+00  0.5760E+03
     10.839  0.0000E+00  0.5760E+03
     10.952  0.0000E+00  0.5760E+03
     11.065  0.0000E+00  0.5760E+03
