       N       E                     dE             d eps       ncg     rms          rms(c)
DAV:   1     0.431660801574E+04    0.43166E+04   -0.17183E+05  3456   0.125E+03
DAV:   2     0.363245261955E+03   -0.39534E+04   -0.37631E+04  3840   0.367E+02
DAV:   3    -0.206233144547E+03   -0.56948E+03   -0.56522E+03  4192   0.155E+02
DAV:   4    -0.228194715111E+03   -0.21962E+02   -0.21860E+02  4160   0.330E+01
DAV:   5    -0.229006103387E+03   -0.81139E+00   -0.81005E+00  4320   0.616E+00    0.106E+01
DAV:   6    -0.224138142113E+03    0.48680E+01   -0.95036E+00  4288   0.530E+00    0.776E+00
DAV:   7    -0.223777889072E+03    0.36025E+00   -0.20570E+00  4704   0.234E+00    0.534E+00
DAV:   8    -0.223903020924E+03   -0.12513E+00   -0.26678E-01  4000   0.124E+00    0.141E+00
DAV:   9    -0.223897649406E+03    0.53715E-02   -0.11175E-02  4320   0.259E-01    0.608E-01
DAV:  10    -0.223901926482E+03   -0.42771E-02   -0.18254E-02  4000   0.227E-01    0.287E-01
DAV:  11    -0.223901204256E+03    0.72223E-03   -0.15690E-03  4448   0.802E-02    0.876E-02
DAV:  12    -0.223901164852E+03    0.39404E-04   -0.14964E-04  4448   0.231E-02    0.149E-02
DAV:  13    -0.223901165039E+03   -0.18725E-06   -0.21381E-05  4320   0.750E-03    0.400E-03
DAV:  14    -0.223901166268E+03   -0.12289E-05   -0.20413E-06  4096   0.332E-03    0.951E-03
DAV:  15    -0.223901167776E+03   -0.15080E-05   -0.55539E-07  4096   0.170E-03    0.300E-03
DAV:  16    -0.223901168234E+03   -0.45802E-06   -0.12209E-07  4160   0.821E-04    0.505E-04
DAV:  17    -0.223901168208E+03    0.26084E-07   -0.67861E-09  2784   0.513E-04    0.183E-04
DAV:  18    -0.223901168305E+03   -0.96545E-07   -0.95788E-09  2720   0.397E-04    0.449E-04
DAV:  19    -0.223901168280E+03    0.24585E-07   -0.65682E-09  2304   0.270E-04    0.360E-04
DAV:  20    -0.223901168244E+03    0.35623E-07   -0.21959E-09  2464   0.341E-04    0.259E-04
DAV:  21    -0.223901168198E+03    0.46639E-07   -0.19792E-09  2272   0.141E-04    0.912E-05
DAV:  22    -0.223901168195E+03    0.23283E-08   -0.10635E-09  2304   0.140E-04
   1 F= -.22390117E+03 E0= -.22390117E+03  d E =-.372999E-16
