 vasp.6.3.2 27Jun22 (build Oct 14 2022 12:13:54) complex                        
  
 executed on             LinuxIFC date 2025.08.28  22:05:39
 running on   32 total cores
 distrk:  each k-point on   32 cores,    1 groups
 distr:  one band on NCORE=   1 cores,   32 groups


--------------------------------------------------------------------------------------------------------


 INCAR:
   ENCUT = 341.213600
   SIGMA = 0.020000
   EDIFF = 1.00e-08
   GGA = PS
   PREC = Accurate
   IALGO = 38
   IBRION = -1
   ISMEAR = 0
   NELMIN = 5
   ADDGRID = .TRUE.
   LCHARG = .FALSE.
   LWAVE = .FALSE.
   LREAL = .FALSE.

 POTCAR:    PAW_PBE Na_pv 19Sep2006               
 POTCAR:    PAW_PBE Cl 06Sep2000                  
 -----------------------------------------------------------------------------
|                                                                             |
|           W    W    AA    RRRRR   N    N  II  N    N   GGGG   !!!           |
|           W    W   A  A   R    R  NN   N  II  NN   N  G    G  !!!           |
|           W    W  A    A  R    R  N N  N  II  N N  N  G       !!!           |
|           W WW W  AAAAAA  RRRRR   N  N N  II  N  N N  G  GGG   !            |
|           WW  WW  A    A  R   R   N   NN  II  N   NN  G    G                |
|           W    W  A    A  R    R  N    N  II  N    N   GGGG   !!!           |
|                                                                             |
|     For optimal performance we recommend to set                             |
|       NCORE = 2 up to number-of-cores-per-socket                            |
|     NCORE specifies how many cores store one orbital (NPAR=cpu/NCORE).      |
|     This setting can greatly improve the performance of VASP for DFT.       |
|     The default, NCORE=1 might be grossly inefficient on modern             |
|     multi-core architectures or massively parallel machines. Do your        |
|     own testing! More info at https://www.vasp.at/wiki/index.php/NCORE      |
|     Unfortunately you need to use the default for GW and RPA                |
|     calculations (for HF NCORE is supported but not extensively tested      |
|     yet).                                                                   |
|                                                                             |
 -----------------------------------------------------------------------------

 POTCAR:    PAW_PBE Na_pv 19Sep2006               
   SHA256 =  6a2f546d9e11350984debacf3dc457d8cffc0868e817d445faca461816a32b94 Na_pv/POTCAR          
   COPYR  = (c) Copyright 19Sep2006 Georg Kresse                                                    
   COPYR  = This file is part of the software VASP. Any use, copying, and all other rights are regul
   COPYR  = If you do not have a valid VASP license, you may not use, copy or distribute this file. 
   VRHFIN =Na: p6s1                                                                                 
   LEXCH  = PE                                                                                      
   EATOM  =   766.0439 eV,   56.3026 Ry                                                             
                                                                                                    
   TITEL  = PAW_PBE Na_pv 19Sep2006                                                                 
   LULTRA =        F    use ultrasoft PP ?                                                          
   IUNSCR =        1    unscreen: 0-lin 1-nonlin 2-no                                               
   RPACOR =    1.800    partial core radius                                                         
   POMASS =   22.990; ZVAL   =    7.000    mass and valenz                                          
   RCORE  =    2.200    outmost cutoff radius                                                       
   RWIGS  =    2.200; RWIGS  =    1.164    wigner-seitz radius (au A)                               
   ENMAX  =  259.561; ENMIN  =  194.671 eV                                                          
   ICORE  =        2    local potential                                                             
   LCOR   =        T    correct aug charges                                                         
   LPAW   =        T    paw PP                                                                      
   EAUG   =  368.056                                                                                
   DEXC   =    0.000                                                                                
   RMAX   =    2.245    core radius for proj-oper                                                   
   RAUG   =    1.300    factor for augmentation sphere                                              
   RDEP   =    2.259    radius for radial grids                                                     
   RDEPT  =    1.738    core radius for aug-charge                                                  
                                                                                                    
   Atomic configuration                                                                             
    5 entries                                                                                       
     n  l   j            E        occ.                                                              
     1  0  0.50     -1033.6933   2.0000                                                             
     2  0  0.50       -56.7526   2.0000                                                             
     2  1  1.50       -28.6721   6.0000                                                             
     3  0  0.50        -2.7440   1.0000                                                             
     3  2  1.50        -1.3606   0.0000                                                             
   Description                                                                                      
     l       E           TYP  RCUT    TYP  RCUT                                                     
     1    -28.6720912     23  2.000                                                                 
     1      6.8029130     23  2.000                                                                 
     0     -2.7439560     23  2.200                                                                 
     0     34.0145650     23  2.200                                                                 
     2     -1.3605826     23  2.200                                                                 
  local pseudopotential read in
  partial core-charges read in
  partial kinetic energy density read in
  atomic valenz-charges read in
  non local Contribution for L=           1  read in
    real space projection operators read in
  non local Contribution for L=           1  read in
    real space projection operators read in
  non local Contribution for L=           0  read in
    real space projection operators read in
  non local Contribution for L=           0  read in
    real space projection operators read in
    PAW grid and wavefunctions read in
 
   number of l-projection  operators is LMAX  =           4
   number of lm-projection operators is LMMAX =           8
 
 POTCAR:    PAW_PBE Cl 06Sep2000                  
   SHA256 =  9f1b6e6ed4247ac726a768b330d26d7667cc3c95a39ff49c1d064c2d9dcce931 Cl/POTCAR             
   COPYR  = (c) Copyright 06Sep2000 Georg Kresse                                                    
   COPYR  = This file is part of the software VASP. Any use, copying, and all other rights are regul
   COPYR  = If you do not have a valid VASP license, you may not use, copy or distribute this file. 
   VRHFIN =Cl: s2p5                                                                                 
   LEXCH  = PE                                                                                      
   EATOM  =   409.7259 eV,   30.1140 Ry                                                             
                                                                                                    
   TITEL  = PAW_PBE Cl 06Sep2000                                                                    
   LULTRA =        F    use ultrasoft PP ?                                                          
   IUNSCR =        1    unscreen: 0-lin 1-nonlin 2-no                                               
   RPACOR =    1.500    partial core radius                                                         
   POMASS =   35.453; ZVAL   =    7.000    mass and valenz                                          
   RCORE  =    1.900    outmost cutoff radius                                                       
   RWIGS  =    2.100; RWIGS  =    1.111    wigner-seitz radius (au A)                               
   ENMAX  =  262.472; ENMIN  =  196.854 eV                                                          
   ICORE  =        2    local potential                                                             
   LCOR   =        T    correct aug charges                                                         
   LPAW   =        T    paw PP                                                                      
   EAUG   =  356.192                                                                                
   DEXC   =    0.000                                                                                
   RMAX   =    1.945    core radius for proj-oper                                                   
   RAUG   =    1.300    factor for augmentation sphere                                              
   RDEP   =    2.020    radius for radial grids                                                     
   RDEPT  =    1.678    core radius for aug-charge                                                  
                                                                                                    
   Atomic configuration                                                                             
    6 entries                                                                                       
     n  l   j            E        occ.                                                              
     1  0  0.50     -2751.1850   2.0000                                                             
     2  0  0.50      -252.6861   2.0000                                                             
     2  1  1.50      -191.6157   6.0000                                                             
     3  0  0.50       -20.6916   2.0000                                                             
     3  1  0.50        -8.5949   5.0000                                                             
     3  2  1.50        -8.1635   0.0000                                                             
   Description                                                                                      
     l       E           TYP  RCUT    TYP  RCUT                                                     
     0    -20.6915656     23  1.900                                                                 
     0    -22.0521482     23  1.900                                                                 
     1     -8.5948577     23  1.900                                                                 
     1     -5.3847331     23  1.900                                                                 
     2     -8.1634956     23  1.900                                                                 
  local pseudopotential read in
  partial core-charges read in
  partial kinetic energy density read in
  atomic valenz-charges read in
  non local Contribution for L=           0  read in
    real space projection operators read in
  non local Contribution for L=           0  read in
    real space projection operators read in
  non local Contribution for L=           1  read in
    real space projection operators read in
  non local Contribution for L=           1  read in
    real space projection operators read in
    PAW grid and wavefunctions read in
 
   number of l-projection  operators is LMAX  =           4
   number of lm-projection operators is LMMAX =           8
 
 -----------------------------------------------------------------------------
|                                                                             |
|               ----> ADVICE to this user running VASP <----                  |
|                                                                             |
|     You have a (more or less) 'large supercell' and for larger cells it     |
|     might be more efficient to use real-space projection operators.         |
|     Therefore, try LREAL= Auto in the INCAR file.                           |
|     Mind: For very accurate calculation, you might also keep the            |
|     reciprocal projection scheme (i.e. LREAL=.FALSE.).                      |
|                                                                             |
 -----------------------------------------------------------------------------

 -----------------------------------------------------------------------------
|                                                                             |
|               ----> ADVICE to this user running VASP <----                  |
|                                                                             |
|     You enforced a specific xc type in the INCAR file but a different       |
|     type was found in the POTCAR file.                                      |
|     I HOPE YOU KNOW WHAT YOU ARE DOING!                                     |
|                                                                             |
 -----------------------------------------------------------------------------

  PAW_PBE Na_pv 19Sep2006               :
 energy of atom  1       EATOM= -766.0439
 kinetic energy error for atom=    0.0189 (will be added to EATOM!!)
  PAW_PBE Cl 06Sep2000                  :
 energy of atom  2       EATOM= -409.7259
 kinetic energy error for atom=    0.0106 (will be added to EATOM!!)
 
 
 POSCAR: Na Cl
  positions in cartesian coordinates
  No initial velocities read in
 exchange correlation table for  LEXCH =       14
   RHO(1)=    0.500       N(1)  =     2000
   RHO(2)=  100.500       N(2)  =     4000
 


--------------------------------------------------------------------------------------------------------


 ion  position               nearest neighbor table
   1  0.003  0.000  0.000-
   2  0.250  0.250  0.000-
   3  0.250  0.000  0.250-
   4  0.000  0.250  0.250-
   5  0.000  0.000  0.500-
   6  0.250  0.250  0.500-
   7  0.250  0.000  0.750-
   8  0.000  0.250  0.750-
   9  0.000  0.500  0.000-
  10  0.250  0.750  0.000-
  11  0.250  0.500  0.250-
  12  0.000  0.750  0.250-
  13  0.000  0.500  0.500-
  14  0.250  0.750  0.500-
  15  0.250  0.500  0.750-
  16  0.000  0.750  0.750-
  17  0.500  0.000  0.000-
  18  0.750  0.250  0.000-
  19  0.750  0.000  0.250-
  20  0.500  0.250  0.250-
  21  0.500  0.000  0.500-
  22  0.750  0.250  0.500-
  23  0.750  0.000  0.750-
  24  0.500  0.250  0.750-
  25  0.500  0.500  0.000-
  26  0.750  0.750  0.000-
  27  0.750  0.500  0.250-
  28  0.500  0.750  0.250-
  29  0.500  0.500  0.500-
  30  0.750  0.750  0.500-
  31  0.750  0.500  0.750-
  32  0.500  0.750  0.750-
  33  0.250  0.250  0.250-
  34  0.000  0.000  0.250-
  35  0.000  0.250  0.000-
  36  0.253  0.000  0.000-
  37  0.250  0.250  0.750-
  38  0.000  0.000  0.750-
  39  0.000  0.250  0.500-
  40  0.250  0.000  0.500-
  41  0.250  0.750  0.250-
  42  0.000  0.500  0.250-
  43  0.000  0.750  0.000-
  44  0.250  0.500  0.000-
  45  0.250  0.750  0.750-
  46  0.000  0.500  0.750-
  47  0.000  0.750  0.500-
  48  0.250  0.500  0.500-
  49  0.750  0.250  0.250-
  50  0.500  0.000  0.250-
  51  0.500  0.250  0.000-
  52  0.750  0.000  0.000-
  53  0.750  0.250  0.750-
  54  0.500  0.000  0.750-
  55  0.500  0.250  0.500-
  56  0.750  0.000  0.500-
  57  0.750  0.750  0.250-
  58  0.500  0.500  0.250-
  59  0.500  0.750  0.000-
  60  0.750  0.500  0.000-
  61  0.750  0.750  0.750-
  62  0.500  0.500  0.750-
  63  0.500  0.750  0.500-
  64  0.750  0.500  0.500-
 
  LATTYP: Found a simple cubic cell.
 ALAT       =    11.2040023600
  
  Lattice vectors:
  
 A1 = (  11.2040023600,   0.0000000000,   0.0000000000)
 A2 = (   0.0000000000,  11.2040023600,   0.0000000000)
 A3 = (   0.0000000000,   0.0000000000,  11.2040023600)


Analysis of symmetry for initial positions (statically):
=====================================================================
 Subroutine PRICEL returns:
 Original cell was already a primitive cell.
 

 Routine SETGRP: Setting up the symmetry group for a 
 simple cubic supercell.


 Subroutine GETGRP returns: Found  8 space group operations
 (whereof  8 operations were pure point group operations)
 out of a pool of 48 trial point group operations.


The static configuration has the point symmetry C_4v.


Analysis of symmetry for dynamics (positions and initial velocities):
=====================================================================
 Subroutine PRICEL returns:
 Original cell was already a primitive cell.
 

 Routine SETGRP: Setting up the symmetry group for a 
 simple cubic supercell.


 Subroutine GETGRP returns: Found  8 space group operations
 (whereof  8 operations were pure point group operations)
 out of a pool of 48 trial point group operations.


The dynamic configuration has the point symmetry C_4v.


 Subroutine INISYM returns: Found  8 space group operations
 (whereof  8 operations are pure point group operations),
 and found     1 'primitive' translations


----------------------------------------------------------------------------------------

                                     Primitive cell                                     

  volume of cell :    1406.4347

  direct lattice vectors                    reciprocal lattice vectors
    11.204002360  0.000000000  0.000000000     0.089253819  0.000000000  0.000000000
     0.000000000 11.204002360  0.000000000     0.000000000  0.089253819  0.000000000
     0.000000000  0.000000000 11.204002360     0.000000000  0.000000000  0.089253819

  length of vectors
    11.204002360 11.204002360 11.204002360     0.089253819  0.089253819  0.089253819

  position of ions in fractional coordinates (direct lattice)
     0.002677615  0.000000000  0.000000000
     0.250000000  0.250000000  0.000000000
     0.250000000  0.000000000  0.250000000
     0.000000000  0.250000000  0.250000000
     0.000000000  0.000000000  0.500000000
     0.250000000  0.250000000  0.500000000
     0.250000000  0.000000000  0.750000000
     0.000000000  0.250000000  0.750000000
     0.000000000  0.500000000  0.000000000
     0.250000000  0.750000000  0.000000000
     0.250000000  0.500000000  0.250000000
     0.000000000  0.750000000  0.250000000
     0.000000000  0.500000000  0.500000000
     0.250000000  0.750000000  0.500000000
     0.250000000  0.500000000  0.750000000
     0.000000000  0.750000000  0.750000000
     0.500000000  0.000000000  0.000000000
     0.750000000  0.250000000  0.000000000
     0.750000000  0.000000000  0.250000000
     0.500000000  0.250000000  0.250000000
     0.500000000  0.000000000  0.500000000
     0.750000000  0.250000000  0.500000000
     0.750000000  0.000000000  0.750000000
     0.500000000  0.250000000  0.750000000
     0.500000000  0.500000000  0.000000000
     0.750000000  0.750000000  0.000000000
     0.750000000  0.500000000  0.250000000
     0.500000000  0.750000000  0.250000000
     0.500000000  0.500000000  0.500000000
     0.750000000  0.750000000  0.500000000
     0.750000000  0.500000000  0.750000000
     0.500000000  0.750000000  0.750000000
     0.250000000  0.250000000  0.250000000
     0.000000000  0.000000000  0.250000000
     0.000000000  0.250000000  0.000000000
     0.252677615  0.000000000  0.000000000
     0.250000000  0.250000000  0.750000000
     0.000000000  0.000000000  0.750000000
     0.000000000  0.250000000  0.500000000
     0.250000000  0.000000000  0.500000000
     0.250000000  0.750000000  0.250000000
     0.000000000  0.500000000  0.250000000
     0.000000000  0.750000000  0.000000000
     0.250000000  0.500000000  0.000000000
     0.250000000  0.750000000  0.750000000
     0.000000000  0.500000000  0.750000000
     0.000000000  0.750000000  0.500000000
     0.250000000  0.500000000  0.500000000
     0.750000000  0.250000000  0.250000000
     0.500000000  0.000000000  0.250000000
     0.500000000  0.250000000  0.000000000
     0.750000000  0.000000000  0.000000000
     0.750000000  0.250000000  0.750000000
     0.500000000  0.000000000  0.750000000
     0.500000000  0.250000000  0.500000000
     0.750000000  0.000000000  0.500000000
     0.750000000  0.750000000  0.250000000
     0.500000000  0.500000000  0.250000000
     0.500000000  0.750000000  0.000000000
     0.750000000  0.500000000  0.000000000
     0.750000000  0.750000000  0.750000000
     0.500000000  0.500000000  0.750000000
     0.500000000  0.750000000  0.500000000
     0.750000000  0.500000000  0.500000000

  ion indices of the primitive-cell ions
   primitive index   ion index
                 1           1
                 2           2
                 3           3
                 4           4
                 5           5
                 6           6
                 7           7
                 8           8
                 9           9
                10          10
                11          11
                12          12
                13          13
                14          14
                15          15
                16          16
                17          17
                18          18
                19          19
                20          20
                21          21
                22          22
                23          23
                24          24
                25          25
                26          26
                27          27
                28          28
                29          29
                30          30
                31          31
                32          32
                33          33
                34          34
                35          35
                36          36
                37          37
                38          38
                39          39
                40          40
                41          41
                42          42
                43          43
                44          44
                45          45
                46          46
                47          47
                48          48
                49          49
                50          50
                51          51
                52          52
                53          53
                54          54
                55          55
                56          56
                57          57
                58          58
                59          59
                60          60
                61          61
                62          62
                63          63
                64          64

----------------------------------------------------------------------------------------

 
 
 KPOINTS: KPOINTS created by Atomic Simulation Env

Automatic generation of k-mesh.
 Grid dimensions read from file:
 generate k-points for:    2    2    2

 Generating k-lattice:

  Cartesian coordinates                     Fractional coordinates (reciprocal lattice)
     0.044626910  0.000000000  0.000000000     0.500000000  0.000000000  0.000000000
     0.000000000  0.044626910  0.000000000     0.000000000  0.500000000  0.000000000
     0.000000000  0.000000000  0.044626910     0.000000000  0.000000000  0.500000000

  Length of vectors
     0.044626910  0.044626910  0.044626910

  Shift w.r.t. Gamma in fractional coordinates (k-lattice)
     0.000000000  0.000000000  0.000000000

 
 Subroutine IBZKPT returns following result:
 ===========================================
 
 Found      6 irreducible k-points:
 
 Following reciprocal coordinates:
            Coordinates               Weight
  0.000000  0.000000  0.000000      1.000000
  0.500000  0.000000  0.000000      1.000000
  0.000000  0.500000  0.000000      2.000000
  0.500000  0.500000  0.000000      2.000000
  0.000000  0.500000  0.500000      1.000000
  0.500000  0.500000  0.500000      1.000000
 
 Following cartesian coordinates:
            Coordinates               Weight
  0.000000  0.000000  0.000000      1.000000
  0.044627  0.000000  0.000000      1.000000
  0.000000  0.044627  0.000000      2.000000
  0.044627  0.044627  0.000000      2.000000
  0.000000  0.044627  0.044627      1.000000
  0.044627  0.044627  0.044627      1.000000
 


--------------------------------------------------------------------------------------------------------




 Dimension of arrays:
   k-points           NKPTS =      6   k-points in BZ     NKDIM =      6   number of bands    NBANDS=    288
   number of dos      NEDOS =    301   number of ions     NIONS =     64
   non local maximal  LDIM  =      4   non local SUM 2l+1 LMDIM =      8
   total plane-waves  NPLWV = 343000
   max r-space proj   IRMAX =      1   max aug-charges    IRDMAX=  56280
   dimension x,y,z NGX =    70 NGY =   70 NGZ =   70
   dimension x,y,z NGXF=   140 NGYF=  140 NGZF=  140
   support grid    NGXF=   280 NGYF=  280 NGZF=  280
   ions per type =              32  32
   NGX,Y,Z   is equivalent  to a cutoff of  10.39, 10.39, 10.39 a.u.
   NGXF,Y,Z  is equivalent  to a cutoff of  20.77, 20.77, 20.77 a.u.

 SYSTEM =  unknown system                          
 POSCAR =  Na Cl                                   

 Startparameter for this run:
   NWRITE =      2    write-flag & timer
   PREC   = accura    normal or accurate (medium, high low for compatibility)
   ISTART =      0    job   : 0-new  1-cont  2-samecut
   ICHARG =      2    charge: 1-file 2-atom 10-const
   ISPIN  =      1    spin polarized calculation?
   LNONCOLLINEAR =      F non collinear calculations
   LSORBIT =      F    spin-orbit coupling
   INIWAV =      1    electr: 0-lowe 1-rand  2-diag
   LASPH  =      F    aspherical Exc in radial PAW
 Electronic Relaxation 1
   ENCUT  =  341.2 eV  25.08 Ry    5.01 a.u.  16.87 16.87 16.87*2*pi/ulx,y,z
   ENINI  =  341.2     initial cutoff
   ENAUG  =  368.1 eV  augmentation charge cutoff
   NELM   =     60;   NELMIN=  5; NELMDL= -5     # of ELM steps 
   EDIFF  = 0.1E-07   stopping-criterion for ELM
   LREAL  =      F    real-space projection
   NLSPLINE    = F    spline interpolate recip. space projectors
   LCOMPAT=      F    compatible to vasp.4.4
   GGA_COMPAT  = T    GGA compatible to vasp.4.4-vasp.4.6
   LMAXPAW     = -100 max onsite density
   LMAXMIX     =    2 max onsite mixed and CHGCAR
   VOSKOWN=      0    Vosko Wilk Nusair interpolation
   ROPT   =    0.00000   0.00000
 Ionic relaxation
   EDIFFG = 0.1E-06   stopping-criterion for IOM
   NSW    =      0    number of steps for IOM
   NBLOCK =      1;   KBLOCK =      1    inner block; outer block 
   IBRION =     -1    ionic relax: 0-MD 1-quasi-New 2-CG
   NFREE  =      0    steps in history (QN), initial steepest desc. (CG)
   ISIF   =      2    stress and relaxation
   IWAVPR =     10    prediction:  0-non 1-charg 2-wave 3-comb
   ISYM   =      2    0-nonsym 1-usesym 2-fastsym
   LCORR  =      T    Harris-Foulkes like correction to forces

   POTIM  = 0.5000    time-step for ionic-motion
   TEIN   =    0.0    initial temperature
   TEBEG  =    0.0;   TEEND  =   0.0 temperature during run
   SMASS  =  -3.00    Nose mass-parameter (am)
   estimated Nose-frequenzy (Omega)   =  0.10E-29 period in steps = 0.13E+47 mass=  -0.287E-26a.u.
   SCALEE = 1.0000    scale energy and forces
   NPACO  =    256;   APACO  = 10.0  distance and # of slots for P.C.
   PSTRESS=    0.0 pullay stress

  Mass of Ions in am
   POMASS =  22.99 35.45
  Ionic Valenz
   ZVAL   =   7.00  7.00
  Atomic Wigner-Seitz radii
   RWIGS  =  -1.00 -1.00
  virtual crystal weights 
   VCA    =   1.00  1.00
   NELECT =     448.0000    total number of electrons
   NUPDOWN=      -1.0000    fix difference up-down

 DOS related values:
   EMIN   =  10.00;   EMAX   =-10.00  energy-range for DOS
   EFERMI =   0.00
   ISMEAR =     0;   SIGMA  =   0.02  broadening in eV -4-tet -1-fermi 0-gaus

 Electronic relaxation 2 (details)
   IALGO  =     38    algorithm
   LDIAG  =      T    sub-space diagonalisation (order eigenvalues)
   LSUBROT=      F    optimize rotation matrix (better conditioning)
   TURBO    =      0    0=normal 1=particle mesh
   IRESTART =      0    0=no restart 2=restart with 2 vectors
   NREBOOT  =      0    no. of reboots
   NMIN     =      0    reboot dimension
   EREF     =   0.00    reference energy to select bands
   IMIX   =      4    mixing-type and parameters
     AMIX     =   0.40;   BMIX     =  1.00
     AMIX_MAG =   1.60;   BMIX_MAG =  1.00
     AMIN     =   0.10
     WC   =   100.;   INIMIX=   1;  MIXPRE=   1;  MAXMIX= -45

 Intra band minimization:
   WEIMIN = 0.0000     energy-eigenvalue tresh-hold
   EBREAK =  0.87E-11  absolut break condition
   DEPER  =   0.30     relativ break condition  

   TIME   =   0.40     timestep for ELM

  volume/ion in A,a.u.               =      21.98       148.30
  Fermi-wavevector in a.u.,A,eV,Ry     =   1.118049  2.112807 17.007750  1.250034
  Thomas-Fermi vector in A             =   2.254677
 
 Write flags
   LWAVE        =      F    write WAVECAR
   LDOWNSAMPLE  =      F    k-point downsampling of WAVECAR
   LCHARG       =      F    write CHGCAR
   LVTOT        =      F    write LOCPOT, total local potential
   LVHAR        =      F    write LOCPOT, Hartree potential only
   LELF         =      F    write electronic localiz. function (ELF)
   LORBIT       =      0    0 simple, 1 ext, 2 COOP (PROOUT), +10 PAW based schemes


 Dipole corrections
   LMONO  =      F    monopole corrections only (constant potential shift)
   LDIPOL =      F    correct potential (dipole corrections)
   IDIPOL =      0    1-x, 2-y, 3-z, 4-all directions 
   EPSILON=  1.0000000 bulk dielectric constant

 Exchange correlation treatment:
   GGA     =    PS    GGA type
   LEXCH   =    14    internal setting for exchange type
   LIBXC   =     F    Libxc                    
   VOSKOWN =     0    Vosko Wilk Nusair interpolation
   LHFCALC =     F    Hartree Fock is set to
   LHFONE  =     F    Hartree Fock one center treatment
   AEXX    =    0.0000 exact exchange contribution

 Linear response parameters
   LEPSILON=     F    determine dielectric tensor
   LRPA    =     F    only Hartree local field effects (RPA)
   LNABLA  =     F    use nabla operator in PAW spheres
   LVEL    =     F    velocity operator in full k-point grid
   CSHIFT  =0.1000    complex shift for real part using Kramers Kronig
   OMEGAMAX=  -1.0    maximum frequency
   DEG_THRESHOLD= 0.2000000E-02 threshold for treating states as degnerate
   RTIME   =   -0.100 relaxation time in fs
  (WPLASMAI=    0.000 imaginary part of plasma frequency in eV, 0.658/RTIME)
   DFIELD  = 0.0000000 0.0000000 0.0000000 field for delta impulse in time
 
  Optional k-point grid parameters
   LKPOINTS_OPT  =     F    use optional k-point grid
   KPOINTS_OPT_MODE=     1    mode for optional k-point grid
 
 Orbital magnetization related:
   ORBITALMAG=     F  switch on orbital magnetization
   LCHIMAG   =     F  perturbation theory with respect to B field
   DQ        =  0.001000  dq finite difference perturbation B field
   LLRAUG    =     F  two centre corrections for induced B field



--------------------------------------------------------------------------------------------------------


 Static calculation
 charge density and potential will be updated during run
 non-spin polarized calculation
 Variant of blocked Davidson
 Davidson routine will perform the subspace rotation
 perform sub-space diagonalisation
    after iterative eigenvector-optimisation
 modified Broyden-mixing scheme, WC =      100.0
 initial mixing is a Kerker type mixing with AMIX =  0.4000 and BMIX =      1.0000
 Hartree-type preconditioning will be used
 using additional bands           64
 reciprocal scheme for non local part
 use partial core corrections
 calculate Harris-corrections to forces 
   (improved forces if not selfconsistent)
 use gradient corrections 
 use of overlap-Matrix (Vanderbilt PP)
 Gauss-broadening in eV      SIGMA  =   0.02


--------------------------------------------------------------------------------------------------------


  energy-cutoff  :      341.21
  volume of cell :     1406.43
      direct lattice vectors                 reciprocal lattice vectors
    11.204002360  0.000000000  0.000000000     0.089253819  0.000000000  0.000000000
     0.000000000 11.204002360  0.000000000     0.000000000  0.089253819  0.000000000
     0.000000000  0.000000000 11.204002360     0.000000000  0.000000000  0.089253819

  length of vectors
    11.204002360 11.204002360 11.204002360     0.089253819  0.089253819  0.089253819


 
 k-points in units of 2pi/SCALE and weight: KPOINTS created by Atomic Simulation Env
   0.00000000  0.00000000  0.00000000       0.125
   0.04462691  0.00000000  0.00000000       0.125
   0.00000000  0.04462691  0.00000000       0.250
   0.04462691  0.04462691  0.00000000       0.250
   0.00000000  0.04462691  0.04462691       0.125
   0.04462691  0.04462691  0.04462691       0.125
 
 k-points in reciprocal lattice and weights: KPOINTS created by Atomic Simulation Env
   0.00000000  0.00000000  0.00000000       0.125
   0.50000000  0.00000000  0.00000000       0.125
   0.00000000  0.50000000  0.00000000       0.250
   0.50000000  0.50000000  0.00000000       0.250
   0.00000000  0.50000000  0.50000000       0.125
   0.50000000  0.50000000  0.50000000       0.125
 
 position of ions in fractional coordinates (direct lattice) 
   0.00267761  0.00000000  0.00000000
   0.25000000  0.25000000  0.00000000
   0.25000000  0.00000000  0.25000000
   0.00000000  0.25000000  0.25000000
   0.00000000  0.00000000  0.50000000
   0.25000000  0.25000000  0.50000000
   0.25000000  0.00000000  0.75000000
   0.00000000  0.25000000  0.75000000
   0.00000000  0.50000000  0.00000000
   0.25000000  0.75000000  0.00000000
   0.25000000  0.50000000  0.25000000
   0.00000000  0.75000000  0.25000000
   0.00000000  0.50000000  0.50000000
   0.25000000  0.75000000  0.50000000
   0.25000000  0.50000000  0.75000000
   0.00000000  0.75000000  0.75000000
   0.50000000  0.00000000  0.00000000
   0.75000000  0.25000000  0.00000000
   0.75000000  0.00000000  0.25000000
   0.50000000  0.25000000  0.25000000
   0.50000000  0.00000000  0.50000000
   0.75000000  0.25000000  0.50000000
   0.75000000  0.00000000  0.75000000
   0.50000000  0.25000000  0.75000000
   0.50000000  0.50000000  0.00000000
   0.75000000  0.75000000  0.00000000
   0.75000000  0.50000000  0.25000000
   0.50000000  0.75000000  0.25000000
   0.50000000  0.50000000  0.50000000
   0.75000000  0.75000000  0.50000000
   0.75000000  0.50000000  0.75000000
   0.50000000  0.75000000  0.75000000
   0.25000000  0.25000000  0.25000000
   0.00000000  0.00000000  0.25000000
   0.00000000  0.25000000  0.00000000
   0.25267761  0.00000000  0.00000000
   0.25000000  0.25000000  0.75000000
   0.00000000  0.00000000  0.75000000
   0.00000000  0.25000000  0.50000000
   0.25000000  0.00000000  0.50000000
   0.25000000  0.75000000  0.25000000
   0.00000000  0.50000000  0.25000000
   0.00000000  0.75000000  0.00000000
   0.25000000  0.50000000  0.00000000
   0.25000000  0.75000000  0.75000000
   0.00000000  0.50000000  0.75000000
   0.00000000  0.75000000  0.50000000
   0.25000000  0.50000000  0.50000000
   0.75000000  0.25000000  0.25000000
   0.50000000  0.00000000  0.25000000
   0.50000000  0.25000000  0.00000000
   0.75000000  0.00000000  0.00000000
   0.75000000  0.25000000  0.75000000
   0.50000000  0.00000000  0.75000000
   0.50000000  0.25000000  0.50000000
   0.75000000  0.00000000  0.50000000
   0.75000000  0.75000000  0.25000000
   0.50000000  0.50000000  0.25000000
   0.50000000  0.75000000  0.00000000
   0.75000000  0.50000000  0.00000000
   0.75000000  0.75000000  0.75000000
   0.50000000  0.50000000  0.75000000
   0.50000000  0.75000000  0.50000000
   0.75000000  0.50000000  0.50000000
 
 position of ions in cartesian coordinates  (Angst):
   0.03000000  0.00000000  0.00000000
   2.80100059  2.80100059  0.00000000
   2.80100059  0.00000000  2.80100059
   0.00000000  2.80100059  2.80100059
   0.00000000  0.00000000  5.60200118
   2.80100059  2.80100059  5.60200118
   2.80100059  0.00000000  8.40300177
   0.00000000  2.80100059  8.40300177
   0.00000000  5.60200118  0.00000000
   2.80100059  8.40300177  0.00000000
   2.80100059  5.60200118  2.80100059
   0.00000000  8.40300177  2.80100059
   0.00000000  5.60200118  5.60200118
   2.80100059  8.40300177  5.60200118
   2.80100059  5.60200118  8.40300177
   0.00000000  8.40300177  8.40300177
   5.60200118  0.00000000  0.00000000
   8.40300177  2.80100059  0.00000000
   8.40300177  0.00000000  2.80100059
   5.60200118  2.80100059  2.80100059
   5.60200118  0.00000000  5.60200118
   8.40300177  2.80100059  5.60200118
   8.40300177  0.00000000  8.40300177
   5.60200118  2.80100059  8.40300177
   5.60200118  5.60200118  0.00000000
   8.40300177  8.40300177  0.00000000
   8.40300177  5.60200118  2.80100059
   5.60200118  8.40300177  2.80100059
   5.60200118  5.60200118  5.60200118
   8.40300177  8.40300177  5.60200118
   8.40300177  5.60200118  8.40300177
   5.60200118  8.40300177  8.40300177
   2.80100059  2.80100059  2.80100059
   0.00000000  0.00000000  2.80100059
   0.00000000  2.80100059  0.00000000
   2.83100059  0.00000000  0.00000000
   2.80100059  2.80100059  8.40300177
   0.00000000  0.00000000  8.40300177
   0.00000000  2.80100059  5.60200118
   2.80100059  0.00000000  5.60200118
   2.80100059  8.40300177  2.80100059
   0.00000000  5.60200118  2.80100059
   0.00000000  8.40300177  0.00000000
   2.80100059  5.60200118  0.00000000
   2.80100059  8.40300177  8.40300177
   0.00000000  5.60200118  8.40300177
   0.00000000  8.40300177  5.60200118
   2.80100059  5.60200118  5.60200118
   8.40300177  2.80100059  2.80100059
   5.60200118  0.00000000  2.80100059
   5.60200118  2.80100059  0.00000000
   8.40300177  0.00000000  0.00000000
   8.40300177  2.80100059  8.40300177
   5.60200118  0.00000000  8.40300177
   5.60200118  2.80100059  5.60200118
   8.40300177  0.00000000  5.60200118
   8.40300177  8.40300177  2.80100059
   5.60200118  5.60200118  2.80100059
   5.60200118  8.40300177  0.00000000
   8.40300177  5.60200118  0.00000000
   8.40300177  8.40300177  8.40300177
   5.60200118  5.60200118  8.40300177
   5.60200118  8.40300177  5.60200118
   8.40300177  5.60200118  5.60200118
 


--------------------------------------------------------------------------------------------------------


 k-point   1 :   0.0000 0.0000 0.0000  plane waves:   20005
 k-point   2 :   0.5000 0.0000 0.0000  plane waves:   20138
 k-point   3 :   0.0000 0.5000 0.0000  plane waves:   20138
 k-point   4 :   0.5000 0.5000 0.0000  plane waves:   20160
 k-point   5 :   0.0000 0.5000 0.5000  plane waves:   20160
 k-point   6 :   0.5000 0.5000 0.5000  plane waves:   20336

 maximum and minimum number of plane-waves per node :     20336    20005

 maximum number of plane-waves:     20336
 maximum index in each direction: 
   IXMAX=   16   IYMAX=   16   IZMAX=   16
   IXMIN=  -17   IYMIN=  -17   IZMIN=  -17


 serial   3D FFT for wavefunctions
 parallel 3D FFT for charge:
    minimum data exchange during FFTs selected (reduces bandwidth)


 total amount of memory used by VASP MPI-rank0   118439. kBytes
=======================================================================

   base      :      30000. kBytes
   nonl-proj :      36470. kBytes
   fftplans  :      14405. kBytes
   grid      :      19342. kBytes
   one-center:        196. kBytes
   wavefun   :      18026. kBytes
 
     INWAV:  cpu time      0.0000: real time      0.0000
 Broyden mixing: mesh for mixing (old mesh)
   NGX = 33   NGY = 33   NGZ = 33
  (NGX  =140   NGY  =140   NGZ  =140)
  gives a total of  35937 points

 initial charge density was supplied:
 charge density of overlapping atoms calculated
 number of electron     448.0000000 magnetization 
 keeping initial charge density in first step


--------------------------------------------------------------------------------------------------------


 Maximum index for augmentation-charges         1834 (set IRDMAX)


--------------------------------------------------------------------------------------------------------


 First call to EWALD:  gamma=   0.158
 Maximum number of real-space cells 3x 3x 3
 Maximum number of reciprocal cells 3x 3x 3

    FEWALD:  cpu time      0.0015: real time      0.0015


--------------------------------------- Iteration      1(   1)  ---------------------------------------


    POTLOK:  cpu time      0.0429: real time      0.0435
    SETDIJ:  cpu time      0.0317: real time      0.0319
     EDDAV:  cpu time      7.4898: real time      7.5324
       DOS:  cpu time      0.0005: real time      0.0005
    --------------------------------------------
      LOOP:  cpu time      7.5650: real time      7.6083

 eigenvalue-minimisations  :  3456
 total energy-change (2. order) : 0.4316608E+04  (-0.1718285E+05)
 number of electron     448.0000000 magnetization 
 augmentation part      448.0000000 magnetization 

 Free energy of the ion-electron system (eV)
  ---------------------------------------------------
  alpha Z        PSCENC =       751.52672365
  Ewald energy   TEWEN  =    -22871.40103513
  -Hartree energ DENC   =     -8992.19258659
  -exchange      EXHF   =         0.00000000
  -V(xc)+E(xc)   XCENC  =      1456.53396019
  PAW double counting   =     26466.43774078   -29286.08056155
  entropy T*S    EENTRO =        -0.00300894
  eigenvalues    EBANDS =      -740.39268660
  atomic energy  EATOM  =     37532.17946992
  Solvation  Ediel_sol  =         0.00000000
  ---------------------------------------------------
  free energy    TOTEN  =      4316.60801574 eV

  energy without entropy =     4316.61102468  energy(sigma->0) =     4316.60952021


--------------------------------------------------------------------------------------------------------




--------------------------------------- Iteration      1(   2)  ---------------------------------------


     EDDAV:  cpu time      8.1820: real time      8.2272
       DOS:  cpu time      0.0002: real time      0.0002
    --------------------------------------------
      LOOP:  cpu time      8.1823: real time      8.2274

 eigenvalue-minimisations  :  3840
 total energy-change (2. order) :-0.3953363E+04  (-0.3763131E+04)
 number of electron     448.0000000 magnetization 
 augmentation part      448.0000000 magnetization 

 Free energy of the ion-electron system (eV)
  ---------------------------------------------------
  alpha Z        PSCENC =       751.52672365
  Ewald energy   TEWEN  =    -22871.40103513
  -Hartree energ DENC   =     -8992.19258659
  -exchange      EXHF   =         0.00000000
  -V(xc)+E(xc)   XCENC  =      1456.53396019
  PAW double counting   =     26466.43774078   -29286.08056155
  entropy T*S    EENTRO =        -0.00000000
  eigenvalues    EBANDS =     -4693.75844932
  atomic energy  EATOM  =     37532.17946992
  Solvation  Ediel_sol  =         0.00000000
  ---------------------------------------------------
  free energy    TOTEN  =       363.24526195 eV

  energy without entropy =      363.24526195  energy(sigma->0) =      363.24526195


--------------------------------------------------------------------------------------------------------




--------------------------------------- Iteration      1(   3)  ---------------------------------------


     EDDAV:  cpu time      8.8097: real time      8.8595
       DOS:  cpu time      0.0005: real time      0.0005
    --------------------------------------------
      LOOP:  cpu time      8.8103: real time      8.8601

 eigenvalue-minimisations  :  4192
 total energy-change (2. order) :-0.5694784E+03  (-0.5652230E+03)
 number of electron     448.0000000 magnetization 
 augmentation part      448.0000000 magnetization 

 Free energy of the ion-electron system (eV)
  ---------------------------------------------------
  alpha Z        PSCENC =       751.52672365
  Ewald energy   TEWEN  =    -22871.40103513
  -Hartree energ DENC   =     -8992.19258659
  -exchange      EXHF   =         0.00000000
  -V(xc)+E(xc)   XCENC  =      1456.53396019
  PAW double counting   =     26466.43774078   -29286.08056155
  entropy T*S    EENTRO =        -0.00000000
  eigenvalues    EBANDS =     -5263.23685582
  atomic energy  EATOM  =     37532.17946992
  Solvation  Ediel_sol  =         0.00000000
  ---------------------------------------------------
  free energy    TOTEN  =      -206.23314455 eV

  energy without entropy =     -206.23314455  energy(sigma->0) =     -206.23314455


--------------------------------------------------------------------------------------------------------




--------------------------------------- Iteration      1(   4)  ---------------------------------------


     EDDAV:  cpu time      8.7811: real time      8.8287
       DOS:  cpu time      0.0004: real time      0.0004
    --------------------------------------------
      LOOP:  cpu time      8.7814: real time      8.8291

 eigenvalue-minimisations  :  4160
 total energy-change (2. order) :-0.2196157E+02  (-0.2186014E+02)
 number of electron     448.0000000 magnetization 
 augmentation part      448.0000000 magnetization 

 Free energy of the ion-electron system (eV)
  ---------------------------------------------------
  alpha Z        PSCENC =       751.52672365
  Ewald energy   TEWEN  =    -22871.40103513
  -Hartree energ DENC   =     -8992.19258659
  -exchange      EXHF   =         0.00000000
  -V(xc)+E(xc)   XCENC  =      1456.53396019
  PAW double counting   =     26466.43774078   -29286.08056155
  entropy T*S    EENTRO =        -0.00000000
  eigenvalues    EBANDS =     -5285.19842639
  atomic energy  EATOM  =     37532.17946992
  Solvation  Ediel_sol  =         0.00000000
  ---------------------------------------------------
  free energy    TOTEN  =      -228.19471511 eV

  energy without entropy =     -228.19471511  energy(sigma->0) =     -228.19471511


--------------------------------------------------------------------------------------------------------




--------------------------------------- Iteration      1(   5)  ---------------------------------------


     EDDAV:  cpu time      9.0662: real time      9.1217
       DOS:  cpu time      0.0005: real time      0.0005
    CHARGE:  cpu time      0.2681: real time      0.2694
    MIXING:  cpu time      0.0011: real time      0.0011
    --------------------------------------------
      LOOP:  cpu time      9.3359: real time      9.3927

 eigenvalue-minimisations  :  4320
 total energy-change (2. order) :-0.8113883E+00  (-0.8100501E+00)
 number of electron     448.0000022 magnetization 
 augmentation part      111.6447280 magnetization 

 Broyden mixing:
  rms(total) = 0.10606E+01    rms(broyden)= 0.10601E+01
  rms(prec ) = 0.14939E+01
  weight for this iteration     100.00

 Free energy of the ion-electron system (eV)
  ---------------------------------------------------
  alpha Z        PSCENC =       751.52672365
  Ewald energy   TEWEN  =    -22871.40103513
  -Hartree energ DENC   =     -8992.19258659
  -exchange      EXHF   =         0.00000000
  -V(xc)+E(xc)   XCENC  =      1456.53396019
  PAW double counting   =     26466.43774078   -29286.08056155
  entropy T*S    EENTRO =        -0.00000000
  eigenvalues    EBANDS =     -5286.00981466
  atomic energy  EATOM  =     37532.17946992
  Solvation  Ediel_sol  =         0.00000000
  ---------------------------------------------------
  free energy    TOTEN  =      -229.00610339 eV

  energy without entropy =     -229.00610339  energy(sigma->0) =     -229.00610339


--------------------------------------------------------------------------------------------------------




--------------------------------------- Iteration      1(   6)  ---------------------------------------


    POTLOK:  cpu time      0.0363: real time      0.0366
    SETDIJ:  cpu time      0.0297: real time      0.0299
     EDDAV:  cpu time      9.0206: real time      9.0687
       DOS:  cpu time      0.0005: real time      0.0005
    CHARGE:  cpu time      0.2673: real time      0.2687
    MIXING:  cpu time      0.0011: real time      0.0012
    --------------------------------------------
      LOOP:  cpu time      9.3555: real time      9.4055

 eigenvalue-minimisations  :  4288
 total energy-change (2. order) : 0.4867961E+01  (-0.9503562E+00)
 number of electron     448.0000022 magnetization 
 augmentation part      112.4574770 magnetization 

 Broyden mixing:
  rms(total) = 0.77622E+00    rms(broyden)= 0.77616E+00
  rms(prec ) = 0.89212E+00
  weight for this iteration     100.00

 eigenvalues of (default mixing * dielectric matrix)
  average eigenvalue GAMMA=   1.0719
  1.0719

 Free energy of the ion-electron system (eV)
  ---------------------------------------------------
  alpha Z        PSCENC =       751.52672365
  Ewald energy   TEWEN  =    -22871.40103513
  -Hartree energ DENC   =     -9061.79930908
  -exchange      EXHF   =         0.00000000
  -V(xc)+E(xc)   XCENC  =      1465.43662637
  PAW double counting   =     27290.03340461   -30102.04094984
  entropy T*S    EENTRO =        -0.00000000
  eigenvalues    EBANDS =     -5228.07307263
  atomic energy  EATOM  =     37532.17946992
  Solvation  Ediel_sol  =         0.00000000
  ---------------------------------------------------
  free energy    TOTEN  =      -224.13814211 eV

  energy without entropy =     -224.13814211  energy(sigma->0) =     -224.13814211


--------------------------------------------------------------------------------------------------------




--------------------------------------- Iteration      1(   7)  ---------------------------------------


    POTLOK:  cpu time      0.0363: real time      0.0371
    SETDIJ:  cpu time      0.0299: real time      0.0300
     EDDAV:  cpu time      9.7370: real time      9.7889
       DOS:  cpu time      0.0005: real time      0.0005
    CHARGE:  cpu time      0.2668: real time      0.2682
    MIXING:  cpu time      0.0016: real time      0.0016
    --------------------------------------------
      LOOP:  cpu time     10.0721: real time     10.1262

 eigenvalue-minimisations  :  4704
 total energy-change (2. order) : 0.3602530E+00  (-0.2056967E+00)
 number of electron     448.0000022 magnetization 
 augmentation part      112.8267286 magnetization 

 Broyden mixing:
  rms(total) = 0.53366E+00    rms(broyden)= 0.53363E+00
  rms(prec ) = 0.56370E+00
  weight for this iteration     100.00

 eigenvalues of (default mixing * dielectric matrix)
  average eigenvalue GAMMA=   2.1537
  1.4379  2.8695

 Free energy of the ion-electron system (eV)
  ---------------------------------------------------
  alpha Z        PSCENC =       751.52672365
  Ewald energy   TEWEN  =    -22871.40103513
  -Hartree energ DENC   =     -9085.74327661
  -exchange      EXHF   =         0.00000000
  -V(xc)+E(xc)   XCENC  =      1470.11870724
  PAW double counting   =     28327.59901356   -31140.31822505
  entropy T*S    EENTRO =        -0.00000000
  eigenvalues    EBANDS =     -5207.73926666
  atomic energy  EATOM  =     37532.17946992
  Solvation  Ediel_sol  =         0.00000000
  ---------------------------------------------------
  free energy    TOTEN  =      -223.77788907 eV

  energy without entropy =     -223.77788907  energy(sigma->0) =     -223.77788907


--------------------------------------------------------------------------------------------------------




--------------------------------------- Iteration      1(   8)  ---------------------------------------


    POTLOK:  cpu time      0.0362: real time      0.0378
    SETDIJ:  cpu time      0.0299: real time      0.0301
     EDDAV:  cpu time      8.5601: real time      8.6077
       DOS:  cpu time      0.0005: real time      0.0005
    CHARGE:  cpu time      0.2667: real time      0.2682
    MIXING:  cpu time      0.0014: real time      0.0014
    --------------------------------------------
      LOOP:  cpu time      8.8949: real time      8.9457

 eigenvalue-minimisations  :  4000
 total energy-change (2. order) :-0.1251319E+00  (-0.2667782E-01)
 number of electron     448.0000022 magnetization 
 augmentation part      112.8099003 magnetization 

 Broyden mixing:
  rms(total) = 0.14133E+00    rms(broyden)= 0.14133E+00
  rms(prec ) = 0.14416E+00
  weight for this iteration     100.00

 eigenvalues of (default mixing * dielectric matrix)
  average eigenvalue GAMMA=   1.5545
  2.5268  1.3864  0.7502

 Free energy of the ion-electron system (eV)
  ---------------------------------------------------
  alpha Z        PSCENC =       751.52672365
  Ewald energy   TEWEN  =    -22871.40103513
  -Hartree energ DENC   =     -9075.20096218
  -exchange      EXHF   =         0.00000000
  -V(xc)+E(xc)   XCENC  =      1472.34233109
  PAW double counting   =     29809.21886851   -32629.05204681
  entropy T*S    EENTRO =        -0.00000000
  eigenvalues    EBANDS =     -5213.51636999
  atomic energy  EATOM  =     37532.17946992
  Solvation  Ediel_sol  =         0.00000000
  ---------------------------------------------------
  free energy    TOTEN  =      -223.90302092 eV

  energy without entropy =     -223.90302092  energy(sigma->0) =     -223.90302092


--------------------------------------------------------------------------------------------------------




--------------------------------------- Iteration      1(   9)  ---------------------------------------


    POTLOK:  cpu time      0.0364: real time      0.0367
    SETDIJ:  cpu time      0.0300: real time      0.0301
     EDDAV:  cpu time      9.0953: real time      9.1435
       DOS:  cpu time      0.0003: real time      0.0003
    CHARGE:  cpu time      0.2684: real time      0.2698
    MIXING:  cpu time      0.0011: real time      0.0012
    --------------------------------------------
      LOOP:  cpu time      9.4316: real time      9.4815

 eigenvalue-minimisations  :  4320
 total energy-change (2. order) : 0.5371518E-02  (-0.1117476E-02)
 number of electron     448.0000022 magnetization 
 augmentation part      112.8314534 magnetization 

 Broyden mixing:
  rms(total) = 0.60817E-01    rms(broyden)= 0.60816E-01
  rms(prec ) = 0.62850E-01
  weight for this iteration     100.00

 eigenvalues of (default mixing * dielectric matrix)
  average eigenvalue GAMMA=   2.0074
  2.8709  2.7686  0.9973  1.3926

 Free energy of the ion-electron system (eV)
  ---------------------------------------------------
  alpha Z        PSCENC =       751.52672365
  Ewald energy   TEWEN  =    -22871.40103513
  -Hartree energ DENC   =     -9077.87026200
  -exchange      EXHF   =         0.00000000
  -V(xc)+E(xc)   XCENC  =      1472.35756494
  PAW double counting   =     29631.87128085   -32450.87477804
  entropy T*S    EENTRO =        -0.00000000
  eigenvalues    EBANDS =     -5211.68661361
  atomic energy  EATOM  =     37532.17946992
  Solvation  Ediel_sol  =         0.00000000
  ---------------------------------------------------
  free energy    TOTEN  =      -223.89764941 eV

  energy without entropy =     -223.89764941  energy(sigma->0) =     -223.89764941


--------------------------------------------------------------------------------------------------------




--------------------------------------- Iteration      1(  10)  ---------------------------------------


    POTLOK:  cpu time      0.0358: real time      0.0368
    SETDIJ:  cpu time      0.0302: real time      0.0303
     EDDAV:  cpu time      8.5605: real time      8.6063
       DOS:  cpu time      0.0005: real time      0.0005
    CHARGE:  cpu time      0.2669: real time      0.2685
    MIXING:  cpu time      0.0025: real time      0.0025
    --------------------------------------------
      LOOP:  cpu time      8.8964: real time      8.9449

 eigenvalue-minimisations  :  4000
 total energy-change (2. order) :-0.4277077E-02  (-0.1825350E-02)
 number of electron     448.0000022 magnetization 
 augmentation part      112.8606477 magnetization 

 Broyden mixing:
  rms(total) = 0.28710E-01    rms(broyden)= 0.28707E-01
  rms(prec ) = 0.30754E-01
  weight for this iteration     100.00

 eigenvalues of (default mixing * dielectric matrix)
  average eigenvalue GAMMA=   1.7107
  2.9420  2.5111  1.2963  1.0200  0.7841

 Free energy of the ion-electron system (eV)
  ---------------------------------------------------
  alpha Z        PSCENC =       751.52672365
  Ewald energy   TEWEN  =    -22871.40103513
  -Hartree energ DENC   =     -9079.39436790
  -exchange      EXHF   =         0.00000000
  -V(xc)+E(xc)   XCENC  =      1472.60687597
  PAW double counting   =     29455.70515748   -32274.94921348
  entropy T*S    EENTRO =        -0.00000000
  eigenvalues    EBANDS =     -5210.17553700
  atomic energy  EATOM  =     37532.17946992
  Solvation  Ediel_sol  =         0.00000000
  ---------------------------------------------------
  free energy    TOTEN  =      -223.90192648 eV

  energy without entropy =     -223.90192648  energy(sigma->0) =     -223.90192648


--------------------------------------------------------------------------------------------------------




--------------------------------------- Iteration      1(  11)  ---------------------------------------


    POTLOK:  cpu time      0.0362: real time      0.0365
    SETDIJ:  cpu time      0.0304: real time      0.0305
     EDDAV:  cpu time      9.3315: real time      9.3809
       DOS:  cpu time      0.0005: real time      0.0005
    CHARGE:  cpu time      0.2697: real time      0.2710
    MIXING:  cpu time      0.0011: real time      0.0011
    --------------------------------------------
      LOOP:  cpu time      9.6694: real time      9.7205

 eigenvalue-minimisations  :  4448
 total energy-change (2. order) : 0.7222264E-03  (-0.1568973E-03)
 number of electron     448.0000022 magnetization 
 augmentation part      112.8515224 magnetization 

 Broyden mixing:
  rms(total) = 0.87627E-02    rms(broyden)= 0.87626E-02
  rms(prec ) = 0.91989E-02
  weight for this iteration     100.00

 eigenvalues of (default mixing * dielectric matrix)
  average eigenvalue GAMMA=   1.5679
  2.9168  2.4453  1.3205  1.0098  0.8576  0.8576

 Free energy of the ion-electron system (eV)
  ---------------------------------------------------
  alpha Z        PSCENC =       751.52672365
  Ewald energy   TEWEN  =    -22871.40103513
  -Hartree energ DENC   =     -9078.29332031
  -exchange      EXHF   =         0.00000000
  -V(xc)+E(xc)   XCENC  =      1472.53002695
  PAW double counting   =     29487.20916099   -32306.58910575
  entropy T*S    EENTRO =        -0.00000000
  eigenvalues    EBANDS =     -5211.06312458
  atomic energy  EATOM  =     37532.17946992
  Solvation  Ediel_sol  =         0.00000000
  ---------------------------------------------------
  free energy    TOTEN  =      -223.90120426 eV

  energy without entropy =     -223.90120426  energy(sigma->0) =     -223.90120426


--------------------------------------------------------------------------------------------------------




--------------------------------------- Iteration      1(  12)  ---------------------------------------


    POTLOK:  cpu time      0.0364: real time      0.0407
    SETDIJ:  cpu time      0.0301: real time      0.0304
     EDDAV:  cpu time      9.3104: real time      9.3601
       DOS:  cpu time      0.0006: real time      0.0006
    CHARGE:  cpu time      0.2686: real time      0.2699
    MIXING:  cpu time      0.0015: real time      0.0015
    --------------------------------------------
      LOOP:  cpu time      9.6475: real time      9.7033

 eigenvalue-minimisations  :  4448
 total energy-change (2. order) : 0.3940394E-04  (-0.1496365E-04)
 number of electron     448.0000022 magnetization 
 augmentation part      112.8488650 magnetization 

 Broyden mixing:
  rms(total) = 0.14913E-02    rms(broyden)= 0.14905E-02
  rms(prec ) = 0.17600E-02
  weight for this iteration     100.00

 eigenvalues of (default mixing * dielectric matrix)
  average eigenvalue GAMMA=   1.5815
  2.8883  2.4062  1.5001  1.2132  1.2132  1.0601  0.7897

 Free energy of the ion-electron system (eV)
  ---------------------------------------------------
  alpha Z        PSCENC =       751.52672365
  Ewald energy   TEWEN  =    -22871.40103513
  -Hartree energ DENC   =     -9078.12942578
  -exchange      EXHF   =         0.00000000
  -V(xc)+E(xc)   XCENC  =      1472.51833020
  PAW double counting   =     29498.46396694   -32317.83890922
  entropy T*S    EENTRO =        -0.00000000
  eigenvalues    EBANDS =     -5211.22028544
  atomic energy  EATOM  =     37532.17946992
  Solvation  Ediel_sol  =         0.00000000
  ---------------------------------------------------
  free energy    TOTEN  =      -223.90116485 eV

  energy without entropy =     -223.90116485  energy(sigma->0) =     -223.90116485


--------------------------------------------------------------------------------------------------------




--------------------------------------- Iteration      1(  13)  ---------------------------------------


    POTLOK:  cpu time      0.0359: real time      0.0361
    SETDIJ:  cpu time      0.0301: real time      0.0304
     EDDAV:  cpu time      9.1113: real time      9.1597
       DOS:  cpu time      0.0005: real time      0.0005
    CHARGE:  cpu time      0.2697: real time      0.2712
    MIXING:  cpu time      0.0014: real time      0.0015
    --------------------------------------------
      LOOP:  cpu time      9.4490: real time      9.4994

 eigenvalue-minimisations  :  4320
 total energy-change (2. order) :-0.1872468E-06  (-0.2138088E-05)
 number of electron     448.0000022 magnetization 
 augmentation part      112.8477638 magnetization 

 Broyden mixing:
  rms(total) = 0.40035E-03    rms(broyden)= 0.39983E-03
  rms(prec ) = 0.46171E-03
  weight for this iteration     100.00

 eigenvalues of (default mixing * dielectric matrix)
  average eigenvalue GAMMA=   1.6216
  2.9729  2.3527  2.3527  1.2605  0.9966  0.9966  1.0205  1.0205

 Free energy of the ion-electron system (eV)
  ---------------------------------------------------
  alpha Z        PSCENC =       751.52672365
  Ewald energy   TEWEN  =    -22871.40103513
  -Hartree energ DENC   =     -9078.05184059
  -exchange      EXHF   =         0.00000000
  -V(xc)+E(xc)   XCENC  =      1472.51042492
  PAW double counting   =     29498.84899589   -32318.22213821
  entropy T*S    EENTRO =        -0.00000000
  eigenvalues    EBANDS =     -5211.29176550
  atomic energy  EATOM  =     37532.17946992
  Solvation  Ediel_sol  =         0.00000000
  ---------------------------------------------------
  free energy    TOTEN  =      -223.90116504 eV

  energy without entropy =     -223.90116504  energy(sigma->0) =     -223.90116504


--------------------------------------------------------------------------------------------------------




--------------------------------------- Iteration      1(  14)  ---------------------------------------


    POTLOK:  cpu time      0.0359: real time      0.0367
    SETDIJ:  cpu time      0.0306: real time      0.0307
     EDDAV:  cpu time      8.7233: real time      8.7696
       DOS:  cpu time      0.0004: real time      0.0004
    CHARGE:  cpu time      0.2715: real time      0.2731
    MIXING:  cpu time      0.0012: real time      0.0012
    --------------------------------------------
      LOOP:  cpu time      9.0629: real time      9.1118

 eigenvalue-minimisations  :  4096
 total energy-change (2. order) :-0.1228873E-05  (-0.2041278E-06)
 number of electron     448.0000022 magnetization 
 augmentation part      112.8476700 magnetization 

 Broyden mixing:
  rms(total) = 0.95064E-03    rms(broyden)= 0.95060E-03
  rms(prec ) = 0.97444E-03
  weight for this iteration     100.00

 eigenvalues of (default mixing * dielectric matrix)
  average eigenvalue GAMMA=   1.6501
  3.0504  2.5963  2.5963  1.4036  1.2218  1.2218  0.9624  0.9624  0.8358

 Free energy of the ion-electron system (eV)
  ---------------------------------------------------
  alpha Z        PSCENC =       751.52672365
  Ewald energy   TEWEN  =    -22871.40103513
  -Hartree energ DENC   =     -9078.05866827
  -exchange      EXHF   =         0.00000000
  -V(xc)+E(xc)   XCENC  =      1472.51145361
  PAW double counting   =     29500.17835717   -32319.54637190
  entropy T*S    EENTRO =        -0.00000000
  eigenvalues    EBANDS =     -5211.29109532
  atomic energy  EATOM  =     37532.17946992
  Solvation  Ediel_sol  =         0.00000000
  ---------------------------------------------------
  free energy    TOTEN  =      -223.90116627 eV

  energy without entropy =     -223.90116627  energy(sigma->0) =     -223.90116627


--------------------------------------------------------------------------------------------------------




--------------------------------------- Iteration      1(  15)  ---------------------------------------


    POTLOK:  cpu time      0.0363: real time      0.0371
    SETDIJ:  cpu time      0.0302: real time      0.0303
     EDDAV:  cpu time      8.7194: real time      8.7660
       DOS:  cpu time      0.0004: real time      0.0004
    CHARGE:  cpu time      0.2725: real time      0.2738
    MIXING:  cpu time      0.0015: real time      0.0015
    --------------------------------------------
      LOOP:  cpu time      9.0604: real time      9.1093

 eigenvalue-minimisations  :  4096
 total energy-change (2. order) :-0.1507979E-05  (-0.5553878E-07)
 number of electron     448.0000022 magnetization 
 augmentation part      112.8477916 magnetization 

 Broyden mixing:
  rms(total) = 0.29964E-03    rms(broyden)= 0.29960E-03
  rms(prec ) = 0.30929E-03
  weight for this iteration     100.00

 eigenvalues of (default mixing * dielectric matrix)
  average eigenvalue GAMMA=   1.6053
  3.1141  2.7231  2.4384  1.4648  1.2863  1.2863  0.9564  0.9564  0.9564  0.8709

 Free energy of the ion-electron system (eV)
  ---------------------------------------------------
  alpha Z        PSCENC =       751.52672365
  Ewald energy   TEWEN  =    -22871.40103513
  -Hartree energ DENC   =     -9078.08942088
  -exchange      EXHF   =         0.00000000
  -V(xc)+E(xc)   XCENC  =      1472.51238817
  PAW double counting   =     29498.83758510   -32318.20142702
  entropy T*S    EENTRO =        -0.00000000
  eigenvalues    EBANDS =     -5211.26545160
  atomic energy  EATOM  =     37532.17946992
  Solvation  Ediel_sol  =         0.00000000
  ---------------------------------------------------
  free energy    TOTEN  =      -223.90116778 eV

  energy without entropy =     -223.90116778  energy(sigma->0) =     -223.90116778


--------------------------------------------------------------------------------------------------------




--------------------------------------- Iteration      1(  16)  ---------------------------------------


    POTLOK:  cpu time      0.0357: real time      0.0360
    SETDIJ:  cpu time      0.0306: real time      0.0307
     EDDAV:  cpu time      8.8089: real time      8.8556
       DOS:  cpu time      0.0004: real time      0.0004
    CHARGE:  cpu time      0.2711: real time      0.2724
    MIXING:  cpu time      0.0019: real time      0.0019
    --------------------------------------------
      LOOP:  cpu time      9.1486: real time      9.1970

 eigenvalue-minimisations  :  4160
 total energy-change (2. order) :-0.4580215E-06  (-0.1220947E-07)
 number of electron     448.0000022 magnetization 
 augmentation part      112.8478535 magnetization 

 Broyden mixing:
  rms(total) = 0.50494E-04    rms(broyden)= 0.50245E-04
  rms(prec ) = 0.57322E-04
  weight for this iteration     100.00

 eigenvalues of (default mixing * dielectric matrix)
  average eigenvalue GAMMA=   1.5877
  3.1225  2.6891  2.4579  1.3539  1.3539  1.4114  1.1845  1.1845  0.9008  0.9008
  0.9057

 Free energy of the ion-electron system (eV)
  ---------------------------------------------------
  alpha Z        PSCENC =       751.52672365
  Ewald energy   TEWEN  =    -22871.40103513
  -Hartree energ DENC   =     -9078.09898098
  -exchange      EXHF   =         0.00000000
  -V(xc)+E(xc)   XCENC  =      1472.51280573
  PAW double counting   =     29498.30719582   -32317.67120267
  entropy T*S    EENTRO =        -0.00000000
  eigenvalues    EBANDS =     -5211.25614458
  atomic energy  EATOM  =     37532.17946992
  Solvation  Ediel_sol  =         0.00000000
  ---------------------------------------------------
  free energy    TOTEN  =      -223.90116823 eV

  energy without entropy =     -223.90116823  energy(sigma->0) =     -223.90116823


--------------------------------------------------------------------------------------------------------




--------------------------------------- Iteration      1(  17)  ---------------------------------------


    POTLOK:  cpu time      0.0362: real time      0.0369
    SETDIJ:  cpu time      0.0304: real time      0.0305
     EDDAV:  cpu time      6.5475: real time      6.5823
       DOS:  cpu time      0.0004: real time      0.0004
    CHARGE:  cpu time      0.2668: real time      0.2681
    MIXING:  cpu time      0.0016: real time      0.0016
    --------------------------------------------
      LOOP:  cpu time      6.8829: real time      6.9198

 eigenvalue-minimisations  :  2784
 total energy-change (2. order) : 0.2608431E-07  (-0.6786093E-09)
 number of electron     448.0000022 magnetization 
 augmentation part      112.8478535 magnetization 

 Broyden mixing:
  rms(total) = 0.18347E-04    rms(broyden)= 0.17691E-04
  rms(prec ) = 0.24768E-04
  weight for this iteration     100.00

 eigenvalues of (default mixing * dielectric matrix)
  average eigenvalue GAMMA=   1.6040
  3.1641  2.8704  2.1690  2.1690  1.3263  1.3263  1.2251  1.2251  0.9559  0.8782
  0.9691  0.9691

 Free energy of the ion-electron system (eV)
  ---------------------------------------------------
  alpha Z        PSCENC =       751.52672365
  Ewald energy   TEWEN  =    -22871.40103513
  -Hartree energ DENC   =     -9078.10028329
  -exchange      EXHF   =         0.00000000
  -V(xc)+E(xc)   XCENC  =      1472.51285607
  PAW double counting   =     29498.25972456   -32317.62369097
  entropy T*S    EENTRO =        -0.00000000
  eigenvalues    EBANDS =     -5211.25493302
  atomic energy  EATOM  =     37532.17946992
  Solvation  Ediel_sol  =         0.00000000
  ---------------------------------------------------
  free energy    TOTEN  =      -223.90116821 eV

  energy without entropy =     -223.90116821  energy(sigma->0) =     -223.90116821


--------------------------------------------------------------------------------------------------------




--------------------------------------- Iteration      1(  18)  ---------------------------------------


    POTLOK:  cpu time      0.0361: real time      0.0363
    SETDIJ:  cpu time      0.0308: real time      0.0309
     EDDAV:  cpu time      6.4366: real time      6.4711
       DOS:  cpu time      0.0004: real time      0.0004
    CHARGE:  cpu time      0.2719: real time      0.2732
    MIXING:  cpu time      0.0013: real time      0.0013
    --------------------------------------------
      LOOP:  cpu time      6.7770: real time      6.8133

 eigenvalue-minimisations  :  2720
 total energy-change (2. order) :-0.9654468E-07  (-0.9578809E-09)
 number of electron     448.0000022 magnetization 
 augmentation part      112.8478642 magnetization 

 Broyden mixing:
  rms(total) = 0.44859E-04    rms(broyden)= 0.44595E-04
  rms(prec ) = 0.46785E-04
  weight for this iteration     100.00

 eigenvalues of (default mixing * dielectric matrix)
  average eigenvalue GAMMA=   1.5502
  3.1856  2.8980  2.3001  2.3001  1.1080  1.1080  1.2700  1.1679  1.1679  1.0769
  0.9666  0.8733  0.7308

 Free energy of the ion-electron system (eV)
  ---------------------------------------------------
  alpha Z        PSCENC =       751.52672365
  Ewald energy   TEWEN  =    -22871.40103513
  -Hartree energ DENC   =     -9078.10341980
  -exchange      EXHF   =         0.00000000
  -V(xc)+E(xc)   XCENC  =      1472.51298155
  PAW double counting   =     29498.14839524   -32317.51229206
  entropy T*S    EENTRO =        -0.00000000
  eigenvalues    EBANDS =     -5211.25199169
  atomic energy  EATOM  =     37532.17946992
  Solvation  Ediel_sol  =         0.00000000
  ---------------------------------------------------
  free energy    TOTEN  =      -223.90116830 eV

  energy without entropy =     -223.90116830  energy(sigma->0) =     -223.90116830


--------------------------------------------------------------------------------------------------------




--------------------------------------- Iteration      1(  19)  ---------------------------------------


    POTLOK:  cpu time      0.0361: real time      0.0404
    SETDIJ:  cpu time      0.0304: real time      0.0306
     EDDAV:  cpu time      5.7371: real time      5.7674
       DOS:  cpu time      0.0005: real time      0.0005
    CHARGE:  cpu time      0.2684: real time      0.2696
    MIXING:  cpu time      0.0025: real time      0.0025
    --------------------------------------------
      LOOP:  cpu time      6.0751: real time      6.1110

 eigenvalue-minimisations  :  2304
 total energy-change (2. order) : 0.2458546E-07  (-0.6568211E-09)
 number of electron     448.0000022 magnetization 
 augmentation part      112.8478656 magnetization 

 Broyden mixing:
  rms(total) = 0.36022E-04    rms(broyden)= 0.35693E-04
  rms(prec ) = 0.37314E-04
  weight for this iteration     100.00

 eigenvalues of (default mixing * dielectric matrix)
  average eigenvalue GAMMA=   1.5954
  3.3319  2.9287  2.4149  2.4149  1.4356  1.4356  1.2147  1.2147  1.2728  1.0585
  0.9825  0.8456  0.8925  0.8925

 Free energy of the ion-electron system (eV)
  ---------------------------------------------------
  alpha Z        PSCENC =       751.52672365
  Ewald energy   TEWEN  =    -22871.40103513
  -Hartree energ DENC   =     -9078.10338191
  -exchange      EXHF   =         0.00000000
  -V(xc)+E(xc)   XCENC  =      1472.51298319
  PAW double counting   =     29498.17507694   -32317.53893769
  entropy T*S    EENTRO =        -0.00000000
  eigenvalues    EBANDS =     -5211.25206726
  atomic energy  EATOM  =     37532.17946992
  Solvation  Ediel_sol  =         0.00000000
  ---------------------------------------------------
  free energy    TOTEN  =      -223.90116828 eV

  energy without entropy =     -223.90116828  energy(sigma->0) =     -223.90116828


--------------------------------------------------------------------------------------------------------




--------------------------------------- Iteration      1(  20)  ---------------------------------------


    POTLOK:  cpu time      0.0359: real time      0.0361
    SETDIJ:  cpu time      0.0302: real time      0.0303
     EDDAV:  cpu time      5.9970: real time      6.0285
       DOS:  cpu time      0.0005: real time      0.0005
    CHARGE:  cpu time      0.2718: real time      0.2732
    MIXING:  cpu time      0.0024: real time      0.0024
    --------------------------------------------
      LOOP:  cpu time      6.3378: real time      6.3711

 eigenvalue-minimisations  :  2464
 total energy-change (2. order) : 0.3562309E-07  (-0.2195930E-09)
 number of electron     448.0000022 magnetization 
 augmentation part      112.8478628 magnetization 

 Broyden mixing:
  rms(total) = 0.25914E-04    rms(broyden)= 0.25455E-04
  rms(prec ) = 0.26256E-04
  weight for this iteration     100.00

 eigenvalues of (default mixing * dielectric matrix)
  average eigenvalue GAMMA=   1.6268
  3.7543  2.9893  2.6831  2.3920  1.7234  1.3565  1.3565  1.2545  1.2545  1.0644
  1.0644  0.9685  0.9685  0.8089  0.7628

 Free energy of the ion-electron system (eV)
  ---------------------------------------------------
  alpha Z        PSCENC =       751.52672365
  Ewald energy   TEWEN  =    -22871.40103513
  -Hartree energ DENC   =     -9078.10267649
  -exchange      EXHF   =         0.00000000
  -V(xc)+E(xc)   XCENC  =      1472.51294477
  PAW double counting   =     29498.19205895   -32317.55587433
  entropy T*S    EENTRO =        -0.00000000
  eigenvalues    EBANDS =     -5211.25277959
  atomic energy  EATOM  =     37532.17946992
  Solvation  Ediel_sol  =         0.00000000
  ---------------------------------------------------
  free energy    TOTEN  =      -223.90116824 eV

  energy without entropy =     -223.90116824  energy(sigma->0) =     -223.90116824


--------------------------------------------------------------------------------------------------------




--------------------------------------- Iteration      1(  21)  ---------------------------------------


    POTLOK:  cpu time      0.0357: real time      0.0360
    SETDIJ:  cpu time      0.0300: real time      0.0302
     EDDAV:  cpu time      5.6746: real time      5.7047
       DOS:  cpu time      0.0002: real time      0.0002
    CHARGE:  cpu time      0.2717: real time      0.2732
    MIXING:  cpu time      0.0018: real time      0.0018
    --------------------------------------------
      LOOP:  cpu time      6.0141: real time      6.0460

 eigenvalue-minimisations  :  2272
 total energy-change (2. order) : 0.4663889E-07  (-0.1979167E-09)
 number of electron     448.0000022 magnetization 
 augmentation part      112.8478587 magnetization 

 Broyden mixing:
  rms(total) = 0.91159E-05    rms(broyden)= 0.77151E-05
  rms(prec ) = 0.81946E-05
  weight for this iteration     100.00
  WARNING: grid for Broyden might be to small

 eigenvalues of (default mixing * dielectric matrix)
  average eigenvalue GAMMA=   1.5900
  3.9632  3.0062  2.7747  2.3542  1.5690  1.5690  1.1901  1.1901  1.2551  1.0480
  1.0480  0.9642  0.9642  0.8026  0.8707  0.8707

 Free energy of the ion-electron system (eV)
  ---------------------------------------------------
  alpha Z        PSCENC =       751.52672365
  Ewald energy   TEWEN  =    -22871.40103513
  -Hartree energ DENC   =     -9078.10169592
  -exchange      EXHF   =         0.00000000
  -V(xc)+E(xc)   XCENC  =      1472.51290005
  PAW double counting   =     29498.23248325   -32317.59626605
  entropy T*S    EENTRO =        -0.00000000
  eigenvalues    EBANDS =     -5211.25374797
  atomic energy  EATOM  =     37532.17946992
  Solvation  Ediel_sol  =         0.00000000
  ---------------------------------------------------
  free energy    TOTEN  =      -223.90116820 eV

  energy without entropy =     -223.90116820  energy(sigma->0) =     -223.90116820


--------------------------------------------------------------------------------------------------------




--------------------------------------- Iteration      1(  22)  ---------------------------------------


    POTLOK:  cpu time      0.0360: real time      0.0363
    SETDIJ:  cpu time      0.0306: real time      0.0307
     EDDAV:  cpu time      5.7313: real time      5.7615
       DOS:  cpu time      0.0002: real time      0.0002
    --------------------------------------------
      LOOP:  cpu time      5.7981: real time      5.8287

 eigenvalue-minimisations  :  2304
 total energy-change (2. order) : 0.2328306E-08  (-0.1063494E-09)
 number of electron     448.0000022 magnetization 
 augmentation part      112.8478587 magnetization 

 Free energy of the ion-electron system (eV)
  ---------------------------------------------------
  alpha Z        PSCENC =       751.52672365
  Ewald energy   TEWEN  =    -22871.40103513
[...]
         0         1         2         3         4         5         6         7         8         9
 total charge-density along one line
 
 pseudopotential strength for first ion, spin component:           1
-25.405  -0.000  -0.000   2.518   0.000   0.000   0.000   0.000
 -0.000 -25.405  -0.000   0.000   2.518   0.000   0.000   0.000
 -0.000  -0.000 -25.406   0.000   0.000   2.519   0.000   0.001
  2.518   0.000   0.000   6.525   0.000   0.000  -0.000   0.000
  0.000   2.518   0.000   0.000   6.525   0.000  -0.000   0.000
  0.000   0.000   2.519   0.000   0.000   6.525   0.000   0.000
  0.000   0.000   0.000  -0.000  -0.000   0.000   1.428   6.994
  0.000   0.000   0.001   0.000   0.000   0.000   6.994  33.992
 total augmentation occupancy for first ion, spin component:           1
  2.002   0.000   0.000   0.002   0.000   0.000   0.000   0.000
  0.000   2.002   0.000   0.000   0.002   0.000  -0.000   0.000
  0.000   0.000   2.002   0.000  -0.000   0.002  -0.001   0.000
  0.002   0.000   0.000   0.017   0.000  -0.000   0.000   0.000
  0.000   0.002  -0.000   0.000   0.017   0.000  -0.000   0.000
  0.000   0.000   0.002  -0.000   0.000   0.017   0.001  -0.000
  0.000  -0.000  -0.001   0.000  -0.000   0.001   0.399  -0.001
  0.000   0.000   0.000   0.000   0.000  -0.000  -0.001   0.000


------------------------ aborting loop because EDIFF is reached ----------------------------------------


    CHARGE:  cpu time      0.2680: real time      0.2694
    FORLOC:  cpu time      0.0115: real time      0.0116
    FORNL :  cpu time      1.7540: real time      1.7645
    STRESS:  cpu time      9.8454: real time      9.8965
    FORCOR:  cpu time      0.0433: real time      0.0436
    FORHAR:  cpu time      0.0171: real time      0.0171
    MIXING:  cpu time      0.0013: real time      0.0014
    OFIELD:  cpu time      0.0000: real time      0.0000

  FORCE on cell =-STRESS in cart. coord.  units (eV):
  Direction    XX          YY          ZZ          XY          YZ          ZX
  --------------------------------------------------------------------------------------
  Alpha Z   751.52672   751.52672   751.52672
  Ewald   -7623.68456 -7623.92691 -7623.92691     0.00000     0.00000     0.00000
  Hartree  3026.10560  3025.99808  3025.99808    -0.00000    -0.00000    -0.00000
  E(xc)   -2014.34743 -2014.34757 -2014.34757    -0.00000    -0.00000     0.00000
  Local   -2025.07873 -2024.73477 -2024.73477    -0.00000    -0.00000    -0.00000
  n-local  1887.62597  1887.51861  1887.72092    -0.00000     0.00000     0.00000
  augment   687.00939   687.00948   687.00917    -0.00000    -0.00010    -0.00010
  Kinetic  5310.52070  5310.26772  5310.77840    -0.00000     0.00000     0.00000
  Fock        0.00000     0.00000     0.00000     0.00000     0.00000     0.00000
  -------------------------------------------------------------------------------------
  Total      -0.32233    -0.33229    -0.33229     0.00000    -0.00000     0.00000
  in kB      -0.36719    -0.37854    -0.37854     0.00000    -0.00000     0.00000
  external pressure =       -0.37 kB  Pullay stress =        0.00 kB


 VOLUME and BASIS-vectors are now :
 -----------------------------------------------------------------------------
  energy-cutoff  :      341.21
  volume of cell :     1406.43
      direct lattice vectors                 reciprocal lattice vectors
    11.204002360  0.000000000  0.000000000     0.089253819  0.000000000  0.000000000
     0.000000000 11.204002360  0.000000000     0.000000000  0.089253819  0.000000000
     0.000000000  0.000000000 11.204002360     0.000000000  0.000000000  0.089253819

  length of vectors
    11.204002360 11.204002360 11.204002360     0.089253819  0.089253819  0.089253819


 FORCES acting on ions
    electron-ion (+dipol)            ewald-force                    non-local-force                 convergence-correction
 -----------------------------------------------------------------------------------------------
   0.184E+01 0.372E-13 -.590E-05   -.192E+01 -.310E-13 -.169E-13   0.282E-01 0.317E-22 -.284E-22   -.708E-05 -.499E-13 -.208E-12
   0.719E+00 -.430E+00 -.170E-08   -.672E+00 0.463E+00 0.682E-14   -.405E-01 -.279E-01 0.179E-24   0.359E-06 0.165E-05 -.164E-12
   0.719E+00 0.339E-13 -.430E+00   -.672E+00 0.228E-13 0.463E+00   -.405E-01 0.665E-25 -.279E-01   0.359E-06 -.443E-13 0.165E-05
   0.235E+00 0.169E+00 0.169E+00   -.243E+00 -.162E+00 -.162E+00   0.698E-02 -.594E-02 -.594E-02   0.150E-06 0.173E-05 0.173E-05
   0.146E+00 0.347E-13 -.332E-07   -.145E+00 0.377E-13 0.180E-14   -.115E-02 -.200E-24 0.129E-25   0.457E-06 -.420E-13 -.159E-12
   0.106E+00 -.393E-01 0.134E-10   -.102E+00 0.388E-01 0.125E-13   -.263E-02 0.435E-03 -.799E-25   -.221E-05 0.432E-06 -.870E-13
   0.719E+00 0.286E-13 0.430E+00   -.672E+00 -.387E-14 -.463E+00   -.405E-01 -.346E-24 0.279E-01   0.359E-06 -.328E-13 -.165E-05
   0.235E+00 0.169E+00 -.169E+00   -.243E+00 -.162E+00 0.162E+00   0.698E-02 -.594E-02 0.594E-02   0.150E-06 0.173E-05 -.173E-05
   0.146E+00 0.775E-12 -.660E-09   -.145E+00 0.356E-14 0.131E-13   -.115E-02 0.125E-25 0.497E-25   0.457E-06 0.642E-14 -.214E-12
   0.719E+00 0.430E+00 -.170E-08   -.672E+00 -.463E+00 0.954E-14   -.405E-01 0.279E-01 0.199E-25   0.359E-06 -.165E-05 -.151E-12
   0.106E+00 0.844E-12 -.393E-01   -.102E+00 0.178E-14 0.388E-01   -.263E-02 0.252E-25 0.435E-03   -.221E-05 -.428E-15 0.432E-06
   0.235E+00 -.169E+00 0.169E+00   -.243E+00 0.162E+00 -.162E+00   0.698E-02 0.594E-02 -.594E-02   0.150E-06 -.173E-05 0.173E-05
   0.622E-01 0.777E-12 -.132E-10   -.647E-01 0.196E-13 0.160E-13   0.206E-02 0.534E-25 0.714E-25   0.580E-07 0.104E-14 -.143E-12
   0.106E+00 0.393E-01 0.135E-10   -.102E+00 -.388E-01 0.125E-13   -.263E-02 -.435E-03 -.833E-27   -.221E-05 -.432E-06 -.111E-12
   0.106E+00 0.579E-12 0.393E-01   -.102E+00 -.520E-17 -.388E-01   -.263E-02 -.372E-25 -.435E-03   -.221E-05 -.124E-13 -.432E-06
   0.235E+00 -.169E+00 -.169E+00   -.243E+00 0.162E+00 0.162E+00   0.698E-02 0.594E-02 0.594E-02   0.150E-06 -.173E-05 -.173E-05
   -.263E+01 0.412E-13 0.588E-05   0.257E+01 0.159E-13 -.153E-13   0.867E-01 0.306E-22 -.487E-22   0.427E-05 -.561E-13 -.146E-12
   -.545E+00 0.436E+00 -.170E-08   0.531E+00 -.469E+00 0.599E-14   0.125E-01 0.268E-01 -.150E-24   0.523E-06 -.200E-05 -.150E-12
   -.545E+00 0.374E-13 0.436E+00   0.531E+00 0.198E-13 -.469E+00   0.125E-01 0.291E-25 0.268E-01   0.523E-06 -.758E-13 -.200E-05
   -.229E+00 -.169E+00 -.169E+00   0.235E+00 0.161E+00 0.161E+00   -.511E-02 0.604E-02 0.604E-02   -.128E-05 -.990E-06 -.990E-06
   -.142E+00 0.328E-13 -.332E-07   0.144E+00 0.289E-13 0.160E-13   -.214E-02 -.719E-25 0.555E-25   -.199E-05 -.489E-13 -.157E-12
   -.106E+00 0.393E-01 0.180E-10   0.102E+00 -.388E-01 0.891E-14   0.298E-02 -.397E-03 -.117E-24   0.348E-05 -.339E-06 -.885E-13
   -.545E+00 0.496E-13 -.436E+00   0.531E+00 -.629E-14 0.469E+00   0.125E-01 0.394E-24 -.268E-01   0.523E-06 -.642E-13 0.200E-05
   -.229E+00 -.169E+00 0.169E+00   0.235E+00 0.161E+00 -.161E+00   -.511E-02 0.604E-02 -.604E-02   -.128E-05 -.990E-06 0.990E-06
   -.142E+00 0.723E-12 -.660E-09   0.144E+00 0.574E-17 -.162E-13   -.214E-02 0.103E-24 -.140E-24   -.199E-05 0.229E-14 -.201E-12
   -.545E+00 -.436E+00 -.170E-08   0.531E+00 0.469E+00 0.194E-13   0.125E-01 -.268E-01 -.163E-24   0.523E-06 0.200E-05 -.130E-12
   -.106E+00 0.239E-11 0.393E-01   0.102E+00 -.180E-14 -.388E-01   0.298E-02 0.449E-25 -.397E-03   0.348E-05 0.163E-13 -.339E-06
   -.229E+00 0.169E+00 -.169E+00   0.235E+00 -.161E+00 0.161E+00   -.511E-02 -.604E-02 0.604E-02   -.128E-05 0.990E-06 -.990E-06
   -.622E-01 0.852E-12 -.139E-10   0.647E-01 0.142E-13 0.142E-13   -.205E-02 -.148E-25 -.431E-25   -.859E-06 -.746E-14 -.128E-12
   -.106E+00 -.393E-01 0.257E-10   0.102E+00 0.388E-01 0.892E-14   0.298E-02 0.397E-03 -.338E-25   0.348E-05 0.339E-06 -.106E-12
   -.106E+00 0.663E-11 -.393E-01   0.102E+00 -.352E-14 0.388E-01   0.298E-02 0.879E-25 0.397E-03   0.348E-05 -.404E-14 0.339E-06
   -.229E+00 0.169E+00 0.169E+00   0.235E+00 -.161E+00 -.161E+00   -.511E-02 -.604E-02 -.604E-02   -.128E-05 0.990E-06 0.990E-06
   0.251E+00 -.156E+00 -.156E+00   -.247E+00 0.158E+00 0.158E+00   -.643E-02 -.336E-02 -.336E-02   0.149E-05 0.103E-05 0.103E-05
   0.651E+00 -.829E-13 0.493E+00   -.668E+00 -.685E-14 -.485E+00   0.258E-01 -.223E-24 -.138E-01   -.264E-05 -.685E-13 0.298E-06
   0.651E+00 0.493E+00 -.252E-11   -.668E+00 -.485E+00 0.869E-14   0.258E-01 -.138E-01 0.164E-24   -.264E-05 0.298E-06 -.145E-12
   0.204E+01 -.801E-13 -.231E-05   -.198E+01 0.424E-13 0.347E-13   -.119E+00 0.104E-23 0.460E-24   0.286E-05 -.632E-13 -.122E-12
   0.251E+00 -.156E+00 0.156E+00   -.247E+00 0.158E+00 -.158E+00   -.643E-02 -.336E-02 0.336E-02   0.149E-05 0.103E-05 -.103E-05
   0.651E+00 -.855E-13 -.493E+00   -.668E+00 0.160E-14 0.485E+00   0.258E-01 -.669E-24 0.138E-01   -.264E-05 -.534E-13 -.298E-06
   0.998E-01 0.403E-01 -.566E-12   -.101E+00 -.395E-01 -.354E-14   0.144E-02 -.140E-02 0.797E-26   -.113E-05 0.262E-05 -.624E-13
   0.149E+00 -.816E-13 0.755E-08   -.147E+00 -.178E-13 0.623E-14   -.346E-02 0.803E-25 -.254E-25   0.256E-05 -.553E-13 -.716E-13
   0.251E+00 0.156E+00 -.156E+00   -.247E+00 -.158E+00 0.158E+00   -.643E-02 0.336E-02 -.336E-02   0.149E-05 -.103E-05 0.103E-05
   0.998E-01 -.438E-14 0.403E-01   -.101E+00 -.708E-14 -.395E-01   0.144E-02 -.363E-24 -.140E-02   -.113E-05 0.117E-13 0.262E-05
   0.651E+00 -.493E+00 -.252E-11   -.668E+00 0.485E+00 0.237E-14   0.258E-01 0.138E-01 0.121E-24   -.264E-05 -.298E-06 -.126E-12
   0.149E+00 0.132E-13 -.764E-10   -.147E+00 -.622E-14 -.145E-13   -.346E-02 0.646E-26 0.150E-24   0.256E-05 -.142E-13 -.155E-12
   0.251E+00 0.156E+00 0.156E+00   -.247E+00 -.158E+00 -.158E+00   -.643E-02 0.336E-02 0.336E-02   0.149E-05 -.103E-05 -.103E-05
   0.998E-01 -.994E-13 -.403E-01   -.101E+00 0.222E-13 0.395E-01   0.144E-02 0.507E-25 0.140E-02   -.113E-05 -.202E-14 -.262E-05
   0.998E-01 -.403E-01 -.658E-12   -.101E+00 0.395E-01 -.266E-14   0.144E-02 0.140E-02 0.102E-24   -.113E-05 -.262E-05 -.757E-13
   0.666E-01 0.288E-13 -.475E-11   -.658E-01 -.711E-14 0.771E-17   -.130E-02 0.336E-24 0.299E-24   -.188E-05 -.203E-13 -.500E-13
   -.240E+00 0.156E+00 0.156E+00   0.238E+00 -.158E+00 -.158E+00   0.332E-02 0.325E-02 0.325E-02   -.147E-06 -.111E-05 -.111E-05
   -.529E+00 -.859E-13 -.488E+00   0.528E+00 0.750E-14 0.480E+00   0.219E-02 -.243E-24 0.140E-01   0.218E-05 -.658E-13 0.118E-05
   -.529E+00 -.488E+00 -.775E-12   0.528E+00 0.480E+00 0.104E-13   0.219E-02 0.140E-01 -.320E-24   0.218E-05 0.118E-05 -.151E-12
   -.250E+01 -.876E-13 0.233E-05   0.251E+01 -.546E-13 -.829E-14   0.122E-01 -.222E-23 0.125E-23   -.351E-06 -.714E-13 -.130E-12
   -.240E+00 0.156E+00 -.156E+00   0.238E+00 -.158E+00 0.158E+00   0.332E-02 0.325E-02 -.325E-02   -.147E-06 -.111E-05 0.111E-05
   -.529E+00 -.924E-13 0.488E+00   0.528E+00 -.290E-15 -.480E+00   0.219E-02 -.340E-24 -.140E-01   0.218E-05 -.418E-13 -.118E-05
   -.995E-01 -.403E-01 -.492E-11   0.101E+00 0.395E-01 -.355E-14   -.179E-02 0.144E-02 -.479E-24   -.830E-06 -.263E-05 -.635E-13
   -.150E+00 -.889E-13 0.756E-08   0.147E+00 -.115E-13 0.837E-17   0.532E-02 -.356E-25 -.151E-26   -.166E-05 -.626E-13 -.870E-13
   -.240E+00 -.156E+00 0.156E+00   0.238E+00 0.158E+00 -.158E+00   0.332E-02 -.325E-02 0.325E-02   -.147E-06 0.111E-05 -.111E-05
   -.995E-01 0.612E-12 -.403E-01   0.101E+00 -.708E-14 0.395E-01   -.179E-02 -.597E-25 0.144E-02   -.830E-06 -.374E-15 -.263E-05
   -.529E+00 0.488E+00 0.158E-12   0.528E+00 -.480E+00 0.734E-14   0.219E-02 -.140E-01 0.132E-24   0.218E-05 -.118E-05 -.123E-12
   -.150E+00 0.107E-10 -.861E-10   0.147E+00 -.364E-13 -.140E-13   0.532E-02 -.405E-26 0.615E-25   -.166E-05 0.137E-13 -.143E-12
   -.240E+00 -.156E+00 -.156E+00   0.238E+00 0.158E+00 0.158E+00   0.332E-02 -.325E-02 -.325E-02   -.147E-06 0.111E-05 0.111E-05
   -.995E-01 0.145E-11 0.403E-01   0.101E+00 0.178E-13 -.395E-01   -.179E-02 0.478E-24 -.144E-02   -.830E-06 -.242E-13 0.263E-05
   -.995E-01 0.403E-01 -.347E-11   0.101E+00 -.395E-01 -.416E-16   -.179E-02 -.144E-02 0.341E-24   -.830E-06 0.263E-05 -.821E-13
   -.666E-01 0.342E-11 -.590E-11   0.658E-01 -.213E-13 -.583E-16   0.134E-02 -.393E-25 0.299E-25   0.439E-05 0.347E-14 -.747E-13
 -----------------------------------------------------------------------------------------------
   0.114E-03 -.391E-11 -.162E-06   0.270E-12 -.688E-13 0.733E-13   0.514E-03 0.997E-17 -.390E-17   -.808E-07 -.915E-13 -.150E-11
 
 
 POSITION                                       TOTAL-FORCE (eV/Angst)
 -----------------------------------------------------------------------------------
      0.03000      0.00000      0.00000        -0.042680     -0.000000     -0.000000
      2.80100      2.80100      0.00000         0.006526      0.005828     -0.000000
      2.80100      0.00000      2.80100         0.006526     -0.000000      0.005828
      0.00000      2.80100      2.80100        -0.001895      0.001268      0.001268
      0.00000      0.00000      5.60200         0.000103     -0.000000     -0.000000
      2.80100      2.80100      5.60200         0.000576     -0.000079     -0.000000
      2.80100      0.00000      8.40300         0.006526     -0.000000     -0.005828
      0.00000      2.80100      8.40300        -0.001895      0.001268     -0.001268
      0.00000      5.60200      0.00000         0.000103     -0.000000     -0.000000
      2.80100      8.40300      0.00000         0.006526     -0.005828     -0.000000
      2.80100      5.60200      2.80100         0.000576     -0.000000     -0.000079
      0.00000      8.40300      2.80100        -0.001895     -0.001268      0.001268
      0.00000      5.60200      5.60200        -0.000455     -0.000000     -0.000000
      2.80100      8.40300      5.60200         0.000576      0.000079     -0.000000
      2.80100      5.60200      8.40300         0.000576     -0.000000      0.000079
      0.00000      8.40300      8.40300        -0.001895     -0.001268     -0.001268
      5.60200      0.00000      0.00000         0.029187     -0.000000     -0.000000
      8.40300      2.80100      0.00000        -0.001320     -0.005804     -0.000000
      8.40300      0.00000      2.80100        -0.001320     -0.000000     -0.005804
      5.60200      2.80100      2.80100         0.000952     -0.001290     -0.001290
      5.60200      0.00000      5.60200         0.000478     -0.000000     -0.000000
      8.40300      2.80100      5.60200        -0.000688      0.000071     -0.000000
      8.40300      0.00000      8.40300        -0.001320     -0.000000      0.005804
      5.60200      2.80100      8.40300         0.000952     -0.001290      0.001290
      5.60200      5.60200      0.00000         0.000478     -0.000000     -0.000000
      8.40300      8.40300      0.00000        -0.001320      0.005804     -0.000000
      8.40300      5.60200      2.80100        -0.000688     -0.000000      0.000071
      5.60200      8.40300      2.80100         0.000952      0.001290     -0.001290
      5.60200      5.60200      5.60200         0.000449     -0.000000     -0.000000
      8.40300      8.40300      5.60200        -0.000688     -0.000071     -0.000000
      8.40300      5.60200      8.40300        -0.000688     -0.000000     -0.000071
      5.60200      8.40300      8.40300         0.000952      0.001290      0.001290
      2.80100      2.80100      2.80100        -0.002552     -0.001331     -0.001331
      0.00000      0.00000      2.80100         0.008870     -0.000000     -0.005866
      0.00000      2.80100      0.00000         0.008870     -0.005866     -0.000000
      2.83100      0.00000      0.00000        -0.059920     -0.000000     -0.000000
      2.80100      2.80100      8.40300        -0.002552     -0.001331      0.001331
      0.00000      0.00000      8.40300         0.008870     -0.000000      0.005866
      0.00000      2.80100      5.60200         0.000562     -0.000558     -0.000000
      2.80100      0.00000      5.60200        -0.001375     -0.000000     -0.000000
      2.80100      8.40300      2.80100        -0.002552      0.001331     -0.001331
      0.00000      5.60200      2.80100         0.000562     -0.000000     -0.000558
      0.00000      8.40300      0.00000         0.008870      0.005866     -0.000000
      2.80100      5.60200      0.00000        -0.001375     -0.000000     -0.000000
      2.80100      8.40300      8.40300        -0.002552      0.001331      0.001331
      0.00000      5.60200      8.40300         0.000562     -0.000000      0.000558
      0.00000      8.40300      5.60200         0.000562      0.000558     -0.000000
      2.80100      5.60200      5.60200        -0.000519     -0.000000     -0.000000
      8.40300      2.80100      2.80100         0.001306      0.001286      0.001286
      5.60200      0.00000      2.80100         0.001082     -0.000000      0.005857
      5.60200      2.80100      0.00000         0.001082      0.005857     -0.000000
      8.40300      0.00000      0.00000         0.020019     -0.000000     -0.000000
      8.40300      2.80100      8.40300         0.001306      0.001286     -0.001286
      5.60200      0.00000      8.40300         0.001082     -0.000000     -0.005857
      5.60200      2.80100      5.60200        -0.000721      0.000573     -0.000000
      8.40300      0.00000      5.60200         0.002099     -0.000000     -0.000000
      8.40300      8.40300      2.80100         0.001306     -0.001286      0.001286
      5.60200      5.60200      2.80100        -0.000721     -0.000000      0.000573
      5.60200      8.40300      0.00000         0.001082     -0.005857     -0.000000
      8.40300      5.60200      0.00000         0.002099     -0.000000     -0.000000
      8.40300      8.40300      8.40300         0.001306     -0.001286     -0.001286
      5.60200      5.60200      8.40300        -0.000721     -0.000000     -0.000573
      5.60200      8.40300      5.60200        -0.000721     -0.000573     -0.000000
      8.40300      5.60200      5.60200         0.000518     -0.000000     -0.000000
 -----------------------------------------------------------------------------------
    total drift:                                0.000628     -0.000000     -0.000000


--------------------------------------------------------------------------------------------------------



  FREE ENERGIE OF THE ION-ELECTRON SYSTEM (eV)
  ---------------------------------------------------
  free  energy   TOTEN  =      -223.90116820 eV

  energy  without entropy=     -223.90116820  energy(sigma->0) =     -223.90116820
 


--------------------------------------------------------------------------------------------------------


    POTLOK:  cpu time      0.0691: real time      0.0695


--------------------------------------------------------------------------------------------------------


     LOOP+:  cpu time    195.2975: real time    196.3754
    4ORBIT:  cpu time      0.0000: real time      0.0000

 total amount of memory used by VASP MPI-rank0   118439. kBytes
=======================================================================

   base      :      30000. kBytes
   nonl-proj :      36470. kBytes
   fftplans  :      14405. kBytes
   grid      :      19342. kBytes
   one-center:        196. kBytes
   wavefun   :      18026. kBytes
 
  
  
 General timing and accounting informations for this job:
 ========================================================
  
                  Total CPU time used (sec):      198.832
                            User time (sec):      198.250
                          System time (sec):        0.581
                         Elapsed time (sec):      200.341
  
                   Maximum memory used (kb):      311176.
                   Average memory used (kb):          N/A
  
                          Minor page faults:       123821
                          Major page faults:            0
                 Voluntary context switches:          876
