<?xml version="1.0" encoding="ISO-8859-1"?>
<modeling>
 <generator>
  <i name="program" type="string">vasp </i>
  <i name="version" type="string">6.3.2  </i>
  <i name="subversion" type="string">27Jun22 (build Oct 14 2022 12:13:54) complex                          parallel </i>
  <i name="platform" type="string">LinuxIFC </i>
  <i name="date" type="string">2025 08 28 </i>
  <i name="time" type="string">22:05:39 </i>
 </generator>
 <incar>
  <i type="string" name="PREC">Accurate</i>
  <i type="int" name="IALGO">    38</i>
  <i type="logical" name="ADDGRID"> T  </i>
  <i type="int" name="NELMIN">     5</i>
  <i type="int" name="IBRION">    -1</i>
  <i name="EDIFF">      0.00000001</i>
  <i name="ENCUT">    341.21360000</i>
  <i type="logical" name="LREAL"> F  </i>
  <i type="int" name="ISMEAR">     0</i>
  <i name="SIGMA">      0.02000000</i>
  <i type="logical" name="LWAVE"> F  </i>
  <i type="logical" name="LCHARG"> F  </i>
  <i type="string" name="GGA">PS</i>
 </incar>
 <primitive_cell>
  <structure name="primitive_cell" >
   <crystal>
    <varray name="basis" >
     <v>      11.20400236       0.00000000       0.00000000 </v>
     <v>       0.00000000      11.20400236       0.00000000 </v>
     <v>       0.00000000       0.00000000      11.20400236 </v>
    </varray>
    <i name="volume">   1406.43470641 </i>
    <varray name="rec_basis" >
     <v>       0.08925382       0.00000000       0.00000000 </v>
     <v>       0.00000000       0.08925382       0.00000000 </v>
     <v>       0.00000000       0.00000000       0.08925382 </v>
    </varray>
   </crystal>
   <varray name="positions" >
    <v>       0.00267761       0.00000000       0.00000000 </v>
    <v>       0.25000000       0.25000000       0.00000000 </v>
    <v>       0.25000000       0.00000000       0.25000000 </v>
    <v>       0.00000000       0.25000000       0.25000000 </v>
    <v>       0.00000000       0.00000000       0.50000000 </v>
    <v>       0.25000000       0.25000000       0.50000000 </v>
    <v>       0.25000000       0.00000000       0.75000000 </v>
    <v>       0.00000000       0.25000000       0.75000000 </v>
    <v>       0.00000000       0.50000000       0.00000000 </v>
    <v>       0.25000000       0.75000000       0.00000000 </v>
    <v>       0.25000000       0.50000000       0.25000000 </v>
    <v>       0.00000000       0.75000000       0.25000000 </v>
    <v>       0.00000000       0.50000000       0.50000000 </v>
    <v>       0.25000000       0.75000000       0.50000000 </v>
    <v>       0.25000000       0.50000000       0.75000000 </v>
    <v>       0.00000000       0.75000000       0.75000000 </v>
    <v>       0.50000000       0.00000000       0.00000000 </v>
    <v>       0.75000000       0.25000000       0.00000000 </v>
    <v>       0.75000000       0.00000000       0.25000000 </v>
    <v>       0.50000000       0.25000000       0.25000000 </v>
    <v>       0.50000000       0.00000000       0.50000000 </v>
    <v>       0.75000000       0.25000000       0.50000000 </v>
    <v>       0.75000000       0.00000000       0.75000000 </v>
    <v>       0.50000000       0.25000000       0.75000000 </v>
    <v>       0.50000000       0.50000000       0.00000000 </v>
    <v>       0.75000000       0.75000000       0.00000000 </v>
    <v>       0.75000000       0.50000000       0.25000000 </v>
    <v>       0.50000000       0.75000000       0.25000000 </v>
    <v>       0.50000000       0.50000000       0.50000000 </v>
    <v>       0.75000000       0.75000000       0.50000000 </v>
    <v>       0.75000000       0.50000000       0.75000000 </v>
    <v>       0.50000000       0.75000000       0.75000000 </v>
    <v>       0.25000000       0.25000000       0.25000000 </v>
    <v>       0.00000000       0.00000000       0.25000000 </v>
    <v>       0.00000000       0.25000000       0.00000000 </v>
    <v>       0.25267761       0.00000000       0.00000000 </v>
    <v>       0.25000000       0.25000000       0.75000000 </v>
    <v>       0.00000000       0.00000000       0.75000000 </v>
    <v>       0.00000000       0.25000000       0.50000000 </v>
    <v>       0.25000000       0.00000000       0.50000000 </v>
    <v>       0.25000000       0.75000000       0.25000000 </v>
    <v>       0.00000000       0.50000000       0.25000000 </v>
    <v>       0.00000000       0.75000000       0.00000000 </v>
    <v>       0.25000000       0.50000000       0.00000000 </v>
    <v>       0.25000000       0.75000000       0.75000000 </v>
    <v>       0.00000000       0.50000000       0.75000000 </v>
    <v>       0.00000000       0.75000000       0.50000000 </v>
    <v>       0.25000000       0.50000000       0.50000000 </v>
    <v>       0.75000000       0.25000000       0.25000000 </v>
    <v>       0.50000000       0.00000000       0.25000000 </v>
    <v>       0.50000000       0.25000000       0.00000000 </v>
    <v>       0.75000000       0.00000000       0.00000000 </v>
    <v>       0.75000000       0.25000000       0.75000000 </v>
    <v>       0.50000000       0.00000000       0.75000000 </v>
    <v>       0.50000000       0.25000000       0.50000000 </v>
    <v>       0.75000000       0.00000000       0.50000000 </v>
    <v>       0.75000000       0.75000000       0.25000000 </v>
    <v>       0.50000000       0.50000000       0.25000000 </v>
    <v>       0.50000000       0.75000000       0.00000000 </v>
    <v>       0.75000000       0.50000000       0.00000000 </v>
    <v>       0.75000000       0.75000000       0.75000000 </v>
    <v>       0.50000000       0.50000000       0.75000000 </v>
    <v>       0.50000000       0.75000000       0.50000000 </v>
    <v>       0.75000000       0.50000000       0.50000000 </v>
   </varray>
  </structure>
  <varray name="primitive_index" >
   <v type="int" >        1 </v>
   <v type="int" >        2 </v>
   <v type="int" >        3 </v>
   <v type="int" >        4 </v>
   <v type="int" >        5 </v>
   <v type="int" >        6 </v>
   <v type="int" >        7 </v>
   <v type="int" >        8 </v>
   <v type="int" >        9 </v>
   <v type="int" >       10 </v>
   <v type="int" >       11 </v>
   <v type="int" >       12 </v>
   <v type="int" >       13 </v>
   <v type="int" >       14 </v>
   <v type="int" >       15 </v>
   <v type="int" >       16 </v>
   <v type="int" >       17 </v>
   <v type="int" >       18 </v>
   <v type="int" >       19 </v>
   <v type="int" >       20 </v>
   <v type="int" >       21 </v>
   <v type="int" >       22 </v>
   <v type="int" >       23 </v>
   <v type="int" >       24 </v>
   <v type="int" >       25 </v>
   <v type="int" >       26 </v>
   <v type="int" >       27 </v>
   <v type="int" >       28 </v>
   <v type="int" >       29 </v>
   <v type="int" >       30 </v>
   <v type="int" >       31 </v>
   <v type="int" >       32 </v>
   <v type="int" >       33 </v>
   <v type="int" >       34 </v>
   <v type="int" >       35 </v>
   <v type="int" >       36 </v>
   <v type="int" >       37 </v>
   <v type="int" >       38 </v>
   <v type="int" >       39 </v>
   <v type="int" >       40 </v>
   <v type="int" >       41 </v>
   <v type="int" >       42 </v>
   <v type="int" >       43 </v>
   <v type="int" >       44 </v>
   <v type="int" >       45 </v>
   <v type="int" >       46 </v>
   <v type="int" >       47 </v>
   <v type="int" >       48 </v>
   <v type="int" >       49 </v>
   <v type="int" >       50 </v>
   <v type="int" >       51 </v>
   <v type="int" >       52 </v>
   <v type="int" >       53 </v>
   <v type="int" >       54 </v>
   <v type="int" >       55 </v>
   <v type="int" >       56 </v>
   <v type="int" >       57 </v>
   <v type="int" >       58 </v>
   <v type="int" >       59 </v>
   <v type="int" >       60 </v>
   <v type="int" >       61 </v>
   <v type="int" >       62 </v>
   <v type="int" >       63 </v>
   <v type="int" >       64 </v>
  </varray>
 </primitive_cell>
 <kpoints>
  <generation param="Gamma">
   <v type="int" name="divisions">       2        2        2 </v>
   <v name="usershift">      0.00000000       0.00000000       0.00000000 </v>
   <v name="genvec1">      0.50000000       0.00000000       0.00000000 </v>
   <v name="genvec2">      0.00000000       0.50000000       0.00000000 </v>
   <v name="genvec3">      0.00000000       0.00000000       0.50000000 </v>
   <v name="shift">      0.00000000       0.00000000       0.00000000 </v>
  </generation>
  <varray name="kpointlist" >
   <v>       0.00000000       0.00000000       0.00000000 </v>
   <v>       0.50000000       0.00000000       0.00000000 </v>
   <v>       0.00000000       0.50000000       0.00000000 </v>
   <v>       0.50000000       0.50000000       0.00000000 </v>
   <v>       0.00000000       0.50000000       0.50000000 </v>
   <v>       0.50000000       0.50000000       0.50000000 </v>
  </varray>
  <varray name="weights" >
   <v>       0.12500000 </v>
   <v>       0.12500000 </v>
   <v>       0.25000000 </v>
   <v>       0.25000000 </v>
   <v>       0.12500000 </v>
   <v>       0.12500000 </v>
  </varray>
 </kpoints>
 <parameters>
  <separator name="general" >
   <i type="string" name="SYSTEM">unknown system</i>
   <i type="logical" name="LCOMPAT"> F  </i>
  </separator>
  <separator name="electronic" >
   <i type="string" name="PREC">accura</i>
   <i name="ENMAX">    341.21360000</i>
   <i name="ENAUG">    368.05600000</i>
   <i name="EDIFF">      0.00000001</i>
   <i type="int" name="IALGO">    38</i>
   <i type="int" name="IWAVPR">    10</i>
   <i type="int" name="NBANDS">   288</i>
   <i type="int" name="NBANDSLOW">    -1</i>
   <i type="int" name="NBANDSHIGH">    -1</i>
   <i name="NELECT">    448.00000000</i>
   <i type="int" name="TURBO">     0</i>
   <i type="int" name="IRESTART">     0</i>
   <i type="int" name="NREBOOT">     0</i>
   <i type="int" name="NMIN">     0</i>
   <i name="EREF">      0.00000000</i>
   <separator name="electronic smearing" >
    <i type="int" name="ISMEAR">     0</i>
    <i name="SIGMA">      0.02000000</i>
    <i name="KSPACING">      0.50000000</i>
    <i type="logical" name="KGAMMA"> T  </i>
    <i type="logical" name="KBLOWUP"> T  </i>
   </separator>
   <separator name="electronic projectors" >
    <i type="logical" name="LREAL"> F  </i>
    <v name="ROPT">      0.00000000      0.00000000</v>
    <i type="int" name="LMAXPAW">  -100</i>
    <i type="int" name="LMAXMIX">     2</i>
    <i type="logical" name="NLSPLINE"> F  </i>
   </separator>
   <separator name="electronic startup" >
    <i type="int" name="ISTART">     0</i>
    <i type="int" name="ICHARG">     2</i>
    <i type="int" name="INIWAV">     1</i>
   </separator>
   <separator name="electronic spin" >
    <i type="int" name="ISPIN">     1</i>
    <i type="logical" name="LNONCOLLINEAR"> F  </i>
    <v name="MAGMOM">      1.00000000      1.00000000      1.00000000      1.00000000      1.00000000      1.00000000      1.00000000      1.00000000      1.00000000      1.00000000      1.00000000      1.00000000      1.00000000      1.00000000      1.00000000      1.00000000      1.00000000      1.00000000      1.00000000      1.00000000
      1.00000000      1.00000000      1.00000000      1.00000000      1.00000000      1.00000000      1.00000000      1.00000000      1.00000000      1.00000000      1.00000000      1.00000000      1.00000000      1.00000000      1.00000000      1.00000000      1.00000000      1.00000000      1.00000000      1.00000000
      1.00000000      1.00000000      1.00000000      1.00000000      1.00000000      1.00000000      1.00000000      1.00000000      1.00000000      1.00000000      1.00000000      1.00000000      1.00000000      1.00000000      1.00000000      1.00000000      1.00000000      1.00000000      1.00000000      1.00000000
      1.00000000      1.00000000      1.00000000      1.00000000</v>
    <i name="NUPDOWN">     -1.00000000</i>
    <i type="logical" name="LSORBIT"> F  </i>
    <v name="SAXIS">      0.00000000      0.00000000      1.00000000</v>
    <i type="logical" name="LSPIRAL"> F  </i>
    <v name="QSPIRAL">      0.00000000      0.00000000      0.00000000</v>
    <i type="logical" name="LZEROZ"> F  </i>
   </separator>
   <separator name="electronic exchange-correlation" >
    <i type="logical" name="LASPH"> F  </i>
    <i type="logical" name="LMETAGGA"> F  </i>
   </separator>
   <separator name="electronic convergence" >
    <i type="int" name="NELM">    60</i>
    <i type="int" name="NELMDL">    -5</i>
    <i type="int" name="NELMIN">     5</i>
    <i name="ENINI">    341.21360000</i>
    <separator name="electronic convergence detail" >
     <i type="logical" name="LDIAG"> T  </i>
     <i type="logical" name="LSUBROT"> F  </i>
     <i name="WEIMIN">      0.00000000</i>
     <i name="EBREAK">      0.00000000</i>
     <i name="DEPER">      0.30000000</i>
     <i type="int" name="NRMM">     4</i>
     <i name="TIME">      0.40000000</i>
    </separator>
   </separator>
   <separator name="electronic mixer" >
    <i name="AMIX">      0.40000000</i>
    <i name="BMIX">      1.00000000</i>
    <i name="AMIN">      0.10000000</i>
    <i name="AMIX_MAG">      1.60000000</i>
    <i name="BMIX_MAG">      1.00000000</i>
    <separator name="electronic mixer details" >
     <i type="int" name="IMIX">     4</i>
     <i type="logical" name="MIXFIRST"> F  </i>
     <i type="int" name="MAXMIX">   -45</i>
     <i name="WC">    100.00000000</i>
     <i type="int" name="INIMIX">     1</i>
     <i type="int" name="MIXPRE">     1</i>
     <i type="int" name="MREMOVE">     5</i>
    </separator>
   </separator>
   <separator name="electronic dipolcorrection" >
    <i type="logical" name="LDIPOL"> F  </i>
    <i type="logical" name="LMONO"> F  </i>
    <i type="int" name="IDIPOL">     0</i>
    <i name="EPSILON">      1.00000000</i>
    <v name="DIPOL">   -100.00000000   -100.00000000   -100.00000000</v>
    <i name="EFIELD">      0.00000000</i>
   </separator>
  </separator>
  <separator name="grids" >
   <i type="int" name="NGX">    70</i>
   <i type="int" name="NGY">    70</i>
   <i type="int" name="NGZ">    70</i>
   <i type="int" name="NGXF">   140</i>
   <i type="int" name="NGYF">   140</i>
   <i type="int" name="NGZF">   140</i>
   <i type="logical" name="ADDGRID"> T  </i>
  </separator>
  <separator name="ionic" >
   <i type="int" name="NSW">     0</i>
   <i type="int" name="IBRION">    -1</i>
   <i type="int" name="MDALGO">     0</i>
   <i type="int" name="ISIF">     2</i>
   <i name="PSTRESS">      0.00000000</i>
   <i name="EDIFFG">      0.00000010</i>
   <i type="int" name="NFREE">     0</i>
   <i name="POTIM">      0.50000000</i>
   <i name="SMASS">     -3.00000000</i>
   <i name="SCALEE">      1.00000000</i>
  </separator>
  <separator name="ionic md" >
   <i name="TEBEG">      0.00010000</i>
   <i name="TEEND">      0.00010000</i>
   <i type="int" name="NBLOCK">     1</i>
   <i type="int" name="KBLOCK">     1</i>
   <i type="int" name="NPACO">   256</i>
   <i name="APACO">     10.00000000</i>
  </separator>
  <separator name="symmetry" >
   <i type="int" name="ISYM">     2</i>
   <i name="SYMPREC">      0.00001000</i>
  </separator>
  <separator name="dos" >
   <i type="int" name="LORBIT">     0</i>
   <v name="RWIGS">     -1.00000000     -1.00000000</v>
   <i type="int" name="NEDOS">   301</i>
   <i name="EMIN">     10.00000000</i>
   <i name="EMAX">    -10.00000000</i>
   <i name="EFERMI">      0.00000000</i>
  </separator>
  <separator name="writing" >
   <i type="int" name="NWRITE">     2</i>
   <i type="logical" name="LWAVE"> F  </i>
   <i type="logical" name="LDOWNSAMPLE"> F  </i>
   <i type="logical" name="LCHARG"> F  </i>
   <i type="logical" name="LPARD"> F  </i>
   <i type="logical" name="LVTOT"> F  </i>
   <i type="logical" name="LVHAR"> F  </i>
   <i type="logical" name="LELF"> F  </i>
   <i type="logical" name="LOPTICS"> F  </i>
   <v name="STM">      0.00000000      0.00000000      0.00000000      0.00000000      0.00000000      0.00000000      0.00000000</v>
  </separator>
  <separator name="performance" >
   <i type="int" name="NPAR">    32</i>
   <i type="int" name="NSIM">     4</i>
   <i type="int" name="NBLK">    -1</i>
   <i type="logical" name="LPLANE"> T  </i>
   <i type="logical" name="LSCALAPACK"> T  </i>
   <i type="logical" name="LSCAAWARE"> F  </i>
   <i type="logical" name="LSCALU"> F  </i>
   <i type="logical" name="LASYNC"> F  </i>
   <i type="logical" name="LORBITALREAL"> F  </i>
  </separator>
  <separator name="miscellaneous" >
   <i type="int" name="IDIOT">     3</i>
   <i type="int" name="PHON_NSTRUCT">    -1</i>
   <i type="logical" name="LMUSIC"> F  </i>
   <v name="POMASS">     22.99000000     35.45300000</v>
   <v name="DARWINR">      0.00000000      0.00000000</v>
   <v name="DARWINV">      1.00000000      1.00000000</v>
   <i type="logical" name="LCORR"> T  </i>
  </separator>
  <i type="logical" name="GGA_COMPAT"> T  </i>
  <i type="logical" name="LBERRY"> F  </i>
  <i type="int" name="ICORELEVEL">     0</i>
  <i type="logical" name="LDAU"> F  </i>
  <i type="int" name="I_CONSTRAINED_M">     0</i>
  <separator name="electronic exchange-correlation" >
   <i type="string" name="GGA">PS</i>
   <i type="int" name="VOSKOWN">     0</i>
   <i type="logical" name="LHFCALC"> F  </i>
   <i type="string" name="PRECFOCK"></i>
   <i type="logical" name="LSYMGRAD"> F  </i>
   <i type="logical" name="LHFONE"> F  </i>
   <i type="logical" name="LRHFCALC"> F  </i>
   <i type="logical" name="LTHOMAS"> F  </i>
   <i type="logical" name="LMODELHF"> F  </i>
   <i type="logical" name="LFOCKACE"> F  </i>
   <i name="ENCUT4O">     -1.00000000</i>
   <i type="int" name="EXXOEP">     0</i>
   <i type="int" name="FOURORBIT">     0</i>
   <i name="AEXX">      0.00000000</i>
   <i name="HFALPHA">      0.00000000</i>
   <i name="MCALPHA">      0.00000000</i>
   <i name="ALDAX">      1.00000000</i>
   <i name="AGGAX">      1.00000000</i>
   <i name="ALDAC">      1.00000000</i>
   <i name="AGGAC">      1.00000000</i>
   <i type="int" name="NKREDX">     1</i>
   <i type="int" name="NKREDY">     1</i>
   <i type="int" name="NKREDZ">     1</i>
   <i type="logical" name="SHIFTRED"> F  </i>
   <i type="logical" name="ODDONLY"> F  </i>
   <i type="logical" name="EVENONLY"> F  </i>
   <i type="int" name="LMAXFOCK">     0</i>
   <i type="int" name="NMAXFOCKAE">     0</i>
   <i type="logical" name="LFOCKAEDFT"> F  </i>
   <i name="HFSCREEN">      0.00000000</i>
   <i name="HFSCREENC">      0.00000000</i>
   <i type="int" name="NBANDSGWLOW">     0</i>
  </separator>
  <separator name="vdW DFT" >
   <i type="logical" name="LUSE_VDW"> F  </i>
   <i name="Zab_VDW">     -0.84910000</i>
   <i name="PARAM1">      0.12340000</i>
   <i name="PARAM2">      1.00000000</i>
   <i name="PARAM3">      0.00000000</i>
  </separator>
  <separator name="model GW" >
   <i type="int" name="MODEL_GW">     0</i>
   <i name="MODEL_EPS0">     13.18532537</i>
   <i name="MODEL_ALPHA">      1.00000000</i>
  </separator>
  <separator name="linear response parameters" >
   <i type="logical" name="LEPSILON"> F  </i>
   <i type="logical" name="LRPA"> F  </i>
   <i type="logical" name="LNABLA"> F  </i>
   <i type="logical" name="LVEL"> F  </i>
   <i name="CSHIFT">      0.10000000</i>
   <i name="OMEGAMAX">     -1.00000000</i>
   <i name="DEG_THRESHOLD">      0.00200000</i>
   <i name="RTIME">     -0.10000000</i>
   <i name="WPLASMAI">      0.00000000</i>
   <v name="DFIELD">      0.00000000      0.00000000      0.00000000</v>
   <v name="WPLASMA">      0.00000000      0.00000000      0.00000000      0.00000000      0.00000000      0.00000000      0.00000000      0.00000000      0.00000000</v>
  </separator>
  <separator name="orbital magnetization" >
   <i type="logical" name="NUCIND"> F  </i>
   <v name="MAGPOS">      0.00000000      0.00000000      0.00000000</v>
   <i type="logical" name="LNICSALL"> T  </i>
   <i type="logical" name="ORBITALMAG"> F  </i>
   <i type="logical" name="LMAGBLOCH"> F  </i>
   <i type="logical" name="LCHIMAG"> F  </i>
   <i type="logical" name="LGAUGE"> T  </i>
   <i type="int" name="MAGATOM">     0</i>
   <v name="MAGDIPOL">      0.00000000      0.00000000      0.00000000</v>
   <v name="AVECCONST">      0.00000000      0.00000000      0.00000000</v>
  </separator>
  <separator name="response functions" >
   <i type="logical" name="LFINITE_TEMPERATURE"> F  </i>
   <i type="logical" name="LADDER"> F  </i>
   <i type="logical" name="LRPAFORCE"> F  </i>
   <i type="logical" name="LFXC"> F  </i>
   <i type="logical" name="LHARTREE"> T  </i>
   <i type="int" name="IBSE">     0</i>
   <v type="int" name="KPOINT">    -1     0     0     0</v>
   <i type="logical" name="LTCTC"> F  </i>
   <i type="logical" name="LTCTE"> F  </i>
   <i type="logical" name="LTETE"> F  </i>
   <i type="logical" name="LTRIPLET"> F  </i>
   <i type="logical" name="LFXCEPS"> F  </i>
   <i type="logical" name="LFXHEG"> F  </i>
   <i type="int" name="NATURALO">     2</i>
   <i type="logical" name="LHOLEGF"> F  </i>
   <i type="logical" name="L2ORDER"> F  </i>
   <i type="logical" name="LDMP1"> F  </i>
   <i type="logical" name="LMP2LT"> F  </i>
   <i type="logical" name="LSMP2LT"> F  </i>
   <i type="logical" name="LGWLF"> F  </i>
   <i name="ENCUTGW">     -2.00000000</i>
   <i name="ENCUTGWSOFT">     -2.00000000</i>
   <i name="ENCUTLF">     -1.00000000</i>
   <i type="logical" name="LESF_SPLINES"> F  </i>
   <i type="int" name="LMAXMP2">    -1</i>
   <i name="SCISSOR">      0.00000000</i>
   <i type="int" name="NOMEGA">     0</i>
   <i type="int" name="NOMEGAR">     0</i>
   <i type="int" name="NBANDSGW">    -1</i>
   <i type="int" name="NBANDSO">    -1</i>
   <i type="int" name="NBANDSV">    -1</i>
   <i type="int" name="NELMGW">     1</i>
   <i type="int" name="NELMHF">     1</i>
   <i type="int" name="DIM">     3</i>
   <i type="int" name="IESPILON">     4</i>
   <i type="int" name="ANTIRES">     0</i>
   <i name="OMEGAMAX">    -30.00000000</i>
   <i name="OMEGAMIN">    -30.00000000</i>
   <i name="OMEGATL">   -200.00000000</i>
   <i type="int" name="OMEGAGRID">     0</i>
   <i name="CSHIFT">     -0.10000000</i>
   <i type="logical" name="LSELFENERGY"> F  </i>
   <i type="logical" name="LSPECTRAL"> F  </i>
   <i type="logical" name="LSPECTRALGW"> F  </i>
   <i type="logical" name="LSINGLES"> F  </i>
   <i type="logical" name="LFERMIGW"> F  </i>
   <i type="logical" name="ODDONLYGW"> F  </i>
   <i type="logical" name="EVENONLYGW"> F  </i>
   <i type="int" name="NKREDLFX">     1</i>
   <i type="int" name="NKREDLFY">     1</i>
   <i type="int" name="NKREDLFZ">     1</i>
   <i type="int" name="MAXMEM">  2800</i>
   <i type="int" name="TELESCOPE">     0</i>
   <i type="int" name="NTAUPAR">    -1</i>
   <i type="int" name="NOMEGAPAR">    -1</i>
   <i name="DAMP_NEWTON">      0.80000001</i>
   <i name="LAMBDA">      1.00000000</i>
  </separator>
  <separator name="External order field" >
   <i name="OFIELD_KAPPA">      0.00000000</i>
   <v name="OFIELD_K">      0.00000000      0.00000000      0.00000000</v>
   <i name="OFIELD_Q6_NEAR">      0.00000000</i>
   <i name="OFIELD_Q6_FAR">      0.00000000</i>
   <i name="OFIELD_A">      0.00000000</i>
  </separator>
  <separator name="optional k-points parameters" >
   <i type="int" name="KPOINTS_OPT_MODE">     1</i>
   <i type="logical" name="LKPOINTS_OPT"> F  </i>
  </separator>
 </parameters>
 <atominfo>
  <atoms>      64 </atoms>
  <types>       2 </types>
  <array name="atoms" >
   <dimension dim="1">ion</dimension>
   <field type="string">element</field>
   <field type="int">atomtype</field>
   <set>
    <rc><c>Na</c><c>   1</c></rc>
    <rc><c>Na</c><c>   1</c></rc>
    <rc><c>Na</c><c>   1</c></rc>
    <rc><c>Na</c><c>   1</c></rc>
    <rc><c>Na</c><c>   1</c></rc>
    <rc><c>Na</c><c>   1</c></rc>
    <rc><c>Na</c><c>   1</c></rc>
    <rc><c>Na</c><c>   1</c></rc>
    <rc><c>Na</c><c>   1</c></rc>
    <rc><c>Na</c><c>   1</c></rc>
    <rc><c>Na</c><c>   1</c></rc>
    <rc><c>Na</c><c>   1</c></rc>
    <rc><c>Na</c><c>   1</c></rc>
    <rc><c>Na</c><c>   1</c></rc>
    <rc><c>Na</c><c>   1</c></rc>
    <rc><c>Na</c><c>   1</c></rc>
    <rc><c>Na</c><c>   1</c></rc>
    <rc><c>Na</c><c>   1</c></rc>
    <rc><c>Na</c><c>   1</c></rc>
    <rc><c>Na</c><c>   1</c></rc>
    <rc><c>Na</c><c>   1</c></rc>
    <rc><c>Na</c><c>   1</c></rc>
    <rc><c>Na</c><c>   1</c></rc>
    <rc><c>Na</c><c>   1</c></rc>
    <rc><c>Na</c><c>   1</c></rc>
    <rc><c>Na</c><c>   1</c></rc>
    <rc><c>Na</c><c>   1</c></rc>
    <rc><c>Na</c><c>   1</c></rc>
    <rc><c>Na</c><c>   1</c></rc>
    <rc><c>Na</c><c>   1</c></rc>
    <rc><c>Na</c><c>   1</c></rc>
    <rc><c>Na</c><c>   1</c></rc>
    <rc><c>Cl</c><c>   2</c></rc>
    <rc><c>Cl</c><c>   2</c></rc>
    <rc><c>Cl</c><c>   2</c></rc>
    <rc><c>Cl</c><c>   2</c></rc>
    <rc><c>Cl</c><c>   2</c></rc>
    <rc><c>Cl</c><c>   2</c></rc>
    <rc><c>Cl</c><c>   2</c></rc>
    <rc><c>Cl</c><c>   2</c></rc>
    <rc><c>Cl</c><c>   2</c></rc>
    <rc><c>Cl</c><c>   2</c></rc>
    <rc><c>Cl</c><c>   2</c></rc>
    <rc><c>Cl</c><c>   2</c></rc>
    <rc><c>Cl</c><c>   2</c></rc>
    <rc><c>Cl</c><c>   2</c></rc>
    <rc><c>Cl</c><c>   2</c></rc>
    <rc><c>Cl</c><c>   2</c></rc>
    <rc><c>Cl</c><c>   2</c></rc>
    <rc><c>Cl</c><c>   2</c></rc>
    <rc><c>Cl</c><c>   2</c></rc>
    <rc><c>Cl</c><c>   2</c></rc>
    <rc><c>Cl</c><c>   2</c></rc>
    <rc><c>Cl</c><c>   2</c></rc>
    <rc><c>Cl</c><c>   2</c></rc>
    <rc><c>Cl</c><c>   2</c></rc>
    <rc><c>Cl</c><c>   2</c></rc>
    <rc><c>Cl</c><c>   2</c></rc>
    <rc><c>Cl</c><c>   2</c></rc>
    <rc><c>Cl</c><c>   2</c></rc>
    <rc><c>Cl</c><c>   2</c></rc>
    <rc><c>Cl</c><c>   2</c></rc>
    <rc><c>Cl</c><c>   2</c></rc>
    <rc><c>Cl</c><c>   2</c></rc>
   </set>
  </array>
  <array name="atomtypes" >
   <dimension dim="1">type</dimension>
   <field type="int">atomspertype</field>
   <field type="string">element</field>
   <field>mass</field>
   <field>valence</field>
   <field type="string">pseudopotential</field>
   <set>
    <rc><c>  32</c><c>Na</c><c>     22.99000000</c><c>      7.00000000</c><c>  PAW_PBE Na_pv 19Sep2006               </c></rc>
    <rc><c>  32</c><c>Cl</c><c>     35.45300000</c><c>      7.00000000</c><c>  PAW_PBE Cl 06Sep2000                  </c></rc>
   </set>
  </array>
 </atominfo>
 <structure name="initialpos" >
  <crystal>
   <varray name="basis" >
    <v>      11.20400236       0.00000000       0.00000000 </v>
    <v>       0.00000000      11.20400236       0.00000000 </v>
    <v>       0.00000000       0.00000000      11.20400236 </v>
   </varray>
   <i name="volume">   1406.43470641 </i>
   <varray name="rec_basis" >
    <v>       0.08925382       0.00000000       0.00000000 </v>
    <v>       0.00000000       0.08925382       0.00000000 </v>
    <v>       0.00000000       0.00000000       0.08925382 </v>
   </varray>
  </crystal>
  <varray name="positions" >
   <v>       0.00267761       0.00000000       0.00000000 </v>
   <v>       0.25000000       0.25000000       0.00000000 </v>
   <v>       0.25000000       0.00000000       0.25000000 </v>
   <v>       0.00000000       0.25000000       0.25000000 </v>
   <v>       0.00000000       0.00000000       0.50000000 </v>
   <v>       0.25000000       0.25000000       0.50000000 </v>
   <v>       0.25000000       0.00000000       0.75000000 </v>
   <v>       0.00000000       0.25000000       0.75000000 </v>
   <v>       0.00000000       0.50000000       0.00000000 </v>
   <v>       0.25000000       0.75000000       0.00000000 </v>
   <v>       0.25000000       0.50000000       0.25000000 </v>
   <v>       0.00000000       0.75000000       0.25000000 </v>
   <v>       0.00000000       0.50000000       0.50000000 </v>
   <v>       0.25000000       0.75000000       0.50000000 </v>
   <v>       0.25000000       0.50000000       0.75000000 </v>
   <v>       0.00000000       0.75000000       0.75000000 </v>
   <v>       0.50000000       0.00000000       0.00000000 </v>
   <v>       0.75000000       0.25000000       0.00000000 </v>
   <v>       0.75000000       0.00000000       0.25000000 </v>
   <v>       0.50000000       0.25000000       0.25000000 </v>
   <v>       0.50000000       0.00000000       0.50000000 </v>
   <v>       0.75000000       0.25000000       0.50000000 </v>
   <v>       0.75000000       0.00000000       0.75000000 </v>
   <v>       0.50000000       0.25000000       0.75000000 </v>
   <v>       0.50000000       0.50000000       0.00000000 </v>
   <v>       0.75000000       0.75000000       0.00000000 </v>
   <v>       0.75000000       0.50000000       0.25000000 </v>
   <v>       0.50000000       0.75000000       0.25000000 </v>
   <v>       0.50000000       0.50000000       0.50000000 </v>
   <v>       0.75000000       0.75000000       0.50000000 </v>
   <v>       0.75000000       0.50000000       0.75000000 </v>
   <v>       0.50000000       0.75000000       0.75000000 </v>
   <v>       0.25000000       0.25000000       0.25000000 </v>
   <v>       0.00000000       0.00000000       0.25000000 </v>
   <v>       0.00000000       0.25000000       0.00000000 </v>
   <v>       0.25267761       0.00000000       0.00000000 </v>
   <v>       0.25000000       0.25000000       0.75000000 </v>
   <v>       0.00000000       0.00000000       0.75000000 </v>
   <v>       0.00000000       0.25000000       0.50000000 </v>
   <v>       0.25000000       0.00000000       0.50000000 </v>
   <v>       0.25000000       0.75000000       0.25000000 </v>
   <v>       0.00000000       0.50000000       0.25000000 </v>
   <v>       0.00000000       0.75000000       0.00000000 </v>
   <v>       0.25000000       0.50000000       0.00000000 </v>
   <v>       0.25000000       0.75000000       0.75000000 </v>
   <v>       0.00000000       0.50000000       0.75000000 </v>
   <v>       0.00000000       0.75000000       0.50000000 </v>
   <v>       0.25000000       0.50000000       0.50000000 </v>
   <v>       0.75000000       0.25000000       0.25000000 </v>
   <v>       0.50000000       0.00000000       0.25000000 </v>
   <v>       0.50000000       0.25000000       0.00000000 </v>
   <v>       0.75000000       0.00000000       0.00000000 </v>
   <v>       0.75000000       0.25000000       0.75000000 </v>
   <v>       0.50000000       0.00000000       0.75000000 </v>
   <v>       0.50000000       0.25000000       0.50000000 </v>
   <v>       0.75000000       0.00000000       0.50000000 </v>
   <v>       0.75000000       0.75000000       0.25000000 </v>
   <v>       0.50000000       0.50000000       0.25000000 </v>
   <v>       0.50000000       0.75000000       0.00000000 </v>
   <v>       0.75000000       0.50000000       0.00000000 </v>
   <v>       0.75000000       0.75000000       0.75000000 </v>
   <v>       0.50000000       0.50000000       0.75000000 </v>
   <v>       0.50000000       0.75000000       0.50000000 </v>
   <v>       0.75000000       0.50000000       0.50000000 </v>
  </varray>
 </structure>
 <calculation>
  <scstep>
   <time name="dav">    7.49    7.53</time>
   <time name="total">    7.56    7.61</time>
   <energy>
    <i name="alphaZ">    751.52672365 </i>
    <i name="ewald"> -22871.40103513 </i>
    <i name="hartreedc">  -8992.19258659 </i>
    <i name="XCdc">   1456.53396019 </i>
    <i name="pawpsdc">  26466.43774078 </i>
    <i name="pawaedc"> -29286.08056155 </i>
    <i name="eentropy">     -0.00300894 </i>
    <i name="bandstr">   -740.39268660 </i>
    <i name="atom">  37532.17946992 </i>
    <i name="e_fr_energy">   4316.60801574 </i>
    <i name="e_wo_entrp">   4316.61102468 </i>
    <i name="e_0_energy">   4316.60952021 </i>
   </energy>
  </scstep>
  <scstep>
   <time name="dav">    8.18    8.23</time>
   <time name="total">    8.18    8.23</time>
   <energy>
    <i name="e_fr_energy">    363.24526195 </i>
    <i name="e_wo_entrp">    363.24526195 </i>
    <i name="e_0_energy">    363.24526195 </i>
   </energy>
  </scstep>
  <scstep>
   <time name="dav">    8.81    8.86</time>
   <time name="total">    8.81    8.86</time>
   <energy>
    <i name="e_fr_energy">   -206.23314455 </i>
    <i name="e_wo_entrp">   -206.23314455 </i>
    <i name="e_0_energy">   -206.23314455 </i>
   </energy>
  </scstep>
  <scstep>
   <time name="dav">    8.78    8.83</time>
   <time name="total">    8.78    8.83</time>
   <energy>
    <i name="e_fr_energy">   -228.19471511 </i>
    <i name="e_wo_entrp">   -228.19471511 </i>
    <i name="e_0_energy">   -228.19471511 </i>
   </energy>
  </scstep>
  <scstep>
   <time name="dav">    9.07    9.12</time>
   <time name="total">    9.34    9.39</time>
   <energy>
    <i name="e_fr_energy">   -229.00610339 </i>
    <i name="e_wo_entrp">   -229.00610339 </i>
    <i name="e_0_energy">   -229.00610339 </i>
   </energy>
  </scstep>
  <scstep>
   <time name="dav">    9.02    9.07</time>
   <time name="total">    9.36    9.41</time>
   <energy>
    <i name="e_fr_energy">   -224.13814211 </i>
    <i name="e_wo_entrp">   -224.13814211 </i>
    <i name="e_0_energy">   -224.13814211 </i>
   </energy>
  </scstep>
  <scstep>
   <time name="dav">    9.74    9.79</time>
   <time name="total">   10.07   10.13</time>
   <energy>
    <i name="e_fr_energy">   -223.77788907 </i>
    <i name="e_wo_entrp">   -223.77788907 </i>
    <i name="e_0_energy">   -223.77788907 </i>
   </energy>
  </scstep>
  <scstep>
   <time name="dav">    8.56    8.61</time>
   <time name="total">    8.89    8.95</time>
   <energy>
    <i name="e_fr_energy">   -223.90302092 </i>
    <i name="e_wo_entrp">   -223.90302092 </i>
    <i name="e_0_energy">   -223.90302092 </i>
   </energy>
  </scstep>
  <scstep>
   <time name="dav">    9.10    9.14</time>
   <time name="total">    9.43    9.48</time>
   <energy>
    <i name="e_fr_energy">   -223.89764941 </i>
    <i name="e_wo_entrp">   -223.89764941 </i>
    <i name="e_0_energy">   -223.89764941 </i>
   </energy>
  </scstep>
  <scstep>
   <time name="dav">    8.56    8.61</time>
   <time name="total">    8.90    8.94</time>
   <energy>
    <i name="e_fr_energy">   -223.90192648 </i>
    <i name="e_wo_entrp">   -223.90192648 </i>
    <i name="e_0_energy">   -223.90192648 </i>
   </energy>
  </scstep>
  <scstep>
   <time name="dav">    9.33    9.38</time>
   <time name="total">    9.67    9.72</time>
   <energy>
    <i name="e_fr_energy">   -223.90120426 </i>
    <i name="e_wo_entrp">   -223.90120426 </i>
    <i name="e_0_energy">   -223.90120426 </i>
   </energy>
  </scstep>
  <scstep>
   <time name="dav">    9.31    9.36</time>
   <time name="total">    9.65    9.70</time>
   <energy>
    <i name="e_fr_energy">   -223.90116485 </i>
    <i name="e_wo_entrp">   -223.90116485 </i>
    <i name="e_0_energy">   -223.90116485 </i>
   </energy>
  </scstep>
  <scstep>
   <time name="dav">    9.11    9.16</time>
   <time name="total">    9.45    9.50</time>
   <energy>
    <i name="e_fr_energy">   -223.90116504 </i>
    <i name="e_wo_entrp">   -223.90116504 </i>
    <i name="e_0_energy">   -223.90116504 </i>
   </energy>
  </scstep>
  <scstep>
   <time name="dav">    8.72    8.77</time>
   <time name="total">    9.06    9.11</time>
   <energy>
    <i name="e_fr_energy">   -223.90116627 </i>
    <i name="e_wo_entrp">   -223.90116627 </i>
    <i name="e_0_energy">   -223.90116627 </i>
   </energy>
  </scstep>
  <scstep>
   <time name="dav">    8.72    8.77</time>
   <time name="total">    9.06    9.11</time>
   <energy>
    <i name="e_fr_energy">   -223.90116778 </i>
    <i name="e_wo_entrp">   -223.90116778 </i>
    <i name="e_0_energy">   -223.90116778 </i>
   </energy>
  </scstep>
  <scstep>
   <time name="dav">    8.81    8.86</time>
   <time name="total">    9.15    9.20</time>
   <energy>
    <i name="e_fr_energy">   -223.90116823 </i>
    <i name="e_wo_entrp">   -223.90116823 </i>
    <i name="e_0_energy">   -223.90116823 </i>
   </energy>
  </scstep>
  <scstep>
   <time name="dav">    6.55    6.58</time>
   <time name="total">    6.88    6.92</time>
   <energy>
    <i name="e_fr_energy">   -223.90116821 </i>
    <i name="e_wo_entrp">   -223.90116821 </i>
    <i name="e_0_energy">   -223.90116821 </i>
   </energy>
  </scstep>
  <scstep>
   <time name="dav">    6.44    6.47</time>
   <time name="total">    6.78    6.81</time>
   <energy>
    <i name="e_fr_energy">   -223.90116830 </i>
    <i name="e_wo_entrp">   -223.90116830 </i>
    <i name="e_0_energy">   -223.90116830 </i>
   </energy>
  </scstep>
  <scstep>
   <time name="dav">    5.74    5.77</time>
   <time name="total">    6.08    6.11</time>
   <energy>
    <i name="e_fr_energy">   -223.90116828 </i>
    <i name="e_wo_entrp">   -223.90116828 </i>
    <i name="e_0_energy">   -223.90116828 </i>
   </energy>
  </scstep>
  <scstep>
   <time name="dav">    6.00    6.03</time>
   <time name="total">    6.34    6.37</time>
   <energy>
    <i name="e_fr_energy">   -223.90116824 </i>
    <i name="e_wo_entrp">   -223.90116824 </i>
    <i name="e_0_energy">   -223.90116824 </i>
   </energy>
  </scstep>
  <scstep>
   <time name="dav">    5.67    5.70</time>
   <time name="total">    6.01    6.05</time>
   <energy>
    <i name="e_fr_energy">   -223.90116820 </i>
    <i name="e_wo_entrp">   -223.90116820 </i>
    <i name="e_0_energy">   -223.90116820 </i>
   </energy>
  </scstep>
  <scstep>
   <time name="dav">    5.73    5.76</time>
   <time name="total">    5.80    5.83</time>
   <energy>
    <i name="alphaZ">    751.52672365 </i>
    <i name="ewald"> -22871.40103513 </i>
    <i name="hartreedc">  -9078.10164684 </i>
    <i name="XCdc">   1472.51290116 </i>
    <i name="pawpsdc">  29498.23633212 </i>
    <i name="pawaedc"> -32317.60014082 </i>
    <i name="eentropy">     -0.00000000 </i>
    <i name="bandstr">  -5211.25377227 </i>
    <i name="atom">  37532.17946992 </i>
    <i name="e_fr_energy">   -223.90116820 </i>
    <i name="e_wo_entrp">   -223.90116820 </i>
    <i name="e_0_energy">   -223.90116820 </i>
   </energy>
  </scstep>
  <structure>
   <crystal>
    <varray name="basis" >
     <v>      11.20400236       0.00000000       0.00000000 </v>
     <v>       0.00000000      11.20400236       0.00000000 </v>
     <v>       0.00000000       0.00000000      11.20400236 </v>
    </varray>
    <i name="volume">   1406.43470641 </i>
    <varray name="rec_basis" >
     <v>       0.08925382       0.00000000       0.00000000 </v>
     <v>       0.00000000       0.08925382       0.00000000 </v>
     <v>       0.00000000       0.00000000       0.08925382 </v>
    </varray>
   </crystal>
   <varray name="positions" >
    <v>       0.00267761       0.00000000       0.00000000 </v>
    <v>       0.25000000       0.25000000       0.00000000 </v>
    <v>       0.25000000       0.00000000       0.25000000 </v>
    <v>       0.00000000       0.25000000       0.25000000 </v>
    <v>       0.00000000       0.00000000       0.50000000 </v>
    <v>       0.25000000       0.25000000       0.50000000 </v>
    <v>       0.25000000       0.00000000       0.75000000 </v>
    <v>       0.00000000       0.25000000       0.75000000 </v>
    <v>       0.00000000       0.50000000       0.00000000 </v>
    <v>       0.25000000       0.75000000       0.00000000 </v>
    <v>       0.25000000       0.50000000       0.25000000 </v>
    <v>       0.00000000       0.75000000       0.25000000 </v>
    <v>       0.00000000       0.50000000       0.50000000 </v>
    <v>       0.25000000       0.75000000       0.50000000 </v>
    <v>       0.25000000       0.50000000       0.75000000 </v>
    <v>       0.00000000       0.75000000       0.75000000 </v>
    <v>       0.50000000       0.00000000       0.00000000 </v>
    <v>       0.75000000       0.25000000       0.00000000 </v>
    <v>       0.75000000       0.00000000       0.25000000 </v>
    <v>       0.50000000       0.25000000       0.25000000 </v>
    <v>       0.50000000       0.00000000       0.50000000 </v>
    <v>       0.75000000       0.25000000       0.50000000 </v>
    <v>       0.75000000       0.00000000       0.75000000 </v>
    <v>       0.50000000       0.25000000       0.75000000 </v>
    <v>       0.50000000       0.50000000       0.00000000 </v>
    <v>       0.75000000       0.75000000       0.00000000 </v>
    <v>       0.75000000       0.50000000       0.25000000 </v>
    <v>       0.50000000       0.75000000       0.25000000 </v>
    <v>       0.50000000       0.50000000       0.50000000 </v>
    <v>       0.75000000       0.75000000       0.50000000 </v>
    <v>       0.75000000       0.50000000       0.75000000 </v>
    <v>       0.50000000       0.75000000       0.75000000 </v>
    <v>       0.25000000       0.25000000       0.25000000 </v>
    <v>       0.00000000       0.00000000       0.25000000 </v>
    <v>       0.00000000       0.25000000       0.00000000 </v>
    <v>       0.25267761       0.00000000       0.00000000 </v>
    <v>       0.25000000       0.25000000       0.75000000 </v>
    <v>       0.00000000       0.00000000       0.75000000 </v>
    <v>       0.00000000       0.25000000       0.50000000 </v>
    <v>       0.25000000       0.00000000       0.50000000 </v>
    <v>       0.25000000       0.75000000       0.25000000 </v>
    <v>       0.00000000       0.50000000       0.25000000 </v>
    <v>       0.00000000       0.75000000       0.00000000 </v>
    <v>       0.25000000       0.50000000       0.00000000 </v>
    <v>       0.25000000       0.75000000       0.75000000 </v>
    <v>       0.00000000       0.50000000       0.75000000 </v>
    <v>       0.00000000       0.75000000       0.50000000 </v>
    <v>       0.25000000       0.50000000       0.50000000 </v>
    <v>       0.75000000       0.25000000       0.25000000 </v>
    <v>       0.50000000       0.00000000       0.25000000 </v>
    <v>       0.50000000       0.25000000       0.00000000 </v>
    <v>       0.75000000       0.00000000       0.00000000 </v>
    <v>       0.75000000       0.25000000       0.75000000 </v>
    <v>       0.50000000       0.00000000       0.75000000 </v>
    <v>       0.50000000       0.25000000       0.50000000 </v>
    <v>       0.75000000       0.00000000       0.50000000 </v>
    <v>       0.75000000       0.75000000       0.25000000 </v>
    <v>       0.50000000       0.50000000       0.25000000 </v>
    <v>       0.50000000       0.75000000       0.00000000 </v>
    <v>       0.75000000       0.50000000       0.00000000 </v>
    <v>       0.75000000       0.75000000       0.75000000 </v>
    <v>       0.50000000       0.50000000       0.75000000 </v>
    <v>       0.50000000       0.75000000       0.50000000 </v>
    <v>       0.75000000       0.50000000       0.50000000 </v>
   </varray>
  </structure>
  <varray name="forces" >
   <v>      -0.04268019      -0.00000000      -0.00000000 </v>
   <v>       0.00652612       0.00582808      -0.00000000 </v>
   <v>       0.00652612      -0.00000000       0.00582808 </v>
   <v>      -0.00189488       0.00126848       0.00126848 </v>
   <v>       0.00010305      -0.00000000      -0.00000000 </v>
   <v>       0.00057600      -0.00007911      -0.00000000 </v>
   <v>       0.00652612      -0.00000000      -0.00582808 </v>
   <v>      -0.00189488       0.00126848      -0.00126848 </v>
   <v>       0.00010305      -0.00000000      -0.00000000 </v>
   <v>       0.00652612      -0.00582808      -0.00000000 </v>
   <v>       0.00057600      -0.00000000      -0.00007911 </v>
   <v>      -0.00189488      -0.00126848       0.00126848 </v>
   <v>      -0.00045488      -0.00000000      -0.00000000 </v>
   <v>       0.00057600       0.00007911      -0.00000000 </v>
   <v>       0.00057600      -0.00000000       0.00007911 </v>
   <v>      -0.00189488      -0.00126848      -0.00126848 </v>
   <v>       0.02918749      -0.00000000      -0.00000000 </v>
   <v>      -0.00132002      -0.00580446      -0.00000000 </v>
   <v>      -0.00132002      -0.00000000      -0.00580446 </v>
   <v>       0.00095167      -0.00129044      -0.00129044 </v>
   <v>       0.00047770      -0.00000000      -0.00000000 </v>
   <v>      -0.00068754       0.00007093      -0.00000000 </v>
   <v>      -0.00132002      -0.00000000       0.00580446 </v>
   <v>       0.00095167      -0.00129044       0.00129044 </v>
   <v>       0.00047770      -0.00000000      -0.00000000 </v>
   <v>      -0.00132002       0.00580446      -0.00000000 </v>
   <v>      -0.00068754      -0.00000000       0.00007093 </v>
   <v>       0.00095167       0.00129044      -0.00129044 </v>
   <v>       0.00044944      -0.00000000      -0.00000000 </v>
   <v>      -0.00068754      -0.00007093      -0.00000000 </v>
   <v>      -0.00068754      -0.00000000      -0.00007093 </v>
   <v>       0.00095167       0.00129044       0.00129044 </v>
   <v>      -0.00255215      -0.00133078      -0.00133078 </v>
   <v>       0.00886963      -0.00000000      -0.00586639 </v>
   <v>       0.00886963      -0.00586639      -0.00000000 </v>
   <v>      -0.05992004      -0.00000000      -0.00000000 </v>
   <v>      -0.00255215      -0.00133078       0.00133078 </v>
   <v>       0.00886963      -0.00000000       0.00586639 </v>
   <v>       0.00056211      -0.00055803      -0.00000000 </v>
   <v>      -0.00137510      -0.00000000      -0.00000000 </v>
   <v>      -0.00255215       0.00133078      -0.00133078 </v>
   <v>       0.00056211      -0.00000000      -0.00055803 </v>
   <v>       0.00886963       0.00586639      -0.00000000 </v>
   <v>      -0.00137510      -0.00000000      -0.00000000 </v>
   <v>      -0.00255215       0.00133078       0.00133078 </v>
   <v>       0.00056211      -0.00000000       0.00055803 </v>
   <v>       0.00056211       0.00055803      -0.00000000 </v>
   <v>      -0.00051861      -0.00000000      -0.00000000 </v>
   <v>       0.00130577       0.00128609       0.00128609 </v>
   <v>       0.00108223      -0.00000000       0.00585655 </v>
   <v>       0.00108223       0.00585655      -0.00000000 </v>
   <v>       0.02001891      -0.00000000      -0.00000000 </v>
   <v>       0.00130577       0.00128609      -0.00128609 </v>
   <v>       0.00108223      -0.00000000      -0.00585655 </v>
   <v>      -0.00072129       0.00057305      -0.00000000 </v>
   <v>       0.00209897      -0.00000000      -0.00000000 </v>
   <v>       0.00130577      -0.00128609       0.00128609 </v>
   <v>      -0.00072129      -0.00000000       0.00057305 </v>
   <v>       0.00108223      -0.00585655      -0.00000000 </v>
   <v>       0.00209897      -0.00000000      -0.00000000 </v>
   <v>       0.00130577      -0.00128609      -0.00128609 </v>
   <v>      -0.00072129      -0.00000000      -0.00057305 </v>
   <v>      -0.00072129      -0.00057305      -0.00000000 </v>
   <v>       0.00051810      -0.00000000      -0.00000000 </v>
  </varray>
  <varray name="stress" >
   <v>      -0.36718721       0.00000000       0.00000000 </v>
   <v>       0.00000000      -0.37854252      -0.00000000 </v>
   <v>      -0.00000000      -0.00000000      -0.37854252 </v>
  </varray>
  <energy>
   <i name="e_fr_energy">   -223.90116820 </i>
   <i name="e_wo_entrp">   -223.90116820 </i>
   <i name="e_0_energy">   -223.90116820 </i>
  </energy>
  <time name="totalsc">  195.30  196.38</time>
  <eigenvalues>
   <array>
    <dimension dim="1">band</dimension>
    <dimension dim="2">kpoint</dimension>
    <dimension dim="3">spin</dimension>
    <field>eigene</field>
    <field>occ</field>
    <set>
     <set comment="spin 1">
      <set comment="kpoint 1">
       <r>  -21.3095    1.0000 </r>
       <r>  -21.3095    1.0000 </r>
       <r>  -21.3095    1.0000 </r>
       <r>  -21.3045    1.0000 </r>
       <r>  -21.3010    1.0000 </r>
       <r>  -21.3001    1.0000 </r>
       <r>  -21.3001    1.0000 </r>
       <r>  -21.2945    1.0000 </r>
       <r>  -21.2945    1.0000 </r>
       <r>  -21.2944    1.0000 </r>
       <r>  -21.2941    1.0000 </r>
       <r>  -21.2939    1.0000 </r>
       <r>  -21.2936    1.0000 </r>
       <r>  -21.2933    1.0000 </r>
       <r>  -21.2933    1.0000 </r>
       <r>  -21.2928    1.0000 </r>
       <r>  -21.2923    1.0000 </r>
       <r>  -21.2921    1.0000 </r>
       <r>  -21.2921    1.0000 </r>
       <r>  -21.2900    1.0000 </r>
       <r>  -21.2900    1.0000 </r>
       <r>  -21.2882    1.0000 </r>
       <r>  -21.2878    1.0000 </r>
       <r>  -21.2878    1.0000 </r>
       <r>  -21.2872    1.0000 </r>
       <r>  -21.2869    1.0000 </r>
       <r>  -21.2864    1.0000 </r>
       <r>  -21.2862    1.0000 </r>
       <r>  -21.2862    1.0000 </r>
       <r>  -21.2855    1.0000 </r>
       <r>  -21.2847    1.0000 </r>
       <r>  -21.2847    1.0000 </r>
       <r>  -21.2836    1.0000 </r>
       <r>  -21.2835    1.0000 </r>
       <r>  -21.2835    1.0000 </r>
       <r>  -21.2835    1.0000 </r>
       <r>  -21.2833    1.0000 </r>
       <r>  -21.2831    1.0000 </r>
       <r>  -21.2820    1.0000 </r>
       <r>  -21.2820    1.0000 </r>
       <r>  -21.2820    1.0000 </r>
       <r>  -21.2817    1.0000 </r>
       <r>  -21.2817    1.0000 </r>
       <r>  -21.2816    1.0000 </r>
       <r>  -21.2816    1.0000 </r>
       <r>  -21.2813    1.0000 </r>
       <r>  -21.2812    1.0000 </r>
       <r>  -21.2807    1.0000 </r>
       <r>  -21.2807    1.0000 </r>
       <r>  -21.2803    1.0000 </r>
       <r>  -21.2798    1.0000 </r>
       <r>  -21.2798    1.0000 </r>
       <r>  -21.2793    1.0000 </r>
       <r>  -21.2787    1.0000 </r>
       <r>  -21.2783    1.0000 </r>
       <r>  -21.2773    1.0000 </r>
       <r>  -21.2773    1.0000 </r>
       <r>  -21.2770    1.0000 </r>
       <r>  -21.2770    1.0000 </r>
       <r>  -21.2767    1.0000 </r>
       <r>  -21.2761    1.0000 </r>
       <r>  -21.2761    1.0000 </r>
       <r>  -21.2760    1.0000 </r>
       <r>  -21.2752    1.0000 </r>
       <r>  -21.2752    1.0000 </r>
       <r>  -21.2752    1.0000 </r>
       <r>  -21.2751    1.0000 </r>
       <r>  -21.2749    1.0000 </r>
       <r>  -21.2749    1.0000 </r>
       <r>  -21.2749    1.0000 </r>
       <r>  -21.2747    1.0000 </r>
       <r>  -21.2730    1.0000 </r>
       <r>  -21.2730    1.0000 </r>
       <r>  -21.2721    1.0000 </r>
       <r>  -21.2721    1.0000 </r>
       <r>  -21.2715    1.0000 </r>
       <r>  -21.2714    1.0000 </r>
       <r>  -21.2714    1.0000 </r>
       <r>  -21.2713    1.0000 </r>
       <r>  -21.2713    1.0000 </r>
       <r>  -21.2712    1.0000 </r>
       <r>  -21.2709    1.0000 </r>
       <r>  -21.2707    1.0000 </r>
       <r>  -21.2707    1.0000 </r>
       <r>  -21.2706    1.0000 </r>
       <r>  -21.2699    1.0000 </r>
       <r>  -21.2694    1.0000 </r>
       <r>  -21.2694    1.0000 </r>
       <r>  -21.2688    1.0000 </r>
       <r>  -21.2677    1.0000 </r>
       <r>  -21.2676    1.0000 </r>
       <r>  -21.2676    1.0000 </r>
       <r>  -21.2673    1.0000 </r>
       <r>  -21.2557    1.0000 </r>
       <r>  -21.2557    1.0000 </r>
       <r>  -21.2556    1.0000 </r>
       <r>  -13.3581    1.0000 </r>
       <r>  -13.1425    1.0000 </r>
       <r>  -13.1377    1.0000 </r>
       <r>  -13.1374    1.0000 </r>
       <r>  -13.1374    1.0000 </r>
       <r>  -13.1374    1.0000 </r>
       <r>  -13.1331    1.0000 </r>
       <r>  -13.0216    1.0000 </r>
       <r>  -13.0145    1.0000 </r>
       <r>  -13.0145    1.0000 </r>
       <r>  -13.0115    1.0000 </r>
       <r>  -13.0113    1.0000 </r>
       <r>  -13.0112    1.0000 </r>
       <r>  -13.0112    1.0000 </r>
       <r>  -13.0111    1.0000 </r>
       <r>  -13.0110    1.0000 </r>
       <r>  -13.0087    1.0000 </r>
       <r>  -13.0087    1.0000 </r>
       <r>  -13.0044    1.0000 </r>
       <r>  -12.9897    1.0000 </r>
       <r>  -12.9891    1.0000 </r>
       <r>  -12.9891    1.0000 </r>
       <r>  -12.9885    1.0000 </r>
       <r>  -12.9416    1.0000 </r>
       <r>  -12.9412    1.0000 </r>
       <r>  -12.9402    1.0000 </r>
       <r>  -12.9243    1.0000 </r>
       <r>  -12.9230    1.0000 </r>
       <r>  -12.9213    1.0000 </r>
       <r>  -12.9213    1.0000 </r>
       <r>  -12.9188    1.0000 </r>
       <r>  -12.9151    1.0000 </r>
       <r>   -2.7000    1.0000 </r>
       <r>   -2.7000    1.0000 </r>
       <r>   -2.7000    1.0000 </r>
       <r>   -2.7000    1.0000 </r>
       <r>   -2.4240    1.0000 </r>
       <r>   -2.4240    1.0000 </r>
       <r>   -2.4240    1.0000 </r>
       <r>   -2.2074    1.0000 </r>
       <r>   -2.2074    1.0000 </r>
       <r>   -2.2062    1.0000 </r>
       <r>   -2.2047    1.0000 </r>
       <r>   -2.2042    1.0000 </r>
       <r>   -2.2041    1.0000 </r>
       <r>   -2.2041    1.0000 </r>
       <r>   -2.2041    1.0000 </r>
       <r>   -2.2038    1.0000 </r>
       <r>   -2.2028    1.0000 </r>
       <r>   -2.2013    1.0000 </r>
       <r>   -2.2013    1.0000 </r>
       <r>   -1.9285    1.0000 </r>
       <r>   -1.9285    1.0000 </r>
       <r>   -1.9249    1.0000 </r>
       <r>   -1.9249    1.0000 </r>
       <r>   -1.9247    1.0000 </r>
       <r>   -1.9247    1.0000 </r>
       <r>   -1.9247    1.0000 </r>
       <r>   -1.9246    1.0000 </r>
       <r>   -1.9240    1.0000 </r>
       <r>   -1.9240    1.0000 </r>
       <r>   -1.9215    1.0000 </r>
       <r>   -1.9215    1.0000 </r>
       <r>   -1.7978    1.0000 </r>
       <r>   -1.7966    1.0000 </r>
       <r>   -1.7966    1.0000 </r>
       <r>   -1.7966    1.0000 </r>
       <r>   -1.7965    1.0000 </r>
       <r>   -1.7956    1.0000 </r>
       <r>   -1.5093    1.0000 </r>
       <r>   -1.5093    1.0000 </r>
       <r>   -1.5061    1.0000 </r>
       <r>   -1.5057    1.0000 </r>
       <r>   -1.5053    1.0000 </r>
       <r>   -1.5052    1.0000 </r>
       <r>   -1.5051    1.0000 </r>
       <r>   -1.5050    1.0000 </r>
       <r>   -1.5044    1.0000 </r>
       <r>   -1.5044    1.0000 </r>
       <r>   -1.5026    1.0000 </r>
       <r>   -1.5026    1.0000 </r>
       <r>   -1.4642    1.0000 </r>
       <r>   -1.4637    1.0000 </r>
       <r>   -1.4624    1.0000 </r>
       <r>   -1.4624    1.0000 </r>
       <r>   -1.4621    1.0000 </r>
       <r>   -1.4610    1.0000 </r>
       <r>   -1.2948    1.0000 </r>
       <r>   -1.2948    1.0000 </r>
       <r>   -1.2946    1.0000 </r>
       <r>   -1.2946    1.0000 </r>
       <r>   -1.2946    1.0000 </r>
       <r>   -1.2946    1.0000 </r>
       <r>   -1.0057    1.0000 </r>
       <r>   -1.0057    1.0000 </r>
       <r>   -1.0029    1.0000 </r>
       <r>   -1.0008    1.0000 </r>
       <r>   -1.0007    1.0000 </r>
       <r>   -1.0007    1.0000 </r>
       <r>   -1.0004    1.0000 </r>
       <r>   -1.0004    1.0000 </r>
       <r>   -0.9998    1.0000 </r>
       <r>   -0.9998    1.0000 </r>
       <r>   -0.9974    1.0000 </r>
       <r>   -0.9974    1.0000 </r>
       <r>   -0.9524    1.0000 </r>
       <r>   -0.9524    1.0000 </r>
       <r>   -0.9524    1.0000 </r>
       <r>   -0.9511    1.0000 </r>
       <r>   -0.9487    1.0000 </r>
       <r>   -0.9478    1.0000 </r>
       <r>   -0.9478    1.0000 </r>
       <r>   -0.9476    1.0000 </r>
       <r>   -0.9474    1.0000 </r>
       <r>   -0.9473    1.0000 </r>
       <r>   -0.9473    1.0000 </r>
       <r>   -0.9468    1.0000 </r>
       <r>   -0.9458    1.0000 </r>
       <r>   -0.9457    1.0000 </r>
       <r>   -0.9457    1.0000 </r>
       <r>   -0.9432    1.0000 </r>
       <r>   -0.9425    1.0000 </r>
       <r>   -0.9417    1.0000 </r>
       <r>   -0.9409    1.0000 </r>
       <r>   -0.9409    1.0000 </r>
       <r>   -0.6648    1.0000 </r>
       <r>   -0.6648    1.0000 </r>
       <r>   -0.6648    1.0000 </r>
       <r>    4.3403    0.0000 </r>
       <r>    6.3598    0.0000 </r>
       <r>    6.3679    0.0000 </r>
       <r>    6.3679    0.0000 </r>
       <r>    6.3682    0.0000 </r>
       <r>    6.3691    0.0000 </r>
       <r>    6.3750    0.0000 </r>
       <r>    6.4446    0.0000 </r>
       <r>    6.4447    0.0000 </r>
       <r>    6.4448    0.0000 </r>
       <r>    6.4448    0.0000 </r>
       <r>    6.8279    0.0000 </r>
       <r>    6.8280    0.0000 </r>
       <r>    6.8281    0.0000 </r>
       <r>    7.2067    0.0000 </r>
       <r>    7.2067    0.0000 </r>
       <r>    7.2069    0.0000 </r>
       <r>    7.4521    0.0000 </r>
       <r>    7.4576    0.0000 </r>
       <r>    7.4576    0.0000 </r>
       <r>    7.4639    0.0000 </r>
       <r>    7.4642    0.0000 </r>
       <r>    7.4645    0.0000 </r>
       <r>    7.4658    0.0000 </r>
       <r>    7.4658    0.0000 </r>
       <r>    7.4671    0.0000 </r>
       <r>    7.4691    0.0000 </r>
       <r>    7.4691    0.0000 </r>
       <r>    7.4729    0.0000 </r>
       <r>    8.1629    0.0000 </r>
       <r>    8.1667    0.0000 </r>
       <r>    8.1681    0.0000 </r>
       <r>    8.1681    0.0000 </r>
       <r>    8.1702    0.0000 </r>
       <r>    8.1741    0.0000 </r>
       <r>    8.2767    0.0000 </r>
       <r>    8.2796    0.0000 </r>
       <r>    8.2796    0.0000 </r>
       <r>    8.2796    0.0000 </r>
       <r>    8.2798    0.0000 </r>
       <r>    8.2822    0.0000 </r>
       <r>    8.8845    0.0000 </r>
       <r>    8.8852    0.0000 </r>
       <r>    8.8988    0.0000 </r>
       <r>    8.8992    0.0000 </r>
       <r>    8.9007    0.0000 </r>
       <r>    8.9008    0.0000 </r>
       <r>    8.9014    0.0000 </r>
       <r>    8.9036    0.0000 </r>
       <r>    8.9036    0.0000 </r>
       <r>    8.9046    0.0000 </r>
       <r>    8.9057    0.0000 </r>
       <r>    8.9066    0.0000 </r>
       <r>    8.9114    0.0000 </r>
       <r>    8.9124    0.0000 </r>
       <r>    8.9166    0.0000 </r>
       <r>    8.9169    0.0000 </r>
       <r>    8.9175    0.0000 </r>
       <r>    8.9190    0.0000 </r>
       <r>    8.9191    0.0000 </r>
       <r>    8.9196    0.0000 </r>
       <r>    8.9208    0.0000 </r>
       <r>    8.9244    0.0000 </r>
       <r>    8.9251    0.0000 </r>
      </set>
      <set comment="kpoint 2">
       <r>  -21.3089    1.0000 </r>
       <r>  -21.3089    1.0000 </r>
       <r>  -21.3088    1.0000 </r>
       <r>  -21.3022    1.0000 </r>
       <r>  -21.2998    1.0000 </r>
       <r>  -21.2978    1.0000 </r>
       <r>  -21.2978    1.0000 </r>
       <r>  -21.2968    1.0000 </r>
       <r>  -21.2965    1.0000 </r>
       <r>  -21.2965    1.0000 </r>
       <r>  -21.2964    1.0000 </r>
       <r>  -21.2934    1.0000 </r>
       <r>  -21.2934    1.0000 </r>
       <r>  -21.2932    1.0000 </r>
       <r>  -21.2928    1.0000 </r>
       <r>  -21.2925    1.0000 </r>
       <r>  -21.2924    1.0000 </r>
       <r>  -21.2924    1.0000 </r>
       <r>  -21.2917    1.0000 </r>
       <r>  -21.2903    1.0000 </r>
       <r>  -21.2901    1.0000 </r>
       <r>  -21.2901    1.0000 </r>
       <r>  -21.2892    1.0000 </r>
       <r>  -21.2892    1.0000 </r>
       <r>  -21.2887    1.0000 </r>
       <r>  -21.2884    1.0000 </r>
       <r>  -21.2878    1.0000 </r>
       <r>  -21.2878    1.0000 </r>
       <r>  -21.2869    1.0000 </r>
       <r>  -21.2867    1.0000 </r>
       <r>  -21.2866    1.0000 </r>
       <r>  -21.2862    1.0000 </r>
       <r>  -21.2859    1.0000 </r>
       <r>  -21.2859    1.0000 </r>
       <r>  -21.2849    1.0000 </r>
       <r>  -21.2849    1.0000 </r>
       <r>  -21.2837    1.0000 </r>
       <r>  -21.2833    1.0000 </r>
       <r>  -21.2830    1.0000 </r>
       <r>  -21.2827    1.0000 </r>
       <r>  -21.2809    1.0000 </r>
       <r>  -21.2809    1.0000 </r>
       <r>  -21.2805    1.0000 </r>
       <r>  -21.2805    1.0000 </r>
       <r>  -21.2799    1.0000 </r>
       <r>  -21.2792    1.0000 </r>
       <r>  -21.2792    1.0000 </r>
       <r>  -21.2782    1.0000 </r>
       <r>  -21.2782    1.0000 </r>
       <r>  -21.2779    1.0000 </r>
       <r>  -21.2778    1.0000 </r>
       <r>  -21.2775    1.0000 </r>
       <r>  -21.2775    1.0000 </r>
       <r>  -21.2775    1.0000 </r>
       <r>  -21.2769    1.0000 </r>
       <r>  -21.2769    1.0000 </r>
       <r>  -21.2765    1.0000 </r>
       <r>  -21.2765    1.0000 </r>
       <r>  -21.2765    1.0000 </r>
       <r>  -21.2762    1.0000 </r>
       <r>  -21.2757    1.0000 </r>
       <r>  -21.2757    1.0000 </r>
       <r>  -21.2757    1.0000 </r>
       <r>  -21.2755    1.0000 </r>
       <r>  -21.2749    1.0000 </r>
       <r>  -21.2749    1.0000 </r>
       <r>  -21.2747    1.0000 </r>
       <r>  -21.2747    1.0000 </r>
       <r>  -21.2746    1.0000 </r>
       <r>  -21.2745    1.0000 </r>
       <r>  -21.2744    1.0000 </r>
       <r>  -21.2735    1.0000 </r>
       <r>  -21.2734    1.0000 </r>
       <r>  -21.2729    1.0000 </r>
       <r>  -21.2729    1.0000 </r>
       <r>  -21.2729    1.0000 </r>
       <r>  -21.2723    1.0000 </r>
       <r>  -21.2722    1.0000 </r>
       <r>  -21.2722    1.0000 </r>
       <r>  -21.2719    1.0000 </r>
       <r>  -21.2717    1.0000 </r>
       <r>  -21.2712    1.0000 </r>
       <r>  -21.2712    1.0000 </r>
       <r>  -21.2707    1.0000 </r>
       <r>  -21.2707    1.0000 </r>
       <r>  -21.2705    1.0000 </r>
       <r>  -21.2699    1.0000 </r>
       <r>  -21.2695    1.0000 </r>
       <r>  -21.2695    1.0000 </r>
       <r>  -21.2678    1.0000 </r>
       <r>  -21.2678    1.0000 </r>
       <r>  -21.2677    1.0000 </r>
       <r>  -21.2674    1.0000 </r>
       <r>  -21.2557    1.0000 </r>
       <r>  -21.2557    1.0000 </r>
       <r>  -21.2557    1.0000 </r>
       <r>  -13.2944    1.0000 </r>
       <r>  -13.2882    1.0000 </r>
       <r>  -13.1046    1.0000 </r>
       <r>  -13.0995    1.0000 </r>
       <r>  -13.0995    1.0000 </r>
       <r>  -13.0991    1.0000 </r>
       <r>  -13.0946    1.0000 </r>
       <r>  -13.0943    1.0000 </r>
       <r>  -13.0943    1.0000 </r>
       <r>  -13.0909    1.0000 </r>
       <r>  -13.0092    1.0000 </r>
       <r>  -13.0050    1.0000 </r>
       <r>  -13.0050    1.0000 </r>
       <r>  -13.0034    1.0000 </r>
       <r>  -12.9985    1.0000 </r>
       <r>  -12.9979    1.0000 </r>
       <r>  -12.9962    1.0000 </r>
       <r>  -12.9962    1.0000 </r>
       <r>  -12.9952    1.0000 </r>
       <r>  -12.9904    1.0000 </r>
       <r>  -12.9506    1.0000 </r>
       <r>  -12.9463    1.0000 </r>
       <r>  -12.9462    1.0000 </r>
       <r>  -12.9462    1.0000 </r>
       <r>  -12.9418    1.0000 </r>
       <r>  -12.9410    1.0000 </r>
       <r>  -12.9410    1.0000 </r>
       <r>  -12.9374    1.0000 </r>
       <r>  -12.9351    1.0000 </r>
       <r>  -12.9348    1.0000 </r>
       <r>  -12.9264    1.0000 </r>
       <r>  -12.9236    1.0000 </r>
       <r>   -2.5080    1.0000 </r>
       <r>   -2.5080    1.0000 </r>
       <r>   -2.5074    1.0000 </r>
       <r>   -2.5074    1.0000 </r>
       <r>   -2.5013    1.0000 </r>
       <r>   -2.5011    1.0000 </r>
       <r>   -2.5007    1.0000 </r>
       <r>   -2.5007    1.0000 </r>
       <r>   -2.2905    1.0000 </r>
       <r>   -2.2905    1.0000 </r>
       <r>   -2.2849    1.0000 </r>
       <r>   -2.2849    1.0000 </r>
       <r>   -2.2775    1.0000 </r>
       <r>   -2.2709    1.0000 </r>
       <r>   -2.1423    1.0000 </r>
       <r>   -2.1373    1.0000 </r>
       <r>   -2.1368    1.0000 </r>
       <r>   -2.1368    1.0000 </r>
       <r>   -2.1361    1.0000 </r>
       <r>   -2.1361    1.0000 </r>
       <r>   -2.1355    1.0000 </r>
       <r>   -2.1306    1.0000 </r>
       <r>   -1.9880    1.0000 </r>
       <r>   -1.9880    1.0000 </r>
       <r>   -1.9868    1.0000 </r>
       <r>   -1.9863    1.0000 </r>
       <r>   -1.9843    1.0000 </r>
       <r>   -1.9840    1.0000 </r>
       <r>   -1.9829    1.0000 </r>
       <r>   -1.9829    1.0000 </r>
       <r>   -1.8122    1.0000 </r>
       <r>   -1.8122    1.0000 </r>
       <r>   -1.8115    1.0000 </r>
       <r>   -1.8112    1.0000 </r>
       <r>   -1.8063    1.0000 </r>
       <r>   -1.8060    1.0000 </r>
       <r>   -1.8053    1.0000 </r>
       <r>   -1.8053    1.0000 </r>
       <r>   -1.5016    1.0000 </r>
       <r>   -1.5016    1.0000 </r>
       <r>   -1.4938    1.0000 </r>
       <r>   -1.4938    1.0000 </r>
       <r>   -1.3860    1.0000 </r>
       <r>   -1.3844    1.0000 </r>
       <r>   -1.3763    1.0000 </r>
       <r>   -1.3752    1.0000 </r>
       <r>   -1.2154    1.0000 </r>
       <r>   -1.2154    1.0000 </r>
       <r>   -1.2097    1.0000 </r>
       <r>   -1.2097    1.0000 </r>
       <r>   -1.1967    1.0000 </r>
       <r>   -1.1935    1.0000 </r>
       <r>   -1.1935    1.0000 </r>
       <r>   -1.1918    1.0000 </r>
       <r>   -1.1899    1.0000 </r>
       <r>   -1.1894    1.0000 </r>
       <r>   -1.1894    1.0000 </r>
       <r>   -1.1882    1.0000 </r>
       <r>   -1.1789    1.0000 </r>
       <r>   -1.1785    1.0000 </r>
       <r>   -1.1785    1.0000 </r>
       <r>   -1.1764    1.0000 </r>
       <r>   -1.1723    1.0000 </r>
       <r>   -1.1700    1.0000 </r>
       <r>   -1.1700    1.0000 </r>
       <r>   -1.1669    1.0000 </r>
       <r>   -1.1633    1.0000 </r>
       <r>   -1.1633    1.0000 </r>
       <r>   -1.1622    1.0000 </r>
       <r>   -1.1621    1.0000 </r>
       <r>   -1.1574    1.0000 </r>
       <r>   -1.1571    1.0000 </r>
       <r>   -1.1543    1.0000 </r>
       <r>   -1.1543    1.0000 </r>
       <r>   -1.0864    1.0000 </r>
       <r>   -1.0798    1.0000 </r>
       <r>   -0.9517    1.0000 </r>
       <r>   -0.9517    1.0000 </r>
       <r>   -0.9515    1.0000 </r>
       <r>   -0.9510    1.0000 </r>
       <r>   -0.9426    1.0000 </r>
       <r>   -0.9423    1.0000 </r>
       <r>   -0.9422    1.0000 </r>
       <r>   -0.9422    1.0000 </r>
       <r>   -0.9383    1.0000 </r>
       <r>   -0.9337    1.0000 </r>
       <r>   -0.9337    1.0000 </r>
       <r>   -0.9333    1.0000 </r>
       <r>   -0.9314    1.0000 </r>
       <r>   -0.9307    1.0000 </r>
       <r>   -0.9307    1.0000 </r>
       <r>   -0.9257    1.0000 </r>
       <r>   -0.7719    1.0000 </r>
       <r>   -0.7719    1.0000 </r>
       <r>   -0.7646    1.0000 </r>
       <r>   -0.7646    1.0000 </r>
       <r>    5.0183    0.0000 </r>
       <r>    5.0264    0.0000 </r>
       <r>    6.7090    0.0000 </r>
       <r>    6.7139    0.0000 </r>
       <r>    6.7139    0.0000 </r>
       <r>    6.7170    0.0000 </r>
       <r>    6.7198    0.0000 </r>
       <r>    6.7224    0.0000 </r>
       <r>    6.7224    0.0000 </r>
       <r>    6.7267    0.0000 </r>
       <r>    6.8384    0.0000 </r>
       <r>    6.8384    0.0000 </r>
       <r>    6.8391    0.0000 </r>
       <r>    6.8403    0.0000 </r>
       <r>    6.8461    0.0000 </r>
       <r>    6.8473    0.0000 </r>
       <r>    6.8483    0.0000 </r>
       <r>    6.8483    0.0000 </r>
       <r>    6.9679    0.0000 </r>
       <r>    6.9745    0.0000 </r>
       <r>    7.3562    0.0000 </r>
       <r>    7.3592    0.0000 </r>
       <r>    7.3660    0.0000 </r>
       <r>    7.3689    0.0000 </r>
       <r>    7.4772    0.0000 </r>
       <r>    7.4834    0.0000 </r>
       <r>    7.7099    0.0000 </r>
       <r>    7.7099    0.0000 </r>
       <r>    7.7193    0.0000 </r>
       <r>    7.7193    0.0000 </r>
       <r>    8.2557    0.0000 </r>
       <r>    8.2626    0.0000 </r>
       <r>    8.2626    0.0000 </r>
       <r>    8.2651    0.0000 </r>
       <r>    8.2668    0.0000 </r>
       <r>    8.2690    0.0000 </r>
       <r>    8.2690    0.0000 </r>
       <r>    8.2755    0.0000 </r>
       <r>    8.5255    0.0000 </r>
       <r>    8.5255    0.0000 </r>
       <r>    8.5312    0.0000 </r>
       <r>    8.5360    0.0000 </r>
       <r>    8.5360    0.0000 </r>
       <r>    8.5372    0.0000 </r>
       <r>    8.5398    0.0000 </r>
       <r>    8.5398    0.0000 </r>
       <r>    8.5403    0.0000 </r>
       <r>    8.5406    0.0000 </r>
       <r>    8.5412    0.0000 </r>
       <r>    8.5412    0.0000 </r>
       <r>    8.5412    0.0000 </r>
       <r>    8.5460    0.0000 </r>
       <r>    8.5474    0.0000 </r>
       <r>    8.5474    0.0000 </r>
       <r>    8.9460    0.0000 </r>
       <r>    8.9463    0.0000 </r>
       <r>    8.9463    0.0000 </r>
       <r>    8.9490    0.0000 </r>
       <r>    8.9528    0.0000 </r>
       <r>    8.9558    0.0000 </r>
       <r>    8.9559    0.0000 </r>
       <r>    8.9559    0.0000 </r>
       <r>    9.4873    0.0000 </r>
       <r>    9.5007    0.0000 </r>
      </set>
      <set comment="kpoint 3">
       <r>  -21.3087    1.0000 </r>
       <r>  -21.3087    1.0000 </r>
       <r>  -21.3084    1.0000 </r>
       <r>  -21.3006    1.0000 </r>
       <r>  -21.2999    1.0000 </r>
       <r>  -21.2999    1.0000 </r>
       <r>  -21.2997    1.0000 </r>
       <r>  -21.2996    1.0000 </r>
       <r>  -21.2969    1.0000 </r>
       <r>  -21.2969    1.0000 </r>
       <r>  -21.2952    1.0000 </r>
       <r>  -21.2936    1.0000 </r>
       <r>  -21.2931    1.0000 </r>
       <r>  -21.2924    1.0000 </r>
       <r>  -21.2919    1.0000 </r>
       <r>  -21.2915    1.0000 </r>
       <r>  -21.2915    1.0000 </r>
       <r>  -21.2912    1.0000 </r>
       <r>  -21.2910    1.0000 </r>
       <r>  -21.2908    1.0000 </r>
       <r>  -21.2903    1.0000 </r>
       <r>  -21.2897    1.0000 </r>
       <r>  -21.2895    1.0000 </r>
       <r>  -21.2893    1.0000 </r>
       <r>  -21.2889    1.0000 </r>
       <r>  -21.2884    1.0000 </r>
       <r>  -21.2882    1.0000 </r>
       <r>  -21.2879    1.0000 </r>
       <r>  -21.2869    1.0000 </r>
       <r>  -21.2868    1.0000 </r>
       <r>  -21.2866    1.0000 </r>
       <r>  -21.2850    1.0000 </r>
       <r>  -21.2847    1.0000 </r>
       <r>  -21.2845    1.0000 </r>
       <r>  -21.2841    1.0000 </r>
       <r>  -21.2841    1.0000 </r>
       <r>  -21.2837    1.0000 </r>
       <r>  -21.2833    1.0000 </r>
       <r>  -21.2829    1.0000 </r>
       <r>  -21.2826    1.0000 </r>
       <r>  -21.2816    1.0000 </r>
       <r>  -21.2809    1.0000 </r>
       <r>  -21.2808    1.0000 </r>
       <r>  -21.2808    1.0000 </r>
       <r>  -21.2807    1.0000 </r>
       <r>  -21.2804    1.0000 </r>
       <r>  -21.2798    1.0000 </r>
       <r>  -21.2793    1.0000 </r>
       <r>  -21.2790    1.0000 </r>
       <r>  -21.2790    1.0000 </r>
       <r>  -21.2783    1.0000 </r>
       <r>  -21.2783    1.0000 </r>
       <r>  -21.2779    1.0000 </r>
       <r>  -21.2776    1.0000 </r>
       <r>  -21.2775    1.0000 </r>
       <r>  -21.2773    1.0000 </r>
       <r>  -21.2771    1.0000 </r>
       <r>  -21.2768    1.0000 </r>
       <r>  -21.2764    1.0000 </r>
       <r>  -21.2763    1.0000 </r>
       <r>  -21.2762    1.0000 </r>
       <r>  -21.2760    1.0000 </r>
       <r>  -21.2759    1.0000 </r>
       <r>  -21.2753    1.0000 </r>
       <r>  -21.2750    1.0000 </r>
       <r>  -21.2748    1.0000 </r>
       <r>  -21.2747    1.0000 </r>
       <r>  -21.2746    1.0000 </r>
       <r>  -21.2741    1.0000 </r>
       <r>  -21.2740    1.0000 </r>
       <r>  -21.2736    1.0000 </r>
       <r>  -21.2735    1.0000 </r>
       <r>  -21.2731    1.0000 </r>
       <r>  -21.2726    1.0000 </r>
       <r>  -21.2723    1.0000 </r>
       <r>  -21.2721    1.0000 </r>
       <r>  -21.2719    1.0000 </r>
       <r>  -21.2716    1.0000 </r>
       <r>  -21.2715    1.0000 </r>
       <r>  -21.2714    1.0000 </r>
       <r>  -21.2713    1.0000 </r>
       <r>  -21.2708    1.0000 </r>
       <r>  -21.2707    1.0000 </r>
       <r>  -21.2707    1.0000 </r>
       <r>  -21.2701    1.0000 </r>
       <r>  -21.2700    1.0000 </r>
       <r>  -21.2699    1.0000 </r>
       <r>  -21.2696    1.0000 </r>
       <r>  -21.2692    1.0000 </r>
       <r>  -21.2687    1.0000 </r>
       <r>  -21.2685    1.0000 </r>
       <r>  -21.2683    1.0000 </r>
       <r>  -21.2681    1.0000 </r>
       <r>  -21.2558    1.0000 </r>
       <r>  -21.2557    1.0000 </r>
       <r>  -21.2556    1.0000 </r>
       <r>  -13.2915    1.0000 </r>
       <r>  -13.2912    1.0000 </r>
       <r>  -13.1040    1.0000 </r>
       <r>  -13.0984    1.0000 </r>
       <r>  -13.0971    1.0000 </r>
       <r>  -13.0971    1.0000 </r>
       <r>  -13.0969    1.0000 </r>
       <r>  -13.0969    1.0000 </r>
       <r>  -13.0954    1.0000 </r>
       <r>  -13.0912    1.0000 </r>
       <r>  -13.0068    1.0000 </r>
       <r>  -13.0011    1.0000 </r>
       <r>  -13.0010    1.0000 </r>
       <r>  -13.0007    1.0000 </r>
       <r>  -13.0006    1.0000 </r>
       <r>  -13.0006    1.0000 </r>
       <r>  -13.0004    1.0000 </r>
       <r>  -12.9999    1.0000 </r>
       <r>  -12.9952    1.0000 </r>
       <r>  -12.9924    1.0000 </r>
       <r>  -12.9495    1.0000 </r>
       <r>  -12.9455    1.0000 </r>
       <r>  -12.9453    1.0000 </r>
       <r>  -12.9439    1.0000 </r>
       <r>  -12.9437    1.0000 </r>
       <r>  -12.9432    1.0000 </r>
       <r>  -12.9423    1.0000 </r>
       <r>  -12.9376    1.0000 </r>
       <r>  -12.9311    1.0000 </r>
       <r>  -12.9307    1.0000 </r>
       <r>  -12.9305    1.0000 </r>
       <r>  -12.9253    1.0000 </r>
       <r>   -2.5054    1.0000 </r>
       <r>   -2.5048    1.0000 </r>
       <r>   -2.5047    1.0000 </r>
       <r>   -2.5044    1.0000 </r>
       <r>   -2.5042    1.0000 </r>
       <r>   -2.5040    1.0000 </r>
       <r>   -2.5040    1.0000 </r>
       <r>   -2.5035    1.0000 </r>
       <r>   -2.2877    1.0000 </r>
       <r>   -2.2877    1.0000 </r>
       <r>   -2.2876    1.0000 </r>
       <r>   -2.2876    1.0000 </r>
       <r>   -2.2743    1.0000 </r>
       <r>   -2.2741    1.0000 </r>
       <r>   -2.1409    1.0000 </r>
       <r>   -2.1365    1.0000 </r>
       <r>   -2.1364    1.0000 </r>
       <r>   -2.1364    1.0000 </r>
       <r>   -2.1363    1.0000 </r>
       <r>   -2.1362    1.0000 </r>
       <r>   -2.1361    1.0000 </r>
       <r>   -2.1320    1.0000 </r>
       <r>   -1.9867    1.0000 </r>
       <r>   -1.9867    1.0000 </r>
       <r>   -1.9858    1.0000 </r>
       <r>   -1.9856    1.0000 </r>
       <r>   -1.9855    1.0000 </r>
       <r>   -1.9854    1.0000 </r>
       <r>   -1.9840    1.0000 </r>
       <r>   -1.9839    1.0000 </r>
       <r>   -1.8127    1.0000 </r>
       <r>   -1.8089    1.0000 </r>
       <r>   -1.8088    1.0000 </r>
       <r>   -1.8087    1.0000 </r>
       <r>   -1.8086    1.0000 </r>
       <r>   -1.8085    1.0000 </r>
       <r>   -1.8077    1.0000 </r>
       <r>   -1.8058    1.0000 </r>
       <r>   -1.4979    1.0000 </r>
       <r>   -1.4978    1.0000 </r>
       <r>   -1.4978    1.0000 </r>
       <r>   -1.4977    1.0000 </r>
       <r>   -1.3806    1.0000 </r>
       <r>   -1.3805    1.0000 </r>
       <r>   -1.3804    1.0000 </r>
       <r>   -1.3804    1.0000 </r>
       <r>   -1.2144    1.0000 </r>
       <r>   -1.2126    1.0000 </r>
       <r>   -1.2126    1.0000 </r>
       <r>   -1.2123    1.0000 </r>
       <r>   -1.1933    1.0000 </r>
       <r>   -1.1926    1.0000 </r>
       <r>   -1.1917    1.0000 </r>
       <r>   -1.1916    1.0000 </r>
       <r>   -1.1914    1.0000 </r>
       <r>   -1.1909    1.0000 </r>
       <r>   -1.1898    1.0000 </r>
       <r>   -1.1893    1.0000 </r>
       <r>   -1.1770    1.0000 </r>
       <r>   -1.1752    1.0000 </r>
       <r>   -1.1743    1.0000 </r>
       <r>   -1.1740    1.0000 </r>
       <r>   -1.1740    1.0000 </r>
       <r>   -1.1736    1.0000 </r>
       <r>   -1.1736    1.0000 </r>
       <r>   -1.1708    1.0000 </r>
       <r>   -1.1619    1.0000 </r>
       <r>   -1.1599    1.0000 </r>
       <r>   -1.1596    1.0000 </r>
       <r>   -1.1596    1.0000 </r>
       <r>   -1.1589    1.0000 </r>
       <r>   -1.1588    1.0000 </r>
       <r>   -1.1573    1.0000 </r>
       <r>   -1.1572    1.0000 </r>
       <r>   -1.0833    1.0000 </r>
       <r>   -1.0831    1.0000 </r>
       <r>   -0.9479    1.0000 </r>
       <r>   -0.9473    1.0000 </r>
       <r>   -0.9469    1.0000 </r>
       <r>   -0.9469    1.0000 </r>
       <r>   -0.9468    1.0000 </r>
       <r>   -0.9468    1.0000 </r>
       <r>   -0.9466    1.0000 </r>
       <r>   -0.9458    1.0000 </r>
       <r>   -0.9375    1.0000 </r>
       <r>   -0.9340    1.0000 </r>
       <r>   -0.9323    1.0000 </r>
       <r>   -0.9320    1.0000 </r>
       <r>   -0.9317    1.0000 </r>
       <r>   -0.9315    1.0000 </r>
       <r>   -0.9307    1.0000 </r>
       <r>   -0.9276    1.0000 </r>
       <r>   -0.7684    1.0000 </r>
       <r>   -0.7683    1.0000 </r>
       <r>   -0.7680    1.0000 </r>
       <r>   -0.7679    1.0000 </r>
       <r>    5.0222    0.0000 </r>
       <r>    5.0224    0.0000 </r>
       <r>    6.7072    0.0000 </r>
       <r>    6.7160    0.0000 </r>
       <r>    6.7176    0.0000 </r>
       <r>    6.7184    0.0000 </r>
       <r>    6.7188    0.0000 </r>
       <r>    6.7201    0.0000 </r>
       <r>    6.7205    0.0000 </r>
       <r>    6.7260    0.0000 </r>
       <r>    6.8393    0.0000 </r>
       <r>    6.8394    0.0000 </r>
       <r>    6.8413    0.0000 </r>
       <r>    6.8430    0.0000 </r>
       <r>    6.8434    0.0000 </r>
       <r>    6.8452    0.0000 </r>
       <r>    6.8473    0.0000 </r>
       <r>    6.8475    0.0000 </r>
       <r>    6.9711    0.0000 </r>
       <r>    6.9712    0.0000 </r>
       <r>    7.3625    0.0000 </r>
       <r>    7.3625    0.0000 </r>
       <r>    7.3626    0.0000 </r>
       <r>    7.3628    0.0000 </r>
       <r>    7.4802    0.0000 </r>
       <r>    7.4802    0.0000 </r>
       <r>    7.7145    0.0000 </r>
       <r>    7.7146    0.0000 </r>
       <r>    7.7146    0.0000 </r>
       <r>    7.7146    0.0000 </r>
       <r>    8.2562    0.0000 </r>
       <r>    8.2639    0.0000 </r>
       <r>    8.2659    0.0000 </r>
       <r>    8.2660    0.0000 </r>
       <r>    8.2662    0.0000 </r>
       <r>    8.2675    0.0000 </r>
       <r>    8.2686    0.0000 </r>
       <r>    8.2728    0.0000 </r>
       <r>    8.5288    0.0000 </r>
       <r>    8.5309    0.0000 </r>
       <r>    8.5327    0.0000 </r>
       <r>    8.5351    0.0000 </r>
       <r>    8.5380    0.0000 </r>
       <r>    8.5382    0.0000 </r>
       <r>    8.5382    0.0000 </r>
       <r>    8.5392    0.0000 </r>
       <r>    8.5393    0.0000 </r>
       <r>    8.5394    0.0000 </r>
       <r>    8.5395    0.0000 </r>
       <r>    8.5397    0.0000 </r>
       <r>    8.5420    0.0000 </r>
       <r>    8.5421    0.0000 </r>
       <r>    8.5456    0.0000 </r>
       <r>    8.5474    0.0000 </r>
       <r>    8.9367    0.0000 </r>
       <r>    8.9502    0.0000 </r>
       <r>    8.9508    0.0000 </r>
       <r>    8.9509    0.0000 </r>
       <r>    8.9509    0.0000 </r>
       <r>    8.9516    0.0000 </r>
       <r>    8.9563    0.0000 </r>
       <r>    8.9598    0.0000 </r>
       <r>    9.4902    0.0000 </r>
       <r>    9.5237    0.0000 </r>
      </set>
      <set comment="kpoint 4">
       <r>  -21.3084    1.0000 </r>
       <r>  -21.3083    1.0000 </r>
       <r>  -21.3082    1.0000 </r>
       <r>  -21.2994    1.0000 </r>
       <r>  -21.2982    1.0000 </r>
       <r>  -21.2979    1.0000 </r>
       <r>  -21.2975    1.0000 </r>
       <r>  -21.2973    1.0000 </r>
       <r>  -21.2964    1.0000 </r>
       <r>  -21.2958    1.0000 </r>
       <r>  -21.2954    1.0000 </r>
       <r>  -21.2941    1.0000 </r>
       <r>  -21.2938    1.0000 </r>
       <r>  -21.2937    1.0000 </r>
       <r>  -21.2933    1.0000 </r>
       <r>  -21.2929    1.0000 </r>
       <r>  -21.2928    1.0000 </r>
       <r>  -21.2928    1.0000 </r>
       <r>  -21.2924    1.0000 </r>
       <r>  -21.2921    1.0000 </r>
       <r>  -21.2919    1.0000 </r>
       <r>  -21.2918    1.0000 </r>
       <r>  -21.2915    1.0000 </r>
       <r>  -21.2906    1.0000 </r>
       <r>  -21.2903    1.0000 </r>
       <r>  -21.2894    1.0000 </r>
       <r>  -21.2886    1.0000 </r>
       <r>  -21.2885    1.0000 </r>
       <r>  -21.2875    1.0000 </r>
       <r>  -21.2872    1.0000 </r>
       <r>  -21.2861    1.0000 </r>
       <r>  -21.2858    1.0000 </r>
       <r>  -21.2844    1.0000 </r>
       <r>  -21.2842    1.0000 </r>
       <r>  -21.2841    1.0000 </r>
       <r>  -21.2821    1.0000 </r>
       <r>  -21.2817    1.0000 </r>
[...]
      </set>
     </set>
    </set>
   </array>
  </eigenvalues>
  <separator name="orbital magnetization" >
   <v name="MAGDIPOLOUT">      0.00000000      0.00000000      0.00000000</v>
  </separator>
  <dos>
   <i name="efermi">     -0.55103672 </i>
   <total>
    <array>
     <dimension dim="1">gridpoints</dimension>
     <dimension dim="2">spin</dimension>
     <field>energy</field>
     <field>total</field>
     <field>integrated</field>
     <set>
      <set comment="spin 1">
       <r>   -22.8512     0.0000     0.0000 </r>
       <r>   -22.7381     0.0000     0.0000 </r>
       <r>   -22.6250     0.0000     0.0000 </r>
       <r>   -22.5120     0.0000     0.0000 </r>
       <r>   -22.3989     0.0000     0.0000 </r>
       <r>   -22.2859     0.0000     0.0000 </r>
       <r>   -22.1728     0.0000     0.0000 </r>
       <r>   -22.0598     0.0000     0.0000 </r>
       <r>   -21.9467     0.0000     0.0000 </r>
       <r>   -21.8337     0.0000     0.0000 </r>
       <r>   -21.7206     0.0000     0.0000 </r>
       <r>   -21.6076     0.0000     0.0000 </r>
       <r>   -21.4945     0.0000     0.0000 </r>
       <r>   -21.3814     0.0000     0.0000 </r>
       <r>   -21.2684  1293.5979   146.2479 </r>
       <r>   -21.1553   404.6886   192.0000 </r>
       <r>   -21.0423     0.0000   192.0000 </r>
       <r>   -20.9292     0.0000   192.0000 </r>
       <r>   -20.8162     0.0000   192.0000 </r>
       <r>   -20.7031     0.0000   192.0000 </r>
       <r>   -20.5901     0.0000   192.0000 </r>
       <r>   -20.4770     0.0000   192.0000 </r>
       <r>   -20.3639     0.0000   192.0000 </r>
       <r>   -20.2509     0.0000   192.0000 </r>
       <r>   -20.1378     0.0000   192.0000 </r>
       <r>   -20.0248     0.0000   192.0000 </r>
       <r>   -19.9117     0.0000   192.0000 </r>
       <r>   -19.7987     0.0000   192.0000 </r>
       <r>   -19.6856     0.0000   192.0000 </r>
       <r>   -19.5726     0.0000   192.0000 </r>
       <r>   -19.4595     0.0000   192.0000 </r>
       <r>   -19.3465     0.0000   192.0000 </r>
       <r>   -19.2334     0.0000   192.0000 </r>
       <r>   -19.1203     0.0000   192.0000 </r>
       <r>   -19.0073     0.0000   192.0000 </r>
       <r>   -18.8942     0.0000   192.0000 </r>
       <r>   -18.7812     0.0000   192.0000 </r>
       <r>   -18.6681     0.0000   192.0000 </r>
       <r>   -18.5551     0.0000   192.0000 </r>
       <r>   -18.4420     0.0000   192.0000 </r>
       <r>   -18.3290     0.0000   192.0000 </r>
       <r>   -18.2159     0.0000   192.0000 </r>
       <r>   -18.1028     0.0000   192.0000 </r>
       <r>   -17.9898     0.0000   192.0000 </r>
       <r>   -17.8767     0.0000   192.0000 </r>
       <r>   -17.7637     0.0000   192.0000 </r>
       <r>   -17.6506     0.0000   192.0000 </r>
       <r>   -17.5376     0.0000   192.0000 </r>
       <r>   -17.4245     0.0000   192.0000 </r>
       <r>   -17.3115     0.0000   192.0000 </r>
       <r>   -17.1984     0.0000   192.0000 </r>
       <r>   -17.0853     0.0000   192.0000 </r>
       <r>   -16.9723     0.0000   192.0000 </r>
       <r>   -16.8592     0.0000   192.0000 </r>
       <r>   -16.7462     0.0000   192.0000 </r>
       <r>   -16.6331     0.0000   192.0000 </r>
       <r>   -16.5201     0.0000   192.0000 </r>
       <r>   -16.4070     0.0000   192.0000 </r>
       <r>   -16.2940     0.0000   192.0000 </r>
       <r>   -16.1809     0.0000   192.0000 </r>
       <r>   -16.0679     0.0000   192.0000 </r>
       <r>   -15.9548     0.0000   192.0000 </r>
       <r>   -15.8417     0.0000   192.0000 </r>
       <r>   -15.7287     0.0000   192.0000 </r>
       <r>   -15.6156     0.0000   192.0000 </r>
       <r>   -15.5026     0.0000   192.0000 </r>
       <r>   -15.3895     0.0000   192.0000 </r>
       <r>   -15.2765     0.0000   192.0000 </r>
       <r>   -15.1634     0.0000   192.0000 </r>
       <r>   -15.0504     0.0000   192.0000 </r>
       <r>   -14.9373     0.0000   192.0000 </r>
       <r>   -14.8242     0.0000   192.0000 </r>
       <r>   -14.7112     0.0000   192.0000 </r>
       <r>   -14.5981     0.0000   192.0000 </r>
       <r>   -14.4851     0.0000   192.0000 </r>
       <r>   -14.3720     0.0000   192.0000 </r>
       <r>   -14.2590     0.0000   192.0000 </r>
       <r>   -14.1459     0.0000   192.0000 </r>
       <r>   -14.0329     0.0000   192.0000 </r>
       <r>   -13.9198     0.0000   192.0000 </r>
       <r>   -13.8068     0.0000   192.0000 </r>
       <r>   -13.6937     0.0000   192.0000 </r>
       <r>   -13.5806     0.0000   192.0000 </r>
       <r>   -13.4676     0.0000   192.0000 </r>
       <r>   -13.3545     1.3244   192.1497 </r>
       <r>   -13.2415    20.8191   194.5034 </r>
       <r>   -13.1284    48.1994   199.9529 </r>
       <r>   -13.0154   129.6206   214.6074 </r>
       <r>   -12.9023   363.0073   255.6483 </r>
       <r>   -12.7893     3.1038   256.0000 </r>
       <r>   -12.6762     0.0000   256.0000 </r>
       <r>   -12.5631     0.0000   256.0000 </r>
       <r>   -12.4501     0.0000   256.0000 </r>
       <r>   -12.3370     0.0000   256.0000 </r>
       <r>   -12.2240     0.0000   256.0000 </r>
       <r>   -12.1109     0.0000   256.0000 </r>
       <r>   -11.9979     0.0000   256.0000 </r>
       <r>   -11.8848     0.0000   256.0000 </r>
       <r>   -11.7718     0.0000   256.0000 </r>
       <r>   -11.6587     0.0000   256.0000 </r>
       <r>   -11.5456     0.0000   256.0000 </r>
       <r>   -11.4326     0.0000   256.0000 </r>
       <r>   -11.3195     0.0000   256.0000 </r>
       <r>   -11.2065     0.0000   256.0000 </r>
       <r>   -11.0934     0.0000   256.0000 </r>
       <r>   -10.9804     0.0000   256.0000 </r>
       <r>   -10.8673     0.0000   256.0000 </r>
       <r>   -10.7543     0.0000   256.0000 </r>
       <r>   -10.6412     0.0000   256.0000 </r>
       <r>   -10.5282     0.0000   256.0000 </r>
       <r>   -10.4151     0.0000   256.0000 </r>
       <r>   -10.3020     0.0000   256.0000 </r>
       <r>   -10.1890     0.0000   256.0000 </r>
       <r>   -10.0759     0.0000   256.0000 </r>
       <r>    -9.9629     0.0000   256.0000 </r>
       <r>    -9.8498     0.0000   256.0000 </r>
       <r>    -9.7368     0.0000   256.0000 </r>
       <r>    -9.6237     0.0000   256.0000 </r>
       <r>    -9.5107     0.0000   256.0000 </r>
       <r>    -9.3976     0.0000   256.0000 </r>
       <r>    -9.2845     0.0000   256.0000 </r>
       <r>    -9.1715     0.0000   256.0000 </r>
       <r>    -9.0584     0.0000   256.0000 </r>
       <r>    -8.9454     0.0000   256.0000 </r>
       <r>    -8.8323     0.0000   256.0000 </r>
       <r>    -8.7193     0.0000   256.0000 </r>
       <r>    -8.6062     0.0000   256.0000 </r>
       <r>    -8.4932     0.0000   256.0000 </r>
       <r>    -8.3801     0.0000   256.0000 </r>
       <r>    -8.2670     0.0000   256.0000 </r>
       <r>    -8.1540     0.0000   256.0000 </r>
       <r>    -8.0409     0.0000   256.0000 </r>
       <r>    -7.9279     0.0000   256.0000 </r>
       <r>    -7.8148     0.0000   256.0000 </r>
       <r>    -7.7018     0.0000   256.0000 </r>
       <r>    -7.5887     0.0000   256.0000 </r>
       <r>    -7.4757     0.0000   256.0000 </r>
       <r>    -7.3626     0.0000   256.0000 </r>
       <r>    -7.2496     0.0000   256.0000 </r>
       <r>    -7.1365     0.0000   256.0000 </r>
       <r>    -7.0234     0.0000   256.0000 </r>
       <r>    -6.9104     0.0000   256.0000 </r>
       <r>    -6.7973     0.0000   256.0000 </r>
       <r>    -6.6843     0.0000   256.0000 </r>
       <r>    -6.5712     0.0000   256.0000 </r>
       <r>    -6.4582     0.0000   256.0000 </r>
       <r>    -6.3451     0.0000   256.0000 </r>
       <r>    -6.2321     0.0000   256.0000 </r>
       <r>    -6.1190     0.0000   256.0000 </r>
       <r>    -6.0059     0.0000   256.0000 </r>
       <r>    -5.8929     0.0000   256.0000 </r>
       <r>    -5.7798     0.0000   256.0000 </r>
       <r>    -5.6668     0.0000   256.0000 </r>
       <r>    -5.5537     0.0000   256.0000 </r>
       <r>    -5.4407     0.0000   256.0000 </r>
       <r>    -5.3276     0.0000   256.0000 </r>
       <r>    -5.2146     0.0000   256.0000 </r>
       <r>    -5.1015     0.0000   256.0000 </r>
       <r>    -4.9885     0.0000   256.0000 </r>
       <r>    -4.8754     0.0000   256.0000 </r>
       <r>    -4.7623     0.0000   256.0000 </r>
       <r>    -4.6493     0.0000   256.0000 </r>
       <r>    -4.5362     0.0000   256.0000 </r>
       <r>    -4.4232     0.0000   256.0000 </r>
       <r>    -4.3101     0.0000   256.0000 </r>
       <r>    -4.1971     0.0000   256.0000 </r>
       <r>    -4.0840     0.0000   256.0000 </r>
       <r>    -3.9710     0.0000   256.0000 </r>
       <r>    -3.8579     0.0000   256.0000 </r>
       <r>    -3.7448     0.0000   256.0000 </r>
       <r>    -3.6318     0.0000   256.0000 </r>
       <r>    -3.5187     0.0000   256.0000 </r>
       <r>    -3.4057     0.0000   256.0000 </r>
       <r>    -3.2926     0.0000   256.0000 </r>
       <r>    -3.1796     0.0000   256.0000 </r>
       <r>    -3.0665     0.0000   256.0000 </r>
       <r>    -2.9535     0.0000   256.0000 </r>
       <r>    -2.8404     0.0000   256.0000 </r>
       <r>    -2.7273     0.2351   256.0266 </r>
       <r>    -2.6143     8.6101   257.0000 </r>
       <r>    -2.5012    31.1514   260.5218 </r>
       <r>    -2.3882    79.4160   269.5002 </r>
       <r>    -2.2751    86.1616   279.2412 </r>
       <r>    -2.1621   152.6438   296.4989 </r>
       <r>    -2.0490    68.5605   304.2500 </r>
       <r>    -1.9360    58.7565   310.8928 </r>
       <r>    -1.8229    66.8093   318.4472 </r>
       <r>    -1.7099    64.5955   325.7500 </r>
       <r>    -1.5968     0.0000   325.7500 </r>
       <r>    -1.4837    88.5043   335.7559 </r>
       <r>    -1.3707   182.8531   356.4283 </r>
       <r>    -1.2576    21.3669   358.8440 </r>
       <r>    -1.1446   261.6931   388.4297 </r>
       <r>    -1.0315   131.8694   403.3393 </r>
       <r>    -0.9185   262.4930   433.0157 </r>
       <r>    -0.8054    59.4603   439.7383 </r>
       <r>    -0.6924    66.5987   447.2677 </r>
       <r>    -0.5793     6.4751   448.0000 </r>
       <r>    -0.4662     0.0000   448.0000 </r>
       <r>    -0.3532     0.0000   448.0000 </r>
       <r>    -0.2401     0.0000   448.0000 </r>
       <r>    -0.1271     0.0000   448.0000 </r>
       <r>    -0.0140     0.0000   448.0000 </r>
       <r>     0.0990     0.0000   448.0000 </r>
       <r>     0.2121     0.0000   448.0000 </r>
       <r>     0.3251     0.0000   448.0000 </r>
       <r>     0.4382     0.0000   448.0000 </r>
       <r>     0.5513     0.0000   448.0000 </r>
       <r>     0.6643     0.0000   448.0000 </r>
       <r>     0.7774     0.0000   448.0000 </r>
       <r>     0.8904     0.0000   448.0000 </r>
       <r>     1.0035     0.0000   448.0000 </r>
       <r>     1.1165     0.0000   448.0000 </r>
       <r>     1.2296     0.0000   448.0000 </r>
       <r>     1.3426     0.0000   448.0000 </r>
       <r>     1.4557     0.0000   448.0000 </r>
       <r>     1.5687     0.0000   448.0000 </r>
       <r>     1.6818     0.0000   448.0000 </r>
       <r>     1.7949     0.0000   448.0000 </r>
       <r>     1.9079     0.0000   448.0000 </r>
       <r>     2.0210     0.0000   448.0000 </r>
       <r>     2.1340     0.0000   448.0000 </r>
       <r>     2.2471     0.0000   448.0000 </r>
       <r>     2.3601     0.0000   448.0000 </r>
       <r>     2.4732     0.0000   448.0000 </r>
       <r>     2.5862     0.0000   448.0000 </r>
       <r>     2.6993     0.0000   448.0000 </r>
       <r>     2.8124     0.0000   448.0000 </r>
       <r>     2.9254     0.0000   448.0000 </r>
       <r>     3.0385     0.0000   448.0000 </r>
       <r>     3.1515     0.0000   448.0000 </r>
       <r>     3.2646     0.0000   448.0000 </r>
       <r>     3.3776     0.0000   448.0000 </r>
       <r>     3.4907     0.0000   448.0000 </r>
       <r>     3.6037     0.0000   448.0000 </r>
       <r>     3.7168     0.0000   448.0000 </r>
       <r>     3.8298     0.0000   448.0000 </r>
       <r>     3.9429     0.0000   448.0000 </r>
       <r>     4.0560     0.0000   448.0000 </r>
       <r>     4.1690     0.0000   448.0000 </r>
       <r>     4.2821     0.0000   448.0000 </r>
       <r>     4.3951     2.2112   448.2500 </r>
       <r>     4.5082     0.0000   448.2500 </r>
       <r>     4.6212     0.0000   448.2500 </r>
       <r>     4.7343     0.0000   448.2500 </r>
       <r>     4.8473     0.0000   448.2500 </r>
       <r>     4.9604     0.0001   448.2500 </r>
       <r>     5.0735    13.2654   449.7497 </r>
       <r>     5.1865     0.0000   449.7500 </r>
       <r>     5.2996     0.0000   449.7500 </r>
       <r>     5.4126     0.0000   449.7500 </r>
       <r>     5.5257     4.6397   450.2745 </r>
       <r>     5.6387    21.8961   452.7500 </r>
       <r>     5.7518     0.0000   452.7500 </r>
       <r>     5.8648    17.4563   454.7235 </r>
       <r>     5.9779     0.2342   454.7500 </r>
       <r>     6.0910     0.0000   454.7500 </r>
       <r>     6.2040     0.0000   454.7500 </r>
       <r>     6.3171     0.0041   454.7505 </r>
       <r>     6.4301    14.5993   456.4010 </r>
       <r>     6.5432     7.5095   457.2500 </r>
       <r>     6.6562    46.6773   462.5271 </r>
       <r>     6.7693    59.4502   469.2483 </r>
       <r>     6.8823    59.5203   475.9780 </r>
       <r>     6.9954    12.8679   477.4328 </r>
       <r>     7.1084     0.5943   477.5000 </r>
       <r>     7.2215     5.6457   478.1383 </r>
       <r>     7.3346     1.6856   478.3288 </r>
       <r>     7.4476    83.6779   487.7891 </r>
       <r>     7.5607   166.4682   506.6101 </r>
       <r>     7.6737     1.2974   506.7568 </r>
       <r>     7.7868    26.4754   509.7500 </r>
       <r>     7.8998     0.5936   509.8171 </r>
       <r>     8.0129    52.4779   515.7500 </r>
       <r>     8.1259     0.0234   515.7526 </r>
       <r>     8.2390    15.2189   517.4732 </r>
       <r>     8.3521    90.8983   527.7497 </r>
       <r>     8.4651     0.0001   527.7500 </r>
       <r>     8.5782   153.5792   545.1129 </r>
       <r>     8.6912     5.6307   545.7500 </r>
       <r>     8.8043     0.0000   545.7500 </r>
       <r>     8.9173    88.2650   555.7288 </r>
       <r>     9.0304   119.9500   569.2898 </r>
       <r>     9.1434     1.8594   569.5000 </r>
       <r>     9.2565    31.3811   573.0478 </r>
       <r>     9.3696    12.8451   574.5000 </r>
       <r>     9.4826     2.3525   574.7660 </r>
       <r>     9.5957    10.9153   576.0000 </r>
       <r>     9.7087     0.0000   576.0000 </r>
       <r>     9.8218     0.0000   576.0000 </r>
       <r>     9.9348     0.0000   576.0000 </r>
       <r>    10.0479     0.0000   576.0000 </r>
       <r>    10.1609     0.0000   576.0000 </r>
       <r>    10.2740     0.0000   576.0000 </r>
       <r>    10.3870     0.0000   576.0000 </r>
       <r>    10.5001     0.0000   576.0000 </r>
       <r>    10.6132     0.0000   576.0000 </r>
       <r>    10.7262     0.0000   576.0000 </r>
       <r>    10.8393     0.0000   576.0000 </r>
       <r>    10.9523     0.0000   576.0000 </r>
       <r>    11.0654     0.0000   576.0000 </r>
      </set>
     </set>
    </array>
   </total>
  </dos>
 </calculation>
 <structure name="finalpos" >
  <crystal>
   <varray name="basis" >
    <v>      11.20400236       0.00000000       0.00000000 </v>
    <v>       0.00000000      11.20400236       0.00000000 </v>
    <v>       0.00000000       0.00000000      11.20400236 </v>
   </varray>
   <i name="volume">   1406.43470641 </i>
   <varray name="rec_basis" >
    <v>       0.08925382       0.00000000       0.00000000 </v>
    <v>       0.00000000       0.08925382       0.00000000 </v>
    <v>       0.00000000       0.00000000       0.08925382 </v>
   </varray>
  </crystal>
  <varray name="positions" >
   <v>       0.00267761       0.00000000       0.00000000 </v>
   <v>       0.25000000       0.25000000       0.00000000 </v>
   <v>       0.25000000       0.00000000       0.25000000 </v>
   <v>       0.00000000       0.25000000       0.25000000 </v>
   <v>       0.00000000       0.00000000       0.50000000 </v>
   <v>       0.25000000       0.25000000       0.50000000 </v>
   <v>       0.25000000       0.00000000       0.75000000 </v>
   <v>       0.00000000       0.25000000       0.75000000 </v>
   <v>       0.00000000       0.50000000       0.00000000 </v>
   <v>       0.25000000       0.75000000       0.00000000 </v>
   <v>       0.25000000       0.50000000       0.25000000 </v>
   <v>       0.00000000       0.75000000       0.25000000 </v>
   <v>       0.00000000       0.50000000       0.50000000 </v>
   <v>       0.25000000       0.75000000       0.50000000 </v>
   <v>       0.25000000       0.50000000       0.75000000 </v>
   <v>       0.00000000       0.75000000       0.75000000 </v>
   <v>       0.50000000       0.00000000       0.00000000 </v>
   <v>       0.75000000       0.25000000       0.00000000 </v>
   <v>       0.75000000       0.00000000       0.25000000 </v>
   <v>       0.50000000       0.25000000       0.25000000 </v>
   <v>       0.50000000       0.00000000       0.50000000 </v>
   <v>       0.75000000       0.25000000       0.50000000 </v>
   <v>       0.75000000       0.00000000       0.75000000 </v>
   <v>       0.50000000       0.25000000       0.75000000 </v>
   <v>       0.50000000       0.50000000       0.00000000 </v>
   <v>       0.75000000       0.75000000       0.00000000 </v>
   <v>       0.75000000       0.50000000       0.25000000 </v>
   <v>       0.50000000       0.75000000       0.25000000 </v>
   <v>       0.50000000       0.50000000       0.50000000 </v>
   <v>       0.75000000       0.75000000       0.50000000 </v>
   <v>       0.75000000       0.50000000       0.75000000 </v>
   <v>       0.50000000       0.75000000       0.75000000 </v>
   <v>       0.25000000       0.25000000       0.25000000 </v>
   <v>       0.00000000       0.00000000       0.25000000 </v>
   <v>       0.00000000       0.25000000       0.00000000 </v>
   <v>       0.25267761       0.00000000       0.00000000 </v>
   <v>       0.25000000       0.25000000       0.75000000 </v>
   <v>       0.00000000       0.00000000       0.75000000 </v>
   <v>       0.00000000       0.25000000       0.50000000 </v>
   <v>       0.25000000       0.00000000       0.50000000 </v>
   <v>       0.25000000       0.75000000       0.25000000 </v>
   <v>       0.00000000       0.50000000       0.25000000 </v>
   <v>       0.00000000       0.75000000       0.00000000 </v>
   <v>       0.25000000       0.50000000       0.00000000 </v>
   <v>       0.25000000       0.75000000       0.75000000 </v>
   <v>       0.00000000       0.50000000       0.75000000 </v>
   <v>       0.00000000       0.75000000       0.50000000 </v>
   <v>       0.25000000       0.50000000       0.50000000 </v>
   <v>       0.75000000       0.25000000       0.25000000 </v>
   <v>       0.50000000       0.00000000       0.25000000 </v>
   <v>       0.50000000       0.25000000       0.00000000 </v>
   <v>       0.75000000       0.00000000       0.00000000 </v>
   <v>       0.75000000       0.25000000       0.75000000 </v>
   <v>       0.50000000       0.00000000       0.75000000 </v>
   <v>       0.50000000       0.25000000       0.50000000 </v>
   <v>       0.75000000       0.00000000       0.50000000 </v>
   <v>       0.75000000       0.75000000       0.25000000 </v>
   <v>       0.50000000       0.50000000       0.25000000 </v>
   <v>       0.50000000       0.75000000       0.00000000 </v>
   <v>       0.75000000       0.50000000       0.00000000 </v>
   <v>       0.75000000       0.75000000       0.75000000 </v>
   <v>       0.50000000       0.50000000       0.75000000 </v>
   <v>       0.50000000       0.75000000       0.50000000 </v>
   <v>       0.75000000       0.50000000       0.50000000 </v>
  </varray>
 </structure>
</modeling>
