  64  64   0   0
  0.2006348E+02  0.1086915E-08  0.1086915E-08  0.1086915E-08  0.5000000E-15
  1.000000000000000E-004
  CAR 
 unknown system                          
     10.10115507     -6.98202769  301      5.89442132      1.00000000
     -6.982  0.0000E+00  0.0000E+00
     -6.925  0.0000E+00  0.0000E+00
     -6.868  0.0000E+00  0.0000E+00
     -6.811  0.0000E+00  0.0000E+00
     -6.754  0.0000E+00  0.0000E+00
     -6.697  0.0000E+00  0.0000E+00
     -6.640  0.0000E+00  0.0000E+00
     -6.583  0.0000E+00  0.0000E+00
     -6.526  0.0000E+00  0.0000E+00
     -6.470  0.0000E+00  0.0000E+00
     -6.413  0.0000E+00  0.0000E+00
     -6.356  0.0000E+00  0.0000E+00
     -6.299  0.9727E-10  0.5539E-11
     -6.242  0.2282E-01  0.1300E-02
     -6.185  0.4053E+01  0.2321E+00
     -6.128  0.3142E+00  0.2500E+00
     -6.071  0.8786E-07  0.2500E+00
     -6.014  0.9504E-07  0.2500E+00
     -5.957  0.1020E+01  0.3081E+00
     -5.900  0.2500E+02  0.1732E+01
     -5.843  0.3182E+00  0.1750E+01
     -5.786  0.4610E-08  0.1750E+01
     -5.729  0.1105E-03  0.1750E+01
     -5.672  0.1460E+02  0.2582E+01
     -5.615  0.3806E+02  0.4749E+01
     -5.558  0.1656E-01  0.4750E+01
     -5.501  0.1395E-09  0.4750E+01
     -5.445  0.7516E-01  0.4754E+01
     -5.388  0.3052E+02  0.6492E+01
     -5.331  0.4531E+01  0.6750E+01
     -5.274  0.5203E-05  0.6750E+01
     -5.217  0.2787E-09  0.6750E+01
     -5.160  0.9020E-01  0.6755E+01
     -5.103  0.2366E+02  0.8102E+01
     -5.046  0.2593E+01  0.8250E+01
     -4.989  0.1632E-05  0.8250E+01
     -4.932  0.1851E-02  0.8250E+01
     -4.875  0.4576E+02  0.1086E+02
     -4.818  0.5960E+02  0.1425E+02
     -4.761  0.7092E-02  0.1425E+02
     -4.704  0.1413E-02  0.1425E+02
     -4.647  0.4339E+02  0.1672E+02
     -4.590  0.6197E+02  0.2025E+02
     -4.533  0.8943E-02  0.2025E+02
     -4.476  0.0000E+00  0.2025E+02
     -4.420  0.0000E+00  0.2025E+02
     -4.363  0.0000E+00  0.2025E+02
     -4.306  0.0000E+00  0.2025E+02
     -4.249  0.2208E-08  0.2025E+02
     -4.192  0.2850E+00  0.2027E+02
     -4.135  0.4818E+02  0.2301E+02
     -4.078  0.4222E+01  0.2325E+02
     -4.021  0.5784E+02  0.2654E+02
     -3.964  0.4751E+02  0.2925E+02
     -3.907  0.1212E-01  0.2925E+02
     -3.850  0.1353E+02  0.3002E+02
     -3.793  0.2537E+02  0.3147E+02
     -3.736  0.4994E+01  0.3175E+02
     -3.679  0.2602E-04  0.3175E+02
     -3.622  0.1243E+02  0.3246E+02
     -3.565  0.9266E+02  0.3773E+02
     -3.508  0.2212E+01  0.3786E+02
     -3.452  0.9965E+02  0.4353E+02
     -3.395  0.3783E+01  0.4375E+02
     -3.338  0.1389E+02  0.4454E+02
     -3.281  0.9125E+02  0.4974E+02
     -3.224  0.2228E+00  0.4975E+02
     -3.167  0.1543E-07  0.4975E+02
     -3.110  0.1032E+01  0.4981E+02
     -3.053  0.9902E+02  0.5545E+02
     -2.996  0.5314E+01  0.5575E+02
     -2.939  0.9801E-06  0.5575E+02
     -2.882  0.0000E+00  0.5575E+02
     -2.825  0.0000E+00  0.5575E+02
     -2.768  0.0000E+00  0.5575E+02
     -2.711  0.0000E+00  0.5575E+02
     -2.654  0.0000E+00  0.5575E+02
     -2.597  0.0000E+00  0.5575E+02
     -2.540  0.4176E-06  0.5575E+02
     -2.483  0.2542E+01  0.5589E+02
     -2.427  0.4962E+02  0.5872E+02
     -2.370  0.5167E+00  0.5875E+02
     -2.313  0.6148E-08  0.5875E+02
     -2.256  0.0000E+00  0.5875E+02
     -2.199  0.0000E+00  0.5875E+02
     -2.142  0.3600E-08  0.5875E+02
     -2.085  0.2749E+00  0.5877E+02
     -2.028  0.2487E+02  0.6018E+02
     -1.971  0.5537E+02  0.6334E+02
     -1.914  0.5197E+02  0.6629E+02
     -1.857  0.4994E+02  0.6914E+02
     -1.800  0.1968E+01  0.6925E+02
     -1.743  0.2245E-06  0.6925E+02
     -1.686  0.0000E+00  0.6925E+02
     -1.629  0.0000E+00  0.6925E+02
     -1.572  0.3112E-12  0.6925E+02
     -1.515  0.5478E-02  0.6925E+02
     -1.458  0.3247E+02  0.7110E+02
     -1.402  0.2021E+02  0.7225E+02
     -1.345  0.4520E-03  0.7225E+02
     -1.288  0.1805E-02  0.7225E+02
     -1.231  0.1072E+02  0.7286E+02
     -1.174  0.6839E+01  0.7325E+02
     -1.117  0.1712E-03  0.7325E+02
     -1.060  0.7026E+01  0.7365E+02
     -1.003  0.9764E+02  0.7921E+02
     -0.946  0.7051E+00  0.7925E+02
     -0.889  0.1056E-06  0.7925E+02
     -0.832  0.2226E+01  0.7938E+02
     -0.775  0.1004E+03  0.8510E+02
     -0.718  0.2692E+01  0.8525E+02
     -0.661  0.3653E+01  0.8546E+02
     -0.604  0.1964E+03  0.9664E+02
     -0.547  0.1066E+02  0.9725E+02
     -0.490  0.5734E-05  0.9725E+02
     -0.433  0.0000E+00  0.9725E+02
     -0.377  0.0000E+00  0.9725E+02
     -0.320  0.0000E+00  0.9725E+02
     -0.263  0.1226E-03  0.9725E+02
     -0.206  0.2443E+02  0.9864E+02
     -0.149  0.8088E+02  0.1032E+03
     -0.092  0.5815E-01  0.1032E+03
     -0.035  0.5398E-03  0.1033E+03
      0.022  0.1231E+02  0.1040E+03
      0.079  0.1403E+02  0.1047E+03
      0.136  0.1083E-02  0.1048E+03
      0.193  0.1351E-07  0.1048E+03
      0.250  0.6609E+00  0.1048E+03
      0.307  0.4984E+02  0.1076E+03
      0.364  0.2179E+01  0.1077E+03
      0.421  0.1034E+00  0.1078E+03
      0.478  0.8541E+02  0.1126E+03
      0.535  0.1985E+02  0.1137E+03
      0.592  0.6033E-04  0.1138E+03
      0.648  0.0000E+00  0.1138E+03
      0.705  0.0000E+00  0.1138E+03
      0.762  0.0000E+00  0.1138E+03
      0.819  0.0000E+00  0.1138E+03
      0.876  0.0000E+00  0.1138E+03
      0.933  0.0000E+00  0.1138E+03
      0.990  0.0000E+00  0.1138E+03
      1.047  0.0000E+00  0.1138E+03
      1.104  0.0000E+00  0.1138E+03
      1.161  0.0000E+00  0.1138E+03
      1.218  0.0000E+00  0.1138E+03
      1.275  0.0000E+00  0.1138E+03
      1.332  0.4641E-07  0.1138E+03
      1.389  0.1207E+01  0.1138E+03
      1.446  0.5284E+02  0.1168E+03
      1.503  0.1796E+03  0.1271E+03
      1.560  0.2979E+02  0.1287E+03
      1.617  0.1677E-03  0.1288E+03
      1.673  0.0000E+00  0.1288E+03
      1.730  0.1944E-08  0.1288E+03
      1.787  0.2393E+00  0.1288E+03
      1.844  0.3413E+02  0.1307E+03
      1.901  0.5253E+02  0.1337E+03
      1.958  0.8480E+01  0.1342E+03
      2.015  0.4503E+02  0.1367E+03
      2.072  0.8744E-01  0.1367E+03
      2.129  0.8721E-04  0.1368E+03
      2.186  0.2042E+02  0.1379E+03
      2.243  0.9217E+02  0.1432E+03
      2.300  0.1150E+03  0.1497E+03
      2.357  0.1291E+03  0.1571E+03
      2.414  0.9092E+02  0.1622E+03
      2.471  0.1796E+00  0.1622E+03
      2.528  0.2011E-09  0.1622E+03
      2.585  0.0000E+00  0.1622E+03
      2.641  0.0000E+00  0.1622E+03
      2.698  0.0000E+00  0.1622E+03
      2.755  0.0000E+00  0.1622E+03
      2.812  0.3668E-08  0.1623E+03
      2.869  0.2898E+00  0.1623E+03
      2.926  0.2495E+02  0.1637E+03
      2.983  0.5386E+02  0.1668E+03
      3.040  0.1434E+03  0.1749E+03
      3.097  0.6321E+02  0.1785E+03
      3.154  0.7651E+02  0.1829E+03
      3.211  0.8554E+02  0.1877E+03
      3.268  0.1107E+02  0.1884E+03
      3.325  0.1109E+03  0.1947E+03
      3.382  0.3606E+02  0.1967E+03
      3.439  0.1017E-01  0.1967E+03
      3.496  0.4462E-02  0.1968E+03
      3.553  0.5340E+02  0.1998E+03
      3.610  0.1470E+03  0.2082E+03
      3.666  0.1030E+02  0.2087E+03
      3.723  0.6345E-05  0.2088E+03
      3.780  0.4764E-07  0.2088E+03
      3.837  0.1069E+01  0.2088E+03
      3.894  0.5511E+02  0.2119E+03
      3.951  0.1008E+03  0.2177E+03
      4.008  0.1105E+01  0.2177E+03
      4.065  0.4312E-02  0.2178E+03
      4.122  0.3165E+02  0.2196E+03
      4.179  0.8760E+02  0.2245E+03
      4.236  0.3879E+02  0.2267E+03
      4.293  0.3416E+00  0.2268E+03
      4.350  0.9411E+02  0.2321E+03
      4.407  0.1269E+02  0.2329E+03
      4.464  0.7572E+02  0.2372E+03
      4.521  0.9792E+02  0.2427E+03
      4.578  0.3373E+02  0.2447E+03
      4.635  0.1037E+02  0.2452E+03
      4.691  0.1164E-03  0.2452E+03
      4.748  0.0000E+00  0.2452E+03
      4.805  0.0000E+00  0.2452E+03
      4.862  0.2123E-08  0.2453E+03
      4.919  0.3103E+00  0.2453E+03
      4.976  0.4978E+02  0.2481E+03
      5.033  0.7004E+02  0.2521E+03
      5.090  0.2802E+01  0.2522E+03
      5.147  0.4765E-06  0.2522E+03
      5.204  0.0000E+00  0.2522E+03
      5.261  0.0000E+00  0.2522E+03
      5.318  0.0000E+00  0.2522E+03
      5.375  0.5966E-11  0.2523E+03
      5.432  0.1885E-01  0.2523E+03
      5.489  0.3806E+02  0.2544E+03
      5.546  0.1461E+02  0.2552E+03
      5.603  0.1186E-03  0.2552E+03
      5.660  0.2681E-13  0.2552E+03
      5.716  0.7188E-03  0.2553E+03
      5.773  0.7115E+01  0.2557E+03
      5.830  0.6055E+01  0.2560E+03
      5.887  0.3071E-03  0.2560E+03
      5.944  0.0000E+00  0.2560E+03
      6.001  0.0000E+00  0.2560E+03
      6.058  0.0000E+00  0.2560E+03
      6.115  0.0000E+00  0.2560E+03
      6.172  0.3816E-12  0.2560E+03
      6.229  0.4477E-02  0.2560E+03
      6.286  0.1762E+02  0.2570E+03
      6.343  0.1015E+02  0.2576E+03
      6.400  0.2469E+02  0.2590E+03
      6.457  0.2240E+00  0.2590E+03
      6.514  0.2305E-08  0.2590E+03
      6.571  0.0000E+00  0.2590E+03
      6.628  0.0000E+00  0.2590E+03
      6.685  0.0000E+00  0.2590E+03
      6.741  0.3693E-04  0.2590E+03
      6.798  0.6548E+01  0.2594E+03
      6.855  0.3195E+02  0.2612E+03
      6.912  0.4050E+02  0.2635E+03
      6.969  0.2770E-01  0.2635E+03
      7.026  0.4337E-11  0.2635E+03
      7.083  0.2881E-10  0.2635E+03
      7.140  0.4618E-01  0.2635E+03
      7.197  0.9092E+02  0.2687E+03
      7.254  0.5724E+02  0.2719E+03
      7.311  0.1057E+01  0.2720E+03
      7.368  0.2136E-06  0.2720E+03
      7.425  0.0000E+00  0.2720E+03
      7.482  0.0000E+00  0.2720E+03
      7.539  0.3274E-08  0.2720E+03
      7.596  0.6186E+00  0.2720E+03
      7.653  0.1692E+03  0.2817E+03
      7.710  0.5496E+02  0.2848E+03
      7.766  0.4738E+02  0.2875E+03
      7.823  0.8326E-01  0.2875E+03
      7.880  0.1543E-02  0.2875E+03
      7.937  0.4470E+02  0.2900E+03
      7.994  0.6065E+02  0.2935E+03
      8.051  0.2895E+02  0.2951E+03
      8.108  0.7781E+02  0.2996E+03
      8.165  0.1461E+03  0.3079E+03
      8.222  0.1061E+02  0.3085E+03
      8.279  0.3748E+01  0.3087E+03
      8.336  0.1071E+03  0.3148E+03
      8.393  0.7654E+01  0.3152E+03
      8.450  0.2501E-05  0.3153E+03
      8.507  0.6296E-01  0.3153E+03
      8.564  0.8190E+02  0.3199E+03
      8.621  0.2340E+02  0.3212E+03
      8.678  0.9644E-04  0.3213E+03
      8.735  0.6916E+00  0.3213E+03
      8.791  0.1210E+03  0.3282E+03
      8.848  0.6246E+02  0.3317E+03
      8.905  0.2276E+00  0.3317E+03
      8.962  0.1876E-07  0.3318E+03
      9.019  0.1788E+00  0.3318E+03
      9.076  0.1252E+02  0.3325E+03
      9.133  0.4759E+00  0.3325E+03
      9.190  0.7665E-01  0.3325E+03
      9.247  0.3054E+02  0.3342E+03
      9.304  0.7284E+01  0.3347E+03
      9.361  0.2349E+02  0.3360E+03
      9.418  0.7931E-01  0.3360E+03
      9.475  0.2037E-09  0.3360E+03
      9.532  0.0000E+00  0.3360E+03
      9.589  0.0000E+00  0.3360E+03
      9.646  0.0000E+00  0.3360E+03
      9.703  0.0000E+00  0.3360E+03
      9.759  0.0000E+00  0.3360E+03
      9.816  0.0000E+00  0.3360E+03
      9.873  0.0000E+00  0.3360E+03
      9.930  0.0000E+00  0.3360E+03
      9.987  0.0000E+00  0.3360E+03
     10.044  0.0000E+00  0.3360E+03
     10.101  0.0000E+00  0.3360E+03
