       N       E                     dE             d eps       ncg     rms          rms(c)
DAV:   1     0.455337488195E+03    0.45534E+03   -0.72719E+04  2016   0.852E+02
DAV:   2    -0.321175770077E+03   -0.77651E+03   -0.73330E+03  2424   0.156E+02
DAV:   3    -0.373431451023E+03   -0.52256E+02   -0.51442E+02  2472   0.369E+01
DAV:   4    -0.374599171467E+03   -0.11677E+01   -0.11595E+01  2408   0.671E+00
DAV:   5    -0.374640747600E+03   -0.41576E-01   -0.41525E-01  2392   0.112E+00    0.285E+01
DAV:   6    -0.369721583553E+03    0.49192E+01   -0.25907E+00  2304   0.242E+00    0.172E+01
DAV:   7    -0.367490273470E+03    0.22313E+01   -0.52398E+00  2248   0.349E+00    0.996E-01
DAV:   8    -0.367497483917E+03   -0.72104E-02   -0.28318E-01  2280   0.970E-01    0.352E-01
DAV:   9    -0.367498919732E+03   -0.14358E-02   -0.72440E-03  2472   0.163E-01    0.310E-01
DAV:  10    -0.367499787298E+03   -0.86757E-03   -0.21030E-03  2248   0.837E-02    0.230E-01
DAV:  11    -0.367499825388E+03   -0.38090E-04   -0.89453E-05  2352   0.191E-02    0.883E-03
DAV:  12    -0.367499827663E+03   -0.22748E-05   -0.33067E-06  2392   0.357E-03    0.783E-03
DAV:  13    -0.367499826732E+03    0.93100E-06   -0.82944E-07  2272   0.193E-03    0.210E-03
DAV:  14    -0.367499826537E+03    0.19494E-06   -0.32918E-08  2000   0.403E-04    0.484E-04
DAV:  15    -0.367499826534E+03    0.30577E-08   -0.92586E-09  1360   0.188E-04
   1 F= -.36749983E+03 E0= -.36749983E+03  d E =-.534961E-18
