 vasp.6.3.2 27Jun22 (build Oct 14 2022 12:13:54) complex                        
  
 executed on             LinuxIFC date 2023.04.03  14:34:22
 running on   32 total cores
 distrk:  each k-point on   32 cores,    1 groups
 distr:  one band on NCORE=   4 cores,    8 groups


--------------------------------------------------------------------------------------------------------


 INCAR:
   ADDGRID = True
   EDIFF = 1e-08
   ENCUT = 318
   GGA = Ps
   IALGO = 38
   IBRION = -1
   ISMEAR = 0
   LCHARG = False
   LREAL = False
   LWAVE = False
   NELMIN = 5
   NPAR = 8
   PREC = Accurate
   SIGMA = 0.02

 POTCAR:    PAW_PBE Si 05Jan2001                  
 POTCAR:    PAW_PBE Si 05Jan2001                  
   SHA256 =  79d9987ad8750f624c4d6acb2a16d13abf6a777132adc04dc6c8399be72b42bb Si/POTCAR             
   COPYR  = (c) Copyright 05Jan2001 Georg Kresse                                                    
   COPYR  = This file is part of the software VASP. Any use, copying, and all other rights are regul
   COPYR  = If you do not have a valid VASP license, you may not use, copy or distribute this file. 
   VRHFIN =Si: s2p2                                                                                 
   LEXCH  = PE                                                                                      
   EATOM  =   103.0669 eV,    7.5752 Ry                                                             
                                                                                                    
   TITEL  = PAW_PBE Si 05Jan2001                                                                    
   LULTRA =        F    use ultrasoft PP ?                                                          
   IUNSCR =        1    unscreen: 0-lin 1-nonlin 2-no                                               
   RPACOR =    1.500    partial core radius                                                         
   POMASS =   28.085; ZVAL   =    4.000    mass and valenz                                          
   RCORE  =    1.900    outmost cutoff radius                                                       
   RWIGS  =    2.480; RWIGS  =    1.312    wigner-seitz radius (au A)                               
   ENMAX  =  245.345; ENMIN  =  184.009 eV                                                          
   ICORE  =        2    local potential                                                             
   LCOR   =        T    correct aug charges                                                         
   LPAW   =        T    paw PP                                                                      
   EAUG   =  322.069                                                                                
   DEXC   =    0.000                                                                                
   RMAX   =    1.950    core radius for proj-oper                                                   
   RAUG   =    1.300    factor for augmentation sphere                                              
   RDEP   =    1.993    radius for radial grids                                                     
   RDEPT  =    1.837    core radius for aug-charge                                                  
                                                                                                    
   Atomic configuration                                                                             
    6 entries                                                                                       
     n  l   j            E        occ.                                                              
     1  0  0.50     -1785.8828   2.0000                                                             
     2  0  0.50      -139.4969   2.0000                                                             
     2  1  1.50       -95.5546   6.0000                                                             
     3  0  0.50       -10.8127   2.0000                                                             
     3  1  0.50        -4.0811   2.0000                                                             
     3  2  1.50        -4.0817   0.0000                                                             
   Description                                                                                      
     l       E           TYP  RCUT    TYP  RCUT                                                     
     0    -10.8127223     23  1.900                                                                 
     0     -7.6451159     23  1.900                                                                 
     1     -4.0811372     23  1.900                                                                 
     1      2.4879257     23  1.900                                                                 
     2     -4.0817478      7  1.900                                                                 
  local pseudopotential read in
  partial core-charges read in
  partial kinetic energy density read in
  atomic valenz-charges read in
  non local Contribution for L=           0  read in
    real space projection operators read in
  non local Contribution for L=           0  read in
    real space projection operators read in
  non local Contribution for L=           1  read in
    real space projection operators read in
  non local Contribution for L=           1  read in
    real space projection operators read in
    PAW grid and wavefunctions read in
 
   number of l-projection  operators is LMAX  =           4
   number of lm-projection operators is LMMAX =           8
 
 -----------------------------------------------------------------------------
|                                                                             |
|               ----> ADVICE to this user running VASP <----                  |
|                                                                             |
|     You have a (more or less) 'large supercell' and for larger cells it     |
|     might be more efficient to use real-space projection operators.         |
|     Therefore, try LREAL= Auto in the INCAR file.                           |
|     Mind: For very accurate calculation, you might also keep the            |
|     reciprocal projection scheme (i.e. LREAL=.FALSE.).                      |
|                                                                             |
 -----------------------------------------------------------------------------

 -----------------------------------------------------------------------------
|                                                                             |
|               ----> ADVICE to this user running VASP <----                  |
|                                                                             |
|     You enforced a specific xc type in the INCAR file but a different       |
|     type was found in the POTCAR file.                                      |
|     I HOPE YOU KNOW WHAT YOU ARE DOING!                                     |
|                                                                             |
 -----------------------------------------------------------------------------

  PAW_PBE Si 05Jan2001                  :
 energy of atom  1       EATOM= -103.0669
 kinetic energy error for atom=    0.0016 (will be added to EATOM!!)
 
 
 POSCAR: Si
  positions in cartesian coordinates
  No initial velocities read in
 exchange correlation table for  LEXCH =       14
   RHO(1)=    0.500       N(1)  =     2000
   RHO(2)=  100.500       N(2)  =     4000
 


--------------------------------------------------------------------------------------------------------


 ion  position               nearest neighbor table
   1  0.251  0.250  0.250-  33 2.35  41 2.35  49 2.36  57 2.36
   2  0.750  0.250  0.250-  34 2.35  42 2.35  50 2.35  58 2.35
   3  0.250  0.750  0.250-  35 2.35  43 2.35  51 2.35  59 2.35
   4  0.750  0.750  0.250-  36 2.35  44 2.35  52 2.35  60 2.35
   5  0.250  0.250  0.750-  37 2.35  45 2.35  53 2.35  61 2.35
   6  0.750  0.250  0.750-  38 2.35  46 2.35  54 2.35  62 2.35
   7  0.250  0.750  0.750-  39 2.35  47 2.35  55 2.35  63 2.35
   8  0.750  0.750  0.750-  40 2.35  48 2.35  56 2.35  64 2.35
   9  0.251  0.000  0.000-  39 2.35  41 2.35  51 2.36  61 2.36
  10  0.750  0.000  0.000-  40 2.35  42 2.35  52 2.35  62 2.35
  11  0.250  0.500  0.000-  37 2.35  43 2.35  49 2.35  63 2.35
  12  0.750  0.500  0.000-  38 2.35  44 2.35  50 2.35  64 2.35
  13  0.250  0.000  0.500-  35 2.35  45 2.35  55 2.35  57 2.35
  14  0.750  0.000  0.500-  36 2.35  46 2.35  56 2.35  58 2.35
  15  0.250  0.500  0.500-  33 2.35  47 2.35  53 2.35  59 2.35
  16  0.750  0.500  0.500-  34 2.35  48 2.35  54 2.35  60 2.35
  17  0.000  0.250  0.000-  38 2.35  42 2.35  49 2.35  61 2.35
  18  0.500  0.250  0.000-  37 2.35  41 2.35  50 2.35  62 2.35
  19  0.000  0.750  0.000-  40 2.35  44 2.35  51 2.35  63 2.35
  20  0.500  0.750  0.000-  39 2.35  43 2.35  52 2.35  64 2.35
  21  0.000  0.250  0.500-  34 2.35  46 2.35  53 2.35  57 2.35
  22  0.500  0.250  0.500-  33 2.35  45 2.35  54 2.35  58 2.35
  23  0.000  0.750  0.500-  36 2.35  48 2.35  55 2.35  59 2.35
  24  0.500  0.750  0.500-  35 2.35  47 2.35  56 2.35  60 2.35
  25  0.000  0.000  0.250-  36 2.35  42 2.35  51 2.35  57 2.35
  26  0.500  0.000  0.250-  35 2.35  41 2.35  52 2.35  58 2.35
  27  0.000  0.500  0.250-  34 2.35  44 2.35  49 2.35  59 2.35
  28  0.500  0.500  0.250-  33 2.35  43 2.35  50 2.35  60 2.35
  29  0.000  0.000  0.750-  40 2.35  46 2.35  55 2.35  61 2.35
  30  0.500  0.000  0.750-  39 2.35  45 2.35  56 2.35  62 2.35
  31  0.000  0.500  0.750-  38 2.35  48 2.35  53 2.35  63 2.35
  32  0.500  0.500  0.750-  37 2.35  47 2.35  54 2.35  64 2.35
  33  0.375  0.375  0.375-   1 2.35  15 2.35  22 2.35  28 2.35
  34  0.875  0.375  0.375-   2 2.35  16 2.35  21 2.35  27 2.35
  35  0.375  0.875  0.375-   3 2.35  13 2.35  24 2.35  26 2.35
  36  0.875  0.875  0.375-   4 2.35  14 2.35  23 2.35  25 2.35
  37  0.375  0.375  0.875-   5 2.35  11 2.35  18 2.35  32 2.35
  38  0.875  0.375  0.875-   6 2.35  12 2.35  17 2.35  31 2.35
  39  0.375  0.875  0.875-   9 2.35   7 2.35  20 2.35  30 2.35
  40  0.875  0.875  0.875-   8 2.35  10 2.35  19 2.35  29 2.35
  41  0.375  0.125  0.125-   1 2.35   9 2.35  18 2.35  26 2.35
  42  0.875  0.125  0.125-   2 2.35  10 2.35  17 2.35  25 2.35
  43  0.375  0.625  0.125-   3 2.35  11 2.35  20 2.35  28 2.35
  44  0.875  0.625  0.125-   4 2.35  12 2.35  19 2.35  27 2.35
  45  0.375  0.125  0.625-   5 2.35  13 2.35  22 2.35  30 2.35
  46  0.875  0.125  0.625-   6 2.35  14 2.35  21 2.35  29 2.35
  47  0.375  0.625  0.625-   7 2.35  15 2.35  24 2.35  32 2.35
  48  0.875  0.625  0.625-   8 2.35  16 2.35  23 2.35  31 2.35
  49  0.125  0.375  0.125-  11 2.35  17 2.35  27 2.35   1 2.36
  50  0.625  0.375  0.125-   2 2.35  12 2.35  18 2.35  28 2.35
  51  0.125  0.875  0.125-   3 2.35  19 2.35  25 2.35   9 2.36
  52  0.625  0.875  0.125-   4 2.35  10 2.35  20 2.35  26 2.35
  53  0.125  0.375  0.625-   5 2.35  15 2.35  21 2.35  31 2.35
  54  0.625  0.375  0.625-   6 2.35  16 2.35  22 2.35  32 2.35
  55  0.125  0.875  0.625-   7 2.35  13 2.35  23 2.35  29 2.35
  56  0.625  0.875  0.625-   8 2.35  14 2.35  24 2.35  30 2.35
  57  0.125  0.125  0.375-  13 2.35  21 2.35  25 2.35   1 2.36
  58  0.625  0.125  0.375-   2 2.35  14 2.35  22 2.35  26 2.35
  59  0.125  0.625  0.375-   3 2.35  15 2.35  23 2.35  27 2.35
  60  0.625  0.625  0.375-   4 2.35  16 2.35  24 2.35  28 2.35
  61  0.125  0.125  0.875-   5 2.35  17 2.35  29 2.35   9 2.36
  62  0.625  0.125  0.875-   6 2.35  10 2.35  18 2.35  30 2.35
  63  0.125  0.625  0.875-   7 2.35  11 2.35  19 2.35  31 2.35
  64  0.625  0.625  0.875-   8 2.35  12 2.35  20 2.35  32 2.35
 
  LATTYP: Found a simple cubic cell.
 ALAT       =    10.8691451200
  
  Lattice vectors:
  
 A1 = (  10.8691451200,  -0.0000000000,  -0.0000000000)
 A2 = (  -0.0000000000,  10.8691451200,   0.0000000000)
 A3 = (   0.0000000000,   0.0000000000,  10.8691451200)


Analysis of symmetry for initial positions (statically):
=====================================================================
 Subroutine PRICEL returns:
 Original cell was already a primitive cell.
 

 Routine SETGRP: Setting up the symmetry group for a 
 simple cubic supercell.


 Subroutine GETGRP returns: Found  4 space group operations
 (whereof  2 operations were pure point group operations)
 out of a pool of 48 trial point group operations.


The static configuration has the point symmetry C_1h.
 The point group associated with its full space group is C_2v.


Analysis of symmetry for dynamics (positions and initial velocities):
=====================================================================
 Subroutine PRICEL returns:
 Original cell was already a primitive cell.
 

 Routine SETGRP: Setting up the symmetry group for a 
 simple cubic supercell.


 Subroutine GETGRP returns: Found  4 space group operations
 (whereof  2 operations were pure point group operations)
 out of a pool of 48 trial point group operations.


The dynamic configuration has the point symmetry C_1h.
 The point group associated with its full space group is C_2v.


 Subroutine INISYM returns: Found  4 space group operations
 (whereof  2 operations are pure point group operations),
 and found     1 'primitive' translations


----------------------------------------------------------------------------------------

                                     Primitive cell                                     

  volume of cell :    1284.0625

  direct lattice vectors                    reciprocal lattice vectors
    10.869145120 -0.000000000 -0.000000000     0.092003556  0.000000000 -0.000000000
    -0.000000000 10.869145120  0.000000000     0.000000000  0.092003556 -0.000000000
     0.000000000  0.000000000 10.869145120     0.000000000 -0.000000000  0.092003556

  length of vectors
    10.869145120 10.869145120 10.869145120     0.092003556  0.092003556  0.092003556

  position of ions in fractional coordinates (direct lattice)
     0.250920036  0.250000000  0.250000000
     0.750000000  0.250000000  0.250000000
     0.250000000  0.750000000  0.250000000
     0.750000000  0.750000000  0.250000000
     0.250000000  0.250000000  0.750000000
     0.750000000  0.250000000  0.750000000
     0.250000000  0.750000000  0.750000000
     0.750000000  0.750000000  0.750000000
     0.250920036  1.000000000  1.000000000
     0.750000000  1.000000000  1.000000000
     0.250000000  0.500000000  0.000000000
     0.750000000  0.500000000  1.000000000
     0.250000000  0.000000000  0.500000000
     0.750000000  1.000000000  0.500000000
     0.250000000  0.500000000  0.500000000
     0.750000000  0.500000000  0.500000000
     1.000000000  0.250000000  0.000000000
     0.500000000  0.250000000  1.000000000
     1.000000000  0.750000000  0.000000000
     0.500000000  0.750000000  0.000000000
     0.000000000  0.250000000  0.500000000
     0.500000000  0.250000000  0.500000000
     1.000000000  0.750000000  0.500000000
     0.500000000  0.750000000  0.500000000
     0.000000000  0.000000000  0.250000000
     0.500000000  1.000000000  0.250000000
     1.000000000  0.500000000  0.250000000
     0.500000000  0.500000000  0.250000000
     0.000000000  0.000000000  0.750000000
     0.500000000  0.000000000  0.750000000
     0.000000000  0.500000000  0.750000000
     0.500000000  0.500000000  0.750000000
     0.375000000  0.375000000  0.375000000
     0.875000000  0.375000000  0.375000000
     0.375000000  0.875000000  0.375000000
     0.875000000  0.875000000  0.375000000
     0.375000000  0.375000000  0.875000000
     0.875000000  0.375000000  0.875000000
     0.375000000  0.875000000  0.875000000
     0.875000000  0.875000000  0.875000000
     0.375000000  0.125000000  0.125000000
     0.875000000  0.125000000  0.125000000
     0.375000000  0.625000000  0.125000000
     0.875000000  0.625000000  0.125000000
     0.375000000  0.125000000  0.625000000
     0.875000000  0.125000000  0.625000000
     0.375000000  0.625000000  0.625000000
     0.875000000  0.625000000  0.625000000
     0.125000000  0.375000000  0.125000000
     0.625000000  0.375000000  0.125000000
     0.125000000  0.875000000  0.125000000
     0.625000000  0.875000000  0.125000000
     0.125000000  0.375000000  0.625000000
     0.625000000  0.375000000  0.625000000
     0.125000000  0.875000000  0.625000000
     0.625000000  0.875000000  0.625000000
     0.125000000  0.125000000  0.375000000
     0.625000000  0.125000000  0.375000000
     0.125000000  0.625000000  0.375000000
     0.625000000  0.625000000  0.375000000
     0.125000000  0.125000000  0.875000000
     0.625000000  0.125000000  0.875000000
     0.125000000  0.625000000  0.875000000
     0.625000000  0.625000000  0.875000000

  ion indices of the primitive-cell ions
   primitive index   ion index
                 1           1
                 2           2
                 3           3
                 4           4
                 5           5
                 6           6
                 7           7
                 8           8
                 9           9
                10          10
                11          11
                12          12
                13          13
                14          14
                15          15
                16          16
                17          17
                18          18
                19          19
                20          20
                21          21
                22          22
                23          23
                24          24
                25          25
                26          26
                27          27
                28          28
                29          29
                30          30
                31          31
                32          32
                33          33
                34          34
                35          35
                36          36
                37          37
                38          38
                39          39
                40          40
                41          41
                42          42
                43          43
                44          44
                45          45
                46          46
                47          47
                48          48
                49          49
                50          50
                51          51
                52          52
                53          53
                54          54
                55          55
                56          56
                57          57
                58          58
                59          59
                60          60
                61          61
                62          62
                63          63
                64          64

----------------------------------------------------------------------------------------

 
 
 KPOINTS: KPOINTS created by Atomic Simulation Env

Automatic generation of k-mesh.
 Grid dimensions read from file:
 generate k-points for:    2    2    2

 Generating k-lattice:

  Cartesian coordinates                     Fractional coordinates (reciprocal lattice)
     0.046001778  0.000000000 -0.000000000     0.500000000 -0.000000000  0.000000000
     0.000000000  0.046001778 -0.000000000    -0.000000000  0.500000000  0.000000000
     0.000000000 -0.000000000  0.046001778    -0.000000000  0.000000000  0.500000000

  Length of vectors
     0.046001778  0.046001778  0.046001778

  Shift w.r.t. Gamma in fractional coordinates (k-lattice)
     0.000000000  0.000000000  0.000000000

 
 Subroutine IBZKPT returns following result:
 ===========================================
 
 Found      6 irreducible k-points:
 
 Following reciprocal coordinates:
            Coordinates               Weight
  0.000000  0.000000  0.000000      1.000000
  0.500000  0.000000  0.000000      1.000000
 -0.000000  0.500000  0.000000      2.000000
  0.500000  0.500000  0.000000      2.000000
  0.000000  0.500000  0.500000      1.000000
  0.500000  0.500000  0.500000      1.000000
 
 Following cartesian coordinates:
            Coordinates               Weight
  0.000000  0.000000  0.000000      1.000000
  0.046002  0.000000  0.000000      1.000000
  0.000000  0.046002  0.000000      2.000000
  0.046002  0.046002  0.000000      2.000000
  0.000000  0.046002  0.046002      1.000000
  0.046002  0.046002  0.046002      1.000000
 


--------------------------------------------------------------------------------------------------------




 Dimension of arrays:
   k-points           NKPTS =      6   k-points in BZ     NKDIM =      6   number of bands    NBANDS=    168
   number of dos      NEDOS =    301   number of ions     NIONS =     64
   non local maximal  LDIM  =      4   non local SUM 2l+1 LMDIM =      8
   total plane-waves  NPLWV = 262144
   max r-space proj   IRMAX =      1   max aug-charges    IRDMAX=  54800
   dimension x,y,z NGX =    64 NGY =   64 NGZ =   64
   dimension x,y,z NGXF=   128 NGYF=  128 NGZF=  128
   support grid    NGXF=   256 NGYF=  256 NGZF=  256
   ions per type =              64
   NGX,Y,Z   is equivalent  to a cutoff of   9.79,  9.79,  9.79 a.u.
   NGXF,Y,Z  is equivalent  to a cutoff of  19.58, 19.58, 19.58 a.u.

 SYSTEM =  unknown system                          
 POSCAR =  Si                                      

 Startparameter for this run:
   NWRITE =      2    write-flag & timer
   PREC   = accura    normal or accurate (medium, high low for compatibility)
   ISTART =      0    job   : 0-new  1-cont  2-samecut
   ICHARG =      2    charge: 1-file 2-atom 10-const
   ISPIN  =      1    spin polarized calculation?
   LNONCOLLINEAR =      F non collinear calculations
   LSORBIT =      F    spin-orbit coupling
   INIWAV =      1    electr: 0-lowe 1-rand  2-diag
   LASPH  =      F    aspherical Exc in radial PAW
 Electronic Relaxation 1
   ENCUT  =  318.0 eV  23.37 Ry    4.83 a.u.  15.80 15.80 15.80*2*pi/ulx,y,z
   ENINI  =  318.0     initial cutoff
   ENAUG  =  322.1 eV  augmentation charge cutoff
   NELM   =     60;   NELMIN=  5; NELMDL= -5     # of ELM steps 
   EDIFF  = 0.1E-07   stopping-criterion for ELM
   LREAL  =      F    real-space projection
   NLSPLINE    = F    spline interpolate recip. space projectors
   LCOMPAT=      F    compatible to vasp.4.4
   GGA_COMPAT  = T    GGA compatible to vasp.4.4-vasp.4.6
   LMAXPAW     = -100 max onsite density
   LMAXMIX     =    2 max onsite mixed and CHGCAR
   VOSKOWN=      0    Vosko Wilk Nusair interpolation
   ROPT   =    0.00000
 Ionic relaxation
   EDIFFG = 0.1E-06   stopping-criterion for IOM
   NSW    =      0    number of steps for IOM
   NBLOCK =      1;   KBLOCK =      1    inner block; outer block 
   IBRION =     -1    ionic relax: 0-MD 1-quasi-New 2-CG
   NFREE  =      0    steps in history (QN), initial steepest desc. (CG)
   ISIF   =      2    stress and relaxation
   IWAVPR =     10    prediction:  0-non 1-charg 2-wave 3-comb
   ISYM   =      2    0-nonsym 1-usesym 2-fastsym
   LCORR  =      T    Harris-Foulkes like correction to forces

   POTIM  = 0.5000    time-step for ionic-motion
   TEIN   =    0.0    initial temperature
   TEBEG  =    0.0;   TEEND  =   0.0 temperature during run
   SMASS  =  -3.00    Nose mass-parameter (am)
   estimated Nose-frequenzy (Omega)   =  0.10E-29 period in steps = 0.13E+47 mass=  -0.270E-26a.u.
   SCALEE = 1.0000    scale energy and forces
   NPACO  =    256;   APACO  = 10.0  distance and # of slots for P.C.
   PSTRESS=    0.0 pullay stress

  Mass of Ions in am
   POMASS =  28.09
  Ionic Valenz
   ZVAL   =   4.00
  Atomic Wigner-Seitz radii
   RWIGS  =  -1.00
  virtual crystal weights 
   VCA    =   1.00
   NELECT =     256.0000    total number of electrons
   NUPDOWN=      -1.0000    fix difference up-down

 DOS related values:
   EMIN   =  10.00;   EMAX   =-10.00  energy-range for DOS
   EFERMI =   0.00
   ISMEAR =     0;   SIGMA  =   0.02  broadening in eV -4-tet -1-fermi 0-gaus

 Electronic relaxation 2 (details)
   IALGO  =     38    algorithm
   LDIAG  =      T    sub-space diagonalisation (order eigenvalues)
   LSUBROT=      F    optimize rotation matrix (better conditioning)
   TURBO    =      0    0=normal 1=particle mesh
   IRESTART =      0    0=no restart 2=restart with 2 vectors
   NREBOOT  =      0    no. of reboots
   NMIN     =      0    reboot dimension
   EREF     =   0.00    reference energy to select bands
   IMIX   =      4    mixing-type and parameters
     AMIX     =   0.40;   BMIX     =  1.00
     AMIX_MAG =   1.60;   BMIX_MAG =  1.00
     AMIN     =   0.10
     WC   =   100.;   INIMIX=   1;  MIXPRE=   1;  MAXMIX= -45

 Intra band minimization:
   WEIMIN = 0.0000     energy-eigenvalue tresh-hold
   EBREAK =  0.15E-10  absolut break condition
   DEPER  =   0.30     relativ break condition  

   TIME   =   0.40     timestep for ELM

  volume/ion in A,a.u.               =      20.06       135.40
  Fermi-wavevector in a.u.,A,eV,Ry     =   0.956370  1.807278 12.444490  0.914644
  Thomas-Fermi vector in A             =   2.085292
 
 Write flags
   LWAVE        =      F    write WAVECAR
   LDOWNSAMPLE  =      F    k-point downsampling of WAVECAR
   LCHARG       =      F    write CHGCAR
   LVTOT        =      F    write LOCPOT, total local potential
   LVHAR        =      F    write LOCPOT, Hartree potential only
   LELF         =      F    write electronic localiz. function (ELF)
   LORBIT       =      0    0 simple, 1 ext, 2 COOP (PROOUT), +10 PAW based schemes


 Dipole corrections
   LMONO  =      F    monopole corrections only (constant potential shift)
   LDIPOL =      F    correct potential (dipole corrections)
   IDIPOL =      0    1-x, 2-y, 3-z, 4-all directions 
   EPSILON=  1.0000000 bulk dielectric constant

 Exchange correlation treatment:
   GGA     =    PS    GGA type
   LEXCH   =    14    internal setting for exchange type
   LIBXC   =     F    Libxc                    
   VOSKOWN =     0    Vosko Wilk Nusair interpolation
   LHFCALC =     F    Hartree Fock is set to
   LHFONE  =     F    Hartree Fock one center treatment
   AEXX    =    0.0000 exact exchange contribution

 Linear response parameters
   LEPSILON=     F    determine dielectric tensor
   LRPA    =     F    only Hartree local field effects (RPA)
   LNABLA  =     F    use nabla operator in PAW spheres
   LVEL    =     F    velocity operator in full k-point grid
   CSHIFT  =0.1000    complex shift for real part using Kramers Kronig
   OMEGAMAX=  -1.0    maximum frequency
   DEG_THRESHOLD= 0.2000000E-02 threshold for treating states as degnerate
   RTIME   =   -0.100 relaxation time in fs
  (WPLASMAI=    0.000 imaginary part of plasma frequency in eV, 0.658/RTIME)
   DFIELD  = 0.0000000 0.0000000 0.0000000 field for delta impulse in time
 
  Optional k-point grid parameters
   LKPOINTS_OPT  =     F    use optional k-point grid
   KPOINTS_OPT_MODE=     1    mode for optional k-point grid
 
 Orbital magnetization related:
   ORBITALMAG=     F  switch on orbital magnetization
   LCHIMAG   =     F  perturbation theory with respect to B field
   DQ        =  0.001000  dq finite difference perturbation B field
   LLRAUG    =     F  two centre corrections for induced B field



--------------------------------------------------------------------------------------------------------


 Static calculation
 charge density and potential will be updated during run
 non-spin polarized calculation
 Variant of blocked Davidson
 Davidson routine will perform the subspace rotation
 perform sub-space diagonalisation
    after iterative eigenvector-optimisation
 modified Broyden-mixing scheme, WC =      100.0
 initial mixing is a Kerker type mixing with AMIX =  0.4000 and BMIX =      1.0000
 Hartree-type preconditioning will be used
 using additional bands           40
 reciprocal scheme for non local part
 use partial core corrections
 calculate Harris-corrections to forces 
   (improved forces if not selfconsistent)
 use gradient corrections 
 use of overlap-Matrix (Vanderbilt PP)
 Gauss-broadening in eV      SIGMA  =   0.02


--------------------------------------------------------------------------------------------------------


  energy-cutoff  :      318.00
  volume of cell :     1284.06
      direct lattice vectors                 reciprocal lattice vectors
    10.869145120 -0.000000000 -0.000000000     0.092003556  0.000000000 -0.000000000
    -0.000000000 10.869145120  0.000000000     0.000000000  0.092003556 -0.000000000
     0.000000000  0.000000000 10.869145120     0.000000000 -0.000000000  0.092003556

  length of vectors
    10.869145120 10.869145120 10.869145120     0.092003556  0.092003556  0.092003556


 
 k-points in units of 2pi/SCALE and weight: KPOINTS created by Atomic Simulation Env
   0.00000000  0.00000000  0.00000000       0.125
   0.04600178  0.00000000  0.00000000       0.125
   0.00000000  0.04600178  0.00000000       0.250
   0.04600178  0.04600178  0.00000000       0.250
   0.00000000  0.04600178  0.04600178       0.125
   0.04600178  0.04600178  0.04600178       0.125
 
 k-points in reciprocal lattice and weights: KPOINTS created by Atomic Simulation Env
   0.00000000  0.00000000  0.00000000       0.125
   0.50000000  0.00000000  0.00000000       0.125
  -0.00000000  0.50000000  0.00000000       0.250
   0.50000000  0.50000000  0.00000000       0.250
   0.00000000  0.50000000  0.50000000       0.125
   0.50000000  0.50000000  0.50000000       0.125
 
 position of ions in fractional coordinates (direct lattice) 
   0.25092004  0.25000000  0.25000000
   0.75000000  0.25000000  0.25000000
   0.25000000  0.75000000  0.25000000
   0.75000000  0.75000000  0.25000000
   0.25000000  0.25000000  0.75000000
   0.75000000  0.25000000  0.75000000
   0.25000000  0.75000000  0.75000000
   0.75000000  0.75000000  0.75000000
   0.25092004  0.00000000  0.00000000
   0.75000000  0.00000000  0.00000000
   0.25000000  0.50000000  0.00000000
   0.75000000  0.50000000  0.00000000
   0.25000000  0.00000000  0.50000000
   0.75000000  0.00000000  0.50000000
   0.25000000  0.50000000  0.50000000
   0.75000000  0.50000000  0.50000000
   0.00000000  0.25000000  0.00000000
   0.50000000  0.25000000  0.00000000
   0.00000000  0.75000000  0.00000000
   0.50000000  0.75000000  0.00000000
   0.00000000  0.25000000  0.50000000
   0.50000000  0.25000000  0.50000000
   0.00000000  0.75000000  0.50000000
   0.50000000  0.75000000  0.50000000
   0.00000000  0.00000000  0.25000000
   0.50000000  0.00000000  0.25000000
   0.00000000  0.50000000  0.25000000
   0.50000000  0.50000000  0.25000000
   0.00000000  0.00000000  0.75000000
   0.50000000  0.00000000  0.75000000
   0.00000000  0.50000000  0.75000000
   0.50000000  0.50000000  0.75000000
   0.37500000  0.37500000  0.37500000
   0.87500000  0.37500000  0.37500000
   0.37500000  0.87500000  0.37500000
   0.87500000  0.87500000  0.37500000
   0.37500000  0.37500000  0.87500000
   0.87500000  0.37500000  0.87500000
   0.37500000  0.87500000  0.87500000
   0.87500000  0.87500000  0.87500000
   0.37500000  0.12500000  0.12500000
   0.87500000  0.12500000  0.12500000
   0.37500000  0.62500000  0.12500000
   0.87500000  0.62500000  0.12500000
   0.37500000  0.12500000  0.62500000
   0.87500000  0.12500000  0.62500000
   0.37500000  0.62500000  0.62500000
   0.87500000  0.62500000  0.62500000
   0.12500000  0.37500000  0.12500000
   0.62500000  0.37500000  0.12500000
   0.12500000  0.87500000  0.12500000
   0.62500000  0.87500000  0.12500000
   0.12500000  0.37500000  0.62500000
   0.62500000  0.37500000  0.62500000
   0.12500000  0.87500000  0.62500000
   0.62500000  0.87500000  0.62500000
   0.12500000  0.12500000  0.37500000
   0.62500000  0.12500000  0.37500000
   0.12500000  0.62500000  0.37500000
   0.62500000  0.62500000  0.37500000
   0.12500000  0.12500000  0.87500000
   0.62500000  0.12500000  0.87500000
   0.12500000  0.62500000  0.87500000
   0.62500000  0.62500000  0.87500000
 
 position of ions in cartesian coordinates  (Angst):
   2.72728628  2.71728628  2.71728628
   8.15185884  2.71728628  2.71728628
   2.71728628  8.15185884  2.71728628
   8.15185884  8.15185884  2.71728628
   2.71728628  2.71728628  8.15185884
   8.15185884  2.71728628  8.15185884
   2.71728628  8.15185884  8.15185884
   8.15185884  8.15185884  8.15185884
   2.72728628 -0.00000000 -0.00000000
   8.15185884 -0.00000000 -0.00000000
   2.71728628  5.43457256  0.00000000
   8.15185884  5.43457256 -0.00000000
   2.71728628  0.00000000  5.43457256
   8.15185884 -0.00000000  5.43457256
   2.71728628  5.43457256  5.43457256
   8.15185884  5.43457256  5.43457256
  -0.00000000  2.71728628  0.00000000
   5.43457256  2.71728628 -0.00000000
  -0.00000000  8.15185884  0.00000000
   5.43457256  8.15185884  0.00000000
   0.00000000  2.71728628  5.43457256
   5.43457256  2.71728628  5.43457256
  -0.00000000  8.15185884  5.43457256
   5.43457256  8.15185884  5.43457256
   0.00000000  0.00000000  2.71728628
   5.43457256 -0.00000000  2.71728628
  -0.00000000  5.43457256  2.71728628
   5.43457256  5.43457256  2.71728628
   0.00000000  0.00000000  8.15185884
   5.43457256  0.00000000  8.15185884
   0.00000000  5.43457256  8.15185884
   5.43457256  5.43457256  8.15185884
   4.07592942  4.07592942  4.07592942
   9.51050198  4.07592942  4.07592942
   4.07592942  9.51050198  4.07592942
   9.51050198  9.51050198  4.07592942
   4.07592942  4.07592942  9.51050198
   9.51050198  4.07592942  9.51050198
   4.07592942  9.51050198  9.51050198
   9.51050198  9.51050198  9.51050198
   4.07592942  1.35864314  1.35864314
   9.51050198  1.35864314  1.35864314
   4.07592942  6.79321570  1.35864314
   9.51050198  6.79321570  1.35864314
   4.07592942  1.35864314  6.79321570
   9.51050198  1.35864314  6.79321570
   4.07592942  6.79321570  6.79321570
   9.51050198  6.79321570  6.79321570
   1.35864314  4.07592942  1.35864314
   6.79321570  4.07592942  1.35864314
   1.35864314  9.51050198  1.35864314
   6.79321570  9.51050198  1.35864314
   1.35864314  4.07592942  6.79321570
   6.79321570  4.07592942  6.79321570
   1.35864314  9.51050198  6.79321570
   6.79321570  9.51050198  6.79321570
   1.35864314  1.35864314  4.07592942
   6.79321570  1.35864314  4.07592942
   1.35864314  6.79321570  4.07592942
   6.79321570  6.79321570  4.07592942
   1.35864314  1.35864314  9.51050198
   6.79321570  1.35864314  9.51050198
   1.35864314  6.79321570  9.51050198
   6.79321570  6.79321570  9.51050198
 


--------------------------------------------------------------------------------------------------------


 k-point   1 :   0.0000 0.0000 0.0000  plane waves:   16519
 k-point   2 :   0.5000 0.0000 0.0000  plane waves:   16488
 k-point   3 :  -0.0000 0.5000 0.0000  plane waves:   16488
 k-point   4 :   0.5000 0.5000 0.0000  plane waves:   16588
 k-point   5 :   0.0000 0.5000 0.5000  plane waves:   16588
 k-point   6 :   0.5000 0.5000 0.5000  plane waves:   16560

 maximum and minimum number of plane-waves per node :      4170     4090

 maximum number of plane-waves:     16588
 maximum index in each direction: 
   IXMAX=   15   IYMAX=   15   IZMAX=   15
   IXMIN=  -16   IYMIN=  -16   IZMIN=  -16


 parallel 3D FFT for wavefunctions:
    minimum data exchange during FFTs selected (reduces bandwidth)
 parallel 3D FFT for charge:
    minimum data exchange during FFTs selected (reduces bandwidth)


 total amount of memory used by VASP MPI-rank0    61993. kBytes
=======================================================================

   base      :      30000. kBytes
   nonl-proj :       5879. kBytes
   fftplans  :      11573. kBytes
   grid      :       5816. kBytes
   one-center:         49. kBytes
   wavefun   :       8676. kBytes
 
     INWAV:  cpu time      0.0000: real time      0.0000
 Broyden mixing: mesh for mixing (old mesh)
   NGX = 31   NGY = 31   NGZ = 31
  (NGX  =128   NGY  =128   NGZ  =128)
  gives a total of  29791 points

 initial charge density was supplied:
 charge density of overlapping atoms calculated
 number of electron     256.0000000 magnetization 
 keeping initial charge density in first step


--------------------------------------------------------------------------------------------------------


 Maximum index for augmentation-charges         1701 (set IRDMAX)


--------------------------------------------------------------------------------------------------------


 First call to EWALD:  gamma=   0.163
 Maximum number of real-space cells 3x 3x 3
 Maximum number of reciprocal cells 3x 3x 3

    FEWALD:  cpu time      0.0018: real time      0.0018


--------------------------------------- Iteration      1(   1)  ---------------------------------------


    POTLOK:  cpu time      0.0229: real time      0.0231
    SETDIJ:  cpu time      0.0226: real time      0.0227
     EDDAV:  cpu time      1.7113: real time      1.7204
       DOS:  cpu time      0.0008: real time      0.0010
    --------------------------------------------
      LOOP:  cpu time      1.7575: real time      1.7673

 eigenvalue-minimisations  :  2016
 total energy-change (2. order) : 0.4553375E+03  (-0.7271916E+04)
 number of electron     256.0000000 magnetization 
 augmentation part      256.0000000 magnetization 

 Free energy of the ion-electron system (eV)
  ---------------------------------------------------
  alpha Z        PSCENC =       107.38120932
  Ewald energy   TEWEN  =     -7307.87500066
  -Hartree energ DENC   =      -353.25128773
  -exchange      EXHF   =         0.00000000
  -V(xc)+E(xc)   XCENC  =      -558.85370750
  PAW double counting   =      5598.62625415    -4492.17844134
  entropy T*S    EENTRO =        -0.00541403
  eigenvalues    EBANDS =       896.72685180
  atomic energy  EATOM  =      6564.76702419
  Solvation  Ediel_sol  =         0.00000000
  ---------------------------------------------------
  free energy    TOTEN  =       455.33748819 eV

  energy without entropy =      455.34290222  energy(sigma->0) =      455.34019521


--------------------------------------------------------------------------------------------------------




--------------------------------------- Iteration      1(   2)  ---------------------------------------


     EDDAV:  cpu time      1.9663: real time      1.9769
       DOS:  cpu time      0.0002: real time      0.0002
    --------------------------------------------
      LOOP:  cpu time      1.9665: real time      1.9771

 eigenvalue-minimisations  :  2424
 total energy-change (2. order) :-0.7765133E+03  (-0.7333030E+03)
 number of electron     256.0000000 magnetization 
 augmentation part      256.0000000 magnetization 

 Free energy of the ion-electron system (eV)
  ---------------------------------------------------
  alpha Z        PSCENC =       107.38120932
  Ewald energy   TEWEN  =     -7307.87500066
  -Hartree energ DENC   =      -353.25128773
  -exchange      EXHF   =         0.00000000
  -V(xc)+E(xc)   XCENC  =      -558.85370750
  PAW double counting   =      5598.62625415    -4492.17844134
  entropy T*S    EENTRO =        -0.00000000
  eigenvalues    EBANDS =       120.20817949
  atomic energy  EATOM  =      6564.76702419
  Solvation  Ediel_sol  =         0.00000000
  ---------------------------------------------------
  free energy    TOTEN  =      -321.17577008 eV

  energy without entropy =     -321.17577008  energy(sigma->0) =     -321.17577008


--------------------------------------------------------------------------------------------------------




--------------------------------------- Iteration      1(   3)  ---------------------------------------


     EDDAV:  cpu time      1.9957: real time      2.0063
       DOS:  cpu time      0.0002: real time      0.0002
    --------------------------------------------
      LOOP:  cpu time      1.9959: real time      2.0065

 eigenvalue-minimisations  :  2472
 total energy-change (2. order) :-0.5225568E+02  (-0.5144161E+02)
 number of electron     256.0000000 magnetization 
 augmentation part      256.0000000 magnetization 

 Free energy of the ion-electron system (eV)
  ---------------------------------------------------
  alpha Z        PSCENC =       107.38120932
  Ewald energy   TEWEN  =     -7307.87500066
  -Hartree energ DENC   =      -353.25128773
  -exchange      EXHF   =         0.00000000
  -V(xc)+E(xc)   XCENC  =      -558.85370750
  PAW double counting   =      5598.62625415    -4492.17844134
  entropy T*S    EENTRO =        -0.00000000
  eigenvalues    EBANDS =        67.95249855
  atomic energy  EATOM  =      6564.76702419
  Solvation  Ediel_sol  =         0.00000000
  ---------------------------------------------------
  free energy    TOTEN  =      -373.43145102 eV

  energy without entropy =     -373.43145102  energy(sigma->0) =     -373.43145102


--------------------------------------------------------------------------------------------------------




--------------------------------------- Iteration      1(   4)  ---------------------------------------


     EDDAV:  cpu time      1.9527: real time      1.9630
       DOS:  cpu time      0.0002: real time      0.0002
    --------------------------------------------
      LOOP:  cpu time      1.9529: real time      1.9632

 eigenvalue-minimisations  :  2408
 total energy-change (2. order) :-0.1167720E+01  (-0.1159541E+01)
 number of electron     256.0000000 magnetization 
 augmentation part      256.0000000 magnetization 

 Free energy of the ion-electron system (eV)
  ---------------------------------------------------
  alpha Z        PSCENC =       107.38120932
  Ewald energy   TEWEN  =     -7307.87500066
  -Hartree energ DENC   =      -353.25128773
  -exchange      EXHF   =         0.00000000
  -V(xc)+E(xc)   XCENC  =      -558.85370750
  PAW double counting   =      5598.62625415    -4492.17844134
  entropy T*S    EENTRO =        -0.00000000
  eigenvalues    EBANDS =        66.78477810
  atomic energy  EATOM  =      6564.76702419
  Solvation  Ediel_sol  =         0.00000000
  ---------------------------------------------------
  free energy    TOTEN  =      -374.59917147 eV

  energy without entropy =     -374.59917147  energy(sigma->0) =     -374.59917147


--------------------------------------------------------------------------------------------------------




--------------------------------------- Iteration      1(   5)  ---------------------------------------


     EDDAV:  cpu time      1.9471: real time      1.9575
       DOS:  cpu time      0.0002: real time      0.0002
    CHARGE:  cpu time      0.0803: real time      0.0806
    MIXING:  cpu time      0.0011: real time      0.0011
    --------------------------------------------
      LOOP:  cpu time      2.0286: real time      2.0394

 eigenvalue-minimisations  :  2392
 total energy-change (2. order) :-0.4157613E-01  (-0.4152484E-01)
 number of electron     255.9999994 magnetization 
 augmentation part      -14.9588577 magnetization 

 Broyden mixing:
  rms(total) = 0.28468E+01    rms(broyden)= 0.28467E+01
  rms(prec ) = 0.31323E+01
  weight for this iteration     100.00

 Free energy of the ion-electron system (eV)
  ---------------------------------------------------
  alpha Z        PSCENC =       107.38120932
  Ewald energy   TEWEN  =     -7307.87500066
  -Hartree energ DENC   =      -353.25128773
  -exchange      EXHF   =         0.00000000
  -V(xc)+E(xc)   XCENC  =      -558.85370750
  PAW double counting   =      5598.62625415    -4492.17844134
  entropy T*S    EENTRO =        -0.00000000
  eigenvalues    EBANDS =        66.74320197
  atomic energy  EATOM  =      6564.76702419
  Solvation  Ediel_sol  =         0.00000000
  ---------------------------------------------------
  free energy    TOTEN  =      -374.64074760 eV

  energy without entropy =     -374.64074760  energy(sigma->0) =     -374.64074760


--------------------------------------------------------------------------------------------------------




--------------------------------------- Iteration      1(   6)  ---------------------------------------


    POTLOK:  cpu time      0.0220: real time      0.0222
    SETDIJ:  cpu time      0.0219: real time      0.0220
     EDDAV:  cpu time      1.8909: real time      1.9009
       DOS:  cpu time      0.0005: real time      0.0005
    CHARGE:  cpu time      0.0805: real time      0.0809
    MIXING:  cpu time      0.0012: real time      0.0012
    --------------------------------------------
      LOOP:  cpu time      2.0170: real time      2.0276

 eigenvalue-minimisations  :  2304
 total energy-change (2. order) : 0.4919164E+01  (-0.2590680E+00)
 number of electron     255.9999994 magnetization 
 augmentation part      -14.7997333 magnetization 

 Broyden mixing:
  rms(total) = 0.17162E+01    rms(broyden)= 0.17162E+01
  rms(prec ) = 0.18754E+01
  weight for this iteration     100.00

 eigenvalues of (default mixing * dielectric matrix)
  average eigenvalue GAMMA=   2.5106
  2.5106

 Free energy of the ion-electron system (eV)
  ---------------------------------------------------
  alpha Z        PSCENC =       107.38120932
  Ewald energy   TEWEN  =     -7307.87500066
  -Hartree energ DENC   =      -399.23515335
  -exchange      EXHF   =         0.00000000
  -V(xc)+E(xc)   XCENC  =      -551.57546470
  PAW double counting   =     12483.62561276   -11380.42326031
  entropy T*S    EENTRO =        -0.00000000
  eigenvalues    EBANDS =       113.61344920
  atomic energy  EATOM  =      6564.76702419
  Solvation  Ediel_sol  =         0.00000000
  ---------------------------------------------------
  free energy    TOTEN  =      -369.72158355 eV

  energy without entropy =     -369.72158355  energy(sigma->0) =     -369.72158355


--------------------------------------------------------------------------------------------------------




--------------------------------------- Iteration      1(   7)  ---------------------------------------


    POTLOK:  cpu time      0.0216: real time      0.0218
    SETDIJ:  cpu time      0.0218: real time      0.0219
     EDDAV:  cpu time      1.8675: real time      1.8778
       DOS:  cpu time      0.0002: real time      0.0002
    CHARGE:  cpu time      0.0799: real time      0.0803
    MIXING:  cpu time      0.0009: real time      0.0010
    --------------------------------------------
      LOOP:  cpu time      1.9919: real time      2.0029

 eigenvalue-minimisations  :  2248
 total energy-change (2. order) : 0.2231310E+01  (-0.5239765E+00)
 number of electron     255.9999994 magnetization 
 augmentation part      -14.5985423 magnetization 

 Broyden mixing:
  rms(total) = 0.99615E-01    rms(broyden)= 0.99614E-01
  rms(prec ) = 0.12385E+00
  weight for this iteration     100.00

 eigenvalues of (default mixing * dielectric matrix)
  average eigenvalue GAMMA=   2.2535
  2.2535  2.2535

 Free energy of the ion-electron system (eV)
  ---------------------------------------------------
  alpha Z        PSCENC =       107.38120932
  Ewald energy   TEWEN  =     -7307.87500066
  -Hartree energ DENC   =      -473.64281207
  -exchange      EXHF   =         0.00000000
  -V(xc)+E(xc)   XCENC  =      -539.13873425
  PAW double counting   =     29119.75631269   -28020.92542305
  entropy T*S    EENTRO =        -0.00000000
  eigenvalues    EBANDS =       182.18715036
  atomic energy  EATOM  =      6564.76702419
  Solvation  Ediel_sol  =         0.00000000
  ---------------------------------------------------
  free energy    TOTEN  =      -367.49027347 eV

  energy without entropy =     -367.49027347  energy(sigma->0) =     -367.49027347


--------------------------------------------------------------------------------------------------------




--------------------------------------- Iteration      1(   8)  ---------------------------------------


    POTLOK:  cpu time      0.0214: real time      0.0216
    SETDIJ:  cpu time      0.0219: real time      0.0220
     EDDAV:  cpu time      1.8783: real time      1.8881
       DOS:  cpu time      0.0002: real time      0.0002
    CHARGE:  cpu time      0.0790: real time      0.0794
    MIXING:  cpu time      0.0011: real time      0.0011
    --------------------------------------------
      LOOP:  cpu time      2.0020: real time      2.0124

 eigenvalue-minimisations  :  2280
 total energy-change (2. order) :-0.7210447E-02  (-0.2831839E-01)
 number of electron     255.9999994 magnetization 
 augmentation part      -14.6403966 magnetization 

 Broyden mixing:
  rms(total) = 0.35165E-01    rms(broyden)= 0.35164E-01
  rms(prec ) = 0.40501E-01
  weight for this iteration     100.00

 eigenvalues of (default mixing * dielectric matrix)
  average eigenvalue GAMMA=   2.4252
  2.8015  2.2371  2.2371

 Free energy of the ion-electron system (eV)
  ---------------------------------------------------
  alpha Z        PSCENC =       107.38120932
  Ewald energy   TEWEN  =     -7307.87500066
  -Hartree energ DENC   =      -466.68200674
  -exchange      EXHF   =         0.00000000
  -V(xc)+E(xc)   XCENC  =      -539.74275836
  PAW double counting   =     28624.78988196   -27525.15766428
  entropy T*S    EENTRO =        -0.00000000
  eigenvalues    EBANDS =       175.02183065
  atomic energy  EATOM  =      6564.76702419
  Solvation  Ediel_sol  =         0.00000000
  ---------------------------------------------------
  free energy    TOTEN  =      -367.49748392 eV

  energy without entropy =     -367.49748392  energy(sigma->0) =     -367.49748392


--------------------------------------------------------------------------------------------------------




--------------------------------------- Iteration      1(   9)  ---------------------------------------


    POTLOK:  cpu time      0.0214: real time      0.0216
    SETDIJ:  cpu time      0.0219: real time      0.0220
     EDDAV:  cpu time      1.9965: real time      2.0068
       DOS:  cpu time      0.0002: real time      0.0002
    CHARGE:  cpu time      0.0795: real time      0.0799
    MIXING:  cpu time      0.0010: real time      0.0010
    --------------------------------------------
      LOOP:  cpu time      2.1205: real time      2.1315

 eigenvalue-minimisations  :  2472
 total energy-change (2. order) :-0.1435815E-02  (-0.7244004E-03)
 number of electron     255.9999994 magnetization 
 augmentation part      -14.6409523 magnetization 

 Broyden mixing:
  rms(total) = 0.30973E-01    rms(broyden)= 0.30973E-01
  rms(prec ) = 0.32093E-01
  weight for this iteration     100.00

 eigenvalues of (default mixing * dielectric matrix)
  average eigenvalue GAMMA=   2.3598
  3.8132  2.3923  2.3923  0.8414

 Free energy of the ion-electron system (eV)
  ---------------------------------------------------
  alpha Z        PSCENC =       107.38120932
  Ewald energy   TEWEN  =     -7307.87500066
  -Hartree energ DENC   =      -468.63549076
  -exchange      EXHF   =         0.00000000
  -V(xc)+E(xc)   XCENC  =      -539.41598033
  PAW double counting   =     28766.81405439   -27667.28750699
  entropy T*S    EENTRO =        -0.00000000
  eigenvalues    EBANDS =       176.75277112
  atomic energy  EATOM  =      6564.76702419
  Solvation  Ediel_sol  =         0.00000000
  ---------------------------------------------------
  free energy    TOTEN  =      -367.49891973 eV

  energy without entropy =     -367.49891973  energy(sigma->0) =     -367.49891973


--------------------------------------------------------------------------------------------------------




--------------------------------------- Iteration      1(  10)  ---------------------------------------


    POTLOK:  cpu time      0.0211: real time      0.0213
    SETDIJ:  cpu time      0.0217: real time      0.0218
     EDDAV:  cpu time      1.8546: real time      1.8640
       DOS:  cpu time      0.0002: real time      0.0002
    CHARGE:  cpu time      0.0804: real time      0.0807
    MIXING:  cpu time      0.0014: real time      0.0014
    --------------------------------------------
      LOOP:  cpu time      1.9793: real time      1.9895

 eigenvalue-minimisations  :  2248
 total energy-change (2. order) :-0.8675667E-03  (-0.2102980E-03)
 number of electron     255.9999994 magnetization 
 augmentation part      -14.6429136 magnetization 

 Broyden mixing:
  rms(total) = 0.23030E-01    rms(broyden)= 0.23030E-01
  rms(prec ) = 0.23148E-01
  weight for this iteration     100.00

 eigenvalues of (default mixing * dielectric matrix)
  average eigenvalue GAMMA=   1.8664
  2.8609  2.2500  2.2500  0.9856  0.9856

 Free energy of the ion-electron system (eV)
  ---------------------------------------------------
  alpha Z        PSCENC =       107.38120932
  Ewald energy   TEWEN  =     -7307.87500066
  -Hartree energ DENC   =      -468.88529314
  -exchange      EXHF   =         0.00000000
  -V(xc)+E(xc)   XCENC  =      -539.33973431
  PAW double counting   =     28252.67889052   -27153.12145504
  entropy T*S    EENTRO =        -0.00000000
  eigenvalues    EBANDS =       176.89457182
  atomic energy  EATOM  =      6564.76702419
  Solvation  Ediel_sol  =         0.00000000
  ---------------------------------------------------
  free energy    TOTEN  =      -367.49978730 eV

  energy without entropy =     -367.49978730  energy(sigma->0) =     -367.49978730


--------------------------------------------------------------------------------------------------------




--------------------------------------- Iteration      1(  11)  ---------------------------------------


    POTLOK:  cpu time      0.0213: real time      0.0215
    SETDIJ:  cpu time      0.0220: real time      0.0221
     EDDAV:  cpu time      1.9257: real time      1.9356
       DOS:  cpu time      0.0002: real time      0.0002
    CHARGE:  cpu time      0.0792: real time      0.0795
    MIXING:  cpu time      0.0030: real time      0.0030
    --------------------------------------------
      LOOP:  cpu time      2.0514: real time      2.0619

 eigenvalue-minimisations  :  2352
 total energy-change (2. order) :-0.3809015E-04  (-0.8945280E-05)
 number of electron     255.9999994 magnetization 
 augmentation part      -14.6438041 magnetization 

 Broyden mixing:
  rms(total) = 0.88299E-03    rms(broyden)= 0.88297E-03
  rms(prec ) = 0.97834E-03
  weight for this iteration     100.00

 eigenvalues of (default mixing * dielectric matrix)
  average eigenvalue GAMMA=   1.7431
  2.8910  2.2548  2.2548  1.1526  1.1526  0.7525

 Free energy of the ion-electron system (eV)
  ---------------------------------------------------
  alpha Z        PSCENC =       107.38120932
  Ewald energy   TEWEN  =     -7307.87500066
  -Hartree energ DENC   =      -468.75178415
  -exchange      EXHF   =         0.00000000
  -V(xc)+E(xc)   XCENC  =      -539.35261980
  PAW double counting   =     28479.95363188   -27380.38383009
  entropy T*S    EENTRO =        -0.00000000
  eigenvalues    EBANDS =       176.76154392
  atomic energy  EATOM  =      6564.76702419
  Solvation  Ediel_sol  =         0.00000000
  ---------------------------------------------------
  free energy    TOTEN  =      -367.49982539 eV

  energy without entropy =     -367.49982539  energy(sigma->0) =     -367.49982539


--------------------------------------------------------------------------------------------------------




--------------------------------------- Iteration      1(  12)  ---------------------------------------


    POTLOK:  cpu time      0.0214: real time      0.0216
    SETDIJ:  cpu time      0.0218: real time      0.0219
     EDDAV:  cpu time      1.9431: real time      1.9533
       DOS:  cpu time      0.0002: real time      0.0002
    CHARGE:  cpu time      0.0790: real time      0.0793
    MIXING:  cpu time      0.0029: real time      0.0029
    --------------------------------------------
      LOOP:  cpu time      2.0684: real time      2.0792

 eigenvalue-minimisations  :  2392
 total energy-change (2. order) :-0.2274761E-05  (-0.3306742E-06)
 number of electron     255.9999994 magnetization 
 augmentation part      -14.6437001 magnetization 

 Broyden mixing:
  rms(total) = 0.78260E-03    rms(broyden)= 0.78260E-03
  rms(prec ) = 0.81377E-03
  weight for this iteration     100.00

 eigenvalues of (default mixing * dielectric matrix)
  average eigenvalue GAMMA=   1.8527
  3.0005  2.5007  2.5007  2.1959  0.9825  0.8943  0.8943

 Free energy of the ion-electron system (eV)
  ---------------------------------------------------
  alpha Z        PSCENC =       107.38120932
  Ewald energy   TEWEN  =     -7307.87500066
  -Hartree energ DENC   =      -468.78258621
  -exchange      EXHF   =         0.00000000
  -V(xc)+E(xc)   XCENC  =      -539.35107045
  PAW double counting   =     28481.25643933   -27381.68581816
  entropy T*S    EENTRO =        -0.00000000
  eigenvalues    EBANDS =       176.78997499
  atomic energy  EATOM  =      6564.76702419
  Solvation  Ediel_sol  =         0.00000000
  ---------------------------------------------------
  free energy    TOTEN  =      -367.49982766 eV

  energy without entropy =     -367.49982766  energy(sigma->0) =     -367.49982766


--------------------------------------------------------------------------------------------------------




--------------------------------------- Iteration      1(  13)  ---------------------------------------


    POTLOK:  cpu time      0.0211: real time      0.0214
    SETDIJ:  cpu time      0.0220: real time      0.0221
     EDDAV:  cpu time      1.8696: real time      1.8795
       DOS:  cpu time      0.0002: real time      0.0002
    CHARGE:  cpu time      0.0793: real time      0.0796
    MIXING:  cpu time      0.0025: real time      0.0025
    --------------------------------------------
      LOOP:  cpu time      1.9947: real time      2.0053

 eigenvalue-minimisations  :  2272
 total energy-change (2. order) : 0.9309970E-06  (-0.8294390E-07)
 number of electron     255.9999994 magnetization 
 augmentation part      -14.6436563 magnetization 

 Broyden mixing:
  rms(total) = 0.21015E-03    rms(broyden)= 0.21015E-03
  rms(prec ) = 0.21682E-03
  weight for this iteration     100.00

 eigenvalues of (default mixing * dielectric matrix)
  average eigenvalue GAMMA=   1.7753
  3.0676  2.6338  2.3414  2.2319  0.9577  0.9577  1.0060  1.0060

 Free energy of the ion-electron system (eV)
  ---------------------------------------------------
  alpha Z        PSCENC =       107.38120932
  Ewald energy   TEWEN  =     -7307.87500066
  -Hartree energ DENC   =      -468.78706250
  -exchange      EXHF   =         0.00000000
  -V(xc)+E(xc)   XCENC  =      -539.35326223
  PAW double counting   =     28476.69362394   -27377.12057794
  entropy T*S    EENTRO =        -0.00000000
  eigenvalues    EBANDS =       176.79421915
  atomic energy  EATOM  =      6564.76702419
  Solvation  Ediel_sol  =         0.00000000
  ---------------------------------------------------
  free energy    TOTEN  =      -367.49982673 eV

  energy without entropy =     -367.49982673  energy(sigma->0) =     -367.49982673


--------------------------------------------------------------------------------------------------------




--------------------------------------- Iteration      1(  14)  ---------------------------------------


    POTLOK:  cpu time      0.0210: real time      0.0213
    SETDIJ:  cpu time      0.0219: real time      0.0220
     EDDAV:  cpu time      1.7072: real time      1.7162
       DOS:  cpu time      0.0002: real time      0.0002
    CHARGE:  cpu time      0.0789: real time      0.0793
    MIXING:  cpu time      0.0029: real time      0.0029
    --------------------------------------------
      LOOP:  cpu time      1.8322: real time      1.8418

 eigenvalue-minimisations  :  2000
 total energy-change (2. order) : 0.1949393E-06  (-0.3291771E-08)
 number of electron     255.9999994 magnetization 
 augmentation part      -14.6436492 magnetization 

 Broyden mixing:
  rms(total) = 0.48390E-04    rms(broyden)= 0.48390E-04
  rms(prec ) = 0.50869E-04
  weight for this iteration     100.00

 eigenvalues of (default mixing * dielectric matrix)
  average eigenvalue GAMMA=   1.7855
  3.0720  2.4976  2.4976  2.1805  1.8346  1.1802  0.9783  0.9145  0.9145

 Free energy of the ion-electron system (eV)
  ---------------------------------------------------
  alpha Z        PSCENC =       107.38120932
  Ewald energy   TEWEN  =     -7307.87500066
  -Hartree energ DENC   =      -468.78687256
  -exchange      EXHF   =         0.00000000
  -V(xc)+E(xc)   XCENC  =      -539.35374856
  PAW double counting   =     28475.01619104   -27375.44289152
  entropy T*S    EENTRO =        -0.00000000
  eigenvalues    EBANDS =       176.79426221
  atomic energy  EATOM  =      6564.76702419
  Solvation  Ediel_sol  =         0.00000000
  ---------------------------------------------------
  free energy    TOTEN  =      -367.49982654 eV

  energy without entropy =     -367.49982654  energy(sigma->0) =     -367.49982654


--------------------------------------------------------------------------------------------------------




--------------------------------------- Iteration      1(  15)  ---------------------------------------


    POTLOK:  cpu time      0.0213: real time      0.0215
    SETDIJ:  cpu time      0.0220: real time      0.0221
     EDDAV:  cpu time      1.3151: real time      1.3220
       DOS:  cpu time      0.0002: real time      0.0002
    --------------------------------------------
      LOOP:  cpu time      1.3587: real time      1.3658

 eigenvalue-minimisations  :  1360
 total energy-change (2. order) : 0.3057721E-08  (-0.9258631E-09)
 number of electron     255.9999994 magnetization 
 augmentation part      -14.6436492 magnetization 

 Free energy of the ion-electron system (eV)
  ---------------------------------------------------
  alpha Z        PSCENC =       107.38120932
  Ewald energy   TEWEN  =     -7307.87500066
  -Hartree energ DENC   =      -468.78641055
  -exchange      EXHF   =         0.00000000
  -V(xc)+E(xc)   XCENC  =      -539.35379237
  PAW double counting   =     28474.95934223   -27375.38609533
  entropy T*S    EENTRO =        -0.00000000
  eigenvalues    EBANDS =       176.79389664
  atomic energy  EATOM  =      6564.76702419
  Solvation  Ediel_sol  =         0.00000000
  ---------------------------------------------------
  free energy    TOTEN  =      -367.49982653 eV

  energy without entropy =     -367.49982653  energy(sigma->0) =     -367.49982653


--------------------------------------------------------------------------------------------------------




 average (electrostatic) potential at core
  the test charge radii are     0.9892
  (the norm of the test charge is              1.0000)
       1 -83.0595       2 -83.0570       3 -83.0552       4 -83.0576       5 -83.0552
       6 -83.0576       7 -83.0594       8 -83.0570       9 -83.0595      10 -83.0570
      11 -83.0552      12 -83.0576      13 -83.0552      14 -83.0576      15 -83.0594
      16 -83.0570      17 -83.0575      18 -83.0571      19 -83.0573      20 -83.0573
      21 -83.0573      22 -83.0573      23 -83.0571      24 -83.0575      25 -83.0575
      26 -83.0571      27 -83.0573      28 -83.0573      29 -83.0573      30 -83.0573
      31 -83.0571      32 -83.0575      33 -83.0584      34 -83.0568      35 -83.0569
      36 -83.0578      37 -83.0569      38 -83.0578      39 -83.0584      40 -83.0568
      41 -83.0569      42 -83.0567      43 -83.0569      44 -83.0578      45 -83.0569
      46 -83.0578      47 -83.0599      48 -83.0570      49 -83.0578      50 -83.0574
      51 -83.0578      52 -83.0574      53 -83.0562      54 -83.0572      55 -83.0562
      56 -83.0572      57 -83.0578      58 -83.0574      59 -83.0562      60 -83.0572
      61 -83.0578      62 -83.0574      63 -83.0562      64 -83.0572
 
 
 
 E-fermi :   5.8944     XC(G=0):  -9.5445     alpha+bet :-11.9543

 Fermi energy:         5.8944213169

 k-point     1 :       0.0000    0.0000    0.0000
  band No.  band energies     occupation 
      1      -6.2055      2.00000
      2      -5.1244      2.00000
      3      -5.1218      2.00000
      4      -5.1215      2.00000
      5      -5.1208      2.00000
      6      -5.1208      2.00000
      7      -5.1184      2.00000
      8      -4.1606      2.00000
      9      -4.1593      2.00000
     10      -4.1560      2.00000
     11      -4.1553      2.00000
     12      -4.1551      2.00000
     13      -4.1550      2.00000
     14      -4.1550      2.00000
     15      -4.1547      2.00000
     16      -4.1539      2.00000
     17      -4.1534      2.00000
     18      -4.1519      2.00000
     19      -4.1503      2.00000
     20      -3.8630      2.00000
     21      -3.8616      2.00000
     22      -3.8597      2.00000
     23      -3.8582      2.00000
     24      -2.0540      2.00000
     25      -2.0539      2.00000
     26      -2.0520      2.00000
     27      -2.0519      2.00000
     28      -2.0500      2.00000
     29      -2.0500      2.00000
     30      -1.8879      2.00000
     31      -1.8870      2.00000
     32      -1.8847      2.00000
     33      -1.8829      2.00000
     34      -1.8827      2.00000
     35      -1.8825      2.00000
     36      -1.8824      2.00000
     37      -1.8823      2.00000
     38      -1.8815      2.00000
     39      -1.8802      2.00000
     40      -1.8794      2.00000
     41      -1.8788      2.00000
     42      -1.2373      2.00000
     43      -1.2351      2.00000
     44      -1.2343      2.00000
     45      -1.2321      2.00000
     46       0.2777      2.00000
     47       0.2786      2.00000
     48       0.2800      2.00000
     49       0.2818      2.00000
     50       0.2819      2.00000
     51       0.2820      2.00000
     52       0.2821      2.00000
     53       0.2821      2.00000
     54       0.2824      2.00000
     55       0.2837      2.00000
     56       0.2855      2.00000
     57       0.2856      2.00000
     58       1.8679      2.00000
     59       1.8688      2.00000
     60       1.8705      2.00000
     61       1.8708      2.00000
     62       1.8713      2.00000
     63       1.8713      2.00000
     64       1.8714      2.00000
     65       1.8714      2.00000
     66       1.8719      2.00000
     67       1.8719      2.00000
     68       1.8730      2.00000
     69       1.8737      2.00000
     70       1.9706      2.00000
     71       1.9711      2.00000
     72       1.9715      2.00000
     73       1.9726      2.00000
     74       1.9729      2.00000
     75       1.9729      2.00000
     76       1.9733      2.00000
     77       1.9745      2.00000
     78       1.9748      2.00000
     79       1.9749      2.00000
     80       1.9749      2.00000
     81       1.9759      2.00000
     82       2.2489      2.00000
     83       2.2495      2.00000
     84       2.2510      2.00000
     85       2.2525      2.00000
     86       2.2533      2.00000
     87       2.2533      2.00000
     88       2.9006      2.00000
     89       2.9008      2.00000
     90       2.9017      2.00000
     91       2.9017      2.00000
     92       2.9027      2.00000
     93       2.9028      2.00000
     94       3.8614      2.00000
     95       3.8651      2.00000
     96       3.8652      2.00000
     97       3.8664      2.00000
     98       3.8665      2.00000
     99       3.8667      2.00000
    100       3.8667      2.00000
    101       3.8668      2.00000
    102       3.8669      2.00000
    103       3.8681      2.00000
    104       3.8682      2.00000
    105       3.8719      2.00000
    106       4.4312      2.00000
    107       4.4342      2.00000
    108       4.4356      2.00000
    109       4.4364      2.00000
    110       4.4370      2.00000
    111       4.4372      2.00000
    112       4.4373      2.00000
    113       4.4378      2.00000
    114       4.4379      2.00000
    115       4.4382      2.00000
    116       4.4387      2.00000
    117       4.4423      2.00000
    118       4.5656      2.00000
    119       4.5684      2.00000
    120       4.5688      2.00000
    121       4.5692      2.00000
    122       4.5704      2.00000
    123       4.5708      2.00000
    124       4.5713      2.00000
    125       4.5745      2.00000
    126       5.7690      2.00000
    127       5.7720      2.00000
    128       5.7750      2.00000
    129       6.3629      0.00000
    130       6.3643      0.00000
    131       6.3658      0.00000
    132       6.3658      0.00000
    133       6.3672      0.00000
    134       6.3686      0.00000
    135       6.8066      0.00000
    136       6.8067      0.00000
    137       6.8067      0.00000
    138       6.8085      0.00000
    139       6.8095      0.00000
    140       6.8105      0.00000
    141       7.2314      0.00000
    142       7.2318      0.00000
    143       7.2322      0.00000
    144       7.2325      0.00000
    145       8.1338      0.00000
    146       8.1353      0.00000
    147       8.1356      0.00000
    148       8.1374      0.00000
    149       8.1374      0.00000
    150       8.1379      0.00000
    151       8.1379      0.00000
    152       8.1384      0.00000
    153       8.1385      0.00000
    154       8.1401      0.00000
    155       8.1405      0.00000
    156       8.1420      0.00000
    157       8.2872      0.00000
    158       8.2889      0.00000
    159       8.2907      0.00000
    160       8.7968      0.00000
    161       8.7968      0.00000
    162       8.7970      0.00000
    163       8.7989      0.00000
    164       8.7990      0.00000
    165       8.7991      0.00000
    166       9.0492      0.00000
    167       9.0501      0.00000
    168       9.0525      0.00000

 k-point     2 :       0.5000    0.0000    0.0000
  band No.  band energies     occupation 
      1      -5.9334      2.00000
      2      -5.9307      2.00000
      3      -4.8757      2.00000
      4      -4.8756      2.00000
      5      -4.8728      2.00000
      6      -4.8728      2.00000
      7      -4.8716      2.00000
      8      -4.8716      2.00000
      9      -4.8709      2.00000
     10      -4.8709      2.00000
     11      -4.0269      2.00000
     12      -4.0247      2.00000
     13      -4.0230      2.00000
     14      -4.0228      2.00000
     15      -4.0226      2.00000
     16      -4.0224      2.00000
     17      -4.0207      2.00000
     18      -4.0187      2.00000
     19      -3.8079      2.00000
     20      -3.8034      2.00000
     21      -3.0809      2.00000
     22      -3.0809      2.00000
     23      -3.0760      2.00000
     24      -3.0760      2.00000
     25      -3.0754      2.00000
     26      -3.0754      2.00000
     27      -3.0732      2.00000
     28      -3.0732      2.00000
     29      -1.9758      2.00000
     30      -1.9719      2.00000
     31      -1.9719      2.00000
     32      -1.9716      2.00000
     33      -1.9714      2.00000
     34      -1.9711      2.00000
     35      -1.9710      2.00000
     36      -1.9672      2.00000
     37      -0.8057      2.00000
     38      -0.8056      2.00000
     39      -0.8025      2.00000
     40      -0.8025      2.00000
     41      -0.8022      2.00000
     42      -0.8021      2.00000
     43      -0.8018      2.00000
     44      -0.8017      2.00000
     45      -0.6385      2.00000
     46      -0.6364      2.00000
     47      -0.6350      2.00000
     48      -0.6341      2.00000
     49      -0.6338      2.00000
     50      -0.6329      2.00000
     51      -0.6315      2.00000
     52      -0.6293      2.00000
     53       0.0218      2.00000
     54       0.0247      2.00000
     55       1.4707      2.00000
     56       1.4707      2.00000
     57       1.4741      2.00000
     58       1.4741      2.00000
     59       1.4743      2.00000
     60       1.4743      2.00000
     61       1.4769      2.00000
     62       1.4769      2.00000
     63       1.4918      2.00000
     64       1.4918      2.00000
     65       1.4931      2.00000
     66       1.4931      2.00000
     67       1.4942      2.00000
     68       1.4942      2.00000
     69       1.4952      2.00000
     70       1.4952      2.00000
     71       2.3168      2.00000
     72       2.3171      2.00000
     73       2.3171      2.00000
     74       2.3180      2.00000
     75       2.3181      2.00000
     76       2.3190      2.00000
     77       2.3190      2.00000
     78       2.3193      2.00000
     79       3.0222      2.00000
     80       3.0223      2.00000
     81       3.0241      2.00000
     82       3.0241      2.00000
     83       3.0256      2.00000
     84       3.0256      2.00000
     85       3.0271      2.00000
     86       3.0271      2.00000
     87       3.1450      2.00000
     88       3.1474      2.00000
     89       3.1488      2.00000
     90       3.1507      2.00000
     91       3.1569      2.00000
     92       3.1570      2.00000
     93       3.1589      2.00000
     94       3.1589      2.00000
     95       3.1605      2.00000
     96       3.1606      2.00000
     97       3.1607      2.00000
     98       3.1608      2.00000
     99       3.2836      2.00000
    100       3.2843      2.00000
    101       3.2844      2.00000
    102       3.2856      2.00000
    103       3.2859      2.00000
    104       3.2871      2.00000
    105       3.2873      2.00000
    106       3.2880      2.00000
    107       4.3302      2.00000
    108       4.3302      2.00000
    109       4.3321      2.00000
    110       4.3321      2.00000
    111       4.3322      2.00000
    112       4.3322      2.00000
    113       4.3327      2.00000
    114       4.3328      2.00000
    115       4.4329      2.00000
    116       4.4330      2.00000
    117       4.4923      2.00000
    118       4.4996      2.00000
    119       4.5007      2.00000
    120       4.5008      2.00000
    121       4.5009      2.00000
    122       4.5011      2.00000
    123       4.5022      2.00000
    124       4.5094      2.00000
    125       4.9505      2.00000
    126       4.9542      2.00000
    127       4.9562      2.00000
    128       4.9600      2.00000
    129       6.2783      0.00000
    130       6.2811      0.00000
    131       7.1927      0.00000
    132       7.1952      0.00000
    133       7.6416      0.00000
    134       7.6444      0.00000
    135       7.6447      0.00000
    136       7.6458      0.00000
    137       7.6460      0.00000
    138       7.6470      0.00000
    139       7.6473      0.00000
    140       7.6501      0.00000
    141       7.7135      0.00000
    142       7.7147      0.00000
    143       8.0547      0.00000
    144       8.0585      0.00000
    145       8.0594      0.00000
    146       8.0597      0.00000
    147       8.0598      0.00000
    148       8.0600      0.00000
    149       8.0610      0.00000
    150       8.0646      0.00000
    151       8.1436      0.00000
    152       8.1436      0.00000
    153       8.1452      0.00000
    154       8.1452      0.00000
    155       8.1461      0.00000
    156       8.1461      0.00000
    157       8.1478      0.00000
    158       8.1478      0.00000
    159       8.5504      0.00000
    160       8.5504      0.00000
    161       8.5525      0.00000
    162       8.5525      0.00000
    163       8.5540      0.00000
    164       8.5540      0.00000
    165       8.5542      0.00000
    166       8.5542      0.00000
    167       9.3197      0.00000
    168       9.3246      0.00000

 k-point     3 :      -0.0000    0.5000    0.0000
  band No.  band energies     occupation 
      1      -5.9320      2.00000
      2      -5.9320      2.00000
      3      -4.8777      2.00000
      4      -4.8744      2.00000
      5      -4.8730      2.00000
      6      -4.8729      2.00000
      7      -4.8721      2.00000
      8      -4.8719      2.00000
      9      -4.8711      2.00000
     10      -4.8689      2.00000
     11      -4.0267      2.00000
     12      -4.0250      2.00000
     13      -4.0238      2.00000
     14      -4.0230      2.00000
     15      -4.0224      2.00000
     16      -4.0216      2.00000
     17      -4.0204      2.00000
     18      -4.0188      2.00000
     19      -3.8057      2.00000
     20      -3.8057      2.00000
     21      -3.0792      2.00000
     22      -3.0787      2.00000
     23      -3.0777      2.00000
     24      -3.0762      2.00000
     25      -3.0760      2.00000
     26      -3.0756      2.00000
     27      -3.0747      2.00000
     28      -3.0730      2.00000
     29      -1.9750      2.00000
     30      -1.9736      2.00000
     31      -1.9715      2.00000
     32      -1.9715      2.00000
     33      -1.9714      2.00000
     34      -1.9714      2.00000
     35      -1.9693      2.00000
     36      -1.9679      2.00000
     37      -0.8074      2.00000
     38      -0.8057      2.00000
     39      -0.8037      2.00000
     40      -0.8028      2.00000
     41      -0.8024      2.00000
     42      -0.8015      2.00000
     43      -0.8008      2.00000
     44      -0.7998      2.00000
     45      -0.6376      2.00000
     46      -0.6359      2.00000
     47      -0.6345      2.00000
     48      -0.6343      2.00000
     49      -0.6337      2.00000
     50      -0.6334      2.00000
     51      -0.6320      2.00000
     52      -0.6302      2.00000
     53       0.0232      2.00000
     54       0.0232      2.00000
     55       1.4713      2.00000
     56       1.4715      2.00000
     57       1.4733      2.00000
     58       1.4739      2.00000
     59       1.4741      2.00000
     60       1.4750      2.00000
     61       1.4768      2.00000
     62       1.4775      2.00000
     63       1.4913      2.00000
     64       1.4927      2.00000
     65       1.4928      2.00000
     66       1.4936      2.00000
     67       1.4937      2.00000
     68       1.4940      2.00000
     69       1.4946      2.00000
     70       1.4948      2.00000
     71       2.3165      2.00000
     72       2.3168      2.00000
     73       2.3176      2.00000
     74       2.3178      2.00000
     75       2.3183      2.00000
     76       2.3185      2.00000
     77       2.3192      2.00000
     78       2.3196      2.00000
     79       3.0231      2.00000
     80       3.0239      2.00000
     81       3.0242      2.00000
     82       3.0247      2.00000
     83       3.0248      2.00000
     84       3.0256      2.00000
     85       3.0260      2.00000
     86       3.0262      2.00000
     87       3.1478      2.00000
     88       3.1480      2.00000
     89       3.1481      2.00000
     90       3.1481      2.00000
     91       3.1568      2.00000
     92       3.1577      2.00000
     93       3.1583      2.00000
     94       3.1590      2.00000
     95       3.1595      2.00000
     96       3.1597      2.00000
     97       3.1610      2.00000
     98       3.1617      2.00000
     99       3.2822      2.00000
    100       3.2842      2.00000
    101       3.2846      2.00000
    102       3.2854      2.00000
    103       3.2861      2.00000
    104       3.2869      2.00000
    105       3.2874      2.00000
    106       3.2895      2.00000
    107       4.3270      2.00000
    108       4.3294      2.00000
    109       4.3319      2.00000
    110       4.3320      2.00000
    111       4.3325      2.00000
    112       4.3329      2.00000
    113       4.3337      2.00000
    114       4.3350      2.00000
    115       4.4329      2.00000
    116       4.4330      2.00000
    117       4.4987      2.00000
    118       4.4998      2.00000
    119       4.5006      2.00000
    120       4.5008      2.00000
    121       4.5009      2.00000
    122       4.5014      2.00000
    123       4.5021      2.00000
    124       4.5032      2.00000
    125       4.9552      2.00000
    126       4.9552      2.00000
    127       4.9552      2.00000
    128       4.9553      2.00000
[...]
         0         1         2         3         4         5         6         7         8         9
 total charge-density along one line
 
 pseudopotential strength for first ion, spin component:           1
 18.405  25.676  -0.000  -0.000   0.000  -0.000  -0.000   0.000
 25.676  35.825  -0.000  -0.000   0.000  -0.000  -0.000   0.001
 -0.000  -0.000   4.177   0.000  -0.000   7.782   0.000  -0.000
 -0.000  -0.000   0.000   4.177  -0.000   0.000   7.782  -0.000
  0.000   0.000  -0.000  -0.000   4.177  -0.000  -0.000   7.782
 -0.000  -0.000   7.782   0.000  -0.000  14.509   0.000  -0.000
 -0.000  -0.000   0.000   7.782  -0.000   0.000  14.509  -0.000
  0.000   0.001  -0.000  -0.000   7.782  -0.000  -0.000  14.509
 total augmentation occupancy for first ion, spin component:           1
  5.947  -2.287  -0.000  -0.000   0.020   0.000   0.000  -0.006
 -2.287   0.989   0.000   0.000  -0.009  -0.000  -0.000   0.003
 -0.000   0.000   3.000   0.022   0.000  -0.681  -0.006  -0.000
 -0.000   0.000   0.022   3.000   0.000  -0.006  -0.681  -0.000
  0.020  -0.009   0.000   0.000   3.000  -0.000  -0.000  -0.681
  0.000  -0.000  -0.681  -0.006  -0.000   0.164   0.002  -0.000
  0.000  -0.000  -0.006  -0.681  -0.000   0.002   0.164  -0.000
 -0.006   0.003  -0.000  -0.000  -0.681  -0.000  -0.000   0.164


------------------------ aborting loop because EDIFF is reached ----------------------------------------


    CHARGE:  cpu time      0.0786: real time      0.0792
    FORLOC:  cpu time      0.0097: real time      0.0097
    FORNL :  cpu time      0.8264: real time      0.8295
    STRESS:  cpu time      1.7128: real time      1.7204
    FORCOR:  cpu time      0.0286: real time      0.0287
    FORHAR:  cpu time      0.0115: real time      0.0115
    MIXING:  cpu time      0.0009: real time      0.0009
    OFIELD:  cpu time      0.0000: real time      0.0000

  FORCE on cell =-STRESS in cart. coord.  units (eV):
  Direction    XX          YY          ZZ          XY          YZ          ZX
  --------------------------------------------------------------------------------------
  Alpha Z   107.38121   107.38121   107.38121
  Ewald   -2435.98754 -2435.96667 -2435.96667    -0.00000     1.56972     0.00000
  Hartree   156.25888   156.26363   156.26363    -0.00000     0.17418    -0.00000
  E(xc)    -817.39768  -817.39794  -817.39794     0.00000    -0.02030    -0.00000
  Local    -931.44411  -931.46880  -931.46880    -0.00000    -1.63740    -0.00000
  n-local  2483.02227  2483.30916  2482.74353     0.00000     0.32558     0.00000
  augment  -368.16885  -368.16907  -368.16907    -0.00000    -0.01436     0.00000
  Kinetic  1806.30911  1807.67100  1804.94570     0.00000    -0.19979    -0.00000
  Fock        0.00000     0.00000     0.00000     0.00000     0.00000     0.00000
  -------------------------------------------------------------------------------------
  Total      -0.02672    -0.02294    -0.02294     0.00000     0.19763    -0.00000
  in kB      -0.03334    -0.02862    -0.02862     0.00000     0.24659    -0.00000
  external pressure =       -0.03 kB  Pullay stress =        0.00 kB


 VOLUME and BASIS-vectors are now :
 -----------------------------------------------------------------------------
  energy-cutoff  :      318.00
  volume of cell :     1284.06
      direct lattice vectors                 reciprocal lattice vectors
    10.869145120 -0.000000000 -0.000000000     0.092003556  0.000000000 -0.000000000
    -0.000000000 10.869145120  0.000000000     0.000000000  0.092003556 -0.000000000
     0.000000000  0.000000000 10.869145120     0.000000000 -0.000000000  0.092003556

  length of vectors
    10.869145120 10.869145120 10.869145120     0.092003556  0.092003556  0.092003556


 FORCES acting on ions
    electron-ion (+dipol)            ewald-force                    non-local-force                 convergence-correction
 -----------------------------------------------------------------------------------------------
   0.547E+00 0.477E-02 0.477E-02   -.510E+00 0.106E-03 0.106E-03   -.173E+00 -.581E-02 -.581E-02   0.168E-04 -.140E-04 -.140E-04
   -.810E-01 -.103E-03 -.103E-03   0.821E-01 0.318E-04 0.318E-04   -.105E-02 0.350E-05 0.350E-05   0.206E-05 -.934E-05 -.934E-05
   0.473E-01 0.469E-02 -.469E-02   -.562E-01 0.106E-03 -.106E-03   0.507E-02 -.575E-02 0.574E-02   0.370E-05 0.823E-05 -.602E-05
   -.363E-01 -.618E-04 0.560E-04   0.359E-01 -.318E-04 0.318E-04   0.372E-03 0.980E-06 0.141E-05   0.462E-05 0.164E-04 -.135E-04
   0.473E-01 -.469E-02 0.469E-02   -.562E-01 -.106E-03 0.106E-03   0.507E-02 0.574E-02 -.575E-02   0.370E-05 -.602E-05 0.823E-05
   -.363E-01 0.560E-04 -.618E-04   0.359E-01 0.318E-04 -.318E-04   0.372E-03 0.141E-05 0.980E-06   0.462E-05 -.135E-04 0.164E-04
   0.240E-01 -.498E-02 -.498E-02   -.448E-01 0.106E-03 0.106E-03   0.126E-01 0.581E-02 0.581E-02   -.134E-04 0.178E-04 0.178E-04
   -.271E-01 0.102E-03 0.102E-03   0.282E-01 -.318E-04 -.318E-04   -.869E-03 -.107E-04 -.107E-04   0.156E-04 0.178E-04 0.178E-04
   0.547E+00 -.477E-02 -.477E-02   -.510E+00 -.106E-03 -.106E-03   -.173E+00 0.581E-02 0.581E-02   0.168E-04 0.140E-04 0.140E-04
   -.810E-01 0.103E-03 0.103E-03   0.821E-01 -.318E-04 -.318E-04   -.105E-02 -.350E-05 -.350E-05   0.206E-05 0.934E-05 0.934E-05
   0.473E-01 -.469E-02 0.469E-02   -.562E-01 -.106E-03 0.106E-03   0.507E-02 0.575E-02 -.574E-02   0.370E-05 -.823E-05 0.602E-05
   -.363E-01 0.618E-04 -.560E-04   0.359E-01 0.318E-04 -.318E-04   0.372E-03 -.980E-06 -.141E-05   0.462E-05 -.164E-04 0.135E-04
   0.473E-01 0.469E-02 -.469E-02   -.562E-01 0.106E-03 -.106E-03   0.507E-02 -.574E-02 0.575E-02   0.370E-05 0.602E-05 -.823E-05
   -.363E-01 -.560E-04 0.618E-04   0.359E-01 -.318E-04 0.318E-04   0.372E-03 -.141E-05 -.980E-06   0.462E-05 0.135E-04 -.164E-04
   0.240E-01 0.498E-02 0.498E-02   -.448E-01 -.106E-03 -.106E-03   0.126E-01 -.581E-02 -.581E-02   -.134E-04 -.178E-04 -.178E-04
   -.271E-01 -.102E-03 -.102E-03   0.282E-01 0.318E-04 0.318E-04   -.869E-03 0.107E-04 0.107E-04   0.156E-04 -.178E-04 -.178E-04
   -.601E-01 0.541E-01 -.541E-01   0.594E-01 -.564E-01 0.564E-01   0.445E-02 -.466E-03 0.466E-03   -.180E-04 -.572E-05 0.572E-05
   -.599E-01 -.578E-01 0.578E-01   0.591E-01 0.567E-01 -.567E-01   0.448E-02 0.195E-02 -.195E-02   0.894E-06 -.141E-04 0.141E-04
   -.307E-01 -.562E-01 -.771E-02   0.307E-01 0.564E-01 0.466E-02   0.224E-02 0.161E-02 0.151E-02   -.126E-04 0.552E-05 0.298E-05
   -.305E-01 0.555E-01 0.434E-02   0.305E-01 -.567E-01 -.467E-02   0.225E-02 -.767E-03 -.498E-04   0.223E-05 0.160E-04 0.210E-04
   -.307E-01 0.771E-02 0.562E-01   0.307E-01 -.466E-02 -.564E-01   0.224E-02 -.151E-02 -.161E-02   -.126E-04 -.298E-05 -.552E-05
   -.305E-01 -.434E-02 -.555E-01   0.305E-01 0.467E-02 0.567E-01   0.225E-02 0.498E-04 0.767E-03   0.223E-05 -.210E-04 -.160E-04
   -.134E-02 -.556E-02 0.556E-02   0.196E-02 0.466E-02 -.466E-02   0.346E-04 0.362E-03 -.362E-03   -.430E-05 0.139E-04 -.139E-04
   -.119E-02 0.656E-02 -.656E-02   0.182E-02 -.467E-02 0.467E-02   0.157E-04 -.124E-02 0.124E-02   0.487E-05 0.256E-04 -.256E-04
   -.601E-01 -.541E-01 0.541E-01   0.594E-01 0.564E-01 -.564E-01   0.445E-02 0.466E-03 -.466E-03   -.180E-04 0.572E-05 -.572E-05
   -.599E-01 0.578E-01 -.578E-01   0.591E-01 -.567E-01 0.567E-01   0.448E-02 -.195E-02 0.195E-02   0.894E-06 0.141E-04 -.141E-04
   -.307E-01 0.562E-01 0.771E-02   0.307E-01 -.564E-01 -.466E-02   0.224E-02 -.161E-02 -.151E-02   -.126E-04 -.552E-05 -.298E-05
   -.305E-01 -.555E-01 -.434E-02   0.305E-01 0.567E-01 0.467E-02   0.225E-02 0.767E-03 0.498E-04   0.223E-05 -.160E-04 -.210E-04
   -.307E-01 -.771E-02 -.562E-01   0.307E-01 0.466E-02 0.564E-01   0.224E-02 0.151E-02 0.161E-02   -.126E-04 0.298E-05 0.552E-05
   -.305E-01 0.434E-02 0.555E-01   0.305E-01 -.467E-02 -.567E-01   0.225E-02 -.498E-04 -.767E-03   0.223E-05 0.210E-04 0.160E-04
   -.134E-02 0.556E-02 -.556E-02   0.196E-02 -.466E-02 0.466E-02   0.346E-04 -.362E-03 0.362E-03   -.430E-05 -.139E-04 0.139E-04
   -.119E-02 -.656E-02 0.656E-02   0.182E-02 0.467E-02 -.467E-02   0.157E-04 0.124E-02 -.124E-02   0.487E-05 -.256E-04 0.256E-04
   0.522E-02 -.203E+00 -.203E+00   -.901E-03 0.180E+00 0.180E+00   0.303E-01 0.463E-01 0.463E-01   0.391E-05 -.179E-04 -.179E-04
   -.593E-01 0.195E-01 0.195E-01   0.597E-01 -.193E-01 -.193E-01   -.676E-03 -.856E-04 -.856E-04   0.267E-05 -.178E-04 -.178E-04
   0.263E-01 0.230E-01 -.230E-01   -.299E-01 -.234E-01 0.234E-01   0.254E-02 0.275E-03 -.275E-03   0.439E-05 0.249E-04 -.249E-04
   -.310E-01 -.125E-01 0.125E-01   0.301E-01 0.117E-01 -.117E-01   0.132E-02 0.791E-03 -.791E-03   -.941E-05 0.133E-04 -.133E-04
   0.263E-01 -.230E-01 0.230E-01   -.299E-01 0.234E-01 -.234E-01   0.254E-02 -.275E-03 0.275E-03   0.439E-05 -.249E-04 0.249E-04
   -.310E-01 0.125E-01 -.125E-01   0.301E-01 -.117E-01 0.117E-01   0.132E-02 -.791E-03 0.791E-03   -.941E-05 -.133E-04 0.133E-04
   0.522E-02 0.203E+00 0.203E+00   -.901E-03 -.180E+00 -.180E+00   0.303E-01 -.463E-01 -.463E-01   0.391E-05 0.179E-04 0.179E-04
   -.593E-01 -.195E-01 -.195E-01   0.597E-01 0.193E-01 0.193E-01   -.676E-03 0.856E-04 0.856E-04   0.267E-05 0.178E-04 0.178E-04
   -.170E-01 -.528E-09 -.296E-09   0.133E-01 0.500E-14 0.155E-13   0.687E-01 -.190E-17 -.190E-17   0.202E-04 -.102E-13 -.149E-12
   -.103E+00 -.527E-09 -.296E-09   0.104E+00 0.855E-14 0.133E-14   -.118E-02 0.326E-19 0.325E-19   -.844E-05 -.245E-13 -.166E-12
   0.263E-01 0.136E-11 -.377E-10   -.299E-01 0.324E-15 0.533E-14   0.255E-02 -.703E-19 -.703E-19   0.313E-05 0.633E-14 -.121E-12
   -.310E-01 0.474E-12 -.362E-10   0.301E-01 0.743E-14 0.178E-14   0.132E-02 -.364E-19 -.364E-19   -.103E-04 0.208E-13 -.151E-12
   0.263E-01 0.104E-09 -.274E-10   -.299E-01 -.166E-14 0.222E-14   0.255E-02 -.703E-19 -.703E-19   0.313E-05 -.125E-13 0.146E-12
   -.310E-01 0.104E-09 -.269E-10   0.301E-01 0.544E-14 0.222E-14   0.132E-02 -.364E-19 -.364E-19   -.103E-04 -.263E-13 0.164E-12
   0.275E-01 -.495E-12 0.683E-10   -.151E-01 0.323E-15 0.178E-14   -.821E-02 0.227E-18 0.227E-18   -.110E-04 0.930E-14 0.118E-12
   -.153E-01 -.763E-12 0.675E-10   0.151E-01 0.743E-14 -.178E-14   -.173E-03 0.479E-20 0.479E-20   0.165E-04 0.231E-13 0.149E-12
   0.237E-02 0.220E+00 -.196E+00   -.640E-02 -.192E+00 0.169E+00   0.357E-01 -.494E-01 0.497E-01   -.308E-05 -.927E-05 -.206E-05
   -.673E-01 -.263E-01 0.137E-01   0.673E-01 0.250E-01 -.132E-01   0.755E-04 0.122E-02 -.378E-03   0.733E-06 -.158E-04 -.892E-05
   0.237E-02 -.220E+00 0.196E+00   -.640E-02 0.192E+00 -.169E+00   0.357E-01 0.494E-01 -.497E-01   -.308E-05 0.927E-05 0.206E-05
   -.673E-01 0.263E-01 -.137E-01   0.673E-01 -.250E-01 0.132E-01   0.755E-04 -.122E-02 0.378E-03   0.733E-06 0.158E-04 0.892E-05
   0.267E-01 0.609E-02 0.171E-01   -.223E-01 -.103E-01 -.132E-01   -.284E-02 0.409E-02 -.381E-02   -.836E-05 -.143E-04 0.669E-06
   -.230E-01 -.594E-02 -.666E-02   0.225E-01 0.626E-02 0.549E-02   0.576E-03 -.273E-03 0.112E-02   0.932E-05 -.328E-04 0.865E-05
   0.267E-01 -.609E-02 -.171E-01   -.223E-01 0.103E-01 0.132E-01   -.284E-02 -.409E-02 0.381E-02   -.836E-05 0.143E-04 -.669E-06
   -.230E-01 0.594E-02 0.666E-02   0.225E-01 -.626E-02 -.549E-02   0.576E-03 0.273E-03 -.112E-02   0.932E-05 0.328E-04 -.865E-05
   0.237E-02 -.196E+00 0.220E+00   -.640E-02 0.169E+00 -.192E+00   0.357E-01 0.497E-01 -.494E-01   -.308E-05 -.206E-05 -.927E-05
   -.673E-01 0.137E-01 -.263E-01   0.673E-01 -.132E-01 0.250E-01   0.755E-04 -.378E-03 0.122E-02   0.733E-06 -.892E-05 -.158E-04
   0.267E-01 0.171E-01 0.609E-02   -.223E-01 -.132E-01 -.103E-01   -.284E-02 -.381E-02 0.409E-02   -.836E-05 0.669E-06 -.143E-04
   -.230E-01 -.666E-02 -.594E-02   0.225E-01 0.549E-02 0.626E-02   0.576E-03 0.112E-02 -.273E-03   0.932E-05 0.865E-05 -.328E-04
   0.237E-02 0.196E+00 -.220E+00   -.640E-02 -.169E+00 0.192E+00   0.357E-01 -.497E-01 0.494E-01   -.308E-05 0.206E-05 0.927E-05
   -.673E-01 -.137E-01 0.263E-01   0.673E-01 0.132E-01 -.250E-01   0.755E-04 0.378E-03 -.122E-02   0.733E-06 0.892E-05 0.158E-04
   0.267E-01 -.171E-01 -.609E-02   -.223E-01 0.132E-01 0.103E-01   -.284E-02 0.381E-02 -.409E-02   -.836E-05 -.669E-06 0.143E-04
   -.230E-01 0.666E-02 0.594E-02   0.225E-01 -.549E-02 -.626E-02   0.576E-03 -.112E-02 0.273E-03   0.932E-05 -.865E-05 0.328E-04
 -----------------------------------------------------------------------------------------------
   -.113E-04 -.134E-09 0.455E-08   -.282E-13 0.325E-13 0.348E-13   0.197E-04 -.152E-17 0.132E-16   0.105E-05 0.122E-13 -.107E-12
 
 
 POSITION                                       TOTAL-FORCE (eV/Angst)
 -----------------------------------------------------------------------------------
      2.72729      2.71729      2.71729        -0.136419     -0.000955     -0.000955
      8.15186      2.71729      2.71729         0.000140     -0.000077     -0.000077
      2.71729      8.15186      2.71729        -0.003786     -0.000940      0.000941
      8.15186      8.15186      2.71729         0.000011     -0.000076      0.000076
      2.71729      2.71729      8.15186        -0.003786      0.000941     -0.000940
      8.15186      2.71729      8.15186         0.000011      0.000076     -0.000076
      2.71729      8.15186      8.15186        -0.008204      0.000954      0.000954
      8.15186      8.15186      8.15186         0.000187      0.000077      0.000077
      2.72729     -0.00000     -0.00000        -0.136419      0.000955      0.000955
      8.15186     -0.00000     -0.00000         0.000140      0.000077      0.000077
      2.71729      5.43457      0.00000        -0.003786      0.000940     -0.000941
      8.15186      5.43457     -0.00000         0.000011      0.000076     -0.000076
      2.71729      0.00000      5.43457        -0.003786     -0.000941      0.000940
      8.15186     -0.00000      5.43457         0.000011     -0.000076      0.000076
      2.71729      5.43457      5.43457        -0.008204     -0.000954     -0.000954
      8.15186      5.43457      5.43457         0.000187     -0.000077     -0.000077
     -0.00000      2.71729      0.00000         0.003717     -0.002795      0.002795
      5.43457      2.71729     -0.00000         0.003756      0.000914     -0.000914
     -0.00000      8.15186      0.00000         0.002185      0.001775     -0.001543
      5.43457      8.15186      0.00000         0.002203     -0.001942     -0.000350
      0.00000      2.71729      5.43457         0.002185      0.001543     -0.001775
      5.43457      2.71729      5.43457         0.002203      0.000350      0.001942
     -0.00000      8.15186      5.43457         0.000654     -0.000526      0.000526
      5.43457      8.15186      5.43457         0.000653      0.000680     -0.000680
      0.00000      0.00000      2.71729         0.003717      0.002795     -0.002795
      5.43457     -0.00000      2.71729         0.003756     -0.000914      0.000914
     -0.00000      5.43457      2.71729         0.002185     -0.001775      0.001543
      5.43457      5.43457      2.71729         0.002203      0.001942      0.000350
      0.00000      0.00000      8.15186         0.002185     -0.001543      0.001775
      5.43457      0.00000      8.15186         0.002203     -0.000350     -0.001942
      0.00000      5.43457      8.15186         0.000654      0.000526     -0.000526
      5.43457      5.43457      8.15186         0.000653     -0.000680      0.000680
      4.07593      4.07593      4.07593         0.034580      0.022748      0.022748
      9.51050      4.07593      4.07593        -0.000265      0.000069      0.000069
      4.07593      9.51050      4.07593        -0.001032     -0.000062      0.000062
      9.51050      9.51050      4.07593         0.000437     -0.000036      0.000036
      4.07593      4.07593      9.51050        -0.001032      0.000062     -0.000062
      9.51050      4.07593      9.51050         0.000437      0.000036     -0.000036
      4.07593      9.51050      9.51050         0.034580     -0.022748     -0.022748
      9.51050      9.51050      9.51050        -0.000265     -0.000069     -0.000069
      4.07593      1.35864      1.35864         0.064988     -0.000000     -0.000000
      9.51050      1.35864      1.35864        -0.000177     -0.000000      0.000000
      4.07593      6.79322      1.35864        -0.001031     -0.000000      0.000000
      9.51050      6.79322      1.35864         0.000437     -0.000000      0.000000
      4.07593      1.35864      6.79322        -0.001031     -0.000000      0.000000
      9.51050      1.35864      6.79322         0.000437     -0.000000      0.000000
      4.07593      6.79322      6.79322         0.004176     -0.000000     -0.000000
      9.51050      6.79322      6.79322        -0.000354     -0.000000      0.000000
      1.35864      4.07593      1.35864         0.031672     -0.022060      0.021992
      6.79322      4.07593      1.35864         0.000137     -0.000125      0.000085
      1.35864      9.51050      1.35864         0.031672      0.022060     -0.021992
      6.79322      9.51050      1.35864         0.000137      0.000125     -0.000085
      1.35864      4.07593      6.79322         0.001569     -0.000159      0.000087
      6.79322      4.07593      6.79322         0.000046      0.000012     -0.000053
      1.35864      9.51050      6.79322         0.001569      0.000159     -0.000087
      6.79322      9.51050      6.79322         0.000046     -0.000012      0.000053
      1.35864      1.35864      4.07593         0.031672      0.021992     -0.022060
      6.79322      1.35864      4.07593         0.000137      0.000085     -0.000125
      1.35864      6.79322      4.07593         0.001569      0.000087     -0.000159
      6.79322      6.79322      4.07593         0.000046     -0.000053      0.000012
      1.35864      1.35864      9.51050         0.031672     -0.021992      0.022060
      6.79322      1.35864      9.51050         0.000137     -0.000085      0.000125
      1.35864      6.79322      9.51050         0.001569     -0.000087      0.000159
      6.79322      6.79322      9.51050         0.000046      0.000053     -0.000012
 -----------------------------------------------------------------------------------
    total drift:                                0.000010     -0.000000      0.000000


--------------------------------------------------------------------------------------------------------



  FREE ENERGIE OF THE ION-ELECTRON SYSTEM (eV)
  ---------------------------------------------------
  free  energy   TOTEN  =      -367.49982653 eV

  energy  without entropy=     -367.49982653  energy(sigma->0) =     -367.49982653
 


--------------------------------------------------------------------------------------------------------


    POTLOK:  cpu time      0.0433: real time      0.0435


--------------------------------------------------------------------------------------------------------


     LOOP+:  cpu time     31.8562: real time     32.0292
    4ORBIT:  cpu time      0.0000: real time      0.0000

 total amount of memory used by VASP MPI-rank0    61993. kBytes
=======================================================================

   base      :      30000. kBytes
   nonl-proj :       5879. kBytes
   fftplans  :      11573. kBytes
   grid      :       5816. kBytes
   one-center:         49. kBytes
   wavefun   :       8676. kBytes
 
  
  
 General timing and accounting informations for this job:
 ========================================================
  
                  Total CPU time used (sec):       33.565
                            User time (sec):       32.546
                          System time (sec):        1.019
                         Elapsed time (sec):       33.918
  
                   Maximum memory used (kb):      221064.
                   Average memory used (kb):          N/A
  
                          Minor page faults:        89920
                          Major page faults:            0
                 Voluntary context switches:          786
