       N       E                     dE             d eps       ncg     rms          rms(c)
DAV:   1     0.451011124199E+03    0.45101E+03   -0.72608E+04  2688   0.852E+02
DAV:   2    -0.322073315943E+03   -0.77308E+03   -0.73079E+03  3232   0.155E+02
DAV:   3    -0.373414404913E+03   -0.51341E+02   -0.50479E+02  3304   0.365E+01
DAV:   4    -0.374599392729E+03   -0.11850E+01   -0.11767E+01  3240   0.671E+00
DAV:   5    -0.374640858297E+03   -0.41466E-01   -0.41418E-01  3208   0.111E+00    0.285E+01
DAV:   6    -0.369721529036E+03    0.49193E+01   -0.25911E+00  3064   0.242E+00    0.172E+01
DAV:   7    -0.367490404652E+03    0.22311E+01   -0.52402E+00  3056   0.349E+00    0.996E-01
DAV:   8    -0.367497482028E+03   -0.70774E-02   -0.28303E-01  3080   0.970E-01    0.352E-01
DAV:   9    -0.367498992408E+03   -0.15104E-02   -0.72402E-03  3296   0.163E-01    0.309E-01
DAV:  10    -0.367499842338E+03   -0.84993E-03   -0.20703E-03  2992   0.828E-02    0.225E-01
DAV:  11    -0.367499877756E+03   -0.35418E-04   -0.86231E-05  3176   0.187E-02    0.936E-03
DAV:  12    -0.367499880058E+03   -0.23023E-05   -0.33367E-06  3208   0.358E-03    0.809E-03
DAV:  13    -0.367499879160E+03    0.89859E-06   -0.83497E-07  3048   0.193E-03    0.226E-03
DAV:  14    -0.367499878951E+03    0.20887E-06   -0.35680E-08  2760   0.422E-04    0.500E-04
DAV:  15    -0.367499878946E+03    0.45275E-08   -0.10664E-08  1856   0.203E-04
   1 F= -.36749988E+03 E0= -.36749988E+03  d E =-.346003E-18
