 vasp.6.3.2 27Jun22 (build Oct 14 2022 12:13:54) complex                        
  
 executed on             LinuxIFC date 2023.04.03  14:38:22
 running on   32 total cores
 distrk:  each k-point on   32 cores,    1 groups
 distr:  one band on NCORE=   4 cores,    8 groups


--------------------------------------------------------------------------------------------------------


 INCAR:
   ADDGRID = True
   EDIFF = 1e-08
   ENCUT = 318
   GGA = Ps
   IALGO = 38
   IBRION = -1
   ISMEAR = 0
   LCHARG = False
   LREAL = False
   LWAVE = False
   NELMIN = 5
   NPAR = 8
   PREC = Accurate
   SIGMA = 0.02

 POTCAR:    PAW_PBE Si 05Jan2001                  
 POTCAR:    PAW_PBE Si 05Jan2001                  
   SHA256 =  79d9987ad8750f624c4d6acb2a16d13abf6a777132adc04dc6c8399be72b42bb Si/POTCAR             
   COPYR  = (c) Copyright 05Jan2001 Georg Kresse                                                    
   COPYR  = This file is part of the software VASP. Any use, copying, and all other rights are regul
   COPYR  = If you do not have a valid VASP license, you may not use, copy or distribute this file. 
   VRHFIN =Si: s2p2                                                                                 
   LEXCH  = PE                                                                                      
   EATOM  =   103.0669 eV,    7.5752 Ry                                                             
                                                                                                    
   TITEL  = PAW_PBE Si 05Jan2001                                                                    
   LULTRA =        F    use ultrasoft PP ?                                                          
   IUNSCR =        1    unscreen: 0-lin 1-nonlin 2-no                                               
   RPACOR =    1.500    partial core radius                                                         
   POMASS =   28.085; ZVAL   =    4.000    mass and valenz                                          
   RCORE  =    1.900    outmost cutoff radius                                                       
   RWIGS  =    2.480; RWIGS  =    1.312    wigner-seitz radius (au A)                               
   ENMAX  =  245.345; ENMIN  =  184.009 eV                                                          
   ICORE  =        2    local potential                                                             
   LCOR   =        T    correct aug charges                                                         
   LPAW   =        T    paw PP                                                                      
   EAUG   =  322.069                                                                                
   DEXC   =    0.000                                                                                
   RMAX   =    1.950    core radius for proj-oper                                                   
   RAUG   =    1.300    factor for augmentation sphere                                              
   RDEP   =    1.993    radius for radial grids                                                     
   RDEPT  =    1.837    core radius for aug-charge                                                  
                                                                                                    
   Atomic configuration                                                                             
    6 entries                                                                                       
     n  l   j            E        occ.                                                              
     1  0  0.50     -1785.8828   2.0000                                                             
     2  0  0.50      -139.4969   2.0000                                                             
     2  1  1.50       -95.5546   6.0000                                                             
     3  0  0.50       -10.8127   2.0000                                                             
     3  1  0.50        -4.0811   2.0000                                                             
     3  2  1.50        -4.0817   0.0000                                                             
   Description                                                                                      
     l       E           TYP  RCUT    TYP  RCUT                                                     
     0    -10.8127223     23  1.900                                                                 
     0     -7.6451159     23  1.900                                                                 
     1     -4.0811372     23  1.900                                                                 
     1      2.4879257     23  1.900                                                                 
     2     -4.0817478      7  1.900                                                                 
  local pseudopotential read in
  partial core-charges read in
  partial kinetic energy density read in
  atomic valenz-charges read in
  non local Contribution for L=           0  read in
    real space projection operators read in
  non local Contribution for L=           0  read in
    real space projection operators read in
  non local Contribution for L=           1  read in
    real space projection operators read in
  non local Contribution for L=           1  read in
    real space projection operators read in
    PAW grid and wavefunctions read in
 
   number of l-projection  operators is LMAX  =           4
   number of lm-projection operators is LMMAX =           8
 
 -----------------------------------------------------------------------------
|                                                                             |
|               ----> ADVICE to this user running VASP <----                  |
|                                                                             |
|     You have a (more or less) 'large supercell' and for larger cells it     |
|     might be more efficient to use real-space projection operators.         |
|     Therefore, try LREAL= Auto in the INCAR file.                           |
|     Mind: For very accurate calculation, you might also keep the            |
|     reciprocal projection scheme (i.e. LREAL=.FALSE.).                      |
|                                                                             |
 -----------------------------------------------------------------------------

 -----------------------------------------------------------------------------
|                                                                             |
|               ----> ADVICE to this user running VASP <----                  |
|                                                                             |
|     You enforced a specific xc type in the INCAR file but a different       |
|     type was found in the POTCAR file.                                      |
|     I HOPE YOU KNOW WHAT YOU ARE DOING!                                     |
|                                                                             |
 -----------------------------------------------------------------------------

  PAW_PBE Si 05Jan2001                  :
 energy of atom  1       EATOM= -103.0669
 kinetic energy error for atom=    0.0016 (will be added to EATOM!!)
 
 
 POSCAR: Si
  positions in cartesian coordinates
  No initial velocities read in
 exchange correlation table for  LEXCH =       14
   RHO(1)=    0.500       N(1)  =     2000
   RHO(2)=  100.500       N(2)  =     4000
 


--------------------------------------------------------------------------------------------------------


 ion  position               nearest neighbor table
   1  0.251  0.250  0.250-  33 2.35  41 2.35  49 2.36  57 2.36
   2  0.750  0.250  0.250-  34 2.35  42 2.35  50 2.35  58 2.35
   3  0.250  0.750  0.250-  35 2.35  43 2.35  51 2.35  59 2.35
   4  0.750  0.750  0.250-  36 2.35  44 2.35  52 2.35  60 2.35
   5  0.250  0.250  0.750-  37 2.35  45 2.35  53 2.35  61 2.35
   6  0.750  0.250  0.750-  38 2.35  46 2.35  54 2.35  62 2.35
   7  0.250  0.750  0.750-  39 2.35  47 2.35  55 2.35  63 2.35
   8  0.750  0.750  0.750-  40 2.35  48 2.35  56 2.35  64 2.35
   9  0.250  0.001  0.000-  41 2.35  61 2.35  51 2.36  39 2.36
  10  0.750  0.000  0.000-  40 2.35  42 2.35  52 2.35  62 2.35
  11  0.250  0.500  0.000-  37 2.35  43 2.35  49 2.35  63 2.35
  12  0.750  0.500  0.000-  38 2.35  44 2.35  50 2.35  64 2.35
  13  0.250  0.000  0.500-  35 2.35  45 2.35  55 2.35  57 2.35
  14  0.750  0.000  0.500-  36 2.35  46 2.35  56 2.35  58 2.35
  15  0.250  0.500  0.500-  33 2.35  47 2.35  53 2.35  59 2.35
  16  0.750  0.500  0.500-  34 2.35  48 2.35  54 2.35  60 2.35
  17  0.000  0.250  0.000-  38 2.35  42 2.35  49 2.35  61 2.35
  18  0.500  0.250  0.000-  37 2.35  41 2.35  50 2.35  62 2.35
  19  0.000  0.750  0.000-  40 2.35  44 2.35  51 2.35  63 2.35
  20  0.500  0.750  0.000-  39 2.35  43 2.35  52 2.35  64 2.35
  21  0.000  0.250  0.500-  34 2.35  46 2.35  53 2.35  57 2.35
  22  0.500  0.250  0.500-  33 2.35  45 2.35  54 2.35  58 2.35
  23  0.000  0.750  0.500-  36 2.35  48 2.35  55 2.35  59 2.35
  24  0.500  0.750  0.500-  35 2.35  47 2.35  56 2.35  60 2.35
  25  0.000  0.000  0.250-  36 2.35  42 2.35  51 2.35  57 2.35
  26  0.500  0.000  0.250-  35 2.35  41 2.35  52 2.35  58 2.35
  27  0.000  0.500  0.250-  34 2.35  44 2.35  49 2.35  59 2.35
  28  0.500  0.500  0.250-  33 2.35  43 2.35  50 2.35  60 2.35
  29  0.000  0.000  0.750-  40 2.35  46 2.35  55 2.35  61 2.35
  30  0.500  0.000  0.750-  39 2.35  45 2.35  56 2.35  62 2.35
  31  0.000  0.500  0.750-  38 2.35  48 2.35  53 2.35  63 2.35
  32  0.500  0.500  0.750-  37 2.35  47 2.35  54 2.35  64 2.35
  33  0.375  0.375  0.375-   1 2.35  15 2.35  22 2.35  28 2.35
  34  0.875  0.375  0.375-   2 2.35  16 2.35  21 2.35  27 2.35
  35  0.375  0.875  0.375-   3 2.35  13 2.35  24 2.35  26 2.35
  36  0.875  0.875  0.375-   4 2.35  14 2.35  23 2.35  25 2.35
  37  0.375  0.375  0.875-   5 2.35  11 2.35  18 2.35  32 2.35
  38  0.875  0.375  0.875-   6 2.35  12 2.35  17 2.35  31 2.35
  39  0.375  0.875  0.875-   7 2.35  20 2.35  30 2.35   9 2.36
  40  0.875  0.875  0.875-   8 2.35  10 2.35  19 2.35  29 2.35
  41  0.375  0.125  0.125-   1 2.35   9 2.35  18 2.35  26 2.35
  42  0.875  0.125  0.125-   2 2.35  10 2.35  17 2.35  25 2.35
  43  0.375  0.625  0.125-   3 2.35  11 2.35  20 2.35  28 2.35
  44  0.875  0.625  0.125-   4 2.35  12 2.35  19 2.35  27 2.35
  45  0.375  0.125  0.625-   5 2.35  13 2.35  22 2.35  30 2.35
  46  0.875  0.125  0.625-   6 2.35  14 2.35  21 2.35  29 2.35
  47  0.375  0.625  0.625-   7 2.35  15 2.35  24 2.35  32 2.35
  48  0.875  0.625  0.625-   8 2.35  16 2.35  23 2.35  31 2.35
  49  0.125  0.375  0.125-  11 2.35  17 2.35  27 2.35   1 2.36
  50  0.625  0.375  0.125-   2 2.35  12 2.35  18 2.35  28 2.35
  51  0.125  0.875  0.125-   3 2.35  19 2.35  25 2.35   9 2.36
  52  0.625  0.875  0.125-   4 2.35  10 2.35  20 2.35  26 2.35
  53  0.125  0.375  0.625-   5 2.35  15 2.35  21 2.35  31 2.35
  54  0.625  0.375  0.625-   6 2.35  16 2.35  22 2.35  32 2.35
  55  0.125  0.875  0.625-   7 2.35  13 2.35  23 2.35  29 2.35
  56  0.625  0.875  0.625-   8 2.35  14 2.35  24 2.35  30 2.35
  57  0.125  0.125  0.375-  13 2.35  21 2.35  25 2.35   1 2.36
  58  0.625  0.125  0.375-   2 2.35  14 2.35  22 2.35  26 2.35
  59  0.125  0.625  0.375-   3 2.35  15 2.35  23 2.35  27 2.35
  60  0.625  0.625  0.375-   4 2.35  16 2.35  24 2.35  28 2.35
  61  0.125  0.125  0.875-   9 2.35   5 2.35  17 2.35  29 2.35
  62  0.625  0.125  0.875-   6 2.35  10 2.35  18 2.35  30 2.35
  63  0.125  0.625  0.875-   7 2.35  11 2.35  19 2.35  31 2.35
  64  0.625  0.625  0.875-   8 2.35  12 2.35  20 2.35  32 2.35
 
  LATTYP: Found a simple cubic cell.
 ALAT       =    10.8691451200
  
  Lattice vectors:
  
 A1 = (  10.8691451200,  -0.0000000000,  -0.0000000000)
 A2 = (  -0.0000000000,  10.8691451200,   0.0000000000)
 A3 = (   0.0000000000,   0.0000000000,  10.8691451200)


Analysis of symmetry for initial positions (statically):
=====================================================================
 Subroutine PRICEL returns:
 Original cell was already a primitive cell.
 

 Routine SETGRP: Setting up the symmetry group for a 
 simple cubic supercell.


 Subroutine GETGRP returns: Found  1 space group operations
 (whereof  1 operations were pure point group operations)
 out of a pool of 48 trial point group operations.


The static configuration has the point symmetry C_1 .


Analysis of symmetry for dynamics (positions and initial velocities):
=====================================================================
 Subroutine PRICEL returns:
 Original cell was already a primitive cell.
 

 Routine SETGRP: Setting up the symmetry group for a 
 simple cubic supercell.


 Subroutine GETGRP returns: Found  1 space group operations
 (whereof  1 operations were pure point group operations)
 out of a pool of 48 trial point group operations.


The dynamic configuration has the point symmetry C_1 .


 Subroutine INISYM returns: Found  1 space group operations
 (whereof  1 operations are pure point group operations),
 and found     1 'primitive' translations


----------------------------------------------------------------------------------------

                                     Primitive cell                                     

  volume of cell :    1284.0625

  direct lattice vectors                    reciprocal lattice vectors
    10.869145120 -0.000000000 -0.000000000     0.092003556  0.000000000 -0.000000000
    -0.000000000 10.869145120  0.000000000     0.000000000  0.092003556 -0.000000000
     0.000000000  0.000000000 10.869145120     0.000000000 -0.000000000  0.092003556

  length of vectors
    10.869145120 10.869145120 10.869145120     0.092003556  0.092003556  0.092003556

  position of ions in fractional coordinates (direct lattice)
     0.250920036  0.250000000  0.250000000
     0.750000000  0.250000000  0.250000000
     0.250000000  0.750000000  0.250000000
     0.750000000  0.750000000  0.250000000
     0.250000000  0.250000000  0.750000000
     0.750000000  0.250000000  0.750000000
     0.250000000  0.750000000  0.750000000
     0.750000000  0.750000000  0.750000000
     0.250000000  0.000920036  1.000000000
     0.750000000  1.000000000  1.000000000
     0.250000000  0.500000000  0.000000000
     0.750000000  0.500000000  1.000000000
     0.250000000  0.000000000  0.500000000
     0.750000000  1.000000000  0.500000000
     0.250000000  0.500000000  0.500000000
     0.750000000  0.500000000  0.500000000
     1.000000000  0.250000000  0.000000000
     0.500000000  0.250000000  1.000000000
     1.000000000  0.750000000  0.000000000
     0.500000000  0.750000000  0.000000000
     0.000000000  0.250000000  0.500000000
     0.500000000  0.250000000  0.500000000
     1.000000000  0.750000000  0.500000000
     0.500000000  0.750000000  0.500000000
     0.000000000  0.000000000  0.250000000
     0.500000000  1.000000000  0.250000000
     1.000000000  0.500000000  0.250000000
     0.500000000  0.500000000  0.250000000
     0.000000000  0.000000000  0.750000000
     0.500000000  0.000000000  0.750000000
     0.000000000  0.500000000  0.750000000
     0.500000000  0.500000000  0.750000000
     0.375000000  0.375000000  0.375000000
     0.875000000  0.375000000  0.375000000
     0.375000000  0.875000000  0.375000000
     0.875000000  0.875000000  0.375000000
     0.375000000  0.375000000  0.875000000
     0.875000000  0.375000000  0.875000000
     0.375000000  0.875000000  0.875000000
     0.875000000  0.875000000  0.875000000
     0.375000000  0.125000000  0.125000000
     0.875000000  0.125000000  0.125000000
     0.375000000  0.625000000  0.125000000
     0.875000000  0.625000000  0.125000000
     0.375000000  0.125000000  0.625000000
     0.875000000  0.125000000  0.625000000
     0.375000000  0.625000000  0.625000000
     0.875000000  0.625000000  0.625000000
     0.125000000  0.375000000  0.125000000
     0.625000000  0.375000000  0.125000000
     0.125000000  0.875000000  0.125000000
     0.625000000  0.875000000  0.125000000
     0.125000000  0.375000000  0.625000000
     0.625000000  0.375000000  0.625000000
     0.125000000  0.875000000  0.625000000
     0.625000000  0.875000000  0.625000000
     0.125000000  0.125000000  0.375000000
     0.625000000  0.125000000  0.375000000
     0.125000000  0.625000000  0.375000000
     0.625000000  0.625000000  0.375000000
     0.125000000  0.125000000  0.875000000
     0.625000000  0.125000000  0.875000000
     0.125000000  0.625000000  0.875000000
     0.625000000  0.625000000  0.875000000

  ion indices of the primitive-cell ions
   primitive index   ion index
                 1           1
                 2           2
                 3           3
                 4           4
                 5           5
                 6           6
                 7           7
                 8           8
                 9           9
                10          10
                11          11
                12          12
                13          13
                14          14
                15          15
                16          16
                17          17
                18          18
                19          19
                20          20
                21          21
                22          22
                23          23
                24          24
                25          25
                26          26
                27          27
                28          28
                29          29
                30          30
                31          31
                32          32
                33          33
                34          34
                35          35
                36          36
                37          37
                38          38
                39          39
                40          40
                41          41
                42          42
                43          43
                44          44
                45          45
                46          46
                47          47
                48          48
                49          49
                50          50
                51          51
                52          52
                53          53
                54          54
                55          55
                56          56
                57          57
                58          58
                59          59
                60          60
                61          61
                62          62
                63          63
                64          64

----------------------------------------------------------------------------------------

 
 
 KPOINTS: KPOINTS created by Atomic Simulation Env

Automatic generation of k-mesh.
 Grid dimensions read from file:
 generate k-points for:    2    2    2

 Generating k-lattice:

  Cartesian coordinates                     Fractional coordinates (reciprocal lattice)
     0.046001778  0.000000000 -0.000000000     0.500000000 -0.000000000  0.000000000
     0.000000000  0.046001778 -0.000000000    -0.000000000  0.500000000  0.000000000
     0.000000000 -0.000000000  0.046001778    -0.000000000  0.000000000  0.500000000

  Length of vectors
     0.046001778  0.046001778  0.046001778

  Shift w.r.t. Gamma in fractional coordinates (k-lattice)
     0.000000000  0.000000000  0.000000000

 
 Subroutine IBZKPT returns following result:
 ===========================================
 
 Found      8 irreducible k-points:
 
 Following reciprocal coordinates:
            Coordinates               Weight
  0.000000  0.000000  0.000000      1.000000
  0.500000  0.000000  0.000000      1.000000
 -0.000000  0.500000  0.000000      1.000000
  0.000000 -0.000000  0.500000      1.000000
  0.500000  0.500000  0.000000      1.000000
  0.000000  0.500000  0.500000      1.000000
  0.500000 -0.000000  0.500000      1.000000
  0.500000  0.500000  0.500000      1.000000
 
 Following cartesian coordinates:
            Coordinates               Weight
  0.000000  0.000000  0.000000      1.000000
  0.046002  0.000000  0.000000      1.000000
  0.000000  0.046002  0.000000      1.000000
  0.000000 -0.000000  0.046002      1.000000
  0.046002  0.046002  0.000000      1.000000
  0.000000  0.046002  0.046002      1.000000
  0.046002  0.000000  0.046002      1.000000
  0.046002  0.046002  0.046002      1.000000
 


--------------------------------------------------------------------------------------------------------




 Dimension of arrays:
   k-points           NKPTS =      8   k-points in BZ     NKDIM =      8   number of bands    NBANDS=    168
   number of dos      NEDOS =    301   number of ions     NIONS =     64
   non local maximal  LDIM  =      4   non local SUM 2l+1 LMDIM =      8
   total plane-waves  NPLWV = 262144
   max r-space proj   IRMAX =      1   max aug-charges    IRDMAX=  54800
   dimension x,y,z NGX =    64 NGY =   64 NGZ =   64
   dimension x,y,z NGXF=   128 NGYF=  128 NGZF=  128
   support grid    NGXF=   256 NGYF=  256 NGZF=  256
   ions per type =              64
   NGX,Y,Z   is equivalent  to a cutoff of   9.79,  9.79,  9.79 a.u.
   NGXF,Y,Z  is equivalent  to a cutoff of  19.58, 19.58, 19.58 a.u.

 SYSTEM =  unknown system                          
 POSCAR =  Si                                      

 Startparameter for this run:
   NWRITE =      2    write-flag & timer
   PREC   = accura    normal or accurate (medium, high low for compatibility)
   ISTART =      0    job   : 0-new  1-cont  2-samecut
   ICHARG =      2    charge: 1-file 2-atom 10-const
   ISPIN  =      1    spin polarized calculation?
   LNONCOLLINEAR =      F non collinear calculations
   LSORBIT =      F    spin-orbit coupling
   INIWAV =      1    electr: 0-lowe 1-rand  2-diag
   LASPH  =      F    aspherical Exc in radial PAW
 Electronic Relaxation 1
   ENCUT  =  318.0 eV  23.37 Ry    4.83 a.u.  15.80 15.80 15.80*2*pi/ulx,y,z
   ENINI  =  318.0     initial cutoff
   ENAUG  =  322.1 eV  augmentation charge cutoff
   NELM   =     60;   NELMIN=  5; NELMDL= -5     # of ELM steps 
   EDIFF  = 0.1E-07   stopping-criterion for ELM
   LREAL  =      F    real-space projection
   NLSPLINE    = F    spline interpolate recip. space projectors
   LCOMPAT=      F    compatible to vasp.4.4
   GGA_COMPAT  = T    GGA compatible to vasp.4.4-vasp.4.6
   LMAXPAW     = -100 max onsite density
   LMAXMIX     =    2 max onsite mixed and CHGCAR
   VOSKOWN=      0    Vosko Wilk Nusair interpolation
   ROPT   =    0.00000
 Ionic relaxation
   EDIFFG = 0.1E-06   stopping-criterion for IOM
   NSW    =      0    number of steps for IOM
   NBLOCK =      1;   KBLOCK =      1    inner block; outer block 
   IBRION =     -1    ionic relax: 0-MD 1-quasi-New 2-CG
   NFREE  =      0    steps in history (QN), initial steepest desc. (CG)
   ISIF   =      2    stress and relaxation
   IWAVPR =     10    prediction:  0-non 1-charg 2-wave 3-comb
   ISYM   =      2    0-nonsym 1-usesym 2-fastsym
   LCORR  =      T    Harris-Foulkes like correction to forces

   POTIM  = 0.5000    time-step for ionic-motion
   TEIN   =    0.0    initial temperature
   TEBEG  =    0.0;   TEEND  =   0.0 temperature during run
   SMASS  =  -3.00    Nose mass-parameter (am)
   estimated Nose-frequenzy (Omega)   =  0.10E-29 period in steps = 0.13E+47 mass=  -0.270E-26a.u.
   SCALEE = 1.0000    scale energy and forces
   NPACO  =    256;   APACO  = 10.0  distance and # of slots for P.C.
   PSTRESS=    0.0 pullay stress

  Mass of Ions in am
   POMASS =  28.09
  Ionic Valenz
   ZVAL   =   4.00
  Atomic Wigner-Seitz radii
   RWIGS  =  -1.00
  virtual crystal weights 
   VCA    =   1.00
   NELECT =     256.0000    total number of electrons
   NUPDOWN=      -1.0000    fix difference up-down

 DOS related values:
   EMIN   =  10.00;   EMAX   =-10.00  energy-range for DOS
   EFERMI =   0.00
   ISMEAR =     0;   SIGMA  =   0.02  broadening in eV -4-tet -1-fermi 0-gaus

 Electronic relaxation 2 (details)
   IALGO  =     38    algorithm
   LDIAG  =      T    sub-space diagonalisation (order eigenvalues)
   LSUBROT=      F    optimize rotation matrix (better conditioning)
   TURBO    =      0    0=normal 1=particle mesh
   IRESTART =      0    0=no restart 2=restart with 2 vectors
   NREBOOT  =      0    no. of reboots
   NMIN     =      0    reboot dimension
   EREF     =   0.00    reference energy to select bands
   IMIX   =      4    mixing-type and parameters
     AMIX     =   0.40;   BMIX     =  1.00
     AMIX_MAG =   1.60;   BMIX_MAG =  1.00
     AMIN     =   0.10
     WC   =   100.;   INIMIX=   1;  MIXPRE=   1;  MAXMIX= -45

 Intra band minimization:
   WEIMIN = 0.0000     energy-eigenvalue tresh-hold
   EBREAK =  0.15E-10  absolut break condition
   DEPER  =   0.30     relativ break condition  

   TIME   =   0.40     timestep for ELM

  volume/ion in A,a.u.               =      20.06       135.40
  Fermi-wavevector in a.u.,A,eV,Ry     =   0.956370  1.807278 12.444490  0.914644
  Thomas-Fermi vector in A             =   2.085292
 
 Write flags
   LWAVE        =      F    write WAVECAR
   LDOWNSAMPLE  =      F    k-point downsampling of WAVECAR
   LCHARG       =      F    write CHGCAR
   LVTOT        =      F    write LOCPOT, total local potential
   LVHAR        =      F    write LOCPOT, Hartree potential only
   LELF         =      F    write electronic localiz. function (ELF)
   LORBIT       =      0    0 simple, 1 ext, 2 COOP (PROOUT), +10 PAW based schemes


 Dipole corrections
   LMONO  =      F    monopole corrections only (constant potential shift)
   LDIPOL =      F    correct potential (dipole corrections)
   IDIPOL =      0    1-x, 2-y, 3-z, 4-all directions 
   EPSILON=  1.0000000 bulk dielectric constant

 Exchange correlation treatment:
   GGA     =    PS    GGA type
   LEXCH   =    14    internal setting for exchange type
   LIBXC   =     F    Libxc                    
   VOSKOWN =     0    Vosko Wilk Nusair interpolation
   LHFCALC =     F    Hartree Fock is set to
   LHFONE  =     F    Hartree Fock one center treatment
   AEXX    =    0.0000 exact exchange contribution

 Linear response parameters
   LEPSILON=     F    determine dielectric tensor
   LRPA    =     F    only Hartree local field effects (RPA)
   LNABLA  =     F    use nabla operator in PAW spheres
   LVEL    =     F    velocity operator in full k-point grid
   CSHIFT  =0.1000    complex shift for real part using Kramers Kronig
   OMEGAMAX=  -1.0    maximum frequency
   DEG_THRESHOLD= 0.2000000E-02 threshold for treating states as degnerate
   RTIME   =   -0.100 relaxation time in fs
  (WPLASMAI=    0.000 imaginary part of plasma frequency in eV, 0.658/RTIME)
   DFIELD  = 0.0000000 0.0000000 0.0000000 field for delta impulse in time
 
  Optional k-point grid parameters
   LKPOINTS_OPT  =     F    use optional k-point grid
   KPOINTS_OPT_MODE=     1    mode for optional k-point grid
 
 Orbital magnetization related:
   ORBITALMAG=     F  switch on orbital magnetization
   LCHIMAG   =     F  perturbation theory with respect to B field
   DQ        =  0.001000  dq finite difference perturbation B field
   LLRAUG    =     F  two centre corrections for induced B field



--------------------------------------------------------------------------------------------------------


 Static calculation
 charge density and potential will be updated during run
 non-spin polarized calculation
 Variant of blocked Davidson
 Davidson routine will perform the subspace rotation
 perform sub-space diagonalisation
    after iterative eigenvector-optimisation
 modified Broyden-mixing scheme, WC =      100.0
 initial mixing is a Kerker type mixing with AMIX =  0.4000 and BMIX =      1.0000
 Hartree-type preconditioning will be used
 using additional bands           40
 reciprocal scheme for non local part
 use partial core corrections
 calculate Harris-corrections to forces 
   (improved forces if not selfconsistent)
 use gradient corrections 
 use of overlap-Matrix (Vanderbilt PP)
 Gauss-broadening in eV      SIGMA  =   0.02


--------------------------------------------------------------------------------------------------------


  energy-cutoff  :      318.00
  volume of cell :     1284.06
      direct lattice vectors                 reciprocal lattice vectors
    10.869145120 -0.000000000 -0.000000000     0.092003556  0.000000000 -0.000000000
    -0.000000000 10.869145120  0.000000000     0.000000000  0.092003556 -0.000000000
     0.000000000  0.000000000 10.869145120     0.000000000 -0.000000000  0.092003556

  length of vectors
    10.869145120 10.869145120 10.869145120     0.092003556  0.092003556  0.092003556


 
 k-points in units of 2pi/SCALE and weight: KPOINTS created by Atomic Simulation Env
   0.00000000  0.00000000  0.00000000       0.125
   0.04600178  0.00000000  0.00000000       0.125
   0.00000000  0.04600178  0.00000000       0.125
   0.00000000 -0.00000000  0.04600178       0.125
   0.04600178  0.04600178  0.00000000       0.125
   0.00000000  0.04600178  0.04600178       0.125
   0.04600178  0.00000000  0.04600178       0.125
   0.04600178  0.04600178  0.04600178       0.125
 
 k-points in reciprocal lattice and weights: KPOINTS created by Atomic Simulation Env
   0.00000000  0.00000000  0.00000000       0.125
   0.50000000  0.00000000  0.00000000       0.125
  -0.00000000  0.50000000  0.00000000       0.125
   0.00000000 -0.00000000  0.50000000       0.125
   0.50000000  0.50000000  0.00000000       0.125
   0.00000000  0.50000000  0.50000000       0.125
   0.50000000 -0.00000000  0.50000000       0.125
   0.50000000  0.50000000  0.50000000       0.125
 
 position of ions in fractional coordinates (direct lattice) 
   0.25092004  0.25000000  0.25000000
   0.75000000  0.25000000  0.25000000
   0.25000000  0.75000000  0.25000000
   0.75000000  0.75000000  0.25000000
   0.25000000  0.25000000  0.75000000
   0.75000000  0.25000000  0.75000000
   0.25000000  0.75000000  0.75000000
   0.75000000  0.75000000  0.75000000
   0.25000000  0.00092004  0.00000000
   0.75000000  0.00000000  0.00000000
   0.25000000  0.50000000  0.00000000
   0.75000000  0.50000000  0.00000000
   0.25000000  0.00000000  0.50000000
   0.75000000  0.00000000  0.50000000
   0.25000000  0.50000000  0.50000000
   0.75000000  0.50000000  0.50000000
   0.00000000  0.25000000  0.00000000
   0.50000000  0.25000000  0.00000000
   0.00000000  0.75000000  0.00000000
   0.50000000  0.75000000  0.00000000
   0.00000000  0.25000000  0.50000000
   0.50000000  0.25000000  0.50000000
   0.00000000  0.75000000  0.50000000
   0.50000000  0.75000000  0.50000000
   0.00000000  0.00000000  0.25000000
   0.50000000  0.00000000  0.25000000
   0.00000000  0.50000000  0.25000000
   0.50000000  0.50000000  0.25000000
   0.00000000  0.00000000  0.75000000
   0.50000000  0.00000000  0.75000000
   0.00000000  0.50000000  0.75000000
   0.50000000  0.50000000  0.75000000
   0.37500000  0.37500000  0.37500000
   0.87500000  0.37500000  0.37500000
   0.37500000  0.87500000  0.37500000
   0.87500000  0.87500000  0.37500000
   0.37500000  0.37500000  0.87500000
   0.87500000  0.37500000  0.87500000
   0.37500000  0.87500000  0.87500000
   0.87500000  0.87500000  0.87500000
   0.37500000  0.12500000  0.12500000
   0.87500000  0.12500000  0.12500000
   0.37500000  0.62500000  0.12500000
   0.87500000  0.62500000  0.12500000
   0.37500000  0.12500000  0.62500000
   0.87500000  0.12500000  0.62500000
   0.37500000  0.62500000  0.62500000
   0.87500000  0.62500000  0.62500000
   0.12500000  0.37500000  0.12500000
   0.62500000  0.37500000  0.12500000
   0.12500000  0.87500000  0.12500000
   0.62500000  0.87500000  0.12500000
   0.12500000  0.37500000  0.62500000
   0.62500000  0.37500000  0.62500000
   0.12500000  0.87500000  0.62500000
   0.62500000  0.87500000  0.62500000
   0.12500000  0.12500000  0.37500000
   0.62500000  0.12500000  0.37500000
   0.12500000  0.62500000  0.37500000
   0.62500000  0.62500000  0.37500000
   0.12500000  0.12500000  0.87500000
   0.62500000  0.12500000  0.87500000
   0.12500000  0.62500000  0.87500000
   0.62500000  0.62500000  0.87500000
 
 position of ions in cartesian coordinates  (Angst):
   2.72728628  2.71728628  2.71728628
   8.15185884  2.71728628  2.71728628
   2.71728628  8.15185884  2.71728628
   8.15185884  8.15185884  2.71728628
   2.71728628  2.71728628  8.15185884
   8.15185884  2.71728628  8.15185884
   2.71728628  8.15185884  8.15185884
   8.15185884  8.15185884  8.15185884
   2.71728628  0.01000000 -0.00000000
   8.15185884 -0.00000000 -0.00000000
   2.71728628  5.43457256  0.00000000
   8.15185884  5.43457256 -0.00000000
   2.71728628  0.00000000  5.43457256
   8.15185884 -0.00000000  5.43457256
   2.71728628  5.43457256  5.43457256
   8.15185884  5.43457256  5.43457256
  -0.00000000  2.71728628  0.00000000
   5.43457256  2.71728628 -0.00000000
  -0.00000000  8.15185884  0.00000000
   5.43457256  8.15185884  0.00000000
   0.00000000  2.71728628  5.43457256
   5.43457256  2.71728628  5.43457256
  -0.00000000  8.15185884  5.43457256
   5.43457256  8.15185884  5.43457256
   0.00000000  0.00000000  2.71728628
   5.43457256 -0.00000000  2.71728628
  -0.00000000  5.43457256  2.71728628
   5.43457256  5.43457256  2.71728628
   0.00000000  0.00000000  8.15185884
   5.43457256  0.00000000  8.15185884
   0.00000000  5.43457256  8.15185884
   5.43457256  5.43457256  8.15185884
   4.07592942  4.07592942  4.07592942
   9.51050198  4.07592942  4.07592942
   4.07592942  9.51050198  4.07592942
   9.51050198  9.51050198  4.07592942
   4.07592942  4.07592942  9.51050198
   9.51050198  4.07592942  9.51050198
   4.07592942  9.51050198  9.51050198
   9.51050198  9.51050198  9.51050198
   4.07592942  1.35864314  1.35864314
   9.51050198  1.35864314  1.35864314
   4.07592942  6.79321570  1.35864314
   9.51050198  6.79321570  1.35864314
   4.07592942  1.35864314  6.79321570
   9.51050198  1.35864314  6.79321570
   4.07592942  6.79321570  6.79321570
   9.51050198  6.79321570  6.79321570
   1.35864314  4.07592942  1.35864314
   6.79321570  4.07592942  1.35864314
   1.35864314  9.51050198  1.35864314
   6.79321570  9.51050198  1.35864314
   1.35864314  4.07592942  6.79321570
   6.79321570  4.07592942  6.79321570
   1.35864314  9.51050198  6.79321570
   6.79321570  9.51050198  6.79321570
   1.35864314  1.35864314  4.07592942
   6.79321570  1.35864314  4.07592942
   1.35864314  6.79321570  4.07592942
   6.79321570  6.79321570  4.07592942
   1.35864314  1.35864314  9.51050198
   6.79321570  1.35864314  9.51050198
   1.35864314  6.79321570  9.51050198
   6.79321570  6.79321570  9.51050198
 


--------------------------------------------------------------------------------------------------------


 k-point   1 :   0.0000 0.0000 0.0000  plane waves:   16519
 k-point   2 :   0.5000 0.0000 0.0000  plane waves:   16488
 k-point   3 :  -0.0000 0.5000 0.0000  plane waves:   16488
 k-point   4 :   0.0000-0.0000 0.5000  plane waves:   16488
 k-point   5 :   0.5000 0.5000 0.0000  plane waves:   16588
 k-point   6 :   0.0000 0.5000 0.5000  plane waves:   16588
 k-point   7 :   0.5000-0.0000 0.5000  plane waves:   16588
 k-point   8 :   0.5000 0.5000 0.5000  plane waves:   16560

 maximum and minimum number of plane-waves per node :      4165     4106

 maximum number of plane-waves:     16588
 maximum index in each direction: 
   IXMAX=   15   IYMAX=   15   IZMAX=   15
   IXMIN=  -16   IYMIN=  -16   IZMIN=  -16


 parallel 3D FFT for wavefunctions:
    minimum data exchange during FFTs selected (reduces bandwidth)
 parallel 3D FFT for charge:
    minimum data exchange during FFTs selected (reduces bandwidth)


 total amount of memory used by VASP MPI-rank0    65387. kBytes
=======================================================================

   base      :      30000. kBytes
   nonl-proj :       6402. kBytes
   fftplans  :      11573. kBytes
   grid      :       5816. kBytes
   one-center:         49. kBytes
   wavefun   :      11547. kBytes
 
     INWAV:  cpu time      0.0000: real time      0.0000
 Broyden mixing: mesh for mixing (old mesh)
   NGX = 31   NGY = 31   NGZ = 31
  (NGX  =128   NGY  =128   NGZ  =128)
  gives a total of  29791 points

 initial charge density was supplied:
 charge density of overlapping atoms calculated
 number of electron     256.0000000 magnetization 
 keeping initial charge density in first step


--------------------------------------------------------------------------------------------------------


 Maximum index for augmentation-charges         1707 (set IRDMAX)


--------------------------------------------------------------------------------------------------------


 First call to EWALD:  gamma=   0.163
 Maximum number of real-space cells 3x 3x 3
 Maximum number of reciprocal cells 3x 3x 3

    FEWALD:  cpu time      0.0020: real time      0.0020


--------------------------------------- Iteration      1(   1)  ---------------------------------------


    POTLOK:  cpu time      0.0253: real time      0.0255
    SETDIJ:  cpu time      0.0225: real time      0.0226
     EDDAV:  cpu time      2.2910: real time      2.3025
       DOS:  cpu time      0.0010: real time      0.0010
    --------------------------------------------
      LOOP:  cpu time      2.3398: real time      2.3516

 eigenvalue-minimisations  :  2688
 total energy-change (2. order) : 0.4510111E+03  (-0.7260796E+04)
 number of electron     256.0000000 magnetization 
 augmentation part      256.0000000 magnetization 

 Free energy of the ion-electron system (eV)
  ---------------------------------------------------
  alpha Z        PSCENC =       107.38120932
  Ewald energy   TEWEN  =     -7307.87536902
  -Hartree energ DENC   =      -353.25092867
  -exchange      EXHF   =         0.00000000
  -V(xc)+E(xc)   XCENC  =      -558.85370908
  PAW double counting   =      5598.62625415    -4492.17844134
  entropy T*S    EENTRO =        -0.00325636
  eigenvalues    EBANDS =       892.39834102
  atomic energy  EATOM  =      6564.76702419
  Solvation  Ediel_sol  =         0.00000000
  ---------------------------------------------------
  free energy    TOTEN  =       451.01112420 eV

  energy without entropy =      451.01438056  energy(sigma->0) =      451.01275238


--------------------------------------------------------------------------------------------------------




--------------------------------------- Iteration      1(   2)  ---------------------------------------


     EDDAV:  cpu time      2.6210: real time      2.6353
       DOS:  cpu time      0.0003: real time      0.0002
    --------------------------------------------
      LOOP:  cpu time      2.6213: real time      2.6355

 eigenvalue-minimisations  :  3232
 total energy-change (2. order) :-0.7730844E+03  (-0.7307930E+03)
 number of electron     256.0000000 magnetization 
 augmentation part      256.0000000 magnetization 

 Free energy of the ion-electron system (eV)
  ---------------------------------------------------
  alpha Z        PSCENC =       107.38120932
  Ewald energy   TEWEN  =     -7307.87536902
  -Hartree energ DENC   =      -353.25092867
  -exchange      EXHF   =         0.00000000
  -V(xc)+E(xc)   XCENC  =      -558.85370908
  PAW double counting   =      5598.62625415    -4492.17844134
  entropy T*S    EENTRO =        -0.00000000
  eigenvalues    EBANDS =       119.31064451
  atomic energy  EATOM  =      6564.76702419
  Solvation  Ediel_sol  =         0.00000000
  ---------------------------------------------------
  free energy    TOTEN  =      -322.07331594 eV

  energy without entropy =     -322.07331594  energy(sigma->0) =     -322.07331594


--------------------------------------------------------------------------------------------------------




--------------------------------------- Iteration      1(   3)  ---------------------------------------


     EDDAV:  cpu time      2.6721: real time      2.6860
       DOS:  cpu time      0.0003: real time      0.0003
    --------------------------------------------
      LOOP:  cpu time      2.6723: real time      2.6862

 eigenvalue-minimisations  :  3304
 total energy-change (2. order) :-0.5134109E+02  (-0.5047936E+02)
 number of electron     256.0000000 magnetization 
 augmentation part      256.0000000 magnetization 

 Free energy of the ion-electron system (eV)
  ---------------------------------------------------
  alpha Z        PSCENC =       107.38120932
  Ewald energy   TEWEN  =     -7307.87536902
  -Hartree energ DENC   =      -353.25092867
  -exchange      EXHF   =         0.00000000
  -V(xc)+E(xc)   XCENC  =      -558.85370908
  PAW double counting   =      5598.62625415    -4492.17844134
  entropy T*S    EENTRO =        -0.00000000
  eigenvalues    EBANDS =        67.96955554
  atomic energy  EATOM  =      6564.76702419
  Solvation  Ediel_sol  =         0.00000000
  ---------------------------------------------------
  free energy    TOTEN  =      -373.41440491 eV

  energy without entropy =     -373.41440491  energy(sigma->0) =     -373.41440491


--------------------------------------------------------------------------------------------------------




--------------------------------------- Iteration      1(   4)  ---------------------------------------


     EDDAV:  cpu time      2.6351: real time      2.6490
       DOS:  cpu time      0.0003: real time      0.0003
    --------------------------------------------
      LOOP:  cpu time      2.6354: real time      2.6492

 eigenvalue-minimisations  :  3240
 total energy-change (2. order) :-0.1184988E+01  (-0.1176676E+01)
 number of electron     256.0000000 magnetization 
 augmentation part      256.0000000 magnetization 

 Free energy of the ion-electron system (eV)
  ---------------------------------------------------
  alpha Z        PSCENC =       107.38120932
  Ewald energy   TEWEN  =     -7307.87536902
  -Hartree energ DENC   =      -353.25092867
  -exchange      EXHF   =         0.00000000
  -V(xc)+E(xc)   XCENC  =      -558.85370908
  PAW double counting   =      5598.62625415    -4492.17844134
  entropy T*S    EENTRO =        -0.00000000
  eigenvalues    EBANDS =        66.78456772
  atomic energy  EATOM  =      6564.76702419
  Solvation  Ediel_sol  =         0.00000000
  ---------------------------------------------------
  free energy    TOTEN  =      -374.59939273 eV

  energy without entropy =     -374.59939273  energy(sigma->0) =     -374.59939273


--------------------------------------------------------------------------------------------------------




--------------------------------------- Iteration      1(   5)  ---------------------------------------


     EDDAV:  cpu time      2.6227: real time      2.6365
       DOS:  cpu time      0.0003: real time      0.0003
    CHARGE:  cpu time      0.0785: real time      0.0789
    MIXING:  cpu time      0.0022: real time      0.0022
    --------------------------------------------
      LOOP:  cpu time      2.7037: real time      2.7179

 eigenvalue-minimisations  :  3208
 total energy-change (2. order) :-0.4146557E-01  (-0.4141769E-01)
 number of electron     255.9999994 magnetization 
 augmentation part      -14.9590058 magnetization 

 Broyden mixing:
  rms(total) = 0.28464E+01    rms(broyden)= 0.28463E+01
  rms(prec ) = 0.31320E+01
  weight for this iteration     100.00

 Free energy of the ion-electron system (eV)
  ---------------------------------------------------
  alpha Z        PSCENC =       107.38120932
  Ewald energy   TEWEN  =     -7307.87536902
  -Hartree energ DENC   =      -353.25092867
  -exchange      EXHF   =         0.00000000
  -V(xc)+E(xc)   XCENC  =      -558.85370908
  PAW double counting   =      5598.62625415    -4492.17844134
  entropy T*S    EENTRO =        -0.00000000
  eigenvalues    EBANDS =        66.74310215
  atomic energy  EATOM  =      6564.76702419
  Solvation  Ediel_sol  =         0.00000000
  ---------------------------------------------------
  free energy    TOTEN  =      -374.64085830 eV

  energy without entropy =     -374.64085830  energy(sigma->0) =     -374.64085830


--------------------------------------------------------------------------------------------------------




--------------------------------------- Iteration      1(   6)  ---------------------------------------


    POTLOK:  cpu time      0.0222: real time      0.0224
    SETDIJ:  cpu time      0.0221: real time      0.0222
     EDDAV:  cpu time      2.5244: real time      2.5377
       DOS:  cpu time      0.0003: real time      0.0003
    CHARGE:  cpu time      0.0778: real time      0.0781
    MIXING:  cpu time      0.0026: real time      0.0026
    --------------------------------------------
      LOOP:  cpu time      2.6494: real time      2.6634

 eigenvalue-minimisations  :  3064
 total energy-change (2. order) : 0.4919329E+01  (-0.2591109E+00)
 number of electron     255.9999994 magnetization 
 augmentation part      -14.7997070 magnetization 

 Broyden mixing:
  rms(total) = 0.17163E+01    rms(broyden)= 0.17163E+01
  rms(prec ) = 0.18754E+01
  weight for this iteration     100.00

 eigenvalues of (default mixing * dielectric matrix)
  average eigenvalue GAMMA=   2.5113
  2.5113

 Free energy of the ion-electron system (eV)
  ---------------------------------------------------
  alpha Z        PSCENC =       107.38120932
  Ewald energy   TEWEN  =     -7307.87536902
  -Hartree energ DENC   =      -399.23644749
  -exchange      EXHF   =         0.00000000
  -V(xc)+E(xc)   XCENC  =      -551.57547866
  PAW double counting   =     12482.09928484   -11378.89705779
  entropy T*S    EENTRO =        -0.00000000
  eigenvalues    EBANDS =       113.61530558
  atomic energy  EATOM  =      6564.76702419
  Solvation  Ediel_sol  =         0.00000000
  ---------------------------------------------------
  free energy    TOTEN  =      -369.72152904 eV

  energy without entropy =     -369.72152904  energy(sigma->0) =     -369.72152904


--------------------------------------------------------------------------------------------------------




--------------------------------------- Iteration      1(   7)  ---------------------------------------


    POTLOK:  cpu time      0.0217: real time      0.0219
    SETDIJ:  cpu time      0.0220: real time      0.0221
     EDDAV:  cpu time      2.5149: real time      2.5277
       DOS:  cpu time      0.0003: real time      0.0003
    CHARGE:  cpu time      0.0778: real time      0.0782
    MIXING:  cpu time      0.0023: real time      0.0023
    --------------------------------------------
      LOOP:  cpu time      2.6389: real time      2.6524

 eigenvalue-minimisations  :  3056
 total energy-change (2. order) : 0.2231124E+01  (-0.5240204E+00)
 number of electron     255.9999994 magnetization 
 augmentation part      -14.5985393 magnetization 

 Broyden mixing:
  rms(total) = 0.99626E-01    rms(broyden)= 0.99625E-01
  rms(prec ) = 0.12390E+00
  weight for this iteration     100.00

 eigenvalues of (default mixing * dielectric matrix)
  average eigenvalue GAMMA=   2.2484
  2.2484  2.2484

 Free energy of the ion-electron system (eV)
  ---------------------------------------------------
  alpha Z        PSCENC =       107.38120932
  Ewald energy   TEWEN  =     -7307.87536902
  -Hartree energ DENC   =      -473.65898461
  -exchange      EXHF   =         0.00000000
  -V(xc)+E(xc)   XCENC  =      -539.13596380
  PAW double counting   =     29123.00424357   -28024.17419256
  entropy T*S    EENTRO =        -0.00000000
  eigenvalues    EBANDS =       182.20162826
  atomic energy  EATOM  =      6564.76702419
  Solvation  Ediel_sol  =         0.00000000
  ---------------------------------------------------
  free energy    TOTEN  =      -367.49040465 eV

  energy without entropy =     -367.49040465  energy(sigma->0) =     -367.49040465


--------------------------------------------------------------------------------------------------------




--------------------------------------- Iteration      1(   8)  ---------------------------------------


    POTLOK:  cpu time      0.0212: real time      0.0214
    SETDIJ:  cpu time      0.0219: real time      0.0220
     EDDAV:  cpu time      2.5372: real time      2.5504
       DOS:  cpu time      0.0003: real time      0.0003
    CHARGE:  cpu time      0.0789: real time      0.0793
    MIXING:  cpu time      0.0026: real time      0.0026
    --------------------------------------------
      LOOP:  cpu time      2.6621: real time      2.6760

 eigenvalue-minimisations  :  3080
 total energy-change (2. order) :-0.7077376E-02  (-0.2830314E-01)
 number of electron     255.9999994 magnetization 
 augmentation part      -14.6402785 magnetization 

 Broyden mixing:
  rms(total) = 0.35199E-01    rms(broyden)= 0.35198E-01
  rms(prec ) = 0.40540E-01
  weight for this iteration     100.00

 eigenvalues of (default mixing * dielectric matrix)
  average eigenvalue GAMMA=   2.4219
  2.8122  2.2267  2.2267

 Free energy of the ion-electron system (eV)
  ---------------------------------------------------
  alpha Z        PSCENC =       107.38120932
  Ewald energy   TEWEN  =     -7307.87536902
  -Hartree energ DENC   =      -466.69320058
  -exchange      EXHF   =         0.00000000
  -V(xc)+E(xc)   XCENC  =      -539.74303482
  PAW double counting   =     28622.02064559   -27522.39053611
  entropy T*S    EENTRO =        -0.00000000
  eigenvalues    EBANDS =       175.03577942
  atomic energy  EATOM  =      6564.76702419
  Solvation  Ediel_sol  =         0.00000000
  ---------------------------------------------------
  free energy    TOTEN  =      -367.49748203 eV

  energy without entropy =     -367.49748203  energy(sigma->0) =     -367.49748203


--------------------------------------------------------------------------------------------------------




--------------------------------------- Iteration      1(   9)  ---------------------------------------


    POTLOK:  cpu time      0.0212: real time      0.0214
    SETDIJ:  cpu time      0.0220: real time      0.0221
     EDDAV:  cpu time      2.6638: real time      2.6778
       DOS:  cpu time      0.0003: real time      0.0003
    CHARGE:  cpu time      0.0767: real time      0.0771
    MIXING:  cpu time      0.0028: real time      0.0028
    --------------------------------------------
      LOOP:  cpu time      2.7868: real time      2.8014

 eigenvalue-minimisations  :  3296
 total energy-change (2. order) :-0.1510380E-02  (-0.7240236E-03)
 number of electron     255.9999994 magnetization 
 augmentation part      -14.6409548 magnetization 

 Broyden mixing:
  rms(total) = 0.30950E-01    rms(broyden)= 0.30950E-01
  rms(prec ) = 0.32055E-01
  weight for this iteration     100.00

 eigenvalues of (default mixing * dielectric matrix)
  average eigenvalue GAMMA=   2.3538
  3.7944  2.3868  2.3868  0.8473

 Free energy of the ion-electron system (eV)
  ---------------------------------------------------
  alpha Z        PSCENC =       107.38120932
  Ewald energy   TEWEN  =     -7307.87536902
  -Hartree energ DENC   =      -468.64879635
  -exchange      EXHF   =         0.00000000
  -V(xc)+E(xc)   XCENC  =      -539.41303999
  PAW double counting   =     28768.71712411   -27669.19078924
  entropy T*S    EENTRO =        -0.00000000
  eigenvalues    EBANDS =       176.76364456
  atomic energy  EATOM  =      6564.76702419
  Solvation  Ediel_sol  =         0.00000000
  ---------------------------------------------------
  free energy    TOTEN  =      -367.49899241 eV

  energy without entropy =     -367.49899241  energy(sigma->0) =     -367.49899241


--------------------------------------------------------------------------------------------------------




--------------------------------------- Iteration      1(  10)  ---------------------------------------


    POTLOK:  cpu time      0.0217: real time      0.0219
    SETDIJ:  cpu time      0.0222: real time      0.0223
     EDDAV:  cpu time      2.4745: real time      2.4871
       DOS:  cpu time      0.0003: real time      0.0003
    CHARGE:  cpu time      0.0785: real time      0.0792
    MIXING:  cpu time      0.0021: real time      0.0021
    --------------------------------------------
      LOOP:  cpu time      2.5994: real time      2.6129

 eigenvalue-minimisations  :  2992
 total energy-change (2. order) :-0.8499300E-03  (-0.2070321E-03)
 number of electron     255.9999994 magnetization 
 augmentation part      -14.6429392 magnetization 

 Broyden mixing:
  rms(total) = 0.22451E-01    rms(broyden)= 0.22451E-01
  rms(prec ) = 0.22566E-01
  weight for this iteration     100.00

 eigenvalues of (default mixing * dielectric matrix)
  average eigenvalue GAMMA=   1.8665
  2.8582  2.2477  2.2477  0.9893  0.9893

 Free energy of the ion-electron system (eV)
  ---------------------------------------------------
  alpha Z        PSCENC =       107.38120932
  Ewald energy   TEWEN  =     -7307.87536902
  -Hartree energ DENC   =      -468.87873408
  -exchange      EXHF   =         0.00000000
  -V(xc)+E(xc)   XCENC  =      -539.34040204
  PAW double counting   =     28258.01154245   -27158.45372214
  entropy T*S    EENTRO =        -0.00000000
  eigenvalues    EBANDS =       176.88860899
  atomic energy  EATOM  =      6564.76702419
  Solvation  Ediel_sol  =         0.00000000
  ---------------------------------------------------
  free energy    TOTEN  =      -367.49984234 eV

  energy without entropy =     -367.49984234  energy(sigma->0) =     -367.49984234


--------------------------------------------------------------------------------------------------------




--------------------------------------- Iteration      1(  11)  ---------------------------------------


    POTLOK:  cpu time      0.0216: real time      0.0218
    SETDIJ:  cpu time      0.0221: real time      0.0222
     EDDAV:  cpu time      2.5803: real time      2.5935
       DOS:  cpu time      0.0005: real time      0.0005
    CHARGE:  cpu time      0.0782: real time      0.0786
    MIXING:  cpu time      0.0022: real time      0.0022
    --------------------------------------------
      LOOP:  cpu time      2.7049: real time      2.7187

 eigenvalue-minimisations  :  3176
 total energy-change (2. order) :-0.3541820E-04  (-0.8623101E-05)
 number of electron     255.9999994 magnetization 
 augmentation part      -14.6438045 magnetization 

 Broyden mixing:
  rms(total) = 0.93564E-03    rms(broyden)= 0.93562E-03
  rms(prec ) = 0.10282E-02
  weight for this iteration     100.00

 eigenvalues of (default mixing * dielectric matrix)
  average eigenvalue GAMMA=   1.7390
  2.8896  2.2533  2.2533  1.1485  1.1485  0.7410

 Free energy of the ion-electron system (eV)
  ---------------------------------------------------
  alpha Z        PSCENC =       107.38120932
  Ewald energy   TEWEN  =     -7307.87536902
  -Hartree energ DENC   =      -468.75115966
  -exchange      EXHF   =         0.00000000
  -V(xc)+E(xc)   XCENC  =      -539.35263789
  PAW double counting   =     28480.58809702   -27381.01827732
  entropy T*S    EENTRO =        -0.00000000
  eigenvalues    EBANDS =       176.76123560
  atomic energy  EATOM  =      6564.76702419
  Solvation  Ediel_sol  =         0.00000000
  ---------------------------------------------------
  free energy    TOTEN  =      -367.49987776 eV

  energy without entropy =     -367.49987776  energy(sigma->0) =     -367.49987776


--------------------------------------------------------------------------------------------------------




--------------------------------------- Iteration      1(  12)  ---------------------------------------


    POTLOK:  cpu time      0.0212: real time      0.0213
    SETDIJ:  cpu time      0.0222: real time      0.0223
     EDDAV:  cpu time      2.6037: real time      2.6173
       DOS:  cpu time      0.0003: real time      0.0003
    CHARGE:  cpu time      0.0789: real time      0.0792
    MIXING:  cpu time      0.0021: real time      0.0021
    --------------------------------------------
      LOOP:  cpu time      2.7283: real time      2.7425

 eigenvalue-minimisations  :  3208
 total energy-change (2. order) :-0.2302259E-05  (-0.3336676E-06)
 number of electron     255.9999994 magnetization 
 augmentation part      -14.6437019 magnetization 

 Broyden mixing:
  rms(total) = 0.80937E-03    rms(broyden)= 0.80937E-03
  rms(prec ) = 0.84021E-03
  weight for this iteration     100.00

 eigenvalues of (default mixing * dielectric matrix)
  average eigenvalue GAMMA=   1.8500
  2.9929  2.5035  2.5035  2.1802  0.9910  0.8894  0.8894

 Free energy of the ion-electron system (eV)
  ---------------------------------------------------
  alpha Z        PSCENC =       107.38120932
  Ewald energy   TEWEN  =     -7307.87536902
  -Hartree energ DENC   =      -468.78201586
  -exchange      EXHF   =         0.00000000
  -V(xc)+E(xc)   XCENC  =      -539.35105472
  PAW double counting   =     28481.45864321   -27381.88804012
  entropy T*S    EENTRO =        -0.00000000
  eigenvalues    EBANDS =       176.78972295
  atomic energy  EATOM  =      6564.76702419
  Solvation  Ediel_sol  =         0.00000000
  ---------------------------------------------------
  free energy    TOTEN  =      -367.49988006 eV

  energy without entropy =     -367.49988006  energy(sigma->0) =     -367.49988006


--------------------------------------------------------------------------------------------------------




--------------------------------------- Iteration      1(  13)  ---------------------------------------


    POTLOK:  cpu time      0.0216: real time      0.0218
    SETDIJ:  cpu time      0.0222: real time      0.0223
     EDDAV:  cpu time      2.5018: real time      2.5149
       DOS:  cpu time      0.0003: real time      0.0003
    CHARGE:  cpu time      0.0781: real time      0.0786
    MIXING:  cpu time      0.0025: real time      0.0025
    --------------------------------------------
      LOOP:  cpu time      2.6265: real time      2.6403

 eigenvalue-minimisations  :  3048
 total energy-change (2. order) : 0.8985899E-06  (-0.8349654E-07)
 number of electron     255.9999994 magnetization 
 augmentation part      -14.6436571 magnetization 

 Broyden mixing:
  rms(total) = 0.22559E-03    rms(broyden)= 0.22559E-03
  rms(prec ) = 0.23277E-03
  weight for this iteration     100.00

 eigenvalues of (default mixing * dielectric matrix)
  average eigenvalue GAMMA=   1.7732
  3.0658  2.6194  2.3555  2.2216  0.9610  0.9610  1.0005  1.0005

 Free energy of the ion-electron system (eV)
  ---------------------------------------------------
  alpha Z        PSCENC =       107.38120932
  Ewald energy   TEWEN  =     -7307.87536902
  -Hartree energ DENC   =      -468.78681389
  -exchange      EXHF   =         0.00000000
  -V(xc)+E(xc)   XCENC  =      -539.35321299
  PAW double counting   =     28476.85047010   -27377.27745437
  entropy T*S    EENTRO =        -0.00000000
  eigenvalues    EBANDS =       176.79426750
  atomic energy  EATOM  =      6564.76702419
  Solvation  Ediel_sol  =         0.00000000
  ---------------------------------------------------
  free energy    TOTEN  =      -367.49987916 eV

  energy without entropy =     -367.49987916  energy(sigma->0) =     -367.49987916


--------------------------------------------------------------------------------------------------------




--------------------------------------- Iteration      1(  14)  ---------------------------------------


    POTLOK:  cpu time      0.0214: real time      0.0215
    SETDIJ:  cpu time      0.0219: real time      0.0220
     EDDAV:  cpu time      2.3301: real time      2.3420
       DOS:  cpu time      0.0003: real time      0.0003
    CHARGE:  cpu time      0.0786: real time      0.0790
    MIXING:  cpu time      0.0022: real time      0.0022
    --------------------------------------------
      LOOP:  cpu time      2.4545: real time      2.4670

 eigenvalue-minimisations  :  2760
 total energy-change (2. order) : 0.2088655E-06  (-0.3568031E-08)
 number of electron     255.9999994 magnetization 
 augmentation part      -14.6436498 magnetization 

 Broyden mixing:
  rms(total) = 0.49991E-04    rms(broyden)= 0.49991E-04
  rms(prec ) = 0.52872E-04
  weight for this iteration     100.00

 eigenvalues of (default mixing * dielectric matrix)
  average eigenvalue GAMMA=   1.7759
  3.0670  2.5034  2.5034  2.1611  1.7373  1.2110  0.9870  0.9063  0.9063

 Free energy of the ion-electron system (eV)
  ---------------------------------------------------
  alpha Z        PSCENC =       107.38120932
  Ewald energy   TEWEN  =     -7307.87536902
  -Hartree energ DENC   =      -468.78659930
  -exchange      EXHF   =         0.00000000
  -V(xc)+E(xc)   XCENC  =      -539.35373559
  PAW double counting   =     28474.99593329   -27375.42264324
  entropy T*S    EENTRO =        -0.00000000
  eigenvalues    EBANDS =       176.79430141
  atomic energy  EATOM  =      6564.76702419
  Solvation  Ediel_sol  =         0.00000000
  ---------------------------------------------------
  free energy    TOTEN  =      -367.49987895 eV

  energy without entropy =     -367.49987895  energy(sigma->0) =     -367.49987895


--------------------------------------------------------------------------------------------------------




--------------------------------------- Iteration      1(  15)  ---------------------------------------


    POTLOK:  cpu time      0.0210: real time      0.0212
    SETDIJ:  cpu time      0.0222: real time      0.0223
     EDDAV:  cpu time      1.7785: real time      1.7878
       DOS:  cpu time      0.0002: real time      0.0002
    --------------------------------------------
      LOOP:  cpu time      1.8220: real time      1.8315

 eigenvalue-minimisations  :  1856
 total energy-change (2. order) : 0.4527465E-08  (-0.1066389E-08)
 number of electron     255.9999994 magnetization 
 augmentation part      -14.6436498 magnetization 

 Free energy of the ion-electron system (eV)
  ---------------------------------------------------
  alpha Z        PSCENC =       107.38120932
  Ewald energy   TEWEN  =     -7307.87536902
  -Hartree energ DENC   =      -468.78615170
  -exchange      EXHF   =         0.00000000
  -V(xc)+E(xc)   XCENC  =      -539.35378213
  PAW double counting   =     28474.97556145   -27375.40231726
  entropy T*S    EENTRO =        -0.00000000
  eigenvalues    EBANDS =       176.79394621
  atomic energy  EATOM  =      6564.76702419
  Solvation  Ediel_sol  =         0.00000000
  ---------------------------------------------------
  free energy    TOTEN  =      -367.49987895 eV

  energy without entropy =     -367.49987895  energy(sigma->0) =     -367.49987895


--------------------------------------------------------------------------------------------------------




 average (electrostatic) potential at core
  the test charge radii are     0.9892
  (the norm of the test charge is              1.0000)
       1 -83.0573       2 -83.0574       3 -83.0574       4 -83.0572       5 -83.0572
       6 -83.0574       7 -83.0574       8 -83.0572       9 -83.0595      10 -83.0570
      11 -83.0552      12 -83.0576      13 -83.0552      14 -83.0576      15 -83.0594
      16 -83.0570      17 -83.0573      18 -83.0572      19 -83.0573      20 -83.0575
      21 -83.0575      22 -83.0573      23 -83.0571      24 -83.0573      25 -83.0553
      26 -83.0593      27 -83.0577      28 -83.0569      29 -83.0593      30 -83.0553
      31 -83.0569      32 -83.0577      33 -83.0568      34 -83.0571      35 -83.0573
      36 -83.0562      37 -83.0574      38 -83.0573      39 -83.0589      40 -83.0574
      41 -83.0569      42 -83.0568      43 -83.0568      44 -83.0578      45 -83.0569
      46 -83.0588      47 -83.0589      48 -83.0570      49 -83.0579      50 -83.0574
      51 -83.0578      52 -83.0573      53 -83.0573      54 -83.0572      55 -83.0562
      56 -83.0562      57 -83.0573      58 -83.0589      59 -83.0578      60 -83.0569
      61 -83.0573      62 -83.0568      63 -83.0557      64 -83.0577
 
 
 
 E-fermi :   5.8945     XC(G=0):  -9.5445     alpha+bet :-11.9543

 Fermi energy:         5.8944857244

 k-point     1 :       0.0000    0.0000    0.0000
  band No.  band energies     occupation 
      1      -6.2055      2.00000
      2      -5.1241      2.00000
      3      -5.1225      2.00000
      4      -5.1214      2.00000
      5      -5.1208      2.00000
      6      -5.1197      2.00000
      7      -5.1192      2.00000
      8      -4.1610      2.00000
      9      -4.1579      2.00000
     10      -4.1566      2.00000
     11      -4.1553      2.00000
     12      -4.1552      2.00000
     13      -4.1551      2.00000
     14      -4.1549      2.00000
     15      -4.1548      2.00000
     16      -4.1540      2.00000
     17      -4.1535      2.00000
     18      -4.1519      2.00000
     19      -4.1504      2.00000
     20      -3.8624      2.00000
     21      -3.8606      2.00000
     22      -3.8606      2.00000
     23      -3.8588      2.00000
     24      -2.0543      2.00000
     25      -2.0541      2.00000
     26      -2.0520      2.00000
     27      -2.0519      2.00000
     28      -2.0499      2.00000
     29      -2.0496      2.00000
     30      -1.8871      2.00000
     31      -1.8860      2.00000
     32      -1.8858      2.00000
     33      -1.8831      2.00000
     34      -1.8827      2.00000
     35      -1.8827      2.00000
     36      -1.8824      2.00000
     37      -1.8824      2.00000
     38      -1.8814      2.00000
     39      -1.8808      2.00000
     40      -1.8791      2.00000
     41      -1.8788      2.00000
     42      -1.2365      2.00000
     43      -1.2347      2.00000
     44      -1.2347      2.00000
     45      -1.2328      2.00000
     46       0.2778      2.00000
     47       0.2783      2.00000
     48       0.2797      2.00000
     49       0.2816      2.00000
     50       0.2818      2.00000
     51       0.2820      2.00000
     52       0.2820      2.00000
     53       0.2822      2.00000
     54       0.2823      2.00000
     55       0.2840      2.00000
     56       0.2853      2.00000
     57       0.2864      2.00000
     58       1.8678      2.00000
     59       1.8693      2.00000
     60       1.8704      2.00000
     61       1.8706      2.00000
     62       1.8709      2.00000
     63       1.8714      2.00000
     64       1.8715      2.00000
     65       1.8716      2.00000
     66       1.8717      2.00000
     67       1.8718      2.00000
     68       1.8733      2.00000
     69       1.8739      2.00000
     70       1.9707      2.00000
     71       1.9707      2.00000
     72       1.9713      2.00000
     73       1.9727      2.00000
     74       1.9729      2.00000
     75       1.9733      2.00000
     76       1.9735      2.00000
     77       1.9740      2.00000
     78       1.9745      2.00000
     79       1.9749      2.00000
     80       1.9751      2.00000
     81       1.9760      2.00000
     82       2.2492      2.00000
     83       2.2500      2.00000
     84       2.2509      2.00000
     85       2.2520      2.00000
     86       2.2530      2.00000
     87       2.2534      2.00000
     88       2.9008      2.00000
     89       2.9008      2.00000
     90       2.9017      2.00000
     91       2.9017      2.00000
     92       2.9026      2.00000
     93       2.9026      2.00000
     94       3.8624      2.00000
     95       3.8642      2.00000
     96       3.8656      2.00000
     97       3.8663      2.00000
     98       3.8667      2.00000
     99       3.8667      2.00000
    100       3.8667      2.00000
    101       3.8669      2.00000
    102       3.8673      2.00000
    103       3.8674      2.00000
    104       3.8692      2.00000
    105       3.8706      2.00000
    106       4.4325      2.00000
    107       4.4345      2.00000
    108       4.4356      2.00000
    109       4.4362      2.00000
    110       4.4364      2.00000
    111       4.4370      2.00000
    112       4.4373      2.00000
    113       4.4375      2.00000
    114       4.4379      2.00000
    115       4.4387      2.00000
    116       4.4395      2.00000
    117       4.4410      2.00000
    118       4.5667      2.00000
    119       4.5679      2.00000
    120       4.5691      2.00000
    121       4.5697      2.00000
    122       4.5700      2.00000
    123       4.5705      2.00000
    124       4.5718      2.00000
    125       4.5732      2.00000
    126       5.7698      2.00000
    127       5.7720      2.00000
    128       5.7741      2.00000
    129       6.3636      0.00000
    130       6.3648      0.00000
    131       6.3658      0.00000
    132       6.3658      0.00000
    133       6.3667      0.00000
    134       6.3679      0.00000
    135       6.8062      0.00000
    136       6.8072      0.00000
    137       6.8077      0.00000
    138       6.8084      0.00000
    139       6.8094      0.00000
    140       6.8096      0.00000
    141       7.2316      0.00000
    142       7.2320      0.00000
    143       7.2320      0.00000
    144       7.2324      0.00000
    145       8.1350      0.00000
    146       8.1354      0.00000
    147       8.1358      0.00000
    148       8.1369      0.00000
    149       8.1376      0.00000
    150       8.1379      0.00000
    151       8.1380      0.00000
    152       8.1382      0.00000
    153       8.1387      0.00000
    154       8.1398      0.00000
    155       8.1405      0.00000
    156       8.1413      0.00000
    157       8.2877      0.00000
    158       8.2889      0.00000
    159       8.2902      0.00000
    160       8.7967      0.00000
    161       8.7967      0.00000
    162       8.7979      0.00000
    163       8.7979      0.00000
    164       8.7991      0.00000
    165       8.7992      0.00000
    166       9.0487      0.00000
    167       9.0506      0.00000
    168       9.0525      0.00000

 k-point     2 :       0.5000    0.0000    0.0000
  band No.  band energies     occupation 
      1      -5.9327      2.00000
      2      -5.9313      2.00000
      3      -4.8768      2.00000
      4      -4.8741      2.00000
      5      -4.8728      2.00000
      6      -4.8727      2.00000
      7      -4.8727      2.00000
      8      -4.8716      2.00000
      9      -4.8712      2.00000
     10      -4.8701      2.00000
     11      -4.0264      2.00000
     12      -4.0232      2.00000
     13      -4.0229      2.00000
     14      -4.0229      2.00000
     15      -4.0225      2.00000
     16      -4.0225      2.00000
     17      -4.0222      2.00000
     18      -4.0191      2.00000
     19      -3.8068      2.00000
     20      -3.8045      2.00000
     21      -3.0807      2.00000
     22      -3.0782      2.00000
     23      -3.0769      2.00000
     24      -3.0763      2.00000
     25      -3.0761      2.00000
     26      -3.0753      2.00000
     27      -3.0748      2.00000
     28      -3.0728      2.00000
     29      -1.9752      2.00000
     30      -1.9717      2.00000
     31      -1.9716      2.00000
     32      -1.9715      2.00000
     33      -1.9715      2.00000
     34      -1.9713      2.00000
     35      -1.9712      2.00000
     36      -1.9677      2.00000
     37      -0.8061      2.00000
     38      -0.8056      2.00000
     39      -0.8040      2.00000
     40      -0.8029      2.00000
     41      -0.8026      2.00000
     42      -0.8018      2.00000
     43      -0.8015      2.00000
     44      -0.7996      2.00000
     45      -0.6374      2.00000
     46      -0.6350      2.00000
     47      -0.6347      2.00000
     48      -0.6343      2.00000
     49      -0.6336      2.00000
     50      -0.6332      2.00000
     51      -0.6329      2.00000
     52      -0.6304      2.00000
     53       0.0225      2.00000
     54       0.0240      2.00000
     55       1.4705      2.00000
     56       1.4721      2.00000
     57       1.4735      2.00000
     58       1.4741      2.00000
     59       1.4744      2.00000
     60       1.4752      2.00000
     61       1.4766      2.00000
     62       1.4769      2.00000
     63       1.4911      2.00000
     64       1.4923      2.00000
     65       1.4929      2.00000
     66       1.4934      2.00000
     67       1.4938      2.00000
     68       1.4942      2.00000
     69       1.4946      2.00000
     70       1.4953      2.00000
     71       2.3166      2.00000
     72       2.3172      2.00000
     73       2.3176      2.00000
     74       2.3179      2.00000
     75       2.3182      2.00000
     76       2.3185      2.00000
     77       2.3189      2.00000
     78       2.3195      2.00000
     79       3.0221      2.00000
     80       3.0236      2.00000
     81       3.0245      2.00000
     82       3.0248      2.00000
     83       3.0251      2.00000
     84       3.0254      2.00000
     85       3.0256      2.00000
     86       3.0272      2.00000
     87       3.1465      2.00000
     88       3.1477      2.00000
     89       3.1484      2.00000
     90       3.1494      2.00000
     91       3.1569      2.00000
     92       3.1578      2.00000
     93       3.1586      2.00000
     94       3.1590      2.00000
     95       3.1593      2.00000
     96       3.1602      2.00000
     97       3.1606      2.00000
     98       3.1615      2.00000
     99       3.2834      2.00000
    100       3.2845      2.00000
    101       3.2850      2.00000
    102       3.2856      2.00000
    103       3.2859      2.00000
    104       3.2865      2.00000
    105       3.2870      2.00000
    106       3.2882      2.00000
    107       4.3289      2.00000
    108       4.3307      2.00000
    109       4.3311      2.00000
    110       4.3316      2.00000
    111       4.3319      2.00000
    112       4.3322      2.00000
    113       4.3335      2.00000
    114       4.3345      2.00000
    115       4.4329      2.00000
    116       4.4330      2.00000
    117       4.4964      2.00000
    118       4.5003      2.00000
    119       4.5008      2.00000
    120       4.5009      2.00000
    121       4.5009      2.00000
    122       4.5010      2.00000
    123       4.5014      2.00000
    124       4.5055      2.00000
    125       4.9528      2.00000
    126       4.9547      2.00000
    127       4.9557      2.00000
    128       4.9577      2.00000
    129       6.2790      0.00000
    130       6.2804      0.00000
    131       7.1933      0.00000
    132       7.1946      0.00000
    133       7.6431      0.00000
    134       7.6447      0.00000
    135       7.6454      0.00000
    136       7.6458      0.00000
    137       7.6459      0.00000
    138       7.6463      0.00000
    139       7.6471      0.00000
    140       7.6486      0.00000
    141       7.7139      0.00000
    142       7.7144      0.00000
    143       8.0571      0.00000
    144       8.0590      0.00000
    145       8.0594      0.00000
    146       8.0597      0.00000
    147       8.0598      0.00000
    148       8.0601      0.00000
    149       8.0604      0.00000
    150       8.0621      0.00000
    151       8.1430      0.00000
    152       8.1441      0.00000
    153       8.1453      0.00000
    154       8.1457      0.00000
    155       8.1461      0.00000
    156       8.1465      0.00000
    157       8.1468      0.00000
    158       8.1477      0.00000
    159       8.5506      0.00000
    160       8.5515      0.00000
    161       8.5519      0.00000
    162       8.5522      0.00000
    163       8.5532      0.00000
    164       8.5536      0.00000
    165       8.5545      0.00000
    166       8.5549      0.00000
    167       9.3197      0.00000
    168       9.3247      0.00000

 k-point     3 :      -0.0000    0.5000    0.0000
  band No.  band energies     occupation 
      1      -5.9327      2.00000
      2      -5.9313      2.00000
      3      -4.8767      2.00000
      4      -4.8745      2.00000
      5      -4.8734      2.00000
      6      -4.8727      2.00000
      7      -4.8723      2.00000
      8      -4.8720      2.00000
      9      -4.8707      2.00000
     10      -4.8697      2.00000
     11      -4.0264      2.00000
     12      -4.0243      2.00000
     13      -4.0230      2.00000
     14      -4.0227      2.00000
     15      -4.0224      2.00000
     16      -4.0217      2.00000
     17      -4.0208      2.00000
     18      -4.0203      2.00000
     19      -3.8068      2.00000
     20      -3.8045      2.00000
     21      -3.0803      2.00000
     22      -3.0784      2.00000
     23      -3.0778      2.00000
     24      -3.0764      2.00000
     25      -3.0762      2.00000
     26      -3.0752      2.00000
     27      -3.0743      2.00000
     28      -3.0725      2.00000
     29      -1.9754      2.00000
     30      -1.9725      2.00000
     31      -1.9717      2.00000
     32      -1.9714      2.00000
     33      -1.9713      2.00000
     34      -1.9712      2.00000
     35      -1.9693      2.00000
     36      -1.9689      2.00000
     37      -0.8062      2.00000
     38      -0.8056      2.00000
     39      -0.8040      2.00000
     40      -0.8032      2.00000
     41      -0.8023      2.00000
     42      -0.8021      2.00000
     43      -0.8011      2.00000
     44      -0.7996      2.00000
     45      -0.6370      2.00000
     46      -0.6360      2.00000
     47      -0.6348      2.00000
     48      -0.6340      2.00000
     49      -0.6336      2.00000
     50      -0.6332      2.00000
     51      -0.6322      2.00000
     52      -0.6308      2.00000
     53       0.0225      2.00000
     54       0.0239      2.00000
     55       1.4713      2.00000
     56       1.4719      2.00000
     57       1.4731      2.00000
     58       1.4741      2.00000
     59       1.4743      2.00000
     60       1.4750      2.00000
     61       1.4760      2.00000
     62       1.4776      2.00000
     63       1.4913      2.00000
     64       1.4921      2.00000
     65       1.4929      2.00000
     66       1.4933      2.00000
     67       1.4937      2.00000
     68       1.4938      2.00000
     69       1.4947      2.00000
     70       1.4955      2.00000
     71       2.3167      2.00000
     72       2.3170      2.00000
     73       2.3176      2.00000
     74       2.3180      2.00000
     75       2.3184      2.00000
     76       2.3185      2.00000
     77       2.3191      2.00000
     78       2.3192      2.00000
     79       3.0222      2.00000
     80       3.0236      2.00000
     81       3.0242      2.00000
     82       3.0245      2.00000
     83       3.0252      2.00000
     84       3.0254      2.00000
     85       3.0260      2.00000
     86       3.0273      2.00000
     87       3.1465      2.00000
     88       3.1477      2.00000
     89       3.1484      2.00000
     90       3.1494      2.00000
     91       3.1572      2.00000
     92       3.1573      2.00000
     93       3.1584      2.00000
     94       3.1591      2.00000
     95       3.1593      2.00000
     96       3.1597      2.00000
     97       3.1613      2.00000
     98       3.1616      2.00000
     99       3.2833      2.00000
    100       3.2844      2.00000
    101       3.2852      2.00000
    102       3.2856      2.00000
    103       3.2860      2.00000
    104       3.2865      2.00000
    105       3.2871      2.00000
    106       3.2880      2.00000
    107       4.3288      2.00000
    108       4.3307      2.00000
    109       4.3311      2.00000
    110       4.3318      2.00000
    111       4.3320      2.00000
    112       4.3326      2.00000
    113       4.3330      2.00000
    114       4.3346      2.00000
    115       4.4329      2.00000
    116       4.4330      2.00000
    117       4.4963      2.00000
[...]
         0         1         2         3         4         5         6         7         8         9
 total charge-density along one line
 
 pseudopotential strength for first ion, spin component:           1
 18.404  25.676  -0.000  -0.000   0.000  -0.000  -0.000   0.000
 25.676  35.825  -0.000  -0.000   0.000  -0.000  -0.000   0.000
 -0.000  -0.000   4.177   0.000  -0.000   7.782   0.000  -0.000
 -0.000  -0.000   0.000   4.177   0.000   0.000   7.782   0.000
  0.000   0.000  -0.000   0.000   4.177  -0.000   0.000   7.782
 -0.000  -0.000   7.782   0.000  -0.000  14.509   0.000  -0.000
 -0.000  -0.000   0.000   7.782   0.000   0.000  14.509   0.000
  0.000   0.000  -0.000   0.000   7.782  -0.000   0.000  14.509
 total augmentation occupancy for first ion, spin component:           1
  5.948  -2.288  -0.000  -0.000   0.019   0.000   0.000  -0.006
 -2.288   0.989  -0.000  -0.000  -0.009  -0.000  -0.000   0.003
 -0.000  -0.000   3.001   0.022  -0.000  -0.681  -0.006   0.000
 -0.000  -0.000   0.022   3.001   0.000  -0.006  -0.681  -0.000
  0.019  -0.009  -0.000   0.000   3.000  -0.000  -0.000  -0.681
  0.000  -0.000  -0.681  -0.006  -0.000   0.164   0.002  -0.000
  0.000  -0.000  -0.006  -0.681  -0.000   0.002   0.164   0.000
 -0.006   0.003   0.000  -0.000  -0.681  -0.000   0.000   0.164


------------------------ aborting loop because EDIFF is reached ----------------------------------------


    CHARGE:  cpu time      0.0780: real time      0.0784
    FORLOC:  cpu time      0.0092: real time      0.0092
    FORNL :  cpu time      1.0578: real time      1.0621
    STRESS:  cpu time      2.1599: real time      2.1691
    FORCOR:  cpu time      0.0283: real time      0.0284
    FORHAR:  cpu time      0.0115: real time      0.0116
    MIXING:  cpu time      0.0009: real time      0.0009
    OFIELD:  cpu time      0.0000: real time      0.0000

  FORCE on cell =-STRESS in cart. coord.  units (eV):
  Direction    XX          YY          ZZ          XY          YZ          ZX
  --------------------------------------------------------------------------------------
  Alpha Z   107.38121   107.38121   107.38121
  Ewald   -2435.97695 -2435.97696 -2435.96734     0.00030     0.78458     0.78514
  Hartree   156.26132   156.26132   156.26317     0.00016     0.08696     0.08727
  E(xc)    -817.39782  -817.39782  -817.39795    -0.00000    -0.01015    -0.01015
  Local    -931.45666  -931.45669  -931.46769    -0.00048    -0.81833    -0.81914
  n-local  2483.02432  2483.02435  2483.02635     0.00000     0.16279     0.16275
  augment  -368.16897  -368.16897  -368.16907    -0.00000    -0.00718    -0.00718
  Kinetic  1806.30871  1806.30871  1806.30830     0.00001    -0.09989    -0.09987
  Fock        0.00000     0.00000     0.00000     0.00000     0.00000     0.00000
  -------------------------------------------------------------------------------------
  Total      -0.02484    -0.02484    -0.02301    -0.00001     0.09877     0.09883
  in kB      -0.03099    -0.03100    -0.02871    -0.00001     0.12324     0.12331
  external pressure =       -0.03 kB  Pullay stress =        0.00 kB


 VOLUME and BASIS-vectors are now :
 -----------------------------------------------------------------------------
  energy-cutoff  :      318.00
  volume of cell :     1284.06
      direct lattice vectors                 reciprocal lattice vectors
    10.869145120 -0.000000000 -0.000000000     0.092003556  0.000000000 -0.000000000
    -0.000000000 10.869145120  0.000000000     0.000000000  0.092003556 -0.000000000
     0.000000000  0.000000000 10.869145120     0.000000000 -0.000000000  0.092003556

  length of vectors
    10.869145120 10.869145120 10.869145120     0.092003556  0.092003556  0.092003556


 FORCES acting on ions
    electron-ion (+dipol)            ewald-force                    non-local-force                 convergence-correction
 -----------------------------------------------------------------------------------------------
   0.522E+00 -.299E-01 -.561E-01   -.473E+00 0.296E-01 0.567E-01   -.180E+00 0.225E-02 0.118E-02   0.242E-05 -.828E-05 0.224E-05
   -.603E-01 -.588E-03 -.607E-02   0.615E-01 0.911E-03 0.467E-02   -.916E-03 0.544E-05 0.798E-03   0.167E-04 -.206E-05 -.111E-06
   0.225E-01 -.301E-01 0.557E-01   -.195E-01 0.297E-01 -.564E-01   -.155E-02 0.222E-02 -.119E-02   -.716E-05 -.972E-06 0.937E-05
   -.157E-01 -.674E-03 0.606E-02   0.153E-01 0.980E-03 -.466E-02   0.522E-03 0.103E-04 -.806E-03   0.172E-04 0.107E-04 0.136E-04
   0.191E-01 -.299E-01 0.561E-01   -.195E-01 0.296E-01 -.567E-01   -.806E-04 0.224E-02 -.119E-02   -.780E-05 -.136E-04 -.203E-05
   -.167E-01 -.591E-03 0.607E-02   0.153E-01 0.911E-03 -.467E-02   0.139E-02 0.121E-04 -.804E-03   0.455E-05 -.646E-05 0.502E-05
   -.415E-02 -.301E-01 -.557E-01   -.804E-02 0.297E-01 0.564E-01   0.734E-02 0.222E-02 0.118E-02   -.224E-04 0.630E-05 -.772E-05
   -.752E-02 -.674E-03 -.606E-02   0.752E-02 0.980E-03 0.466E-02   0.142E-03 0.600E-05 0.810E-03   0.152E-04 0.163E-04 -.170E-04
   0.267E-01 0.516E+00 -.497E-02   -.369E-01 -.473E+00 0.107E-03   0.596E-02 -.174E+00 0.581E-02   -.847E-05 0.400E-05 0.106E-04
   -.201E-01 0.209E-01 0.104E-03   0.207E-01 -.195E-01 -.318E-04   -.576E-03 -.843E-03 0.962E-06   0.900E-05 -.120E-04 0.389E-05
   0.266E-01 -.655E-01 0.468E-02   -.367E-01 0.614E-01 0.106E-03   0.592E-02 0.526E-02 -.575E-02   -.162E-04 0.167E-04 0.136E-04
   -.201E-01 -.162E-01 -.556E-04   0.207E-01 0.153E-01 -.318E-04   -.589E-03 0.956E-03 0.192E-05   0.124E-04 0.731E-05 0.109E-04
   0.266E-01 0.255E-01 -.469E-02   -.367E-01 -.194E-01 -.106E-03   0.592E-02 -.658E-02 0.575E-02   -.136E-04 -.130E-04 -.997E-05
   -.201E-01 -.255E-02 0.524E-04   0.207E-01 -.807E-02 0.318E-04   -.584E-03 0.665E-02 0.237E-05   0.764E-05 -.327E-04 -.953E-05
   0.265E-01 -.112E-01 0.497E-02   -.367E-01 0.152E-01 -.106E-03   0.594E-02 -.485E-02 -.580E-02   -.925E-05 0.917E-05 -.214E-04
   -.201E-01 -.713E-02 -.105E-03   0.207E-01 0.755E-02 0.318E-04   -.581E-03 -.290E-03 0.752E-05   0.178E-04 0.228E-04 -.115E-04
   0.260E-01 -.316E-01 -.574E-01   -.270E-01 0.296E-01 0.564E-01   0.104E-02 0.295E-02 0.194E-02   -.154E-04 -.726E-05 0.109E-04
   -.860E-01 -.316E-01 0.578E-01   0.863E-01 0.296E-01 -.567E-01   0.342E-02 0.300E-02 -.196E-02   0.143E-04 -.115E-04 0.148E-04
   -.564E-01 -.306E-01 -.771E-02   0.574E-01 0.297E-01 0.466E-02   0.120E-02 0.265E-02 0.151E-02   -.195E-04 -.118E-05 0.118E-05
   0.551E-01 -.306E-01 0.771E-02   -.555E-01 0.297E-01 -.467E-02   -.118E-02 0.265E-02 -.152E-02   0.201E-04 0.272E-05 0.154E-04
   -.240E-01 0.106E-02 0.552E-01   0.250E-01 0.911E-03 -.564E-01   0.143E-02 -.700E-03 -.745E-03   -.163E-04 -.452E-05 -.179E-04
   -.360E-01 0.113E-02 -.555E-01   0.342E-01 0.911E-03 0.567E-01   0.303E-02 -.748E-03 0.764E-03   0.769E-05 -.857E-05 -.128E-04
   -.672E-02 -.164E-03 0.556E-02   0.564E-02 0.980E-03 -.466E-02   0.831E-03 -.423E-03 -.362E-03   -.268E-04 0.121E-04 -.105E-04
   0.546E-02 -.172E-03 -.555E-02   -.375E-02 0.980E-03 0.467E-02   -.806E-03 -.418E-03 0.365E-03   0.280E-04 0.151E-04 -.692E-05
   -.254E-01 -.292E-01 -.635E-02   0.298E-01 0.197E-01 -.106E-03   -.351E-02 0.710E-02 0.644E-02   -.234E-04 -.165E-04 0.174E-04
   -.250E-01 0.826E-01 0.323E-02   0.295E-01 -.935E-01 -.106E-03   -.357E-02 0.473E-02 -.504E-02   0.118E-04 -.726E-05 0.474E-05
   -.301E-01 0.356E-01 0.170E-02   0.297E-01 -.357E-01 0.318E-04   0.224E-02 -.177E-02 -.719E-03   -.201E-04 0.160E-04 0.635E-05
   -.300E-01 -.762E-01 0.160E-02   0.296E-01 0.774E-01 0.318E-04   0.223E-02 0.611E-03 -.760E-03   0.973E-05 0.104E-04 0.419E-05
   -.563E-02 0.205E-01 -.547E-02   0.109E-02 -.321E-01 0.106E-03   0.583E-02 0.675E-02 0.625E-02   -.133E-04 -.255E-04 -.213E-05
   -.530E-02 0.326E-01 0.420E-02   0.805E-03 -.414E-01 0.106E-03   0.574E-02 0.512E-02 -.531E-02   0.274E-04 -.151E-04 -.115E-04
   -.548E-03 -.141E-01 0.623E-03   0.948E-03 0.160E-01 -.318E-04   0.249E-04 -.138E-02 -.437E-03   -.220E-04 0.245E-04 -.687E-06
   -.554E-03 -.262E-01 0.454E-03   0.943E-03 0.253E-01 -.318E-04   -.202E-05 0.213E-03 -.419E-03   0.185E-04 0.118E-04 -.309E-05
   -.123E-01 -.218E+00 -.211E+00   0.103E-01 0.191E+00 0.184E+00   0.343E-01 0.500E-01 0.503E-01   -.209E-05 -.208E-05 -.345E-05
   -.495E-01 0.969E-02 0.151E-01   0.496E-01 -.917E-02 -.140E-01   -.412E-03 -.364E-03 -.455E-03   0.211E-05 0.108E-04 -.107E-04
   0.184E-01 0.308E-01 0.127E-01   -.216E-01 -.315E-01 -.101E-01   0.232E-02 0.514E-03 -.183E-02   0.989E-05 -.632E-05 -.162E-06
   -.163E-01 0.492E-02 0.457E-02   0.187E-01 0.565E-03 -.723E-02   -.237E-02 -.318E-02 0.316E-02   -.692E-05 -.140E-04 0.883E-05
   -.433E-02 -.570E-01 0.353E-01   0.191E-02 0.590E-01 -.336E-01   0.154E-02 -.164E-02 -.106E-02   0.151E-04 -.348E-05 0.146E-04
   -.665E-02 -.117E-01 -.499E-02   0.694E-02 0.114E-01 0.442E-02   -.281E-03 0.790E-03 0.103E-02   -.780E-05 0.872E-05 0.108E-04
   0.215E+00 -.982E-02 -.201E+00   -.183E+00 0.478E-02 0.172E+00   -.528E-01 0.375E-01 0.517E-01   0.962E-05 -.826E-06 0.366E-05
   -.255E-01 0.108E-01 -.739E-02   0.243E-01 -.122E-01 0.931E-02   0.691E-03 0.110E-02 -.124E-02   0.371E-05 -.122E-04 -.453E-05
   -.211E+00 0.194E+00 0.543E-04   0.183E+00 -.170E+00 0.155E-13   0.838E-01 -.150E-01 -.494E-04   0.775E-05 0.103E-05 0.799E-05
   -.339E-01 -.414E-02 -.225E-01   0.355E-01 0.174E-02 0.233E-01   -.136E-02 0.155E-02 -.781E-03   -.376E-05 -.578E-05 0.850E-05
   0.304E-01 -.695E-01 0.225E-01   -.316E-01 0.689E-01 -.233E-01   0.991E-03 0.170E-03 0.772E-03   0.357E-05 0.141E-04 0.113E-04
   -.243E-01 -.672E-02 -.872E-05   0.231E-01 0.700E-02 0.178E-14   0.158E-02 -.287E-03 -.346E-05   0.245E-05 0.153E-04 0.117E-04
   0.793E-02 0.184E-01 0.554E-05   -.826E-02 -.216E-01 0.222E-14   0.212E-03 0.233E-02 0.118E-04   0.897E-05 -.126E-04 -.182E-04
   -.146E-01 0.100E-01 0.962E-02   0.114E-01 -.393E-02 -.117E-01   0.368E-02 -.423E-02 0.209E-02   -.573E-05 -.272E-04 -.130E-04
   0.175E-01 -.163E-01 -.960E-02   -.111E-01 0.187E-01 0.117E-01   -.398E-02 -.237E-02 -.208E-02   0.983E-05 0.150E-04 -.170E-04
   -.978E-02 -.549E-02 0.672E-05   0.101E-01 0.493E-02 -.178E-14   -.266E-03 0.903E-04 0.742E-05   -.118E-05 0.288E-04 -.151E-04
   0.685E-02 0.150E+00 -.219E+00   -.846E-02 -.123E+00 0.192E+00   0.341E-01 -.492E-01 0.489E-01   -.187E-04 0.499E-05 0.125E-04
   -.607E-01 -.329E-01 0.137E-01   0.604E-01 0.319E-01 -.132E-01   0.353E-03 0.937E-03 -.378E-03   0.151E-04 -.169E-05 -.387E-05
   -.189E+00 -.285E-01 0.196E+00   0.161E+00 0.252E-01 -.169E+00   0.499E-01 0.352E-01 -.497E-01   -.244E-04 -.114E-04 0.524E-05
   0.245E-02 0.218E-01 0.902E-02   -.178E-02 -.229E-01 -.103E-01   -.124E-03 0.340E-03 0.115E-02   0.197E-04 -.102E-04 0.153E-04
   0.168E-01 -.102E-01 0.268E-01   -.184E-01 0.831E-02 -.249E-01   0.139E-02 0.171E-02 -.171E-02   -.180E-04 0.877E-05 -.180E-04
   -.176E-01 -.114E-01 -.666E-02   0.176E-01 0.111E-01 0.549E-02   0.478E-03 -.186E-03 0.113E-02   0.124E-04 0.236E-05 -.106E-04
   0.846E-02 0.121E-01 -.170E-01   -.785E-03 -.112E-01 0.132E-01   -.516E-02 -.175E-02 0.381E-02   -.339E-04 -.570E-05 -.143E-04
   -.676E-02 0.159E-01 -.302E-02   0.387E-02 -.101E-01 0.625E-02   0.294E-02 -.393E-02 -.320E-02   0.258E-04 -.798E-05 -.171E-04
   -.540E-02 -.188E+00 0.184E+00   0.171E-02 0.160E+00 -.159E+00   0.355E-01 0.499E-01 -.478E-01   -.123E-04 -.139E-04 -.416E-05
   -.527E-01 0.312E-01 -.183E-01   0.559E-01 -.244E-01 0.205E-01   -.361E-02 -.437E-02 -.275E-02   0.135E-04 -.217E-04 0.438E-05
   0.929E-02 0.241E-02 0.140E-01   -.112E-01 -.174E-02 -.147E-01   0.116E-02 -.129E-03 0.118E-03   -.280E-04 0.134E-04 -.287E-06
   -.133E-01 -.165E-01 -.163E-02   0.124E-01 0.156E-01 0.102E-02   0.837E-03 0.845E-03 0.789E-04   0.224E-04 0.266E-04 0.204E-06
   0.216E+00 -.138E-01 0.185E+00   -.191E+00 0.133E-01 -.159E+00   -.480E-01 0.334E-01 -.485E-01   -.222E-04 -.188E-04 0.716E-05
   -.333E-01 0.169E-01 0.140E-01   0.317E-01 -.186E-01 -.148E-01   0.143E-02 0.137E-02 0.105E-03   0.116E-04 -.643E-05 0.114E-04
   -.359E-02 -.509E-01 -.181E-01   0.919E-02 0.486E-01 0.203E-01   -.383E-02 0.243E-02 -.276E-02   -.306E-04 0.175E-04 0.127E-04
   0.116E-02 -.177E-01 -.155E-02   -.551E-03 0.177E-01 0.979E-03   -.102E-02 0.470E-03 0.486E-04   0.210E-04 0.141E-04 0.383E-05
 -----------------------------------------------------------------------------------------------
   -.498E-04 0.327E-04 -.975E-05   -.122E-13 0.326E-13 0.209E-13   0.608E-04 -.257E-04 0.127E-04   -.229E-05 -.120E-05 -.989E-06
 
 
 POSITION                                       TOTAL-FORCE (eV/Angst)
 -----------------------------------------------------------------------------------
      2.72729      2.71729      2.71729        -0.131169      0.001885      0.001859
      8.15186      2.71729      2.71729         0.000257      0.000326     -0.000601
      2.71729      8.15186      2.71729         0.001421      0.001861     -0.001852
      8.15186      8.15186      2.71729         0.000127      0.000326      0.000604
      2.71729      2.71729      8.15186        -0.000474      0.001876     -0.001865
      8.15186      2.71729      8.15186        -0.000029      0.000326      0.000601
      2.71729      8.15186      8.15186        -0.004871      0.001861      0.001850
      8.15186      8.15186      8.15186         0.000150      0.000328     -0.000605
      2.71729      0.01000     -0.00000        -0.004277     -0.131169      0.000955
      8.15186     -0.00000     -0.00000        -0.000039      0.000555      0.000077
      2.71729      5.43457      0.00000        -0.004267      0.001122     -0.000941
      8.15186      5.43457     -0.00000        -0.000036      0.000126     -0.000075
      2.71729      0.00000      5.43457        -0.004267     -0.000462      0.000941
      8.15186     -0.00000      5.43457        -0.000036     -0.004006      0.000077
      2.71729      5.43457      5.43457        -0.004278     -0.000905     -0.000954
      8.15186      5.43457      5.43457        -0.000039      0.000151     -0.000077
     -0.00000      2.71729      0.00000        -0.000006      0.000934      0.000898
      5.43457      2.71729     -0.00000         0.003748      0.000922     -0.000920
     -0.00000      8.15186      0.00000         0.002176      0.001783     -0.001543
      5.43457      8.15186      0.00000        -0.001525      0.001785      0.001546
      0.00000      2.71729      5.43457         0.002462      0.001269     -0.001930
      5.43457      2.71729      5.43457         0.001276      0.001281      0.001942
     -0.00000      8.15186      5.43457        -0.000278      0.000404      0.000526
      5.43457      8.15186      5.43457         0.000931      0.000405     -0.000526
      0.00000      0.00000      2.71729         0.000918     -0.002416     -0.000002
      5.43457     -0.00000      2.71729         0.000922     -0.006146     -0.001910
     -0.00000      5.43457      2.71729         0.001782     -0.001889      0.001020
      5.43457      5.43457      2.71729         0.001801      0.001827      0.000877
      0.00000      0.00000      8.15186         0.001280     -0.004882      0.000876
      5.43457      0.00000      8.15186         0.001270     -0.003664     -0.001019
      0.00000      5.43457      8.15186         0.000403      0.000566      0.000153
      5.43457      5.43457      8.15186         0.000405     -0.000638     -0.000001
      4.07593      4.07593      4.07593         0.032232      0.023223      0.023217
      9.51050      4.07593      4.07593        -0.000358      0.000164      0.000610
      4.07593      9.51050      4.07593        -0.000925     -0.000168      0.000745
      9.51050      9.51050      4.07593        -0.000035      0.002292      0.000503
      4.07593      4.07593      9.51050        -0.000856      0.000319      0.000684
      9.51050      4.07593      9.51050         0.000003      0.000475      0.000468
      4.07593      9.51050      9.51050        -0.020314      0.032432      0.022658
      9.51050      9.51050      9.51050        -0.000517     -0.000241      0.000681
      4.07593      1.35864      1.35864         0.055486      0.009472      0.000013
      9.51050      1.35864      1.35864         0.000255     -0.000858      0.000066
      4.07593      6.79322      1.35864        -0.000175     -0.000431     -0.000065
      9.51050      6.79322      1.35864         0.000431      0.000007     -0.000001
      4.07593      1.35864      6.79322        -0.000108     -0.000923     -0.000001
      9.51050      1.35864      6.79322         0.000472      0.001837      0.000040
      4.07593      6.79322      6.79322         0.002339     -0.000034     -0.000043
      9.51050      6.79322      6.79322         0.000093     -0.000447     -0.000001
      1.35864      4.07593      1.35864         0.032519     -0.022488      0.022060
      6.79322      4.07593      1.35864         0.000128     -0.000117      0.000087
      1.35864      9.51050      1.35864         0.021887      0.031842     -0.021990
      6.79322      9.51050      1.35864         0.000564     -0.000726     -0.000152
      1.35864      4.07593      6.79322        -0.000257     -0.000185      0.000122
      6.79322      4.07593      6.79322         0.000495     -0.000434     -0.000054
      1.35864      9.51050      6.79322         0.002487     -0.000764     -0.000088
      6.79322      9.51050      6.79322         0.000075      0.001808      0.000017
      1.35864      1.35864      4.07593         0.031773      0.021881     -0.022743
      6.79322      1.35864      4.07593        -0.000340      0.002428     -0.000593
      1.35864      6.79322      4.07593        -0.000763      0.000558     -0.000623
      6.79322      6.79322      4.07593        -0.000045      0.000040     -0.000527
      1.35864      1.35864      9.51050        -0.023516      0.032901     -0.023340
      6.79322      1.35864      9.51050        -0.000118     -0.000260     -0.000623
      1.35864      6.79322      9.51050         0.001736      0.000165     -0.000593
      6.79322      6.79322      9.51050        -0.000388      0.000490     -0.000521
 -----------------------------------------------------------------------------------
    total drift:                                0.000009      0.000006      0.000002


--------------------------------------------------------------------------------------------------------



  FREE ENERGIE OF THE ION-ELECTRON SYSTEM (eV)
  ---------------------------------------------------
  free  energy   TOTEN  =      -367.49987895 eV

  energy  without entropy=     -367.49987895  energy(sigma->0) =     -367.49987895
 


--------------------------------------------------------------------------------------------------------


    POTLOK:  cpu time      0.0416: real time      0.0418


--------------------------------------------------------------------------------------------------------


     LOOP+:  cpu time     42.0606: real time     42.2829
    4ORBIT:  cpu time      0.0000: real time      0.0000

 total amount of memory used by VASP MPI-rank0    65387. kBytes
=======================================================================

   base      :      30000. kBytes
   nonl-proj :       6402. kBytes
   fftplans  :      11573. kBytes
   grid      :       5816. kBytes
   one-center:         49. kBytes
   wavefun   :      11547. kBytes
 
  
  
 General timing and accounting informations for this job:
 ========================================================
  
                  Total CPU time used (sec):       44.044
                            User time (sec):       43.056
                          System time (sec):        0.988
                         Elapsed time (sec):       44.437
  
                   Maximum memory used (kb):      223052.
                   Average memory used (kb):          N/A
  
                          Minor page faults:        82256
                          Major page faults:            0
                 Voluntary context switches:          774
