<?xml version="1.0" encoding="ISO-8859-1"?>
<modeling>
 <generator>
  <i name="program" type="string">vasp </i>
  <i name="version" type="string">6.3.2  </i>
  <i name="subversion" type="string">27Jun22 (build Oct 14 2022 12:13:54) complex                          parallel </i>
  <i name="platform" type="string">LinuxIFC </i>
  <i name="date" type="string">2023 04 03 </i>
  <i name="time" type="string">14:38:22 </i>
 </generator>
 <incar>
  <i type="string" name="PREC">Accurate</i>
  <i type="int" name="IALGO">    38</i>
  <i type="logical" name="ADDGRID"> T  </i>
  <i type="int" name="NELMIN">     5</i>
  <i type="int" name="IBRION">    -1</i>
  <i name="EDIFF">      0.00000001</i>
  <i name="ENCUT">    318.00000000</i>
  <i type="logical" name="LREAL"> F  </i>
  <i type="int" name="ISMEAR">     0</i>
  <i name="SIGMA">      0.02000000</i>
  <i type="logical" name="LWAVE"> F  </i>
  <i type="logical" name="LCHARG"> F  </i>
  <i type="string" name="GGA">Ps</i>
 </incar>
 <primitive_cell>
  <structure name="primitive_cell" >
   <crystal>
    <varray name="basis" >
     <v>      10.86914512      -0.00000000      -0.00000000 </v>
     <v>      -0.00000000      10.86914512       0.00000000 </v>
     <v>       0.00000000       0.00000000      10.86914512 </v>
    </varray>
    <i name="volume">   1284.06249692 </i>
    <varray name="rec_basis" >
     <v>       0.09200356       0.00000000      -0.00000000 </v>
     <v>       0.00000000       0.09200356      -0.00000000 </v>
     <v>       0.00000000      -0.00000000       0.09200356 </v>
    </varray>
   </crystal>
   <varray name="positions" >
    <v>       0.25092004       0.25000000       0.25000000 </v>
    <v>       0.75000000       0.25000000       0.25000000 </v>
    <v>       0.25000000       0.75000000       0.25000000 </v>
    <v>       0.75000000       0.75000000       0.25000000 </v>
    <v>       0.25000000       0.25000000       0.75000000 </v>
    <v>       0.75000000       0.25000000       0.75000000 </v>
    <v>       0.25000000       0.75000000       0.75000000 </v>
    <v>       0.75000000       0.75000000       0.75000000 </v>
    <v>       0.25000000       0.00092004       1.00000000 </v>
    <v>       0.75000000       1.00000000       1.00000000 </v>
    <v>       0.25000000       0.50000000       0.00000000 </v>
    <v>       0.75000000       0.50000000       1.00000000 </v>
    <v>       0.25000000       0.00000000       0.50000000 </v>
    <v>       0.75000000       1.00000000       0.50000000 </v>
    <v>       0.25000000       0.50000000       0.50000000 </v>
    <v>       0.75000000       0.50000000       0.50000000 </v>
    <v>       1.00000000       0.25000000       0.00000000 </v>
    <v>       0.50000000       0.25000000       1.00000000 </v>
    <v>       1.00000000       0.75000000       0.00000000 </v>
    <v>       0.50000000       0.75000000       0.00000000 </v>
    <v>       0.00000000       0.25000000       0.50000000 </v>
    <v>       0.50000000       0.25000000       0.50000000 </v>
    <v>       1.00000000       0.75000000       0.50000000 </v>
    <v>       0.50000000       0.75000000       0.50000000 </v>
    <v>       0.00000000       0.00000000       0.25000000 </v>
    <v>       0.50000000       1.00000000       0.25000000 </v>
    <v>       1.00000000       0.50000000       0.25000000 </v>
    <v>       0.50000000       0.50000000       0.25000000 </v>
    <v>       0.00000000       0.00000000       0.75000000 </v>
    <v>       0.50000000       0.00000000       0.75000000 </v>
    <v>       0.00000000       0.50000000       0.75000000 </v>
    <v>       0.50000000       0.50000000       0.75000000 </v>
    <v>       0.37500000       0.37500000       0.37500000 </v>
    <v>       0.87500000       0.37500000       0.37500000 </v>
    <v>       0.37500000       0.87500000       0.37500000 </v>
    <v>       0.87500000       0.87500000       0.37500000 </v>
    <v>       0.37500000       0.37500000       0.87500000 </v>
    <v>       0.87500000       0.37500000       0.87500000 </v>
    <v>       0.37500000       0.87500000       0.87500000 </v>
    <v>       0.87500000       0.87500000       0.87500000 </v>
    <v>       0.37500000       0.12500000       0.12500000 </v>
    <v>       0.87500000       0.12500000       0.12500000 </v>
    <v>       0.37500000       0.62500000       0.12500000 </v>
    <v>       0.87500000       0.62500000       0.12500000 </v>
    <v>       0.37500000       0.12500000       0.62500000 </v>
    <v>       0.87500000       0.12500000       0.62500000 </v>
    <v>       0.37500000       0.62500000       0.62500000 </v>
    <v>       0.87500000       0.62500000       0.62500000 </v>
    <v>       0.12500000       0.37500000       0.12500000 </v>
    <v>       0.62500000       0.37500000       0.12500000 </v>
    <v>       0.12500000       0.87500000       0.12500000 </v>
    <v>       0.62500000       0.87500000       0.12500000 </v>
    <v>       0.12500000       0.37500000       0.62500000 </v>
    <v>       0.62500000       0.37500000       0.62500000 </v>
    <v>       0.12500000       0.87500000       0.62500000 </v>
    <v>       0.62500000       0.87500000       0.62500000 </v>
    <v>       0.12500000       0.12500000       0.37500000 </v>
    <v>       0.62500000       0.12500000       0.37500000 </v>
    <v>       0.12500000       0.62500000       0.37500000 </v>
    <v>       0.62500000       0.62500000       0.37500000 </v>
    <v>       0.12500000       0.12500000       0.87500000 </v>
    <v>       0.62500000       0.12500000       0.87500000 </v>
    <v>       0.12500000       0.62500000       0.87500000 </v>
    <v>       0.62500000       0.62500000       0.87500000 </v>
   </varray>
  </structure>
  <varray name="primitive_index" >
   <v type="int" >        1 </v>
   <v type="int" >        2 </v>
   <v type="int" >        3 </v>
   <v type="int" >        4 </v>
   <v type="int" >        5 </v>
   <v type="int" >        6 </v>
   <v type="int" >        7 </v>
   <v type="int" >        8 </v>
   <v type="int" >        9 </v>
   <v type="int" >       10 </v>
   <v type="int" >       11 </v>
   <v type="int" >       12 </v>
   <v type="int" >       13 </v>
   <v type="int" >       14 </v>
   <v type="int" >       15 </v>
   <v type="int" >       16 </v>
   <v type="int" >       17 </v>
   <v type="int" >       18 </v>
   <v type="int" >       19 </v>
   <v type="int" >       20 </v>
   <v type="int" >       21 </v>
   <v type="int" >       22 </v>
   <v type="int" >       23 </v>
   <v type="int" >       24 </v>
   <v type="int" >       25 </v>
   <v type="int" >       26 </v>
   <v type="int" >       27 </v>
   <v type="int" >       28 </v>
   <v type="int" >       29 </v>
   <v type="int" >       30 </v>
   <v type="int" >       31 </v>
   <v type="int" >       32 </v>
   <v type="int" >       33 </v>
   <v type="int" >       34 </v>
   <v type="int" >       35 </v>
   <v type="int" >       36 </v>
   <v type="int" >       37 </v>
   <v type="int" >       38 </v>
   <v type="int" >       39 </v>
   <v type="int" >       40 </v>
   <v type="int" >       41 </v>
   <v type="int" >       42 </v>
   <v type="int" >       43 </v>
   <v type="int" >       44 </v>
   <v type="int" >       45 </v>
   <v type="int" >       46 </v>
   <v type="int" >       47 </v>
   <v type="int" >       48 </v>
   <v type="int" >       49 </v>
   <v type="int" >       50 </v>
   <v type="int" >       51 </v>
   <v type="int" >       52 </v>
   <v type="int" >       53 </v>
   <v type="int" >       54 </v>
   <v type="int" >       55 </v>
   <v type="int" >       56 </v>
   <v type="int" >       57 </v>
   <v type="int" >       58 </v>
   <v type="int" >       59 </v>
   <v type="int" >       60 </v>
   <v type="int" >       61 </v>
   <v type="int" >       62 </v>
   <v type="int" >       63 </v>
   <v type="int" >       64 </v>
  </varray>
 </primitive_cell>
 <kpoints>
  <generation param="Gamma">
   <v type="int" name="divisions">       2        2        2 </v>
   <v name="usershift">      0.00000000       0.00000000       0.00000000 </v>
   <v name="genvec1">      0.50000000      -0.00000000       0.00000000 </v>
   <v name="genvec2">     -0.00000000       0.50000000       0.00000000 </v>
   <v name="genvec3">     -0.00000000       0.00000000       0.50000000 </v>
   <v name="shift">      0.00000000       0.00000000       0.00000000 </v>
  </generation>
  <varray name="kpointlist" >
   <v>       0.00000000       0.00000000       0.00000000 </v>
   <v>       0.50000000       0.00000000       0.00000000 </v>
   <v>      -0.00000000       0.50000000       0.00000000 </v>
   <v>       0.00000000      -0.00000000       0.50000000 </v>
   <v>       0.50000000       0.50000000       0.00000000 </v>
   <v>       0.00000000       0.50000000       0.50000000 </v>
   <v>       0.50000000      -0.00000000       0.50000000 </v>
   <v>       0.50000000       0.50000000       0.50000000 </v>
  </varray>
  <varray name="weights" >
   <v>       0.12500000 </v>
   <v>       0.12500000 </v>
   <v>       0.12500000 </v>
   <v>       0.12500000 </v>
   <v>       0.12500000 </v>
   <v>       0.12500000 </v>
   <v>       0.12500000 </v>
   <v>       0.12500000 </v>
  </varray>
 </kpoints>
 <parameters>
  <separator name="general" >
   <i type="string" name="SYSTEM">unknown system</i>
   <i type="logical" name="LCOMPAT"> F  </i>
  </separator>
  <separator name="electronic" >
   <i type="string" name="PREC">accura</i>
   <i name="ENMAX">    318.00000000</i>
   <i name="ENAUG">    322.06900000</i>
   <i name="EDIFF">      0.00000001</i>
   <i type="int" name="IALGO">    38</i>
   <i type="int" name="IWAVPR">    10</i>
   <i type="int" name="NBANDS">   168</i>
   <i type="int" name="NBANDSLOW">    -1</i>
   <i type="int" name="NBANDSHIGH">    -1</i>
   <i name="NELECT">    256.00000000</i>
   <i type="int" name="TURBO">     0</i>
   <i type="int" name="IRESTART">     0</i>
   <i type="int" name="NREBOOT">     0</i>
   <i type="int" name="NMIN">     0</i>
   <i name="EREF">      0.00000000</i>
   <separator name="electronic smearing" >
    <i type="int" name="ISMEAR">     0</i>
    <i name="SIGMA">      0.02000000</i>
    <i name="KSPACING">      0.50000000</i>
    <i type="logical" name="KGAMMA"> T  </i>
    <i type="logical" name="KBLOWUP"> T  </i>
   </separator>
   <separator name="electronic projectors" >
    <i type="logical" name="LREAL"> F  </i>
    <v name="ROPT">      0.00000000</v>
    <i type="int" name="LMAXPAW">  -100</i>
    <i type="int" name="LMAXMIX">     2</i>
    <i type="logical" name="NLSPLINE"> F  </i>
   </separator>
   <separator name="electronic startup" >
    <i type="int" name="ISTART">     0</i>
    <i type="int" name="ICHARG">     2</i>
    <i type="int" name="INIWAV">     1</i>
   </separator>
   <separator name="electronic spin" >
    <i type="int" name="ISPIN">     1</i>
    <i type="logical" name="LNONCOLLINEAR"> F  </i>
    <v name="MAGMOM">      1.00000000      1.00000000      1.00000000      1.00000000      1.00000000      1.00000000      1.00000000      1.00000000      1.00000000      1.00000000      1.00000000      1.00000000      1.00000000      1.00000000      1.00000000      1.00000000      1.00000000      1.00000000      1.00000000      1.00000000
      1.00000000      1.00000000      1.00000000      1.00000000      1.00000000      1.00000000      1.00000000      1.00000000      1.00000000      1.00000000      1.00000000      1.00000000      1.00000000      1.00000000      1.00000000      1.00000000      1.00000000      1.00000000      1.00000000      1.00000000
      1.00000000      1.00000000      1.00000000      1.00000000      1.00000000      1.00000000      1.00000000      1.00000000      1.00000000      1.00000000      1.00000000      1.00000000      1.00000000      1.00000000      1.00000000      1.00000000      1.00000000      1.00000000      1.00000000      1.00000000
      1.00000000      1.00000000      1.00000000      1.00000000</v>
    <i name="NUPDOWN">     -1.00000000</i>
    <i type="logical" name="LSORBIT"> F  </i>
    <v name="SAXIS">      0.00000000      0.00000000      1.00000000</v>
    <i type="logical" name="LSPIRAL"> F  </i>
    <v name="QSPIRAL">      0.00000000      0.00000000      0.00000000</v>
    <i type="logical" name="LZEROZ"> F  </i>
   </separator>
   <separator name="electronic exchange-correlation" >
    <i type="logical" name="LASPH"> F  </i>
    <i type="logical" name="LMETAGGA"> F  </i>
   </separator>
   <separator name="electronic convergence" >
    <i type="int" name="NELM">    60</i>
    <i type="int" name="NELMDL">    -5</i>
    <i type="int" name="NELMIN">     5</i>
    <i name="ENINI">    318.00000000</i>
    <separator name="electronic convergence detail" >
     <i type="logical" name="LDIAG"> T  </i>
     <i type="logical" name="LSUBROT"> F  </i>
     <i name="WEIMIN">      0.00000000</i>
     <i name="EBREAK">      0.00000000</i>
     <i name="DEPER">      0.30000000</i>
     <i type="int" name="NRMM">     4</i>
     <i name="TIME">      0.40000000</i>
    </separator>
   </separator>
   <separator name="electronic mixer" >
    <i name="AMIX">      0.40000000</i>
    <i name="BMIX">      1.00000000</i>
    <i name="AMIN">      0.10000000</i>
    <i name="AMIX_MAG">      1.60000000</i>
    <i name="BMIX_MAG">      1.00000000</i>
    <separator name="electronic mixer details" >
     <i type="int" name="IMIX">     4</i>
     <i type="logical" name="MIXFIRST"> F  </i>
     <i type="int" name="MAXMIX">   -45</i>
     <i name="WC">    100.00000000</i>
     <i type="int" name="INIMIX">     1</i>
     <i type="int" name="MIXPRE">     1</i>
     <i type="int" name="MREMOVE">     5</i>
    </separator>
   </separator>
   <separator name="electronic dipolcorrection" >
    <i type="logical" name="LDIPOL"> F  </i>
    <i type="logical" name="LMONO"> F  </i>
    <i type="int" name="IDIPOL">     0</i>
    <i name="EPSILON">      1.00000000</i>
    <v name="DIPOL">   -100.00000000   -100.00000000   -100.00000000</v>
    <i name="EFIELD">      0.00000000</i>
   </separator>
  </separator>
  <separator name="grids" >
   <i type="int" name="NGX">    64</i>
   <i type="int" name="NGY">    64</i>
   <i type="int" name="NGZ">    64</i>
   <i type="int" name="NGXF">   128</i>
   <i type="int" name="NGYF">   128</i>
   <i type="int" name="NGZF">   128</i>
   <i type="logical" name="ADDGRID"> T  </i>
  </separator>
  <separator name="ionic" >
   <i type="int" name="NSW">     0</i>
   <i type="int" name="IBRION">    -1</i>
   <i type="int" name="MDALGO">     0</i>
   <i type="int" name="ISIF">     2</i>
   <i name="PSTRESS">      0.00000000</i>
   <i name="EDIFFG">      0.00000010</i>
   <i type="int" name="NFREE">     0</i>
   <i name="POTIM">      0.50000000</i>
   <i name="SMASS">     -3.00000000</i>
   <i name="SCALEE">      1.00000000</i>
  </separator>
  <separator name="ionic md" >
   <i name="TEBEG">      0.00010000</i>
   <i name="TEEND">      0.00010000</i>
   <i type="int" name="NBLOCK">     1</i>
   <i type="int" name="KBLOCK">     1</i>
   <i type="int" name="NPACO">   256</i>
   <i name="APACO">     10.00000000</i>
  </separator>
  <separator name="symmetry" >
   <i type="int" name="ISYM">     2</i>
   <i name="SYMPREC">      0.00001000</i>
  </separator>
  <separator name="dos" >
   <i type="int" name="LORBIT">     0</i>
   <v name="RWIGS">     -1.00000000</v>
   <i type="int" name="NEDOS">   301</i>
   <i name="EMIN">     10.00000000</i>
   <i name="EMAX">    -10.00000000</i>
   <i name="EFERMI">      0.00000000</i>
  </separator>
  <separator name="writing" >
   <i type="int" name="NWRITE">     2</i>
   <i type="logical" name="LWAVE"> F  </i>
   <i type="logical" name="LDOWNSAMPLE"> F  </i>
   <i type="logical" name="LCHARG"> F  </i>
   <i type="logical" name="LPARD"> F  </i>
   <i type="logical" name="LVTOT"> F  </i>
   <i type="logical" name="LVHAR"> F  </i>
   <i type="logical" name="LELF"> F  </i>
   <i type="logical" name="LOPTICS"> F  </i>
   <v name="STM">      0.00000000      0.00000000      0.00000000      0.00000000      0.00000000      0.00000000      0.00000000</v>
  </separator>
  <separator name="performance" >
   <i type="int" name="NPAR">     8</i>
   <i type="int" name="NSIM">     4</i>
   <i type="int" name="NBLK">    -1</i>
   <i type="logical" name="LPLANE"> T  </i>
   <i type="logical" name="LSCALAPACK"> T  </i>
   <i type="logical" name="LSCAAWARE"> F  </i>
   <i type="logical" name="LSCALU"> F  </i>
   <i type="logical" name="LASYNC"> F  </i>
   <i type="logical" name="LORBITALREAL"> F  </i>
  </separator>
  <separator name="miscellaneous" >
   <i type="int" name="IDIOT">     3</i>
   <i type="int" name="PHON_NSTRUCT">    -1</i>
   <i type="logical" name="LMUSIC"> F  </i>
   <v name="POMASS">     28.08500000</v>
   <v name="DARWINR">      0.00000000</v>
   <v name="DARWINV">      1.00000000</v>
   <i type="logical" name="LCORR"> T  </i>
  </separator>
  <i type="logical" name="GGA_COMPAT"> T  </i>
  <i type="logical" name="LBERRY"> F  </i>
  <i type="int" name="ICORELEVEL">     0</i>
  <i type="logical" name="LDAU"> F  </i>
  <i type="int" name="I_CONSTRAINED_M">     0</i>
  <separator name="electronic exchange-correlation" >
   <i type="string" name="GGA">PS</i>
   <i type="int" name="VOSKOWN">     0</i>
   <i type="logical" name="LHFCALC"> F  </i>
   <i type="string" name="PRECFOCK"></i>
   <i type="logical" name="LSYMGRAD"> F  </i>
   <i type="logical" name="LHFONE"> F  </i>
   <i type="logical" name="LRHFCALC"> F  </i>
   <i type="logical" name="LTHOMAS"> F  </i>
   <i type="logical" name="LMODELHF"> F  </i>
   <i type="logical" name="LFOCKACE"> F  </i>
   <i name="ENCUT4O">     -1.00000000</i>
   <i type="int" name="EXXOEP">     0</i>
   <i type="int" name="FOURORBIT">     0</i>
   <i name="AEXX">      0.00000000</i>
   <i name="HFALPHA">      0.00000000</i>
   <i name="MCALPHA">      0.00000000</i>
   <i name="ALDAX">      1.00000000</i>
   <i name="AGGAX">      1.00000000</i>
   <i name="ALDAC">      1.00000000</i>
   <i name="AGGAC">      1.00000000</i>
   <i type="int" name="NKREDX">     1</i>
   <i type="int" name="NKREDY">     1</i>
   <i type="int" name="NKREDZ">     1</i>
   <i type="logical" name="SHIFTRED"> F  </i>
   <i type="logical" name="ODDONLY"> F  </i>
   <i type="logical" name="EVENONLY"> F  </i>
   <i type="int" name="LMAXFOCK">     0</i>
   <i type="int" name="NMAXFOCKAE">     0</i>
   <i type="logical" name="LFOCKAEDFT"> F  </i>
   <i name="HFSCREEN">      0.00000000</i>
   <i name="HFSCREENC">      0.00000000</i>
   <i type="int" name="NBANDSGWLOW">     0</i>
  </separator>
  <separator name="vdW DFT" >
   <i type="logical" name="LUSE_VDW"> F  </i>
   <i name="Zab_VDW">     -0.84910000</i>
   <i name="PARAM1">      0.12340000</i>
   <i name="PARAM2">      1.00000000</i>
   <i name="PARAM3">      0.00000000</i>
  </separator>
  <separator name="model GW" >
   <i type="int" name="MODEL_GW">     0</i>
   <i name="MODEL_EPS0">     12.03808591</i>
   <i name="MODEL_ALPHA">      1.00000000</i>
  </separator>
  <separator name="linear response parameters" >
   <i type="logical" name="LEPSILON"> F  </i>
   <i type="logical" name="LRPA"> F  </i>
   <i type="logical" name="LNABLA"> F  </i>
   <i type="logical" name="LVEL"> F  </i>
   <i name="CSHIFT">      0.10000000</i>
   <i name="OMEGAMAX">     -1.00000000</i>
   <i name="DEG_THRESHOLD">      0.00200000</i>
   <i name="RTIME">     -0.10000000</i>
   <i name="WPLASMAI">      0.00000000</i>
   <v name="DFIELD">      0.00000000      0.00000000      0.00000000</v>
   <v name="WPLASMA">      0.00000000      0.00000000      0.00000000      0.00000000      0.00000000      0.00000000      0.00000000      0.00000000      0.00000000</v>
  </separator>
  <separator name="orbital magnetization" >
   <i type="logical" name="NUCIND"> F  </i>
   <v name="MAGPOS">      0.00000000      0.00000000      0.00000000</v>
   <i type="logical" name="LNICSALL"> T  </i>
   <i type="logical" name="ORBITALMAG"> F  </i>
   <i type="logical" name="LMAGBLOCH"> F  </i>
   <i type="logical" name="LCHIMAG"> F  </i>
   <i type="logical" name="LGAUGE"> T  </i>
   <i type="int" name="MAGATOM">     0</i>
   <v name="MAGDIPOL">      0.00000000      0.00000000      0.00000000</v>
   <v name="AVECCONST">      0.00000000      0.00000000      0.00000000</v>
  </separator>
  <separator name="response functions" >
   <i type="logical" name="LFINITE_TEMPERATURE"> F  </i>
   <i type="logical" name="LADDER"> F  </i>
   <i type="logical" name="LRPAFORCE"> F  </i>
   <i type="logical" name="LFXC"> F  </i>
   <i type="logical" name="LHARTREE"> T  </i>
   <i type="int" name="IBSE">     0</i>
   <v type="int" name="KPOINT">    -1     0     0     0</v>
   <i type="logical" name="LTCTC"> F  </i>
   <i type="logical" name="LTCTE"> F  </i>
   <i type="logical" name="LTETE"> F  </i>
   <i type="logical" name="LTRIPLET"> F  </i>
   <i type="logical" name="LFXCEPS"> F  </i>
   <i type="logical" name="LFXHEG"> F  </i>
   <i type="int" name="NATURALO">     2</i>
   <i type="logical" name="LHOLEGF"> F  </i>
   <i type="logical" name="L2ORDER"> F  </i>
   <i type="logical" name="LDMP1"> F  </i>
   <i type="logical" name="LMP2LT"> F  </i>
   <i type="logical" name="LSMP2LT"> F  </i>
   <i type="logical" name="LGWLF"> F  </i>
   <i name="ENCUTGW">     -2.00000000</i>
   <i name="ENCUTGWSOFT">     -2.00000000</i>
   <i name="ENCUTLF">     -1.00000000</i>
   <i type="logical" name="LESF_SPLINES"> F  </i>
   <i type="int" name="LMAXMP2">    -1</i>
   <i name="SCISSOR">      0.00000000</i>
   <i type="int" name="NOMEGA">     0</i>
   <i type="int" name="NOMEGAR">     0</i>
   <i type="int" name="NBANDSGW">    -1</i>
   <i type="int" name="NBANDSO">    -1</i>
   <i type="int" name="NBANDSV">    -1</i>
   <i type="int" name="NELMGW">     1</i>
   <i type="int" name="NELMHF">     1</i>
   <i type="int" name="DIM">     3</i>
   <i type="int" name="IESPILON">     4</i>
   <i type="int" name="ANTIRES">     0</i>
   <i name="OMEGAMAX">    -30.00000000</i>
   <i name="OMEGAMIN">    -30.00000000</i>
   <i name="OMEGATL">   -200.00000000</i>
   <i type="int" name="OMEGAGRID">     0</i>
   <i name="CSHIFT">     -0.10000000</i>
   <i type="logical" name="LSELFENERGY"> F  </i>
   <i type="logical" name="LSPECTRAL"> F  </i>
   <i type="logical" name="LSPECTRALGW"> F  </i>
   <i type="logical" name="LSINGLES"> F  </i>
   <i type="logical" name="LFERMIGW"> F  </i>
   <i type="logical" name="ODDONLYGW"> F  </i>
   <i type="logical" name="EVENONLYGW"> F  </i>
   <i type="int" name="NKREDLFX">     1</i>
   <i type="int" name="NKREDLFY">     1</i>
   <i type="int" name="NKREDLFZ">     1</i>
   <i type="int" name="MAXMEM">  2800</i>
   <i type="int" name="TELESCOPE">     0</i>
   <i type="int" name="NTAUPAR">    -1</i>
   <i type="int" name="NOMEGAPAR">    -1</i>
   <i name="DAMP_NEWTON">      0.80000001</i>
   <i name="LAMBDA">      1.00000000</i>
  </separator>
  <separator name="External order field" >
   <i name="OFIELD_KAPPA">      0.00000000</i>
   <v name="OFIELD_K">      0.00000000      0.00000000      0.00000000</v>
   <i name="OFIELD_Q6_NEAR">      0.00000000</i>
   <i name="OFIELD_Q6_FAR">      0.00000000</i>
   <i name="OFIELD_A">      0.00000000</i>
  </separator>
  <separator name="optional k-points parameters" >
   <i type="int" name="KPOINTS_OPT_MODE">     1</i>
   <i type="logical" name="LKPOINTS_OPT"> F  </i>
  </separator>
 </parameters>
 <atominfo>
  <atoms>      64 </atoms>
  <types>       1 </types>
  <array name="atoms" >
   <dimension dim="1">ion</dimension>
   <field type="string">element</field>
   <field type="int">atomtype</field>
   <set>
    <rc><c>Si</c><c>   1</c></rc>
    <rc><c>Si</c><c>   1</c></rc>
    <rc><c>Si</c><c>   1</c></rc>
    <rc><c>Si</c><c>   1</c></rc>
    <rc><c>Si</c><c>   1</c></rc>
    <rc><c>Si</c><c>   1</c></rc>
    <rc><c>Si</c><c>   1</c></rc>
    <rc><c>Si</c><c>   1</c></rc>
    <rc><c>Si</c><c>   1</c></rc>
    <rc><c>Si</c><c>   1</c></rc>
    <rc><c>Si</c><c>   1</c></rc>
    <rc><c>Si</c><c>   1</c></rc>
    <rc><c>Si</c><c>   1</c></rc>
    <rc><c>Si</c><c>   1</c></rc>
    <rc><c>Si</c><c>   1</c></rc>
    <rc><c>Si</c><c>   1</c></rc>
    <rc><c>Si</c><c>   1</c></rc>
    <rc><c>Si</c><c>   1</c></rc>
    <rc><c>Si</c><c>   1</c></rc>
    <rc><c>Si</c><c>   1</c></rc>
    <rc><c>Si</c><c>   1</c></rc>
    <rc><c>Si</c><c>   1</c></rc>
    <rc><c>Si</c><c>   1</c></rc>
    <rc><c>Si</c><c>   1</c></rc>
    <rc><c>Si</c><c>   1</c></rc>
    <rc><c>Si</c><c>   1</c></rc>
    <rc><c>Si</c><c>   1</c></rc>
    <rc><c>Si</c><c>   1</c></rc>
    <rc><c>Si</c><c>   1</c></rc>
    <rc><c>Si</c><c>   1</c></rc>
    <rc><c>Si</c><c>   1</c></rc>
    <rc><c>Si</c><c>   1</c></rc>
    <rc><c>Si</c><c>   1</c></rc>
    <rc><c>Si</c><c>   1</c></rc>
    <rc><c>Si</c><c>   1</c></rc>
    <rc><c>Si</c><c>   1</c></rc>
    <rc><c>Si</c><c>   1</c></rc>
    <rc><c>Si</c><c>   1</c></rc>
    <rc><c>Si</c><c>   1</c></rc>
    <rc><c>Si</c><c>   1</c></rc>
    <rc><c>Si</c><c>   1</c></rc>
    <rc><c>Si</c><c>   1</c></rc>
    <rc><c>Si</c><c>   1</c></rc>
    <rc><c>Si</c><c>   1</c></rc>
    <rc><c>Si</c><c>   1</c></rc>
    <rc><c>Si</c><c>   1</c></rc>
    <rc><c>Si</c><c>   1</c></rc>
    <rc><c>Si</c><c>   1</c></rc>
    <rc><c>Si</c><c>   1</c></rc>
    <rc><c>Si</c><c>   1</c></rc>
    <rc><c>Si</c><c>   1</c></rc>
    <rc><c>Si</c><c>   1</c></rc>
    <rc><c>Si</c><c>   1</c></rc>
    <rc><c>Si</c><c>   1</c></rc>
    <rc><c>Si</c><c>   1</c></rc>
    <rc><c>Si</c><c>   1</c></rc>
    <rc><c>Si</c><c>   1</c></rc>
    <rc><c>Si</c><c>   1</c></rc>
    <rc><c>Si</c><c>   1</c></rc>
    <rc><c>Si</c><c>   1</c></rc>
    <rc><c>Si</c><c>   1</c></rc>
    <rc><c>Si</c><c>   1</c></rc>
    <rc><c>Si</c><c>   1</c></rc>
    <rc><c>Si</c><c>   1</c></rc>
   </set>
  </array>
  <array name="atomtypes" >
   <dimension dim="1">type</dimension>
   <field type="int">atomspertype</field>
   <field type="string">element</field>
   <field>mass</field>
   <field>valence</field>
   <field type="string">pseudopotential</field>
   <set>
    <rc><c>  64</c><c>Si</c><c>     28.08500000</c><c>      4.00000000</c><c>  PAW_PBE Si 05Jan2001                  </c></rc>
   </set>
  </array>
 </atominfo>
 <structure name="initialpos" >
  <crystal>
   <varray name="basis" >
    <v>      10.86914512      -0.00000000      -0.00000000 </v>
    <v>      -0.00000000      10.86914512       0.00000000 </v>
    <v>       0.00000000       0.00000000      10.86914512 </v>
   </varray>
   <i name="volume">   1284.06249692 </i>
   <varray name="rec_basis" >
    <v>       0.09200356       0.00000000      -0.00000000 </v>
    <v>       0.00000000       0.09200356      -0.00000000 </v>
    <v>       0.00000000      -0.00000000       0.09200356 </v>
   </varray>
  </crystal>
  <varray name="positions" >
   <v>       0.25092004       0.25000000       0.25000000 </v>
   <v>       0.75000000       0.25000000       0.25000000 </v>
   <v>       0.25000000       0.75000000       0.25000000 </v>
   <v>       0.75000000       0.75000000       0.25000000 </v>
   <v>       0.25000000       0.25000000       0.75000000 </v>
   <v>       0.75000000       0.25000000       0.75000000 </v>
   <v>       0.25000000       0.75000000       0.75000000 </v>
   <v>       0.75000000       0.75000000       0.75000000 </v>
   <v>       0.25000000       0.00092004       0.00000000 </v>
   <v>       0.75000000       0.00000000       0.00000000 </v>
   <v>       0.25000000       0.50000000       0.00000000 </v>
   <v>       0.75000000       0.50000000       0.00000000 </v>
   <v>       0.25000000       0.00000000       0.50000000 </v>
   <v>       0.75000000       0.00000000       0.50000000 </v>
   <v>       0.25000000       0.50000000       0.50000000 </v>
   <v>       0.75000000       0.50000000       0.50000000 </v>
   <v>       0.00000000       0.25000000       0.00000000 </v>
   <v>       0.50000000       0.25000000       0.00000000 </v>
   <v>       0.00000000       0.75000000       0.00000000 </v>
   <v>       0.50000000       0.75000000       0.00000000 </v>
   <v>       0.00000000       0.25000000       0.50000000 </v>
   <v>       0.50000000       0.25000000       0.50000000 </v>
   <v>       0.00000000       0.75000000       0.50000000 </v>
   <v>       0.50000000       0.75000000       0.50000000 </v>
   <v>       0.00000000       0.00000000       0.25000000 </v>
   <v>       0.50000000       0.00000000       0.25000000 </v>
   <v>       0.00000000       0.50000000       0.25000000 </v>
   <v>       0.50000000       0.50000000       0.25000000 </v>
   <v>       0.00000000       0.00000000       0.75000000 </v>
   <v>       0.50000000       0.00000000       0.75000000 </v>
   <v>       0.00000000       0.50000000       0.75000000 </v>
   <v>       0.50000000       0.50000000       0.75000000 </v>
   <v>       0.37500000       0.37500000       0.37500000 </v>
   <v>       0.87500000       0.37500000       0.37500000 </v>
   <v>       0.37500000       0.87500000       0.37500000 </v>
   <v>       0.87500000       0.87500000       0.37500000 </v>
   <v>       0.37500000       0.37500000       0.87500000 </v>
   <v>       0.87500000       0.37500000       0.87500000 </v>
   <v>       0.37500000       0.87500000       0.87500000 </v>
   <v>       0.87500000       0.87500000       0.87500000 </v>
   <v>       0.37500000       0.12500000       0.12500000 </v>
   <v>       0.87500000       0.12500000       0.12500000 </v>
   <v>       0.37500000       0.62500000       0.12500000 </v>
   <v>       0.87500000       0.62500000       0.12500000 </v>
   <v>       0.37500000       0.12500000       0.62500000 </v>
   <v>       0.87500000       0.12500000       0.62500000 </v>
   <v>       0.37500000       0.62500000       0.62500000 </v>
   <v>       0.87500000       0.62500000       0.62500000 </v>
   <v>       0.12500000       0.37500000       0.12500000 </v>
   <v>       0.62500000       0.37500000       0.12500000 </v>
   <v>       0.12500000       0.87500000       0.12500000 </v>
   <v>       0.62500000       0.87500000       0.12500000 </v>
   <v>       0.12500000       0.37500000       0.62500000 </v>
   <v>       0.62500000       0.37500000       0.62500000 </v>
   <v>       0.12500000       0.87500000       0.62500000 </v>
   <v>       0.62500000       0.87500000       0.62500000 </v>
   <v>       0.12500000       0.12500000       0.37500000 </v>
   <v>       0.62500000       0.12500000       0.37500000 </v>
   <v>       0.12500000       0.62500000       0.37500000 </v>
   <v>       0.62500000       0.62500000       0.37500000 </v>
   <v>       0.12500000       0.12500000       0.87500000 </v>
   <v>       0.62500000       0.12500000       0.87500000 </v>
   <v>       0.12500000       0.62500000       0.87500000 </v>
   <v>       0.62500000       0.62500000       0.87500000 </v>
  </varray>
 </structure>
 <calculation>
  <scstep>
   <time name="dav">    2.29    2.30</time>
   <time name="total">    2.34    2.35</time>
   <energy>
    <i name="alphaZ">    107.38120932 </i>
    <i name="ewald">  -7307.87536902 </i>
    <i name="hartreedc">   -353.25092867 </i>
    <i name="XCdc">   -558.85370908 </i>
    <i name="pawpsdc">   5598.62625415 </i>
    <i name="pawaedc">  -4492.17844134 </i>
    <i name="eentropy">     -0.00325636 </i>
    <i name="bandstr">    892.39834102 </i>
    <i name="atom">   6564.76702419 </i>
    <i name="e_fr_energy">    451.01112420 </i>
    <i name="e_wo_entrp">    451.01438056 </i>
    <i name="e_0_energy">    451.01275238 </i>
   </energy>
  </scstep>
  <scstep>
   <time name="dav">    2.62    2.64</time>
   <time name="total">    2.62    2.64</time>
   <energy>
    <i name="e_fr_energy">   -322.07331594 </i>
    <i name="e_wo_entrp">   -322.07331594 </i>
    <i name="e_0_energy">   -322.07331594 </i>
   </energy>
  </scstep>
  <scstep>
   <time name="dav">    2.67    2.69</time>
   <time name="total">    2.67    2.69</time>
   <energy>
    <i name="e_fr_energy">   -373.41440491 </i>
    <i name="e_wo_entrp">   -373.41440491 </i>
    <i name="e_0_energy">   -373.41440491 </i>
   </energy>
  </scstep>
  <scstep>
   <time name="dav">    2.64    2.65</time>
   <time name="total">    2.64    2.65</time>
   <energy>
    <i name="e_fr_energy">   -374.59939273 </i>
    <i name="e_wo_entrp">   -374.59939273 </i>
    <i name="e_0_energy">   -374.59939273 </i>
   </energy>
  </scstep>
  <scstep>
   <time name="dav">    2.62    2.64</time>
   <time name="total">    2.70    2.72</time>
   <energy>
    <i name="e_fr_energy">   -374.64085830 </i>
    <i name="e_wo_entrp">   -374.64085830 </i>
    <i name="e_0_energy">   -374.64085830 </i>
   </energy>
  </scstep>
  <scstep>
   <time name="dav">    2.52    2.54</time>
   <time name="total">    2.65    2.66</time>
   <energy>
    <i name="e_fr_energy">   -369.72152904 </i>
    <i name="e_wo_entrp">   -369.72152904 </i>
    <i name="e_0_energy">   -369.72152904 </i>
   </energy>
  </scstep>
  <scstep>
   <time name="dav">    2.51    2.53</time>
   <time name="total">    2.64    2.65</time>
   <energy>
    <i name="e_fr_energy">   -367.49040465 </i>
    <i name="e_wo_entrp">   -367.49040465 </i>
    <i name="e_0_energy">   -367.49040465 </i>
   </energy>
  </scstep>
  <scstep>
   <time name="dav">    2.54    2.55</time>
   <time name="total">    2.66    2.68</time>
   <energy>
    <i name="e_fr_energy">   -367.49748203 </i>
    <i name="e_wo_entrp">   -367.49748203 </i>
    <i name="e_0_energy">   -367.49748203 </i>
   </energy>
  </scstep>
  <scstep>
   <time name="dav">    2.66    2.68</time>
   <time name="total">    2.79    2.80</time>
   <energy>
    <i name="e_fr_energy">   -367.49899241 </i>
    <i name="e_wo_entrp">   -367.49899241 </i>
    <i name="e_0_energy">   -367.49899241 </i>
   </energy>
  </scstep>
  <scstep>
   <time name="dav">    2.47    2.49</time>
   <time name="total">    2.60    2.61</time>
   <energy>
    <i name="e_fr_energy">   -367.49984234 </i>
    <i name="e_wo_entrp">   -367.49984234 </i>
    <i name="e_0_energy">   -367.49984234 </i>
   </energy>
  </scstep>
  <scstep>
   <time name="dav">    2.58    2.59</time>
   <time name="total">    2.70    2.72</time>
   <energy>
    <i name="e_fr_energy">   -367.49987776 </i>
    <i name="e_wo_entrp">   -367.49987776 </i>
    <i name="e_0_energy">   -367.49987776 </i>
   </energy>
  </scstep>
  <scstep>
   <time name="dav">    2.60    2.62</time>
   <time name="total">    2.73    2.74</time>
   <energy>
    <i name="e_fr_energy">   -367.49988006 </i>
    <i name="e_wo_entrp">   -367.49988006 </i>
    <i name="e_0_energy">   -367.49988006 </i>
   </energy>
  </scstep>
  <scstep>
   <time name="dav">    2.50    2.51</time>
   <time name="total">    2.63    2.64</time>
   <energy>
    <i name="e_fr_energy">   -367.49987916 </i>
    <i name="e_wo_entrp">   -367.49987916 </i>
    <i name="e_0_energy">   -367.49987916 </i>
   </energy>
  </scstep>
  <scstep>
   <time name="dav">    2.33    2.34</time>
   <time name="total">    2.45    2.47</time>
   <energy>
    <i name="e_fr_energy">   -367.49987895 </i>
    <i name="e_wo_entrp">   -367.49987895 </i>
    <i name="e_0_energy">   -367.49987895 </i>
   </energy>
  </scstep>
  <scstep>
   <time name="dav">    1.78    1.79</time>
   <time name="total">    1.82    1.83</time>
   <energy>
    <i name="alphaZ">    107.38120932 </i>
    <i name="ewald">  -7307.87536902 </i>
    <i name="hartreedc">   -468.78615170 </i>
    <i name="XCdc">   -539.35378213 </i>
    <i name="pawpsdc">  28474.97556145 </i>
    <i name="pawaedc"> -27375.40231726 </i>
    <i name="eentropy">     -0.00000000 </i>
    <i name="bandstr">    176.79394621 </i>
    <i name="atom">   6564.76702419 </i>
    <i name="e_fr_energy">   -367.49987895 </i>
    <i name="e_wo_entrp">   -367.49987895 </i>
    <i name="e_0_energy">   -367.49987895 </i>
   </energy>
  </scstep>
  <structure>
   <crystal>
    <varray name="basis" >
     <v>      10.86914512      -0.00000000      -0.00000000 </v>
     <v>      -0.00000000      10.86914512       0.00000000 </v>
     <v>       0.00000000       0.00000000      10.86914512 </v>
    </varray>
    <i name="volume">   1284.06249692 </i>
    <varray name="rec_basis" >
     <v>       0.09200356       0.00000000      -0.00000000 </v>
     <v>       0.00000000       0.09200356      -0.00000000 </v>
     <v>       0.00000000      -0.00000000       0.09200356 </v>
    </varray>
   </crystal>
   <varray name="positions" >
    <v>       0.25092004       0.25000000       0.25000000 </v>
    <v>       0.75000000       0.25000000       0.25000000 </v>
    <v>       0.25000000       0.75000000       0.25000000 </v>
    <v>       0.75000000       0.75000000       0.25000000 </v>
    <v>       0.25000000       0.25000000       0.75000000 </v>
    <v>       0.75000000       0.25000000       0.75000000 </v>
    <v>       0.25000000       0.75000000       0.75000000 </v>
    <v>       0.75000000       0.75000000       0.75000000 </v>
    <v>       0.25000000       0.00092004       0.00000000 </v>
    <v>       0.75000000       0.00000000       0.00000000 </v>
    <v>       0.25000000       0.50000000       0.00000000 </v>
    <v>       0.75000000       0.50000000       0.00000000 </v>
    <v>       0.25000000       0.00000000       0.50000000 </v>
    <v>       0.75000000       0.00000000       0.50000000 </v>
    <v>       0.25000000       0.50000000       0.50000000 </v>
    <v>       0.75000000       0.50000000       0.50000000 </v>
    <v>       0.00000000       0.25000000       0.00000000 </v>
    <v>       0.50000000       0.25000000       0.00000000 </v>
    <v>       0.00000000       0.75000000       0.00000000 </v>
    <v>       0.50000000       0.75000000       0.00000000 </v>
    <v>       0.00000000       0.25000000       0.50000000 </v>
    <v>       0.50000000       0.25000000       0.50000000 </v>
    <v>       0.00000000       0.75000000       0.50000000 </v>
    <v>       0.50000000       0.75000000       0.50000000 </v>
    <v>       0.00000000       0.00000000       0.25000000 </v>
    <v>       0.50000000       0.00000000       0.25000000 </v>
    <v>       0.00000000       0.50000000       0.25000000 </v>
    <v>       0.50000000       0.50000000       0.25000000 </v>
    <v>       0.00000000       0.00000000       0.75000000 </v>
    <v>       0.50000000       0.00000000       0.75000000 </v>
    <v>       0.00000000       0.50000000       0.75000000 </v>
    <v>       0.50000000       0.50000000       0.75000000 </v>
    <v>       0.37500000       0.37500000       0.37500000 </v>
    <v>       0.87500000       0.37500000       0.37500000 </v>
    <v>       0.37500000       0.87500000       0.37500000 </v>
    <v>       0.87500000       0.87500000       0.37500000 </v>
    <v>       0.37500000       0.37500000       0.87500000 </v>
    <v>       0.87500000       0.37500000       0.87500000 </v>
    <v>       0.37500000       0.87500000       0.87500000 </v>
    <v>       0.87500000       0.87500000       0.87500000 </v>
    <v>       0.37500000       0.12500000       0.12500000 </v>
    <v>       0.87500000       0.12500000       0.12500000 </v>
    <v>       0.37500000       0.62500000       0.12500000 </v>
    <v>       0.87500000       0.62500000       0.12500000 </v>
    <v>       0.37500000       0.12500000       0.62500000 </v>
    <v>       0.87500000       0.12500000       0.62500000 </v>
    <v>       0.37500000       0.62500000       0.62500000 </v>
    <v>       0.87500000       0.62500000       0.62500000 </v>
    <v>       0.12500000       0.37500000       0.12500000 </v>
    <v>       0.62500000       0.37500000       0.12500000 </v>
    <v>       0.12500000       0.87500000       0.12500000 </v>
    <v>       0.62500000       0.87500000       0.12500000 </v>
    <v>       0.12500000       0.37500000       0.62500000 </v>
    <v>       0.62500000       0.37500000       0.62500000 </v>
    <v>       0.12500000       0.87500000       0.62500000 </v>
    <v>       0.62500000       0.87500000       0.62500000 </v>
    <v>       0.12500000       0.12500000       0.37500000 </v>
    <v>       0.62500000       0.12500000       0.37500000 </v>
    <v>       0.12500000       0.62500000       0.37500000 </v>
    <v>       0.62500000       0.62500000       0.37500000 </v>
    <v>       0.12500000       0.12500000       0.87500000 </v>
    <v>       0.62500000       0.12500000       0.87500000 </v>
    <v>       0.12500000       0.62500000       0.87500000 </v>
    <v>       0.62500000       0.62500000       0.87500000 </v>
   </varray>
  </structure>
  <varray name="forces" >
   <v>      -0.13116859       0.00188462       0.00185882 </v>
   <v>       0.00025670       0.00032615      -0.00060101 </v>
   <v>       0.00142131       0.00186131      -0.00185223 </v>
   <v>       0.00012659       0.00032627       0.00060405 </v>
   <v>      -0.00047390       0.00187633      -0.00186498 </v>
   <v>      -0.00002856       0.00032554       0.00060074 </v>
   <v>      -0.00487114       0.00186070       0.00185020 </v>
   <v>       0.00015025       0.00032777      -0.00060464 </v>
   <v>      -0.00427690      -0.13116931       0.00095499 </v>
   <v>      -0.00003893       0.00055520       0.00007700 </v>
   <v>      -0.00426657       0.00112247      -0.00094054 </v>
   <v>      -0.00003556       0.00012598      -0.00007456 </v>
   <v>      -0.00426720      -0.00046216       0.00094095 </v>
   <v>      -0.00003632      -0.00400561       0.00007708 </v>
   <v>      -0.00427751      -0.00090542      -0.00095389 </v>
   <v>      -0.00003866       0.00015076      -0.00007669 </v>
   <v>      -0.00000615       0.00093364       0.00089790 </v>
   <v>       0.00374808       0.00092170      -0.00091980 </v>
   <v>       0.00217622       0.00178273      -0.00154313 </v>
   <v>      -0.00152495       0.00178455       0.00154650 </v>
   <v>       0.00246183       0.00126936      -0.00192987 </v>
   <v>       0.00127648       0.00128135       0.00194156 </v>
   <v>      -0.00027816       0.00040445       0.00052649 </v>
   <v>       0.00093098       0.00040515      -0.00052556 </v>
   <v>       0.00091800      -0.00241606      -0.00000206 </v>
   <v>       0.00092230      -0.00614565      -0.00190989 </v>
   <v>       0.00178247      -0.00188903       0.00102041 </v>
   <v>       0.00180054       0.00182675       0.00087734 </v>
   <v>       0.00127987      -0.00488159       0.00087635 </v>
   <v>       0.00126961      -0.00366373      -0.00101863 </v>
   <v>       0.00040279       0.00056599       0.00015343 </v>
   <v>       0.00040515      -0.00063773      -0.00000061 </v>
   <v>       0.03223191       0.02322331       0.02321707 </v>
   <v>      -0.00035801       0.00016446       0.00061016 </v>
   <v>      -0.00092505      -0.00016781       0.00074479 </v>
   <v>      -0.00003477       0.00229160       0.00050270 </v>
   <v>      -0.00085593       0.00031859       0.00068416 </v>
   <v>       0.00000260       0.00047492       0.00046820 </v>
   <v>      -0.02031408       0.03243215       0.02265841 </v>
   <v>      -0.00051700      -0.00024076       0.00068098 </v>
   <v>       0.05548562       0.00947226       0.00001287 </v>
   <v>       0.00025473      -0.00085838       0.00006596 </v>
   <v>      -0.00017491      -0.00043129      -0.00006455 </v>
   <v>       0.00043088       0.00000681      -0.00000055 </v>
   <v>      -0.00010820      -0.00092334      -0.00000090 </v>
   <v>       0.00047210       0.00183684       0.00004026 </v>
   <v>       0.00233923      -0.00003377      -0.00004338 </v>
   <v>       0.00009327      -0.00044664      -0.00000102 </v>
   <v>       0.03251936      -0.02248827       0.02205970 </v>
   <v>       0.00012805      -0.00011732       0.00008675 </v>
   <v>       0.02188665       0.03184210      -0.02198953 </v>
   <v>       0.00056375      -0.00072635      -0.00015190 </v>
   <v>      -0.00025675      -0.00018515       0.00012191 </v>
   <v>       0.00049471      -0.00043365      -0.00005376 </v>
   <v>       0.00248718      -0.00076422      -0.00008760 </v>
   <v>       0.00007492       0.00180781       0.00001696 </v>
   <v>       0.03177298       0.02188143      -0.02274330 </v>
   <v>      -0.00034015       0.00242814      -0.00059326 </v>
   <v>      -0.00076250       0.00055807      -0.00062306 </v>
   <v>      -0.00004518       0.00003969      -0.00052655 </v>
   <v>      -0.02351572       0.03290113      -0.02333955 </v>
   <v>      -0.00011772      -0.00025997      -0.00062295 </v>
   <v>       0.00173601       0.00016514      -0.00059340 </v>
   <v>      -0.00038805       0.00048997      -0.00052135 </v>
  </varray>
  <varray name="stress" >
   <v>      -0.03099068      -0.00000765       0.12330845 </v>
   <v>      -0.00000763      -0.03099881       0.12324460 </v>
   <v>       0.12330844       0.12324462      -0.02870514 </v>
  </varray>
  <energy>
   <i name="e_fr_energy">   -367.49987895 </i>
   <i name="e_wo_entrp">   -367.49987895 </i>
   <i name="e_0_energy">   -367.49987895 </i>
  </energy>
  <time name="totalsc">   42.06   42.28</time>
  <eigenvalues>
   <array>
    <dimension dim="1">band</dimension>
    <dimension dim="2">kpoint</dimension>
    <dimension dim="3">spin</dimension>
    <field>eigene</field>
    <field>occ</field>
    <set>
     <set comment="spin 1">
      <set comment="kpoint 1">
       <r>   -6.2055    1.0000 </r>
       <r>   -5.1241    1.0000 </r>
       <r>   -5.1225    1.0000 </r>
       <r>   -5.1214    1.0000 </r>
       <r>   -5.1208    1.0000 </r>
       <r>   -5.1197    1.0000 </r>
       <r>   -5.1192    1.0000 </r>
       <r>   -4.1610    1.0000 </r>
       <r>   -4.1579    1.0000 </r>
       <r>   -4.1566    1.0000 </r>
       <r>   -4.1553    1.0000 </r>
       <r>   -4.1552    1.0000 </r>
       <r>   -4.1551    1.0000 </r>
       <r>   -4.1549    1.0000 </r>
       <r>   -4.1548    1.0000 </r>
       <r>   -4.1540    1.0000 </r>
       <r>   -4.1535    1.0000 </r>
       <r>   -4.1519    1.0000 </r>
       <r>   -4.1504    1.0000 </r>
       <r>   -3.8624    1.0000 </r>
       <r>   -3.8606    1.0000 </r>
       <r>   -3.8606    1.0000 </r>
       <r>   -3.8588    1.0000 </r>
       <r>   -2.0543    1.0000 </r>
       <r>   -2.0541    1.0000 </r>
       <r>   -2.0520    1.0000 </r>
       <r>   -2.0519    1.0000 </r>
       <r>   -2.0499    1.0000 </r>
       <r>   -2.0496    1.0000 </r>
       <r>   -1.8871    1.0000 </r>
       <r>   -1.8860    1.0000 </r>
       <r>   -1.8858    1.0000 </r>
       <r>   -1.8831    1.0000 </r>
       <r>   -1.8827    1.0000 </r>
       <r>   -1.8827    1.0000 </r>
       <r>   -1.8824    1.0000 </r>
       <r>   -1.8824    1.0000 </r>
       <r>   -1.8814    1.0000 </r>
       <r>   -1.8808    1.0000 </r>
       <r>   -1.8791    1.0000 </r>
       <r>   -1.8788    1.0000 </r>
       <r>   -1.2365    1.0000 </r>
       <r>   -1.2347    1.0000 </r>
       <r>   -1.2347    1.0000 </r>
       <r>   -1.2328    1.0000 </r>
       <r>    0.2778    1.0000 </r>
       <r>    0.2783    1.0000 </r>
       <r>    0.2797    1.0000 </r>
       <r>    0.2816    1.0000 </r>
       <r>    0.2818    1.0000 </r>
       <r>    0.2820    1.0000 </r>
       <r>    0.2820    1.0000 </r>
       <r>    0.2822    1.0000 </r>
       <r>    0.2823    1.0000 </r>
       <r>    0.2840    1.0000 </r>
       <r>    0.2853    1.0000 </r>
       <r>    0.2864    1.0000 </r>
       <r>    1.8678    1.0000 </r>
       <r>    1.8693    1.0000 </r>
       <r>    1.8704    1.0000 </r>
       <r>    1.8706    1.0000 </r>
       <r>    1.8709    1.0000 </r>
       <r>    1.8714    1.0000 </r>
       <r>    1.8715    1.0000 </r>
       <r>    1.8716    1.0000 </r>
       <r>    1.8717    1.0000 </r>
       <r>    1.8718    1.0000 </r>
       <r>    1.8733    1.0000 </r>
       <r>    1.8739    1.0000 </r>
       <r>    1.9707    1.0000 </r>
       <r>    1.9707    1.0000 </r>
       <r>    1.9713    1.0000 </r>
       <r>    1.9727    1.0000 </r>
       <r>    1.9729    1.0000 </r>
       <r>    1.9733    1.0000 </r>
       <r>    1.9735    1.0000 </r>
       <r>    1.9740    1.0000 </r>
       <r>    1.9745    1.0000 </r>
       <r>    1.9749    1.0000 </r>
       <r>    1.9751    1.0000 </r>
       <r>    1.9760    1.0000 </r>
       <r>    2.2492    1.0000 </r>
       <r>    2.2500    1.0000 </r>
       <r>    2.2509    1.0000 </r>
       <r>    2.2520    1.0000 </r>
       <r>    2.2530    1.0000 </r>
       <r>    2.2534    1.0000 </r>
       <r>    2.9008    1.0000 </r>
       <r>    2.9008    1.0000 </r>
       <r>    2.9017    1.0000 </r>
       <r>    2.9017    1.0000 </r>
       <r>    2.9026    1.0000 </r>
       <r>    2.9026    1.0000 </r>
       <r>    3.8624    1.0000 </r>
       <r>    3.8642    1.0000 </r>
       <r>    3.8656    1.0000 </r>
       <r>    3.8663    1.0000 </r>
       <r>    3.8667    1.0000 </r>
       <r>    3.8667    1.0000 </r>
       <r>    3.8667    1.0000 </r>
       <r>    3.8669    1.0000 </r>
       <r>    3.8673    1.0000 </r>
       <r>    3.8674    1.0000 </r>
       <r>    3.8692    1.0000 </r>
       <r>    3.8706    1.0000 </r>
       <r>    4.4325    1.0000 </r>
       <r>    4.4345    1.0000 </r>
       <r>    4.4356    1.0000 </r>
       <r>    4.4362    1.0000 </r>
       <r>    4.4364    1.0000 </r>
       <r>    4.4370    1.0000 </r>
       <r>    4.4373    1.0000 </r>
       <r>    4.4375    1.0000 </r>
       <r>    4.4379    1.0000 </r>
       <r>    4.4387    1.0000 </r>
       <r>    4.4395    1.0000 </r>
       <r>    4.4410    1.0000 </r>
       <r>    4.5667    1.0000 </r>
       <r>    4.5679    1.0000 </r>
       <r>    4.5691    1.0000 </r>
       <r>    4.5697    1.0000 </r>
       <r>    4.5700    1.0000 </r>
       <r>    4.5705    1.0000 </r>
       <r>    4.5718    1.0000 </r>
       <r>    4.5732    1.0000 </r>
       <r>    5.7698    1.0000 </r>
       <r>    5.7720    1.0000 </r>
       <r>    5.7741    1.0000 </r>
       <r>    6.3636    0.0000 </r>
       <r>    6.3648    0.0000 </r>
       <r>    6.3658    0.0000 </r>
       <r>    6.3658    0.0000 </r>
       <r>    6.3667    0.0000 </r>
       <r>    6.3679    0.0000 </r>
       <r>    6.8062    0.0000 </r>
       <r>    6.8072    0.0000 </r>
       <r>    6.8077    0.0000 </r>
       <r>    6.8084    0.0000 </r>
       <r>    6.8094    0.0000 </r>
       <r>    6.8096    0.0000 </r>
       <r>    7.2316    0.0000 </r>
       <r>    7.2320    0.0000 </r>
       <r>    7.2320    0.0000 </r>
       <r>    7.2324    0.0000 </r>
       <r>    8.1350    0.0000 </r>
       <r>    8.1354    0.0000 </r>
       <r>    8.1358    0.0000 </r>
       <r>    8.1369    0.0000 </r>
       <r>    8.1376    0.0000 </r>
       <r>    8.1379    0.0000 </r>
       <r>    8.1380    0.0000 </r>
       <r>    8.1382    0.0000 </r>
       <r>    8.1387    0.0000 </r>
       <r>    8.1398    0.0000 </r>
       <r>    8.1405    0.0000 </r>
       <r>    8.1413    0.0000 </r>
       <r>    8.2877    0.0000 </r>
       <r>    8.2889    0.0000 </r>
       <r>    8.2902    0.0000 </r>
       <r>    8.7967    0.0000 </r>
       <r>    8.7967    0.0000 </r>
       <r>    8.7979    0.0000 </r>
       <r>    8.7979    0.0000 </r>
       <r>    8.7991    0.0000 </r>
       <r>    8.7992    0.0000 </r>
       <r>    9.0487    0.0000 </r>
       <r>    9.0506    0.0000 </r>
       <r>    9.0525    0.0000 </r>
      </set>
      <set comment="kpoint 2">
       <r>   -5.9327    1.0000 </r>
       <r>   -5.9313    1.0000 </r>
       <r>   -4.8768    1.0000 </r>
       <r>   -4.8741    1.0000 </r>
       <r>   -4.8728    1.0000 </r>
       <r>   -4.8727    1.0000 </r>
       <r>   -4.8727    1.0000 </r>
       <r>   -4.8716    1.0000 </r>
       <r>   -4.8712    1.0000 </r>
       <r>   -4.8701    1.0000 </r>
       <r>   -4.0264    1.0000 </r>
       <r>   -4.0232    1.0000 </r>
       <r>   -4.0229    1.0000 </r>
       <r>   -4.0229    1.0000 </r>
       <r>   -4.0225    1.0000 </r>
       <r>   -4.0225    1.0000 </r>
       <r>   -4.0222    1.0000 </r>
       <r>   -4.0191    1.0000 </r>
       <r>   -3.8068    1.0000 </r>
       <r>   -3.8045    1.0000 </r>
       <r>   -3.0807    1.0000 </r>
       <r>   -3.0782    1.0000 </r>
       <r>   -3.0769    1.0000 </r>
       <r>   -3.0763    1.0000 </r>
       <r>   -3.0761    1.0000 </r>
       <r>   -3.0753    1.0000 </r>
       <r>   -3.0748    1.0000 </r>
       <r>   -3.0728    1.0000 </r>
       <r>   -1.9752    1.0000 </r>
       <r>   -1.9717    1.0000 </r>
       <r>   -1.9716    1.0000 </r>
       <r>   -1.9715    1.0000 </r>
       <r>   -1.9715    1.0000 </r>
       <r>   -1.9713    1.0000 </r>
       <r>   -1.9712    1.0000 </r>
       <r>   -1.9677    1.0000 </r>
       <r>   -0.8061    1.0000 </r>
       <r>   -0.8056    1.0000 </r>
       <r>   -0.8040    1.0000 </r>
       <r>   -0.8029    1.0000 </r>
       <r>   -0.8026    1.0000 </r>
       <r>   -0.8018    1.0000 </r>
       <r>   -0.8015    1.0000 </r>
       <r>   -0.7996    1.0000 </r>
       <r>   -0.6374    1.0000 </r>
       <r>   -0.6350    1.0000 </r>
       <r>   -0.6347    1.0000 </r>
       <r>   -0.6343    1.0000 </r>
       <r>   -0.6336    1.0000 </r>
       <r>   -0.6332    1.0000 </r>
       <r>   -0.6329    1.0000 </r>
       <r>   -0.6304    1.0000 </r>
       <r>    0.0225    1.0000 </r>
       <r>    0.0240    1.0000 </r>
       <r>    1.4705    1.0000 </r>
       <r>    1.4721    1.0000 </r>
       <r>    1.4735    1.0000 </r>
       <r>    1.4741    1.0000 </r>
       <r>    1.4744    1.0000 </r>
       <r>    1.4752    1.0000 </r>
       <r>    1.4766    1.0000 </r>
       <r>    1.4769    1.0000 </r>
       <r>    1.4911    1.0000 </r>
       <r>    1.4923    1.0000 </r>
       <r>    1.4929    1.0000 </r>
       <r>    1.4934    1.0000 </r>
       <r>    1.4938    1.0000 </r>
       <r>    1.4942    1.0000 </r>
       <r>    1.4946    1.0000 </r>
       <r>    1.4953    1.0000 </r>
       <r>    2.3166    1.0000 </r>
       <r>    2.3172    1.0000 </r>
       <r>    2.3176    1.0000 </r>
       <r>    2.3179    1.0000 </r>
       <r>    2.3182    1.0000 </r>
       <r>    2.3185    1.0000 </r>
       <r>    2.3189    1.0000 </r>
       <r>    2.3195    1.0000 </r>
       <r>    3.0221    1.0000 </r>
       <r>    3.0236    1.0000 </r>
       <r>    3.0245    1.0000 </r>
       <r>    3.0248    1.0000 </r>
       <r>    3.0251    1.0000 </r>
       <r>    3.0254    1.0000 </r>
       <r>    3.0256    1.0000 </r>
       <r>    3.0272    1.0000 </r>
       <r>    3.1465    1.0000 </r>
       <r>    3.1477    1.0000 </r>
       <r>    3.1484    1.0000 </r>
       <r>    3.1494    1.0000 </r>
       <r>    3.1569    1.0000 </r>
       <r>    3.1578    1.0000 </r>
       <r>    3.1586    1.0000 </r>
       <r>    3.1590    1.0000 </r>
       <r>    3.1593    1.0000 </r>
       <r>    3.1602    1.0000 </r>
       <r>    3.1606    1.0000 </r>
       <r>    3.1615    1.0000 </r>
       <r>    3.2834    1.0000 </r>
       <r>    3.2845    1.0000 </r>
       <r>    3.2850    1.0000 </r>
       <r>    3.2856    1.0000 </r>
       <r>    3.2859    1.0000 </r>
       <r>    3.2865    1.0000 </r>
       <r>    3.2870    1.0000 </r>
       <r>    3.2882    1.0000 </r>
       <r>    4.3289    1.0000 </r>
       <r>    4.3307    1.0000 </r>
       <r>    4.3311    1.0000 </r>
       <r>    4.3316    1.0000 </r>
       <r>    4.3319    1.0000 </r>
       <r>    4.3322    1.0000 </r>
       <r>    4.3335    1.0000 </r>
       <r>    4.3345    1.0000 </r>
       <r>    4.4329    1.0000 </r>
       <r>    4.4330    1.0000 </r>
       <r>    4.4964    1.0000 </r>
       <r>    4.5003    1.0000 </r>
       <r>    4.5008    1.0000 </r>
       <r>    4.5009    1.0000 </r>
       <r>    4.5009    1.0000 </r>
       <r>    4.5010    1.0000 </r>
       <r>    4.5014    1.0000 </r>
       <r>    4.5055    1.0000 </r>
       <r>    4.9528    1.0000 </r>
       <r>    4.9547    1.0000 </r>
       <r>    4.9557    1.0000 </r>
       <r>    4.9577    1.0000 </r>
       <r>    6.2790    0.0000 </r>
       <r>    6.2804    0.0000 </r>
       <r>    7.1933    0.0000 </r>
       <r>    7.1946    0.0000 </r>
       <r>    7.6431    0.0000 </r>
       <r>    7.6447    0.0000 </r>
       <r>    7.6454    0.0000 </r>
       <r>    7.6458    0.0000 </r>
       <r>    7.6459    0.0000 </r>
       <r>    7.6463    0.0000 </r>
       <r>    7.6471    0.0000 </r>
       <r>    7.6486    0.0000 </r>
       <r>    7.7139    0.0000 </r>
       <r>    7.7144    0.0000 </r>
       <r>    8.0571    0.0000 </r>
       <r>    8.0590    0.0000 </r>
       <r>    8.0594    0.0000 </r>
       <r>    8.0597    0.0000 </r>
       <r>    8.0598    0.0000 </r>
       <r>    8.0601    0.0000 </r>
       <r>    8.0604    0.0000 </r>
       <r>    8.0621    0.0000 </r>
       <r>    8.1430    0.0000 </r>
       <r>    8.1441    0.0000 </r>
       <r>    8.1453    0.0000 </r>
       <r>    8.1457    0.0000 </r>
       <r>    8.1461    0.0000 </r>
       <r>    8.1465    0.0000 </r>
       <r>    8.1468    0.0000 </r>
       <r>    8.1477    0.0000 </r>
       <r>    8.5506    0.0000 </r>
       <r>    8.5515    0.0000 </r>
       <r>    8.5519    0.0000 </r>
       <r>    8.5522    0.0000 </r>
       <r>    8.5532    0.0000 </r>
       <r>    8.5536    0.0000 </r>
       <r>    8.5545    0.0000 </r>
       <r>    8.5549    0.0000 </r>
       <r>    9.3197    0.0000 </r>
       <r>    9.3247    0.0000 </r>
      </set>
      <set comment="kpoint 3">
       <r>   -5.9327    1.0000 </r>
       <r>   -5.9313    1.0000 </r>
       <r>   -4.8767    1.0000 </r>
       <r>   -4.8745    1.0000 </r>
       <r>   -4.8734    1.0000 </r>
       <r>   -4.8727    1.0000 </r>
       <r>   -4.8723    1.0000 </r>
       <r>   -4.8720    1.0000 </r>
       <r>   -4.8707    1.0000 </r>
       <r>   -4.8697    1.0000 </r>
       <r>   -4.0264    1.0000 </r>
       <r>   -4.0243    1.0000 </r>
       <r>   -4.0230    1.0000 </r>
       <r>   -4.0227    1.0000 </r>
       <r>   -4.0224    1.0000 </r>
       <r>   -4.0217    1.0000 </r>
       <r>   -4.0208    1.0000 </r>
       <r>   -4.0203    1.0000 </r>
       <r>   -3.8068    1.0000 </r>
       <r>   -3.8045    1.0000 </r>
       <r>   -3.0803    1.0000 </r>
       <r>   -3.0784    1.0000 </r>
       <r>   -3.0778    1.0000 </r>
       <r>   -3.0764    1.0000 </r>
       <r>   -3.0762    1.0000 </r>
       <r>   -3.0752    1.0000 </r>
       <r>   -3.0743    1.0000 </r>
       <r>   -3.0725    1.0000 </r>
       <r>   -1.9754    1.0000 </r>
       <r>   -1.9725    1.0000 </r>
       <r>   -1.9717    1.0000 </r>
       <r>   -1.9714    1.0000 </r>
       <r>   -1.9713    1.0000 </r>
       <r>   -1.9712    1.0000 </r>
       <r>   -1.9693    1.0000 </r>
       <r>   -1.9689    1.0000 </r>
       <r>   -0.8062    1.0000 </r>
       <r>   -0.8056    1.0000 </r>
       <r>   -0.8040    1.0000 </r>
       <r>   -0.8032    1.0000 </r>
       <r>   -0.8023    1.0000 </r>
       <r>   -0.8021    1.0000 </r>
       <r>   -0.8011    1.0000 </r>
       <r>   -0.7996    1.0000 </r>
       <r>   -0.6370    1.0000 </r>
       <r>   -0.6360    1.0000 </r>
       <r>   -0.6348    1.0000 </r>
       <r>   -0.6340    1.0000 </r>
       <r>   -0.6336    1.0000 </r>
       <r>   -0.6332    1.0000 </r>
       <r>   -0.6322    1.0000 </r>
       <r>   -0.6308    1.0000 </r>
       <r>    0.0225    1.0000 </r>
       <r>    0.0239    1.0000 </r>
       <r>    1.4713    1.0000 </r>
       <r>    1.4719    1.0000 </r>
       <r>    1.4731    1.0000 </r>
       <r>    1.4741    1.0000 </r>
       <r>    1.4743    1.0000 </r>
       <r>    1.4750    1.0000 </r>
       <r>    1.4760    1.0000 </r>
       <r>    1.4776    1.0000 </r>
       <r>    1.4913    1.0000 </r>
       <r>    1.4921    1.0000 </r>
       <r>    1.4929    1.0000 </r>
       <r>    1.4933    1.0000 </r>
       <r>    1.4937    1.0000 </r>
       <r>    1.4938    1.0000 </r>
       <r>    1.4947    1.0000 </r>
       <r>    1.4955    1.0000 </r>
       <r>    2.3167    1.0000 </r>
       <r>    2.3170    1.0000 </r>
       <r>    2.3176    1.0000 </r>
       <r>    2.3180    1.0000 </r>
       <r>    2.3184    1.0000 </r>
       <r>    2.3185    1.0000 </r>
       <r>    2.3191    1.0000 </r>
       <r>    2.3192    1.0000 </r>
       <r>    3.0222    1.0000 </r>
       <r>    3.0236    1.0000 </r>
       <r>    3.0242    1.0000 </r>
       <r>    3.0245    1.0000 </r>
       <r>    3.0252    1.0000 </r>
       <r>    3.0254    1.0000 </r>
       <r>    3.0260    1.0000 </r>
       <r>    3.0273    1.0000 </r>
       <r>    3.1465    1.0000 </r>
       <r>    3.1477    1.0000 </r>
       <r>    3.1484    1.0000 </r>
       <r>    3.1494    1.0000 </r>
       <r>    3.1572    1.0000 </r>
       <r>    3.1573    1.0000 </r>
       <r>    3.1584    1.0000 </r>
       <r>    3.1591    1.0000 </r>
       <r>    3.1593    1.0000 </r>
       <r>    3.1597    1.0000 </r>
       <r>    3.1613    1.0000 </r>
       <r>    3.1616    1.0000 </r>
       <r>    3.2833    1.0000 </r>
       <r>    3.2844    1.0000 </r>
       <r>    3.2852    1.0000 </r>
       <r>    3.2856    1.0000 </r>
       <r>    3.2860    1.0000 </r>
       <r>    3.2865    1.0000 </r>
       <r>    3.2871    1.0000 </r>
       <r>    3.2880    1.0000 </r>
       <r>    4.3288    1.0000 </r>
       <r>    4.3307    1.0000 </r>
       <r>    4.3311    1.0000 </r>
       <r>    4.3318    1.0000 </r>
       <r>    4.3320    1.0000 </r>
       <r>    4.3326    1.0000 </r>
       <r>    4.3330    1.0000 </r>
       <r>    4.3346    1.0000 </r>
       <r>    4.4329    1.0000 </r>
       <r>    4.4330    1.0000 </r>
       <r>    4.4963    1.0000 </r>
       <r>    4.4998    1.0000 </r>
       <r>    4.5006    1.0000 </r>
       <r>    4.5009    1.0000 </r>
       <r>    4.5010    1.0000 </r>
       <r>    4.5016    1.0000 </r>
       <r>    4.5021    1.0000 </r>
       <r>    4.5052    1.0000 </r>
       <r>    4.9528    1.0000 </r>
       <r>    4.9547    1.0000 </r>
       <r>    4.9557    1.0000 </r>
       <r>    4.9576    1.0000 </r>
       <r>    6.2790    0.0000 </r>
       <r>    6.2804    0.0000 </r>
       <r>    7.1933    0.0000 </r>
       <r>    7.1946    0.0000 </r>
       <r>    7.6433    0.0000 </r>
       <r>    7.6449    0.0000 </r>
       <r>    7.6450    0.0000 </r>
       <r>    7.6454    0.0000 </r>
       <r>    7.6456    0.0000 </r>
       <r>    7.6468    0.0000 </r>
       <r>    7.6473    0.0000 </r>
       <r>    7.6485    0.0000 </r>
       <r>    7.7139    0.0000 </r>
       <r>    7.7144    0.0000 </r>
       <r>    8.0571    0.0000 </r>
       <r>    8.0590    0.0000 </r>
       <r>    8.0591    0.0000 </r>
       <r>    8.0597    0.0000 </r>
       <r>    8.0598    0.0000 </r>
       <r>    8.0601    0.0000 </r>
       <r>    8.0604    0.0000 </r>
       <r>    8.0622    0.0000 </r>
       <r>    8.1438    0.0000 </r>
       <r>    8.1443    0.0000 </r>
       <r>    8.1446    0.0000 </r>
       <r>    8.1455    0.0000 </r>
       <r>    8.1458    0.0000 </r>
       <r>    8.1467    0.0000 </r>
       <r>    8.1470    0.0000 </r>
       <r>    8.1475    0.0000 </r>
       <r>    8.5505    0.0000 </r>
       <r>    8.5515    0.0000 </r>
       <r>    8.5516    0.0000 </r>
       <r>    8.5527    0.0000 </r>
       <r>    8.5531    0.0000 </r>
       <r>    8.5536    0.0000 </r>
       <r>    8.5540    0.0000 </r>
       <r>    8.5552    0.0000 </r>
       <r>    9.3205    0.0000 </r>
       <r>    9.3224    0.0000 </r>
      </set>
      <set comment="kpoint 4">
       <r>   -5.9320    1.0000 </r>
       <r>   -5.9320    1.0000 </r>
       <r>   -4.8774    1.0000 </r>
       <r>   -4.8740    1.0000 </r>
       <r>   -4.8735    1.0000 </r>
       <r>   -4.8728    1.0000 </r>
       <r>   -4.8722    1.0000 </r>
       <r>   -4.8721    1.0000 </r>
       <r>   -4.8701    1.0000 </r>
       <r>   -4.8699    1.0000 </r>
       <r>   -4.0269    1.0000 </r>
       <r>   -4.0243    1.0000 </r>
       <r>   -4.0236    1.0000 </r>
       <r>   -4.0230    1.0000 </r>
       <r>   -4.0224    1.0000 </r>
       <r>   -4.0218    1.0000 </r>
       <r>   -4.0211    1.0000 </r>
       <r>   -4.0186    1.0000 </r>
       <r>   -3.8057    1.0000 </r>
       <r>   -3.8057    1.0000 </r>
       <r>   -3.0792    1.0000 </r>
       <r>   -3.0783    1.0000 </r>
       <r>   -3.0771    1.0000 </r>
       <r>   -3.0764    1.0000 </r>
       <r>   -3.0757    1.0000 </r>
       <r>   -3.0755    1.0000 </r>
       <r>   -3.0746    1.0000 </r>
       <r>   -3.0742    1.0000 </r>
       <r>   -1.9751    1.0000 </r>
       <r>   -1.9738    1.0000 </r>
       <r>   -1.9716    1.0000 </r>
       <r>   -1.9715    1.0000 </r>
       <r>   -1.9714    1.0000 </r>
       <r>   -1.9714    1.0000 </r>
       <r>   -1.9692    1.0000 </r>
       <r>   -1.9678    1.0000 </r>
       <r>   -0.8065    1.0000 </r>
       <r>   -0.8049    1.0000 </r>
       <r>   -0.8044    1.0000 </r>
       <r>   -0.8030    1.0000 </r>
       <r>   -0.8022    1.0000 </r>
       <r>   -0.8016    1.0000 </r>
       <r>   -0.8012    1.0000 </r>
       <r>   -0.8005    1.0000 </r>
       <r>   -0.6373    1.0000 </r>
       <r>   -0.6354    1.0000 </r>
       <r>   -0.6347    1.0000 </r>
       <r>   -0.6340    1.0000 </r>
       <r>   -0.6340    1.0000 </r>
       <r>   -0.6333    1.0000 </r>
       <r>   -0.6325    1.0000 </r>
       <r>   -0.6305    1.0000 </r>
       <r>    0.0232    1.0000 </r>
       <r>    0.0232    1.0000 </r>
       <r>    1.4720    1.0000 </r>
       <r>    1.4723    1.0000 </r>
       <r>    1.4729    1.0000 </r>
       <r>    1.4737    1.0000 </r>
       <r>    1.4743    1.0000 </r>
       <r>    1.4754    1.0000 </r>
       <r>    1.4759    1.0000 </r>
       <r>    1.4772    1.0000 </r>
       <r>    1.4918    1.0000 </r>
       <r>    1.4926    1.0000 </r>
       <r>    1.4929    1.0000 </r>
       <r>    1.4931    1.0000 </r>
       <r>    1.4935    1.0000 </r>
       <r>    1.4938    1.0000 </r>
       <r>    1.4942    1.0000 </r>
       <r>    1.4951    1.0000 </r>
       <r>    2.3162    1.0000 </r>
       <r>    2.3172    1.0000 </r>
       <r>    2.3176    1.0000 </r>
       <r>    2.3179    1.0000 </r>
       <r>    2.3182    1.0000 </r>
       <r>    2.3185    1.0000 </r>
       <r>    2.3189    1.0000 </r>
       <r>    2.3198    1.0000 </r>
       <r>    3.0234    1.0000 </r>
       <r>    3.0240    1.0000 </r>
       <r>    3.0243    1.0000 </r>
       <r>    3.0246    1.0000 </r>
       <r>    3.0248    1.0000 </r>
       <r>    3.0250    1.0000 </r>
       <r>    3.0260    1.0000 </r>
       <r>    3.0263    1.0000 </r>
       <r>    3.1479    1.0000 </r>
       <r>    3.1480    1.0000 </r>
       <r>    3.1481    1.0000 </r>
       <r>    3.1481    1.0000 </r>
       <r>    3.1569    1.0000 </r>
       <r>    3.1574    1.0000 </r>
       <r>    3.1589    1.0000 </r>
       <r>    3.1592    1.0000 </r>
       <r>    3.1596    1.0000 </r>
       <r>    3.1601    1.0000 </r>
       <r>    3.1606    1.0000 </r>
       <r>    3.1610    1.0000 </r>
       <r>    3.2830    1.0000 </r>
       <r>    3.2840    1.0000 </r>
       <r>    3.2848    1.0000 </r>
       <r>    3.2857    1.0000 </r>
       <r>    3.2857    1.0000 </r>
       <r>    3.2867    1.0000 </r>
       <r>    3.2876    1.0000 </r>
       <r>    3.2886    1.0000 </r>
       <r>    4.3276    1.0000 </r>
       <r>    4.3300    1.0000 </r>
       <r>    4.3315    1.0000 </r>
       <r>    4.3319    1.0000 </r>
       <r>    4.3322    1.0000 </r>
       <r>    4.3327    1.0000 </r>
       <r>    4.3339    1.0000 </r>
       <r>    4.3345    1.0000 </r>
       <r>    4.4329    1.0000 </r>
       <r>    4.4329    1.0000 </r>
       <r>    4.4994    1.0000 </r>
       <r>    4.4998    1.0000 </r>
       <r>    4.5009    1.0000 </r>
       <r>    4.5009    1.0000 </r>
       <r>    4.5009    1.0000 </r>
       <r>    4.5012    1.0000 </r>
       <r>    4.5020    1.0000 </r>
       <r>    4.5025    1.0000 </r>
       <r>    4.9552    1.0000 </r>
       <r>    4.9552    1.0000 </r>
       <r>    4.9552    1.0000 </r>
       <r>    4.9552    1.0000 </r>
       <r>    6.2797    0.0000 </r>
       <r>    6.2797    0.0000 </r>
       <r>    7.1939    0.0000 </r>
       <r>    7.1939    0.0000 </r>
       <r>    7.6436    0.0000 </r>
       <r>    7.6446    0.0000 </r>
       <r>    7.6452    0.0000 </r>
       <r>    7.6458    0.0000 </r>
       <r>    7.6460    0.0000 </r>
       <r>    7.6466    0.0000 </r>
       <r>    7.6472    0.0000 </r>
       <r>    7.6481    0.0000 </r>
       <r>    7.7141    0.0000 </r>
       <r>    7.7141    0.0000 </r>
       <r>    8.0587    0.0000 </r>
       <r>    8.0590    0.0000 </r>
       <r>    8.0592    0.0000 </r>
       <r>    8.0597    0.0000 </r>
       <r>    8.0598    0.0000 </r>
       <r>    8.0601    0.0000 </r>
       <r>    8.0604    0.0000 </r>
       <r>    8.0606    0.0000 </r>
       <r>    8.1440    0.0000 </r>
       <r>    8.1444    0.0000 </r>
       <r>    8.1448    0.0000 </r>
       <r>    8.1451    0.0000 </r>
       <r>    8.1458    0.0000 </r>
       <r>    8.1465    0.0000 </r>
       <r>    8.1469    0.0000 </r>
       <r>    8.1480    0.0000 </r>
       <r>    8.5512    0.0000 </r>
       <r>    8.5515    0.0000 </r>
       <r>    8.5521    0.0000 </r>
       <r>    8.5524    0.0000 </r>
       <r>    8.5530    0.0000 </r>
       <r>    8.5535    0.0000 </r>
       <r>    8.5541    0.0000 </r>
       <r>    8.5546    0.0000 </r>
       <r>    9.3202    0.0000 </r>
       <r>    9.3240    0.0000 </r>
      </set>
      <set comment="kpoint 5">
       <r>   -5.6659    1.0000 </r>
       <r>   -5.6638    1.0000 </r>
       <r>   -5.6633    1.0000 </r>
       <r>   -5.6627    1.0000 </r>
       <r>   -4.6466    1.0000 </r>
       <r>   -4.6459    1.0000 </r>
       <r>   -4.6442    1.0000 </r>
       <r>   -4.6441    1.0000 </r>
       <r>   -4.6439    1.0000 </r>
       <r>   -4.6434    1.0000 </r>
       <r>   -4.6429    1.0000 </r>
       <r>   -4.6422    1.0000 </r>
       <r>   -3.6098    1.0000 </r>
       <r>   -3.6076    1.0000 </r>
       <r>   -3.6055    1.0000 </r>
       <r>   -3.6054    1.0000 </r>
       <r>   -3.6052    1.0000 </r>
       <r>   -3.6046    1.0000 </r>
       <r>   -3.6036    1.0000 </r>
       <r>   -3.6014    1.0000 </r>
       <r>   -3.3259    1.0000 </r>
       <r>   -3.3229    1.0000 </r>
       <r>   -3.3218    1.0000 </r>
       <r>   -3.3216    1.0000 </r>
       <r>   -3.3215    1.0000 </r>
       <r>   -3.3209    1.0000 </r>
       <r>   -3.3195    1.0000 </r>
       <r>   -3.3188    1.0000 </r>
       <r>   -2.4611    1.0000 </r>
       <r>   -2.4599    1.0000 </r>
       <r>   -2.4599    1.0000 </r>
       <r>   -2.4581    1.0000 </r>
       <r>   -1.4639    1.0000 </r>
       <r>   -1.4636    1.0000 </r>
       <r>   -1.4616    1.0000 </r>
       <r>   -1.4616    1.0000 </r>
       <r>   -1.0415    1.0000 </r>
       <r>   -1.0401    1.0000 </r>
       <r>   -1.0393    1.0000 </r>
       <r>   -1.0384    1.0000 </r>
       <r>   -1.0380    1.0000 </r>
       <r>   -1.0375    1.0000 </r>
       <r>   -1.0372    1.0000 </r>
       <r>   -1.0346    1.0000 </r>
       <r>   -0.1986    1.0000 </r>
       <r>   -0.1971    1.0000 </r>
       <r>   -0.1958    1.0000 </r>
       <r>   -0.1953    1.0000 </r>
       <r>   -0.1951    1.0000 </r>
       <r>   -0.1943    1.0000 </r>
       <r>   -0.1936    1.0000 </r>
       <r>   -0.1921    1.0000 </r>
       <r>    0.4622    1.0000 </r>
       <r>    0.4629    1.0000 </r>
       <r>    0.4640    1.0000 </r>
       <r>    0.4650    1.0000 </r>
       <r>    0.4651    1.0000 </r>
       <r>    0.4657    1.0000 </r>
       <r>    0.4671    1.0000 </r>
       <r>    0.4678    1.0000 </r>
       <r>    1.4163    1.0000 </r>
       <r>    1.4169    1.0000 </r>
       <r>    1.4174    1.0000 </r>
       <r>    1.4175    1.0000 </r>
       <r>    2.2858    1.0000 </r>
       <r>    2.2861    1.0000 </r>
       <r>    2.2868    1.0000 </r>
       <r>    2.2871    1.0000 </r>
       <r>    2.2875    1.0000 </r>
       <r>    2.2876    1.0000 </r>
       <r>    2.2882    1.0000 </r>
       <r>    2.2892    1.0000 </r>
       <r>    2.3704    1.0000 </r>
       <r>    2.3710    1.0000 </r>
       <r>    2.3718    1.0000 </r>
       <r>    2.3721    1.0000 </r>
       <r>    2.3724    1.0000 </r>
       <r>    2.3730    1.0000 </r>
       <r>    2.3732    1.0000 </r>
       <r>    2.3736    1.0000 </r>
       <r>    2.9818    1.0000 </r>
       <r>    2.9824    1.0000 </r>
       <r>    2.9827    1.0000 </r>
       <r>    2.9831    1.0000 </r>
       <r>    2.9832    1.0000 </r>
       <r>    2.9834    1.0000 </r>
       <r>    2.9842    1.0000 </r>
       <r>    2.9848    1.0000 </r>
       <r>    3.0761    1.0000 </r>
       <r>    3.0762    1.0000 </r>
       <r>    3.0773    1.0000 </r>
       <r>    3.0773    1.0000 </r>
       <r>    3.3306    1.0000 </r>
       <r>    3.3309    1.0000 </r>
       <r>    3.3314    1.0000 </r>
       <r>    3.3326    1.0000 </r>
       <r>    3.5886    1.0000 </r>
       <r>    3.5894    1.0000 </r>
       <r>    3.5909    1.0000 </r>
       <r>    3.5911    1.0000 </r>
       <r>    3.5912    1.0000 </r>
       <r>    3.5915    1.0000 </r>
       <r>    3.5925    1.0000 </r>
       <r>    3.5936    1.0000 </r>
       <r>    3.9148    1.0000 </r>
       <r>    3.9163    1.0000 </r>
       <r>    3.9179    1.0000 </r>
       <r>    3.9181    1.0000 </r>
       <r>    3.9185    1.0000 </r>
       <r>    3.9192    1.0000 </r>
       <r>    3.9197    1.0000 </r>
       <r>    3.9212    1.0000 </r>
       <r>    4.1179    1.0000 </r>
       <r>    4.1184    1.0000 </r>
       <r>    4.1185    1.0000 </r>
       <r>    4.1189    1.0000 </r>
       <r>    4.1729    1.0000 </r>
       <r>    4.1734    1.0000 </r>
       <r>    4.1739    1.0000 </r>
       <r>    4.1740    1.0000 </r>
       <r>    4.1742    1.0000 </r>
       <r>    4.1744    1.0000 </r>
       <r>    4.1750    1.0000 </r>
       <r>    4.1755    1.0000 </r>
       <r>    5.4794    1.0000 </r>
       <r>    5.4803    1.0000 </r>
       <r>    5.4804    1.0000 </r>
       <r>    5.4808    1.0000 </r>
       <r>    6.8649    0.0000 </r>
       <r>    6.8657    0.0000 </r>
       <r>    6.8662    0.0000 </r>
       <r>    6.8664    0.0000 </r>
       <r>    7.6295    0.0000 </r>
       <r>    7.6301    0.0000 </r>
       <r>    7.6312    0.0000 </r>
       <r>    7.6315    0.0000 </r>
       <r>    7.6318    0.0000 </r>
       <r>    7.6321    0.0000 </r>
       <r>    7.6331    0.0000 </r>
       <r>    7.6336    0.0000 </r>
       <r>    7.9391    0.0000 </r>
       <r>    7.9393    0.0000 </r>
       <r>    7.9397    0.0000 </r>
       <r>    7.9399    0.0000 </r>
       <r>    7.9400    0.0000 </r>
       <r>    7.9402    0.0000 </r>
       <r>    7.9408    0.0000 </r>
       <r>    7.9409    0.0000 </r>
       <r>    8.3139    0.0000 </r>
       <r>    8.3141    0.0000 </r>
       <r>    8.3149    0.0000 </r>
       <r>    8.3151    0.0000 </r>
       <r>    8.3152    0.0000 </r>
       <r>    8.3157    0.0000 </r>
       <r>    8.3161    0.0000 </r>
       <r>    8.3164    0.0000 </r>
       <r>    8.7646    0.0000 </r>
       <r>    8.7672    0.0000 </r>
       <r>    8.7684    0.0000 </r>
       <r>    8.7692    0.0000 </r>
       <r>    8.7712    0.0000 </r>
       <r>    8.7721    0.0000 </r>
       <r>    8.7737    0.0000 </r>
       <r>    8.7789    0.0000 </r>
       <r>    8.7844    0.0000 </r>
       <r>    8.7932    0.0000 </r>
       <r>    8.8014    0.0000 </r>
       <r>    8.8141    0.0000 </r>
      </set>
      <set comment="kpoint 6">
       <r>   -5.6652    1.0000 </r>
       <r>   -5.6642    1.0000 </r>
       <r>   -5.6636    1.0000 </r>
       <r>   -5.6627    1.0000 </r>
       <r>   -4.6488    1.0000 </r>
       <r>   -4.6452    1.0000 </r>
       <r>   -4.6446    1.0000 </r>
       <r>   -4.6441    1.0000 </r>
       <r>   -4.6439    1.0000 </r>
       <r>   -4.6435    1.0000 </r>
       <r>   -4.6423    1.0000 </r>
       <r>   -4.6409    1.0000 </r>
       <r>   -3.6091    1.0000 </r>
       <r>   -3.6064    1.0000 </r>
       <r>   -3.6062    1.0000 </r>
       <r>   -3.6053    1.0000 </r>
       <r>   -3.6051    1.0000 </r>
       <r>   -3.6046    1.0000 </r>
       <r>   -3.6044    1.0000 </r>
       <r>   -3.6019    1.0000 </r>
       <r>   -3.3251    1.0000 </r>
       <r>   -3.3231    1.0000 </r>
       <r>   -3.3224    1.0000 </r>
       <r>   -3.3216    1.0000 </r>
       <r>   -3.3213    1.0000 </r>
       <r>   -3.3207    1.0000 </r>
       <r>   -3.3205    1.0000 </r>
       <r>   -3.3183    1.0000 </r>
       <r>   -2.4618    1.0000 </r>
       <r>   -2.4606    1.0000 </r>
       <r>   -2.4589    1.0000 </r>
       <r>   -2.4577    1.0000 </r>
       <r>   -1.4646    1.0000 </r>
       <r>   -1.4627    1.0000 </r>
       <r>   -1.4626    1.0000 </r>
       <r>   -1.4608    1.0000 </r>
       <r>   -1.0422    1.0000 </r>
       <r>   -1.0401    1.0000 </r>
       <r>   -1.0386    1.0000 </r>
       <r>   -1.0383    1.0000 </r>
       <r>   -1.0381    1.0000 </r>
       <r>   -1.0372    1.0000 </r>
       <r>   -1.0365    1.0000 </r>
       <r>   -1.0357    1.0000 </r>
       <r>   -0.1987    1.0000 </r>
       <r>   -0.1977    1.0000 </r>
       <r>   -0.1956    1.0000 </r>
       <r>   -0.1952    1.0000 </r>
       <r>   -0.1951    1.0000 </r>
       <r>   -0.1940    1.0000 </r>
       <r>   -0.1929    1.0000 </r>
       <r>   -0.1928    1.0000 </r>
       <r>    0.4626    1.0000 </r>
       <r>    0.4634    1.0000 </r>
       <r>    0.4636    1.0000 </r>
       <r>    0.4648    1.0000 </r>
       <r>    0.4650    1.0000 </r>
       <r>    0.4652    1.0000 </r>
       <r>    0.4670    1.0000 </r>
       <r>    0.4682    1.0000 </r>
       <r>    1.4160    1.0000 </r>
       <r>    1.4168    1.0000 </r>
       <r>    1.4172    1.0000 </r>
       <r>    1.4180    1.0000 </r>
       <r>    2.2850    1.0000 </r>
       <r>    2.2857    1.0000 </r>
       <r>    2.2869    1.0000 </r>
       <r>    2.2870    1.0000 </r>
       <r>    2.2875    1.0000 </r>
       <r>    2.2880    1.0000 </r>
       <r>    2.2888    1.0000 </r>
       <r>    2.2894    1.0000 </r>
       <r>    2.3706    1.0000 </r>
       <r>    2.3712    1.0000 </r>
       <r>    2.3715    1.0000 </r>
       <r>    2.3722    1.0000 </r>
       <r>    2.3723    1.0000 </r>
       <r>    2.3728    1.0000 </r>
       <r>    2.3733    1.0000 </r>
       <r>    2.3737    1.0000 </r>
       <r>    2.9812    1.0000 </r>
       <r>    2.9815    1.0000 </r>
       <r>    2.9827    1.0000 </r>
       <r>    2.9829    1.0000 </r>
       <r>    2.9833    1.0000 </r>
       <r>    2.9837    1.0000 </r>
       <r>    2.9848    1.0000 </r>
       <r>    2.9854    1.0000 </r>
       <r>    3.0750    1.0000 </r>
       <r>    3.0763    1.0000 </r>
       <r>    3.0772    1.0000 </r>
       <r>    3.0785    1.0000 </r>
       <r>    3.3299    1.0000 </r>
       <r>    3.3310    1.0000 </r>
       <r>    3.3318    1.0000 </r>
       <r>    3.3329    1.0000 </r>
       <r>    3.5887    1.0000 </r>
       <r>    3.5900    1.0000 </r>
       <r>    3.5908    1.0000 </r>
       <r>    3.5909    1.0000 </r>
       <r>    3.5914    1.0000 </r>
       <r>    3.5919    1.0000 </r>
       <r>    3.5925    1.0000 </r>
       <r>    3.5927    1.0000 </r>
       <r>    3.9161    1.0000 </r>
       <r>    3.9167    1.0000 </r>
       <r>    3.9176    1.0000 </r>
       <r>    3.9178    1.0000 </r>
       <r>    3.9183    1.0000 </r>
       <r>    3.9186    1.0000 </r>
       <r>    3.9196    1.0000 </r>
       <r>    3.9211    1.0000 </r>
       <r>    4.1180    1.0000 </r>
[...]
      </set>
     </set>
    </set>
   </array>
  </eigenvalues>
  <separator name="orbital magnetization" >
   <v name="MAGDIPOLOUT">      0.00000000      0.00000000      0.00000000</v>
  </separator>
  <dos>
   <i name="efermi">      5.89448572 </i>
   <total>
    <array>
     <dimension dim="1">gridpoints</dimension>
     <dimension dim="2">spin</dimension>
     <field>energy</field>
     <field>total</field>
     <field>integrated</field>
     <set>
      <set comment="spin 1">
       <r>    -6.9820     0.0000     0.0000 </r>
       <r>    -6.9251     0.0000     0.0000 </r>
       <r>    -6.8681     0.0000     0.0000 </r>
       <r>    -6.8112     0.0000     0.0000 </r>
       <r>    -6.7543     0.0000     0.0000 </r>
       <r>    -6.6973     0.0000     0.0000 </r>
       <r>    -6.6404     0.0000     0.0000 </r>
       <r>    -6.5834     0.0000     0.0000 </r>
       <r>    -6.5265     0.0000     0.0000 </r>
       <r>    -6.4695     0.0000     0.0000 </r>
       <r>    -6.4126     0.0000     0.0000 </r>
       <r>    -6.3556     0.0000     0.0000 </r>
       <r>    -6.2987     0.0000     0.0000 </r>
       <r>    -6.2418     0.0228     0.0013 </r>
       <r>    -6.1848     4.0532     0.2321 </r>
       <r>    -6.1279     0.3142     0.2500 </r>
       <r>    -6.0709     0.0000     0.2500 </r>
       <r>    -6.0140     0.0000     0.2500 </r>
       <r>    -5.9570     1.0175     0.3079 </r>
       <r>    -5.9001    25.0075     1.7320 </r>
       <r>    -5.8431     0.3166     1.7500 </r>
       <r>    -5.7862     0.0000     1.7500 </r>
       <r>    -5.7293     0.0001     1.7500 </r>
       <r>    -5.6723    14.5928     2.5810 </r>
       <r>    -5.6154    38.0740     4.7491 </r>
       <r>    -5.5584     0.0163     4.7500 </r>
       <r>    -5.5015     0.0000     4.7500 </r>
       <r>    -5.4445     0.0742     4.7542 </r>
       <r>    -5.3876    30.5319     6.4928 </r>
       <r>    -5.3306     4.5160     6.7500 </r>
       <r>    -5.2737     0.0000     6.7500 </r>
       <r>    -5.2168     0.0000     6.7500 </r>
       <r>    -5.1598     0.0896     6.7551 </r>
       <r>    -5.1029    23.6677     8.1028 </r>
       <r>    -5.0459     2.5843     8.2500 </r>
       <r>    -4.9890     0.0000     8.2500 </r>
       <r>    -4.9320     0.0018     8.2501 </r>
       <r>    -4.8751    45.7735    10.8566 </r>
       <r>    -4.8181    59.5840    14.2496 </r>
       <r>    -4.7612     0.0069    14.2500 </r>
       <r>    -4.7043     0.0014    14.2501 </r>
       <r>    -4.6473    43.4023    16.7216 </r>
       <r>    -4.5904    61.9538    20.2495 </r>
       <r>    -4.5334     0.0087    20.2500 </r>
       <r>    -4.4765     0.0000    20.2500 </r>
       <r>    -4.4195     0.0000    20.2500 </r>
       <r>    -4.3626     0.0000    20.2500 </r>
       <r>    -4.3057     0.0000    20.2500 </r>
       <r>    -4.2487     0.0000    20.2500 </r>
       <r>    -4.1918     0.2834    20.2661 </r>
       <r>    -4.1348    48.2017    23.0110 </r>
       <r>    -4.0779     4.2039    23.2503 </r>
       <r>    -4.0209    57.8970    26.5472 </r>
       <r>    -3.9640    47.4613    29.2499 </r>
       <r>    -3.9070     0.0116    29.2505 </r>
       <r>    -3.8501    13.5513    30.0222 </r>
       <r>    -3.7932    25.3662    31.4667 </r>
       <r>    -3.7362     4.9756    31.7500 </r>
       <r>    -3.6793     0.0000    31.7500 </r>
       <r>    -3.6223    12.4298    32.4578 </r>
       <r>    -3.5654    92.6659    37.7346 </r>
       <r>    -3.5084     2.2029    37.8600 </r>
       <r>    -3.4515    99.6560    43.5349 </r>
       <r>    -3.3945     3.7779    43.7500 </r>
       <r>    -3.3376    13.8594    44.5392 </r>
       <r>    -3.2807    91.2904    49.7377 </r>
       <r>    -3.2237     0.2164    49.7500 </r>
       <r>    -3.1668     0.0000    49.7500 </r>
       <r>    -3.1098     1.0193    49.8080 </r>
       <r>    -3.0529    99.0859    55.4504 </r>
       <r>    -2.9959     5.2611    55.7500 </r>
       <r>    -2.9390     0.0000    55.7500 </r>
       <r>    -2.8820     0.0000    55.7500 </r>
       <r>    -2.8251     0.0000    55.7500 </r>
       <r>    -2.7682     0.0000    55.7500 </r>
       <r>    -2.7112     0.0000    55.7500 </r>
       <r>    -2.6543     0.0000    55.7500 </r>
       <r>    -2.5973     0.0000    55.7500 </r>
       <r>    -2.5404     0.0000    55.7500 </r>
       <r>    -2.4834     2.5202    55.8935 </r>
       <r>    -2.4265    49.6564    58.7212 </r>
       <r>    -2.3695     0.5065    58.7500 </r>
       <r>    -2.3126     0.0000    58.7500 </r>
       <r>    -2.2557     0.0000    58.7500 </r>
       <r>    -2.1987     0.0000    58.7500 </r>
       <r>    -2.1418     0.0000    58.7500 </r>
       <r>    -2.0848     0.2791    58.7659 </r>
       <r>    -2.0279    24.8649    60.1818 </r>
       <r>    -1.9709    55.4388    63.3387 </r>
       <r>    -1.9140    51.8942    66.2938 </r>
       <r>    -1.8570    49.9661    69.1391 </r>
       <r>    -1.8001     1.9478    69.2500 </r>
       <r>    -1.7432     0.0000    69.2500 </r>
       <r>    -1.6862     0.0000    69.2500 </r>
       <r>    -1.6293     0.0000    69.2500 </r>
       <r>    -1.5723     0.0000    69.2500 </r>
       <r>    -1.5154     0.0054    69.2503 </r>
       <r>    -1.4584    32.5189    71.1021 </r>
       <r>    -1.4015    20.1584    72.2500 </r>
       <r>    -1.3446     0.0004    72.2500 </r>
       <r>    -1.2876     0.0017    72.2501 </r>
       <r>    -1.2307    10.7407    72.8617 </r>
       <r>    -1.1737     6.8185    73.2500 </r>
       <r>    -1.1168     0.0002    73.2500 </r>
       <r>    -1.0598     6.9721    73.6470 </r>
       <r>    -1.0029    97.7089    79.2110 </r>
       <r>    -0.9459     0.6852    79.2500 </r>
       <r>    -0.8890     0.0000    79.2500 </r>
       <r>    -0.8321     2.2205    79.3764 </r>
       <r>    -0.7751   100.4755    85.0979 </r>
       <r>    -0.7182     2.6703    85.2500 </r>
       <r>    -0.6612     3.5894    85.4544 </r>
       <r>    -0.6043   196.5856    96.6488 </r>
       <r>    -0.5473    10.5575    97.2500 </r>
       <r>    -0.4904     0.0000    97.2500 </r>
       <r>    -0.4334     0.0000    97.2500 </r>
       <r>    -0.3765     0.0000    97.2500 </r>
       <r>    -0.3196     0.0000    97.2500 </r>
       <r>    -0.2626     0.0001    97.2500 </r>
       <r>    -0.2057    24.5194    98.6462 </r>
       <r>    -0.1487    80.7884   103.2467 </r>
       <r>    -0.0918     0.0583   103.2500 </r>
       <r>    -0.0348     0.0005   103.2500 </r>
       <r>     0.0221    12.3326   103.9523 </r>
       <r>     0.0791    14.0074   104.7499 </r>
       <r>     0.1360     0.0011   104.7500 </r>
       <r>     0.1929     0.0000   104.7500 </r>
       <r>     0.2499     0.6706   104.7882 </r>
       <r>     0.3068    49.8299   107.6257 </r>
       <r>     0.3638     2.1826   107.7500 </r>
       <r>     0.4207     0.0998   107.7557 </r>
       <r>     0.4777    85.5911   112.6296 </r>
       <r>     0.5346    19.6752   113.7500 </r>
       <r>     0.5916     0.0001   113.7500 </r>
       <r>     0.6485     0.0000   113.7500 </r>
       <r>     0.7054     0.0000   113.7500 </r>
       <r>     0.7624     0.0000   113.7500 </r>
       <r>     0.8193     0.0000   113.7500 </r>
       <r>     0.8763     0.0000   113.7500 </r>
       <r>     0.9332     0.0000   113.7500 </r>
       <r>     0.9902     0.0000   113.7500 </r>
       <r>     1.0471     0.0000   113.7500 </r>
       <r>     1.1041     0.0000   113.7500 </r>
       <r>     1.1610     0.0000   113.7500 </r>
       <r>     1.2179     0.0000   113.7500 </r>
       <r>     1.2749     0.0000   113.7500 </r>
       <r>     1.3318     0.0000   113.7500 </r>
       <r>     1.3888     1.2125   113.8190 </r>
       <r>     1.4457    52.8179   116.8267 </r>
       <r>     1.5027   179.8635   127.0689 </r>
       <r>     1.5596    29.5215   128.7500 </r>
       <r>     1.6165     0.0002   128.7500 </r>
       <r>     1.6735     0.0000   128.7500 </r>
       <r>     1.7304     0.0000   128.7500 </r>
       <r>     1.7874     0.2319   128.7632 </r>
       <r>     1.8443    34.1941   130.7104 </r>
       <r>     1.9013    52.4742   133.6985 </r>
       <r>     1.9582     8.5179   134.1835 </r>
       <r>     2.0152    44.9836   136.7451 </r>
       <r>     2.0721     0.0866   136.7500 </r>
       <r>     2.1290     0.0001   136.7500 </r>
       <r>     2.1860    20.4378   137.9138 </r>
       <r>     2.2429    92.1776   143.1628 </r>
       <r>     2.2999   115.2134   149.7235 </r>
       <r>     2.3568   128.9490   157.0664 </r>
       <r>     2.4138    90.8515   162.2399 </r>
       <r>     2.4707     0.1772   162.2500 </r>
       <r>     2.5277     0.0000   162.2500 </r>
       <r>     2.5846     0.0000   162.2500 </r>
       <r>     2.6415     0.0000   162.2500 </r>
       <r>     2.6985     0.0000   162.2500 </r>
       <r>     2.7554     0.0000   162.2500 </r>
       <r>     2.8124     0.0000   162.2500 </r>
       <r>     2.8693     0.2918   162.2666 </r>
       <r>     2.9263    24.9597   163.6879 </r>
       <r>     2.9832    54.0055   166.7632 </r>
       <r>     3.0402   143.3533   174.9264 </r>
       <r>     3.0971    63.1806   178.5241 </r>
       <r>     3.1540    76.6587   182.8894 </r>
       <r>     3.2110    85.3424   187.7492 </r>
       <r>     3.2679    11.0697   188.3795 </r>
       <r>     3.3249   111.0012   194.7004 </r>
       <r>     3.3818    35.9830   196.7494 </r>
       <r>     3.4388     0.0100   196.7500 </r>
       <r>     3.4957     0.0042   196.7502 </r>
       <r>     3.5527    53.5663   199.8005 </r>
       <r>     3.6096   146.9925   208.1709 </r>
       <r>     3.6665    10.1694   208.7500 </r>
       <r>     3.7235     0.0000   208.7500 </r>
       <r>     3.7804     0.0000   208.7500 </r>
       <r>     3.8374     1.0613   208.8104 </r>
       <r>     3.8943    55.1235   211.9494 </r>
       <r>     3.9513   100.7983   217.6893 </r>
       <r>     4.0082     1.0662   217.7500 </r>
       <r>     4.0652     0.0044   217.7502 </r>
       <r>     4.1221    31.7460   219.5580 </r>
       <r>     4.1790    87.7399   224.5543 </r>
       <r>     4.2360    38.5583   226.7500 </r>
       <r>     4.2929     0.3375   226.7692 </r>
       <r>     4.3499    94.2363   232.1354 </r>
       <r>     4.4068    12.5658   232.8509 </r>
       <r>     4.4638    75.7371   237.1637 </r>
       <r>     4.5207    98.1542   242.7531 </r>
       <r>     4.5777    33.5722   244.6648 </r>
       <r>     4.6346    10.2767   245.2500 </r>
       <r>     4.6915     0.0001   245.2500 </r>
       <r>     4.7485     0.0000   245.2500 </r>
       <r>     4.8054     0.0000   245.2500 </r>
       <r>     4.8624     0.0000   245.2500 </r>
       <r>     4.9193     0.3036   245.2673 </r>
       <r>     4.9763    49.8013   248.1032 </r>
       <r>     5.0332    70.0933   252.0946 </r>
       <r>     5.0901     2.7290   252.2500 </r>
       <r>     5.1471     0.0000   252.2500 </r>
       <r>     5.2040     0.0000   252.2500 </r>
       <r>     5.2610     0.0000   252.2500 </r>
       <r>     5.3179     0.0000   252.2500 </r>
       <r>     5.3749     0.0000   252.2500 </r>
       <r>     5.4318     0.0178   252.2510 </r>
       <r>     5.4888    38.1854   254.4254 </r>
       <r>     5.5457    14.4799   255.2500 </r>
       <r>     5.6026     0.0001   255.2500 </r>
       <r>     5.6596     0.0000   255.2500 </r>
       <r>     5.7165     0.0007   255.2500 </r>
       <r>     5.7735     7.1439   255.6568 </r>
       <r>     5.8304     6.0259   256.0000 </r>
       <r>     5.8874     0.0003   256.0000 </r>
       <r>     5.9443     0.0000   256.0000 </r>
       <r>     6.0013     0.0000   256.0000 </r>
       <r>     6.0582     0.0000   256.0000 </r>
       <r>     6.1151     0.0000   256.0000 </r>
       <r>     6.1721     0.0000   256.0000 </r>
       <r>     6.2290     0.0045   256.0003 </r>
       <r>     6.2860    17.6650   257.0062 </r>
       <r>     6.3429    10.0930   257.5809 </r>
       <r>     6.3999    24.7048   258.9877 </r>
       <r>     6.4568     0.2159   259.0000 </r>
       <r>     6.5138     0.0000   259.0000 </r>
       <r>     6.5707     0.0000   259.0000 </r>
       <r>     6.6276     0.0000   259.0000 </r>
       <r>     6.6846     0.0000   259.0000 </r>
       <r>     6.7415     0.0000   259.0000 </r>
       <r>     6.7985     6.5779   259.3746 </r>
       <r>     6.8554    31.9855   261.1960 </r>
       <r>     6.9124    40.4341   263.4985 </r>
       <r>     6.9693     0.0271   263.5000 </r>
       <r>     7.0263     0.0000   263.5000 </r>
       <r>     7.0832     0.0000   263.5000 </r>
       <r>     7.1401     0.0426   263.5024 </r>
       <r>     7.1971    91.2802   268.7003 </r>
       <r>     7.2540    56.8996   271.9404 </r>
       <r>     7.3110     1.0464   272.0000 </r>
       <r>     7.3679     0.0000   272.0000 </r>
       <r>     7.4249     0.0000   272.0000 </r>
       <r>     7.4818     0.0000   272.0000 </r>
       <r>     7.5388     0.0000   272.0000 </r>
       <r>     7.5957     0.6287   272.0358 </r>
       <r>     7.6526   169.4305   281.6839 </r>
       <r>     7.7096    54.7403   284.8010 </r>
       <r>     7.7665    47.3151   287.4954 </r>
       <r>     7.8235     0.0815   287.5000 </r>
       <r>     7.8804     0.0015   287.5001 </r>
       <r>     7.9374    44.9350   290.0589 </r>
       <r>     7.9943    60.4230   293.4996 </r>
       <r>     8.0512    29.0842   295.1558 </r>
       <r>     8.1082    77.6759   299.5790 </r>
       <r>     8.1651   146.2047   307.9045 </r>
       <r>     8.2221    10.4576   308.5000 </r>
       <r>     8.2790     3.7625   308.7143 </r>
       <r>     8.3360   107.2406   314.8210 </r>
       <r>     8.3929     7.5339   315.2500 </r>
       <r>     8.4499     0.0000   315.2500 </r>
       <r>     8.5068     0.0634   315.2536 </r>
       <r>     8.5637    82.0880   319.9280 </r>
       <r>     8.6207    23.2148   321.2500 </r>
       <r>     8.6776     0.0001   321.2500 </r>
       <r>     8.7346     0.7813   321.2945 </r>
       <r>     8.7915   122.9708   328.2970 </r>
       <r>     8.8485    60.5157   331.7430 </r>
       <r>     8.9054     0.1232   331.7500 </r>
       <r>     8.9624     0.0000   331.7500 </r>
       <r>     9.0193     0.1830   331.7604 </r>
       <r>     9.0762    12.5165   332.4732 </r>
       <r>     9.1332     0.4713   332.5000 </r>
       <r>     9.1901     0.0820   332.5047 </r>
       <r>     9.2471    30.7633   334.2565 </r>
       <r>     9.3040     7.0383   334.6573 </r>
       <r>     9.3610    23.4978   335.9953 </r>
       <r>     9.4179     0.0823   336.0000 </r>
       <r>     9.4749     0.0000   336.0000 </r>
       <r>     9.5318     0.0000   336.0000 </r>
       <r>     9.5887     0.0000   336.0000 </r>
       <r>     9.6457     0.0000   336.0000 </r>
       <r>     9.7026     0.0000   336.0000 </r>
       <r>     9.7596     0.0000   336.0000 </r>
       <r>     9.8165     0.0000   336.0000 </r>
       <r>     9.8735     0.0000   336.0000 </r>
       <r>     9.9304     0.0000   336.0000 </r>
       <r>     9.9874     0.0000   336.0000 </r>
       <r>    10.0443     0.0000   336.0000 </r>
       <r>    10.1012     0.0000   336.0000 </r>
      </set>
     </set>
    </array>
   </total>
  </dos>
 </calculation>
 <structure name="finalpos" >
  <crystal>
   <varray name="basis" >
    <v>      10.86914512      -0.00000000      -0.00000000 </v>
    <v>      -0.00000000      10.86914512       0.00000000 </v>
    <v>       0.00000000       0.00000000      10.86914512 </v>
   </varray>
   <i name="volume">   1284.06249692 </i>
   <varray name="rec_basis" >
    <v>       0.09200356       0.00000000      -0.00000000 </v>
    <v>       0.00000000       0.09200356      -0.00000000 </v>
    <v>       0.00000000      -0.00000000       0.09200356 </v>
   </varray>
  </crystal>
  <varray name="positions" >
   <v>       0.25092004       0.25000000       0.25000000 </v>
   <v>       0.75000000       0.25000000       0.25000000 </v>
   <v>       0.25000000       0.75000000       0.25000000 </v>
   <v>       0.75000000       0.75000000       0.25000000 </v>
   <v>       0.25000000       0.25000000       0.75000000 </v>
   <v>       0.75000000       0.25000000       0.75000000 </v>
   <v>       0.25000000       0.75000000       0.75000000 </v>
   <v>       0.75000000       0.75000000       0.75000000 </v>
   <v>       0.25000000       0.00092004       0.00000000 </v>
   <v>       0.75000000       0.00000000       0.00000000 </v>
   <v>       0.25000000       0.50000000       0.00000000 </v>
   <v>       0.75000000       0.50000000       0.00000000 </v>
   <v>       0.25000000       0.00000000       0.50000000 </v>
   <v>       0.75000000       0.00000000       0.50000000 </v>
   <v>       0.25000000       0.50000000       0.50000000 </v>
   <v>       0.75000000       0.50000000       0.50000000 </v>
   <v>       0.00000000       0.25000000       0.00000000 </v>
   <v>       0.50000000       0.25000000       0.00000000 </v>
   <v>       0.00000000       0.75000000       0.00000000 </v>
   <v>       0.50000000       0.75000000       0.00000000 </v>
   <v>       0.00000000       0.25000000       0.50000000 </v>
   <v>       0.50000000       0.25000000       0.50000000 </v>
   <v>       0.00000000       0.75000000       0.50000000 </v>
   <v>       0.50000000       0.75000000       0.50000000 </v>
   <v>       0.00000000       0.00000000       0.25000000 </v>
   <v>       0.50000000       0.00000000       0.25000000 </v>
   <v>       0.00000000       0.50000000       0.25000000 </v>
   <v>       0.50000000       0.50000000       0.25000000 </v>
   <v>       0.00000000       0.00000000       0.75000000 </v>
   <v>       0.50000000       0.00000000       0.75000000 </v>
   <v>       0.00000000       0.50000000       0.75000000 </v>
   <v>       0.50000000       0.50000000       0.75000000 </v>
   <v>       0.37500000       0.37500000       0.37500000 </v>
   <v>       0.87500000       0.37500000       0.37500000 </v>
   <v>       0.37500000       0.87500000       0.37500000 </v>
   <v>       0.87500000       0.87500000       0.37500000 </v>
   <v>       0.37500000       0.37500000       0.87500000 </v>
   <v>       0.87500000       0.37500000       0.87500000 </v>
   <v>       0.37500000       0.87500000       0.87500000 </v>
   <v>       0.87500000       0.87500000       0.87500000 </v>
   <v>       0.37500000       0.12500000       0.12500000 </v>
   <v>       0.87500000       0.12500000       0.12500000 </v>
   <v>       0.37500000       0.62500000       0.12500000 </v>
   <v>       0.87500000       0.62500000       0.12500000 </v>
   <v>       0.37500000       0.12500000       0.62500000 </v>
   <v>       0.87500000       0.12500000       0.62500000 </v>
   <v>       0.37500000       0.62500000       0.62500000 </v>
   <v>       0.87500000       0.62500000       0.62500000 </v>
   <v>       0.12500000       0.37500000       0.12500000 </v>
   <v>       0.62500000       0.37500000       0.12500000 </v>
   <v>       0.12500000       0.87500000       0.12500000 </v>
   <v>       0.62500000       0.87500000       0.12500000 </v>
   <v>       0.12500000       0.37500000       0.62500000 </v>
   <v>       0.62500000       0.37500000       0.62500000 </v>
   <v>       0.12500000       0.87500000       0.62500000 </v>
   <v>       0.62500000       0.87500000       0.62500000 </v>
   <v>       0.12500000       0.12500000       0.37500000 </v>
   <v>       0.62500000       0.12500000       0.37500000 </v>
   <v>       0.12500000       0.62500000       0.37500000 </v>
   <v>       0.62500000       0.62500000       0.37500000 </v>
   <v>       0.12500000       0.12500000       0.87500000 </v>
   <v>       0.62500000       0.12500000       0.87500000 </v>
   <v>       0.12500000       0.62500000       0.87500000 </v>
   <v>       0.62500000       0.62500000       0.87500000 </v>
  </varray>
 </structure>
</modeling>
