  64  64   0   0
  0.2006348E+02  0.1086915E-08  0.1086915E-08  0.1086915E-08  0.5000000E-15
  1.000000000000000E-004
  CAR 
 unknown system                          
     10.10036797     -6.98199012  301      5.89383729      1.00000000
     -6.982  0.0000E+00  0.0000E+00
     -6.925  0.0000E+00  0.0000E+00
     -6.868  0.0000E+00  0.0000E+00
     -6.811  0.0000E+00  0.0000E+00
     -6.754  0.0000E+00  0.0000E+00
     -6.697  0.0000E+00  0.0000E+00
     -6.640  0.0000E+00  0.0000E+00
     -6.583  0.0000E+00  0.0000E+00
     -6.526  0.0000E+00  0.0000E+00
     -6.470  0.0000E+00  0.0000E+00
     -6.413  0.0000E+00  0.0000E+00
     -6.356  0.0000E+00  0.0000E+00
     -6.299  0.9748E-10  0.5551E-11
     -6.242  0.2283E-01  0.1300E-02
     -6.185  0.4053E+01  0.2321E+00
     -6.128  0.3143E+00  0.2500E+00
     -6.071  0.8800E-07  0.2500E+00
     -6.014  0.9465E-07  0.2500E+00
     -5.957  0.1018E+01  0.3080E+00
     -5.900  0.2501E+02  0.1732E+01
     -5.843  0.3190E+00  0.1750E+01
     -5.786  0.4645E-08  0.1750E+01
     -5.729  0.1095E-03  0.1750E+01
     -5.672  0.1457E+02  0.2580E+01
     -5.615  0.3810E+02  0.4749E+01
     -5.558  0.1668E-01  0.4750E+01
     -5.502  0.1214E-09  0.4750E+01
     -5.445  0.7377E-01  0.4754E+01
     -5.388  0.3050E+02  0.6491E+01
     -5.331  0.4552E+01  0.6750E+01
     -5.274  0.5553E-05  0.6750E+01
     -5.217  0.2624E-09  0.6750E+01
     -5.160  0.8894E-01  0.6755E+01
     -5.103  0.2364E+02  0.8101E+01
     -5.046  0.2610E+01  0.8250E+01
     -4.989  0.1690E-05  0.8250E+01
     -4.932  0.1725E-02  0.8250E+01
     -4.875  0.4560E+02  0.1085E+02
     -4.818  0.5976E+02  0.1425E+02
     -4.761  0.7488E-02  0.1425E+02
     -4.704  0.1338E-02  0.1425E+02
     -4.647  0.4319E+02  0.1671E+02
     -4.590  0.6217E+02  0.2025E+02
     -4.534  0.9329E-02  0.2025E+02
     -4.477  0.0000E+00  0.2025E+02
     -4.420  0.0000E+00  0.2025E+02
     -4.363  0.0000E+00  0.2025E+02
     -4.306  0.0000E+00  0.2025E+02
     -4.249  0.1735E-08  0.2025E+02
     -4.192  0.2752E+00  0.2027E+02
     -4.135  0.4813E+02  0.2301E+02
     -4.078  0.4284E+01  0.2325E+02
     -4.021  0.5754E+02  0.2653E+02
     -3.964  0.4782E+02  0.2925E+02
     -3.907  0.1192E-01  0.2925E+02
     -3.850  0.1349E+02  0.3002E+02
     -3.793  0.2535E+02  0.3146E+02
     -3.736  0.5054E+01  0.3175E+02
     -3.679  0.2606E-04  0.3175E+02
     -3.622  0.1225E+02  0.3245E+02
     -3.566  0.9284E+02  0.3773E+02
     -3.509  0.2112E+01  0.3785E+02
     -3.452  0.9960E+02  0.4353E+02
     -3.395  0.3938E+01  0.4375E+02
     -3.338  0.1368E+02  0.4453E+02
     -3.281  0.9146E+02  0.4974E+02
     -3.224  0.2303E+00  0.4975E+02
     -3.167  0.1319E-07  0.4975E+02
     -3.110  0.9980E+00  0.4981E+02
     -3.053  0.9893E+02  0.5544E+02
     -2.996  0.5440E+01  0.5575E+02
     -2.939  0.1122E-05  0.5575E+02
     -2.882  0.0000E+00  0.5575E+02
     -2.825  0.0000E+00  0.5575E+02
     -2.768  0.0000E+00  0.5575E+02
     -2.711  0.0000E+00  0.5575E+02
     -2.654  0.0000E+00  0.5575E+02
     -2.598  0.0000E+00  0.5575E+02
     -2.541  0.3592E-06  0.5575E+02
     -2.484  0.2472E+01  0.5589E+02
     -2.427  0.4968E+02  0.5872E+02
     -2.370  0.5378E+00  0.5875E+02
     -2.313  0.7475E-08  0.5875E+02
     -2.256  0.0000E+00  0.5875E+02
     -2.199  0.0000E+00  0.5875E+02
     -2.142  0.3295E-08  0.5875E+02
     -2.085  0.2649E+00  0.5877E+02
     -2.028  0.2485E+02  0.6018E+02
     -1.971  0.5481E+02  0.6330E+02
     -1.914  0.5254E+02  0.6629E+02
     -1.857  0.4990E+02  0.6913E+02
     -1.800  0.2044E+01  0.6925E+02
     -1.743  0.2933E-06  0.6925E+02
     -1.686  0.0000E+00  0.6925E+02
     -1.630  0.0000E+00  0.6925E+02
     -1.573  0.2937E-12  0.6925E+02
     -1.516  0.5182E-02  0.6925E+02
     -1.459  0.3214E+02  0.7108E+02
     -1.402  0.2054E+02  0.7225E+02
     -1.345  0.4808E-03  0.7225E+02
     -1.288  0.1694E-02  0.7225E+02
     -1.231  0.1061E+02  0.7285E+02
     -1.174  0.6953E+01  0.7325E+02
     -1.117  0.1847E-03  0.7325E+02
     -1.060  0.6785E+01  0.7364E+02
     -1.003  0.9784E+02  0.7921E+02
     -0.946  0.7467E+00  0.7925E+02
     -0.889  0.8647E-07  0.7925E+02
     -0.832  0.2119E+01  0.7937E+02
     -0.775  0.1004E+03  0.8509E+02
     -0.718  0.2819E+01  0.8525E+02
     -0.662  0.3452E+01  0.8545E+02
     -0.605  0.1962E+03  0.9662E+02
     -0.548  0.1113E+02  0.9725E+02
     -0.491  0.1196E-04  0.9725E+02
     -0.434  0.0000E+00  0.9725E+02
     -0.377  0.0000E+00  0.9725E+02
     -0.320  0.0000E+00  0.9725E+02
     -0.263  0.1070E-03  0.9725E+02
     -0.206  0.2379E+02  0.9860E+02
     -0.149  0.8152E+02  0.1032E+03
     -0.092  0.6333E-01  0.1032E+03
     -0.035  0.4929E-03  0.1033E+03
      0.022  0.1209E+02  0.1039E+03
      0.079  0.1425E+02  0.1047E+03
      0.136  0.1183E-02  0.1048E+03
      0.193  0.1125E-07  0.1048E+03
      0.250  0.6232E+00  0.1048E+03
      0.306  0.4978E+02  0.1076E+03
      0.363  0.2286E+01  0.1077E+03
      0.420  0.9599E-01  0.1078E+03
      0.477  0.8477E+02  0.1126E+03
      0.534  0.2050E+02  0.1137E+03
      0.591  0.6754E-04  0.1138E+03
      0.648  0.0000E+00  0.1138E+03
      0.705  0.0000E+00  0.1138E+03
      0.762  0.0000E+00  0.1138E+03
      0.819  0.0000E+00  0.1138E+03
      0.876  0.0000E+00  0.1138E+03
      0.933  0.0000E+00  0.1138E+03
      0.990  0.0000E+00  0.1138E+03
      1.047  0.0000E+00  0.1138E+03
      1.104  0.0000E+00  0.1138E+03
      1.161  0.0000E+00  0.1138E+03
      1.218  0.0000E+00  0.1138E+03
      1.274  0.0000E+00  0.1138E+03
      1.331  0.3990E-07  0.1138E+03
      1.388  0.1135E+01  0.1138E+03
      1.445  0.5267E+02  0.1168E+03
      1.502  0.1788E+03  0.1270E+03
      1.559  0.3086E+02  0.1287E+03
      1.616  0.2036E-03  0.1288E+03
      1.673  0.0000E+00  0.1288E+03
      1.730  0.1705E-08  0.1288E+03
      1.787  0.2222E+00  0.1288E+03
      1.844  0.3393E+02  0.1307E+03
      1.901  0.5269E+02  0.1337E+03
      1.958  0.8220E+01  0.1342E+03
      2.015  0.4534E+02  0.1367E+03
      2.072  0.9601E-01  0.1367E+03
      2.129  0.6221E-04  0.1368E+03
      2.186  0.1964E+02  0.1379E+03
      2.242  0.9268E+02  0.1431E+03
      2.299  0.1140E+03  0.1496E+03
      2.356  0.1297E+03  0.1570E+03
      2.413  0.9160E+02  0.1622E+03
      2.470  0.1974E+00  0.1622E+03
      2.527  0.2493E-09  0.1622E+03
      2.584  0.0000E+00  0.1622E+03
      2.641  0.0000E+00  0.1622E+03
      2.698  0.0000E+00  0.1622E+03
      2.755  0.0000E+00  0.1622E+03
      2.812  0.3004E-08  0.1623E+03
      2.869  0.2670E+00  0.1623E+03
      2.926  0.2490E+02  0.1637E+03
      2.983  0.5261E+02  0.1667E+03
      3.040  0.1440E+03  0.1749E+03
      3.097  0.6374E+02  0.1785E+03
      3.154  0.7491E+02  0.1828E+03
      3.210  0.8739E+02  0.1877E+03
      3.267  0.1048E+02  0.1883E+03
      3.324  0.1109E+03  0.1947E+03
      3.381  0.3670E+02  0.1967E+03
      3.438  0.1158E-01  0.1967E+03
      3.495  0.3544E-02  0.1968E+03
      3.552  0.5206E+02  0.1997E+03
      3.609  0.1478E+03  0.2081E+03
      3.666  0.1092E+02  0.2087E+03
      3.723  0.7674E-05  0.2088E+03
      3.780  0.3807E-07  0.2088E+03
      3.837  0.9832E+00  0.2088E+03
      3.894  0.5474E+02  0.2119E+03
      3.951  0.1011E+03  0.2177E+03
      4.008  0.1208E+01  0.2177E+03
      4.065  0.3746E-02  0.2178E+03
      4.122  0.3094E+02  0.2195E+03
      4.178  0.8700E+02  0.2245E+03
      4.235  0.4012E+02  0.2267E+03
      4.292  0.3015E+00  0.2268E+03
      4.349  0.9347E+02  0.2321E+03
      4.406  0.1324E+02  0.2328E+03
      4.463  0.7563E+02  0.2371E+03
      4.520  0.9755E+02  0.2427E+03
      4.577  0.3389E+02  0.2446E+03
      4.634  0.1082E+02  0.2452E+03
      4.691  0.1384E-03  0.2452E+03
      4.748  0.0000E+00  0.2452E+03
      4.805  0.0000E+00  0.2452E+03
      4.862  0.1697E-08  0.2453E+03
      4.919  0.2796E+00  0.2453E+03
      4.976  0.4936E+02  0.2481E+03
      5.033  0.7016E+02  0.2521E+03
      5.090  0.3128E+01  0.2522E+03
      5.146  0.1712E-05  0.2522E+03
      5.203  0.0000E+00  0.2522E+03
      5.260  0.0000E+00  0.2522E+03
      5.317  0.0000E+00  0.2522E+03
      5.374  0.2653E-11  0.2523E+03
      5.431  0.1544E-01  0.2523E+03
      5.488  0.3737E+02  0.2544E+03
      5.545  0.1530E+02  0.2552E+03
      5.602  0.1655E-03  0.2552E+03
      5.659  0.1950E-13  0.2552E+03
      5.716  0.6116E-03  0.2553E+03
      5.773  0.6905E+01  0.2556E+03
      5.830  0.6266E+01  0.2560E+03
      5.887  0.3669E-03  0.2560E+03
      5.944  0.0000E+00  0.2560E+03
      6.001  0.0000E+00  0.2560E+03
      6.058  0.0000E+00  0.2560E+03
      6.114  0.0000E+00  0.2560E+03
      6.171  0.2749E-12  0.2560E+03
      6.228  0.3802E-02  0.2560E+03
      6.285  0.1721E+02  0.2570E+03
      6.342  0.1044E+02  0.2576E+03
      6.399  0.2478E+02  0.2590E+03
      6.456  0.2514E+00  0.2590E+03
      6.513  0.3049E-08  0.2590E+03
      6.570  0.0000E+00  0.2590E+03
      6.627  0.0000E+00  0.2590E+03
      6.684  0.0000E+00  0.2590E+03
      6.741  0.3025E-04  0.2590E+03
      6.798  0.6185E+01  0.2594E+03
      6.855  0.3161E+02  0.2612E+03
      6.912  0.4120E+02  0.2635E+03
      6.969  0.3266E-01  0.2635E+03
      7.026  0.1059E-10  0.2635E+03
      7.082  0.1204E-10  0.2635E+03
      7.139  0.3635E-01  0.2635E+03
      7.196  0.8890E+02  0.2686E+03
      7.253  0.5919E+02  0.2719E+03
      7.310  0.1157E+01  0.2720E+03
      7.367  0.2781E-06  0.2720E+03
      7.424  0.0000E+00  0.2720E+03
      7.481  0.0000E+00  0.2720E+03
      7.538  0.2283E-08  0.2720E+03
      7.595  0.5383E+00  0.2720E+03
      7.652  0.1668E+03  0.2815E+03
      7.709  0.5665E+02  0.2848E+03
      7.766  0.4816E+02  0.2875E+03
      7.823  0.9699E-01  0.2875E+03
      7.880  0.1153E-02  0.2875E+03
      7.937  0.4277E+02  0.2899E+03
      7.994  0.6259E+02  0.2935E+03
      8.050  0.2728E+02  0.2951E+03
      8.107  0.7931E+02  0.2996E+03
      8.164  0.1452E+03  0.3078E+03
      8.221  0.1162E+02  0.3085E+03
      8.278  0.3474E+01  0.3087E+03
      8.335  0.1067E+03  0.3148E+03
      8.392  0.8398E+01  0.3152E+03
      8.449  0.3273E-05  0.3153E+03
      8.506  0.5275E-01  0.3153E+03
      8.563  0.8031E+02  0.3198E+03
      8.620  0.2501E+02  0.3212E+03
      8.677  0.1243E-03  0.3213E+03
      8.734  0.6279E+00  0.3213E+03
      8.791  0.1193E+03  0.3281E+03
      8.848  0.6421E+02  0.3317E+03
      8.905  0.2613E+00  0.3317E+03
      8.962  0.2106E-07  0.3318E+03
      9.018  0.1511E+00  0.3318E+03
      9.075  0.1244E+02  0.3325E+03
      9.132  0.5758E+00  0.3325E+03
      9.189  0.7030E-01  0.3325E+03
      9.246  0.3038E+02  0.3342E+03
      9.303  0.7100E+01  0.3346E+03
      9.360  0.2382E+02  0.3360E+03
      9.417  0.9990E-01  0.3360E+03
      9.474  0.3331E-09  0.3360E+03
      9.531  0.0000E+00  0.3360E+03
      9.588  0.0000E+00  0.3360E+03
      9.645  0.0000E+00  0.3360E+03
      9.702  0.0000E+00  0.3360E+03
      9.759  0.0000E+00  0.3360E+03
      9.816  0.0000E+00  0.3360E+03
      9.873  0.0000E+00  0.3360E+03
      9.930  0.0000E+00  0.3360E+03
      9.986  0.0000E+00  0.3360E+03
     10.043  0.0000E+00  0.3360E+03
     10.100  0.0000E+00  0.3360E+03
