 vasp.6.3.2 27Jun22 (build Oct 14 2022 12:13:54) complex                        
  
 executed on             LinuxIFC date 2023.04.03  14:37:02
 running on   32 total cores
 distrk:  each k-point on   32 cores,    1 groups
 distr:  one band on NCORE=   4 cores,    8 groups


--------------------------------------------------------------------------------------------------------


 INCAR:
   ADDGRID = True
   EDIFF = 1e-08
   ENCUT = 318
   GGA = Ps
   IALGO = 38
   IBRION = -1
   ISMEAR = 0
   LCHARG = False
   LREAL = False
   LWAVE = False
   NELMIN = 5
   NPAR = 8
   PREC = Accurate
   SIGMA = 0.02

 POTCAR:    PAW_PBE Si 05Jan2001                  
 POTCAR:    PAW_PBE Si 05Jan2001                  
   SHA256 =  79d9987ad8750f624c4d6acb2a16d13abf6a777132adc04dc6c8399be72b42bb Si/POTCAR             
   COPYR  = (c) Copyright 05Jan2001 Georg Kresse                                                    
   COPYR  = This file is part of the software VASP. Any use, copying, and all other rights are regul
   COPYR  = If you do not have a valid VASP license, you may not use, copy or distribute this file. 
   VRHFIN =Si: s2p2                                                                                 
   LEXCH  = PE                                                                                      
   EATOM  =   103.0669 eV,    7.5752 Ry                                                             
                                                                                                    
   TITEL  = PAW_PBE Si 05Jan2001                                                                    
   LULTRA =        F    use ultrasoft PP ?                                                          
   IUNSCR =        1    unscreen: 0-lin 1-nonlin 2-no                                               
   RPACOR =    1.500    partial core radius                                                         
   POMASS =   28.085; ZVAL   =    4.000    mass and valenz                                          
   RCORE  =    1.900    outmost cutoff radius                                                       
   RWIGS  =    2.480; RWIGS  =    1.312    wigner-seitz radius (au A)                               
   ENMAX  =  245.345; ENMIN  =  184.009 eV                                                          
   ICORE  =        2    local potential                                                             
   LCOR   =        T    correct aug charges                                                         
   LPAW   =        T    paw PP                                                                      
   EAUG   =  322.069                                                                                
   DEXC   =    0.000                                                                                
   RMAX   =    1.950    core radius for proj-oper                                                   
   RAUG   =    1.300    factor for augmentation sphere                                              
   RDEP   =    1.993    radius for radial grids                                                     
   RDEPT  =    1.837    core radius for aug-charge                                                  
                                                                                                    
   Atomic configuration                                                                             
    6 entries                                                                                       
     n  l   j            E        occ.                                                              
     1  0  0.50     -1785.8828   2.0000                                                             
     2  0  0.50      -139.4969   2.0000                                                             
     2  1  1.50       -95.5546   6.0000                                                             
     3  0  0.50       -10.8127   2.0000                                                             
     3  1  0.50        -4.0811   2.0000                                                             
     3  2  1.50        -4.0817   0.0000                                                             
   Description                                                                                      
     l       E           TYP  RCUT    TYP  RCUT                                                     
     0    -10.8127223     23  1.900                                                                 
     0     -7.6451159     23  1.900                                                                 
     1     -4.0811372     23  1.900                                                                 
     1      2.4879257     23  1.900                                                                 
     2     -4.0817478      7  1.900                                                                 
  local pseudopotential read in
  partial core-charges read in
  partial kinetic energy density read in
  atomic valenz-charges read in
  non local Contribution for L=           0  read in
    real space projection operators read in
  non local Contribution for L=           0  read in
    real space projection operators read in
  non local Contribution for L=           1  read in
    real space projection operators read in
  non local Contribution for L=           1  read in
    real space projection operators read in
    PAW grid and wavefunctions read in
 
   number of l-projection  operators is LMAX  =           4
   number of lm-projection operators is LMMAX =           8
 
 -----------------------------------------------------------------------------
|                                                                             |
|               ----> ADVICE to this user running VASP <----                  |
|                                                                             |
|     You have a (more or less) 'large supercell' and for larger cells it     |
|     might be more efficient to use real-space projection operators.         |
|     Therefore, try LREAL= Auto in the INCAR file.                           |
|     Mind: For very accurate calculation, you might also keep the            |
|     reciprocal projection scheme (i.e. LREAL=.FALSE.).                      |
|                                                                             |
 -----------------------------------------------------------------------------

 -----------------------------------------------------------------------------
|                                                                             |
|               ----> ADVICE to this user running VASP <----                  |
|                                                                             |
|     You enforced a specific xc type in the INCAR file but a different       |
|     type was found in the POTCAR file.                                      |
|     I HOPE YOU KNOW WHAT YOU ARE DOING!                                     |
|                                                                             |
 -----------------------------------------------------------------------------

  PAW_PBE Si 05Jan2001                  :
 energy of atom  1       EATOM= -103.0669
 kinetic energy error for atom=    0.0016 (will be added to EATOM!!)
 
 
 POSCAR: Si
  positions in cartesian coordinates
  No initial velocities read in
 exchange correlation table for  LEXCH =       14
   RHO(1)=    0.500       N(1)  =     2000
   RHO(2)=  100.500       N(2)  =     4000
 


--------------------------------------------------------------------------------------------------------


 ion  position               nearest neighbor table
   1  0.249  0.250  0.250-  49 2.35  57 2.35  33 2.36  41 2.36
   2  0.750  0.250  0.250-  34 2.35  42 2.35  50 2.35  58 2.35
   3  0.250  0.750  0.250-  35 2.35  43 2.35  51 2.35  59 2.35
   4  0.750  0.750  0.250-  36 2.35  44 2.35  52 2.35  60 2.35
   5  0.250  0.250  0.750-  37 2.35  45 2.35  53 2.35  61 2.35
   6  0.750  0.250  0.750-  38 2.35  46 2.35  54 2.35  62 2.35
   7  0.250  0.750  0.750-  39 2.35  47 2.35  55 2.35  63 2.35
   8  0.750  0.750  0.750-  40 2.35  48 2.35  56 2.35  64 2.35
   9  0.249  0.000  0.000-  51 2.35  61 2.35  39 2.36  41 2.36
  10  0.750  0.000  0.000-  40 2.35  42 2.35  52 2.35  62 2.35
  11  0.250  0.500  0.000-  37 2.35  43 2.35  49 2.35  63 2.35
  12  0.750  0.500  0.000-  38 2.35  44 2.35  50 2.35  64 2.35
  13  0.250  0.000  0.500-  35 2.35  45 2.35  55 2.35  57 2.35
  14  0.750  0.000  0.500-  36 2.35  46 2.35  56 2.35  58 2.35
  15  0.250  0.500  0.500-  33 2.35  47 2.35  53 2.35  59 2.35
  16  0.750  0.500  0.500-  34 2.35  48 2.35  54 2.35  60 2.35
  17  0.000  0.250  0.000-  38 2.35  42 2.35  49 2.35  61 2.35
  18  0.500  0.250  0.000-  37 2.35  41 2.35  50 2.35  62 2.35
  19  0.000  0.750  0.000-  40 2.35  44 2.35  51 2.35  63 2.35
  20  0.500  0.750  0.000-  39 2.35  43 2.35  52 2.35  64 2.35
  21  0.000  0.250  0.500-  34 2.35  46 2.35  53 2.35  57 2.35
  22  0.500  0.250  0.500-  33 2.35  45 2.35  54 2.35  58 2.35
  23  0.000  0.750  0.500-  36 2.35  48 2.35  55 2.35  59 2.35
  24  0.500  0.750  0.500-  35 2.35  47 2.35  56 2.35  60 2.35
  25  0.000  0.000  0.250-  36 2.35  42 2.35  51 2.35  57 2.35
  26  0.500  0.000  0.250-  35 2.35  41 2.35  52 2.35  58 2.35
  27  0.000  0.500  0.250-  34 2.35  44 2.35  49 2.35  59 2.35
  28  0.500  0.500  0.250-  33 2.35  43 2.35  50 2.35  60 2.35
  29  0.000  0.000  0.750-  40 2.35  46 2.35  55 2.35  61 2.35
  30  0.500  0.000  0.750-  39 2.35  45 2.35  56 2.35  62 2.35
  31  0.000  0.500  0.750-  38 2.35  48 2.35  53 2.35  63 2.35
  32  0.500  0.500  0.750-  37 2.35  47 2.35  54 2.35  64 2.35
  33  0.375  0.375  0.375-  15 2.35  22 2.35  28 2.35   1 2.36
  34  0.875  0.375  0.375-   2 2.35  16 2.35  21 2.35  27 2.35
  35  0.375  0.875  0.375-   3 2.35  13 2.35  24 2.35  26 2.35
  36  0.875  0.875  0.375-   4 2.35  14 2.35  23 2.35  25 2.35
  37  0.375  0.375  0.875-   5 2.35  11 2.35  18 2.35  32 2.35
  38  0.875  0.375  0.875-   6 2.35  12 2.35  17 2.35  31 2.35
  39  0.375  0.875  0.875-   7 2.35  20 2.35  30 2.35   9 2.36
  40  0.875  0.875  0.875-   8 2.35  10 2.35  19 2.35  29 2.35
  41  0.375  0.125  0.125-  18 2.35  26 2.35   1 2.36   9 2.36
  42  0.875  0.125  0.125-   2 2.35  10 2.35  17 2.35  25 2.35
  43  0.375  0.625  0.125-   3 2.35  11 2.35  20 2.35  28 2.35
  44  0.875  0.625  0.125-   4 2.35  12 2.35  19 2.35  27 2.35
  45  0.375  0.125  0.625-   5 2.35  13 2.35  22 2.35  30 2.35
  46  0.875  0.125  0.625-   6 2.35  14 2.35  21 2.35  29 2.35
  47  0.375  0.625  0.625-   7 2.35  15 2.35  24 2.35  32 2.35
  48  0.875  0.625  0.625-   8 2.35  16 2.35  23 2.35  31 2.35
  49  0.125  0.375  0.125-   1 2.35  11 2.35  17 2.35  27 2.35
  50  0.625  0.375  0.125-   2 2.35  12 2.35  18 2.35  28 2.35
  51  0.125  0.875  0.125-   9 2.35   3 2.35  19 2.35  25 2.35
  52  0.625  0.875  0.125-   4 2.35  10 2.35  20 2.35  26 2.35
  53  0.125  0.375  0.625-   5 2.35  15 2.35  21 2.35  31 2.35
  54  0.625  0.375  0.625-   6 2.35  16 2.35  22 2.35  32 2.35
  55  0.125  0.875  0.625-   7 2.35  13 2.35  23 2.35  29 2.35
  56  0.625  0.875  0.625-   8 2.35  14 2.35  24 2.35  30 2.35
  57  0.125  0.125  0.375-   1 2.35  13 2.35  21 2.35  25 2.35
  58  0.625  0.125  0.375-   2 2.35  14 2.35  22 2.35  26 2.35
  59  0.125  0.625  0.375-   3 2.35  15 2.35  23 2.35  27 2.35
  60  0.625  0.625  0.375-   4 2.35  16 2.35  24 2.35  28 2.35
  61  0.125  0.125  0.875-   9 2.35   5 2.35  17 2.35  29 2.35
  62  0.625  0.125  0.875-   6 2.35  10 2.35  18 2.35  30 2.35
  63  0.125  0.625  0.875-   7 2.35  11 2.35  19 2.35  31 2.35
  64  0.625  0.625  0.875-   8 2.35  12 2.35  20 2.35  32 2.35
 
  LATTYP: Found a simple cubic cell.
 ALAT       =    10.8691451200
  
  Lattice vectors:
  
 A1 = (  10.8691451200,  -0.0000000000,  -0.0000000000)
 A2 = (  -0.0000000000,  10.8691451200,   0.0000000000)
 A3 = (   0.0000000000,   0.0000000000,  10.8691451200)


Analysis of symmetry for initial positions (statically):
=====================================================================
 Subroutine PRICEL returns:
 Original cell was already a primitive cell.
 

 Routine SETGRP: Setting up the symmetry group for a 
 simple cubic supercell.


 Subroutine GETGRP returns: Found  4 space group operations
 (whereof  2 operations were pure point group operations)
 out of a pool of 48 trial point group operations.


The static configuration has the point symmetry C_1h.
 The point group associated with its full space group is C_2v.


Analysis of symmetry for dynamics (positions and initial velocities):
=====================================================================
 Subroutine PRICEL returns:
 Original cell was already a primitive cell.
 

 Routine SETGRP: Setting up the symmetry group for a 
 simple cubic supercell.


 Subroutine GETGRP returns: Found  4 space group operations
 (whereof  2 operations were pure point group operations)
 out of a pool of 48 trial point group operations.


The dynamic configuration has the point symmetry C_1h.
 The point group associated with its full space group is C_2v.


 Subroutine INISYM returns: Found  4 space group operations
 (whereof  2 operations are pure point group operations),
 and found     1 'primitive' translations


----------------------------------------------------------------------------------------

                                     Primitive cell                                     

  volume of cell :    1284.0625

  direct lattice vectors                    reciprocal lattice vectors
    10.869145120 -0.000000000 -0.000000000     0.092003556  0.000000000 -0.000000000
    -0.000000000 10.869145120  0.000000000     0.000000000  0.092003556 -0.000000000
     0.000000000  0.000000000 10.869145120     0.000000000 -0.000000000  0.092003556

  length of vectors
    10.869145120 10.869145120 10.869145120     0.092003556  0.092003556  0.092003556

  position of ions in fractional coordinates (direct lattice)
     0.249079964  0.250000000  0.250000000
     0.750000000  0.250000000  0.250000000
     0.250000000  0.750000000  0.250000000
     0.750000000  0.750000000  0.250000000
     0.250000000  0.250000000  0.750000000
     0.750000000  0.250000000  0.750000000
     0.250000000  0.750000000  0.750000000
     0.750000000  0.750000000  0.750000000
     0.249079964  1.000000000  1.000000000
     0.750000000  1.000000000  1.000000000
     0.250000000  0.500000000  0.000000000
     0.750000000  0.500000000  1.000000000
     0.250000000  0.000000000  0.500000000
     0.750000000  1.000000000  0.500000000
     0.250000000  0.500000000  0.500000000
     0.750000000  0.500000000  0.500000000
     1.000000000  0.250000000  0.000000000
     0.500000000  0.250000000  1.000000000
     1.000000000  0.750000000  0.000000000
     0.500000000  0.750000000  0.000000000
     0.000000000  0.250000000  0.500000000
     0.500000000  0.250000000  0.500000000
     1.000000000  0.750000000  0.500000000
     0.500000000  0.750000000  0.500000000
     0.000000000  0.000000000  0.250000000
     0.500000000  1.000000000  0.250000000
     1.000000000  0.500000000  0.250000000
     0.500000000  0.500000000  0.250000000
     0.000000000  0.000000000  0.750000000
     0.500000000  0.000000000  0.750000000
     0.000000000  0.500000000  0.750000000
     0.500000000  0.500000000  0.750000000
     0.375000000  0.375000000  0.375000000
     0.875000000  0.375000000  0.375000000
     0.375000000  0.875000000  0.375000000
     0.875000000  0.875000000  0.375000000
     0.375000000  0.375000000  0.875000000
     0.875000000  0.375000000  0.875000000
     0.375000000  0.875000000  0.875000000
     0.875000000  0.875000000  0.875000000
     0.375000000  0.125000000  0.125000000
     0.875000000  0.125000000  0.125000000
     0.375000000  0.625000000  0.125000000
     0.875000000  0.625000000  0.125000000
     0.375000000  0.125000000  0.625000000
     0.875000000  0.125000000  0.625000000
     0.375000000  0.625000000  0.625000000
     0.875000000  0.625000000  0.625000000
     0.125000000  0.375000000  0.125000000
     0.625000000  0.375000000  0.125000000
     0.125000000  0.875000000  0.125000000
     0.625000000  0.875000000  0.125000000
     0.125000000  0.375000000  0.625000000
     0.625000000  0.375000000  0.625000000
     0.125000000  0.875000000  0.625000000
     0.625000000  0.875000000  0.625000000
     0.125000000  0.125000000  0.375000000
     0.625000000  0.125000000  0.375000000
     0.125000000  0.625000000  0.375000000
     0.625000000  0.625000000  0.375000000
     0.125000000  0.125000000  0.875000000
     0.625000000  0.125000000  0.875000000
     0.125000000  0.625000000  0.875000000
     0.625000000  0.625000000  0.875000000

  ion indices of the primitive-cell ions
   primitive index   ion index
                 1           1
                 2           2
                 3           3
                 4           4
                 5           5
                 6           6
                 7           7
                 8           8
                 9           9
                10          10
                11          11
                12          12
                13          13
                14          14
                15          15
                16          16
                17          17
                18          18
                19          19
                20          20
                21          21
                22          22
                23          23
                24          24
                25          25
                26          26
                27          27
                28          28
                29          29
                30          30
                31          31
                32          32
                33          33
                34          34
                35          35
                36          36
                37          37
                38          38
                39          39
                40          40
                41          41
                42          42
                43          43
                44          44
                45          45
                46          46
                47          47
                48          48
                49          49
                50          50
                51          51
                52          52
                53          53
                54          54
                55          55
                56          56
                57          57
                58          58
                59          59
                60          60
                61          61
                62          62
                63          63
                64          64

----------------------------------------------------------------------------------------

 
 
 KPOINTS: KPOINTS created by Atomic Simulation Env

Automatic generation of k-mesh.
 Grid dimensions read from file:
 generate k-points for:    2    2    2

 Generating k-lattice:

  Cartesian coordinates                     Fractional coordinates (reciprocal lattice)
     0.046001778  0.000000000 -0.000000000     0.500000000 -0.000000000  0.000000000
     0.000000000  0.046001778 -0.000000000    -0.000000000  0.500000000  0.000000000
     0.000000000 -0.000000000  0.046001778    -0.000000000  0.000000000  0.500000000

  Length of vectors
     0.046001778  0.046001778  0.046001778

  Shift w.r.t. Gamma in fractional coordinates (k-lattice)
     0.000000000  0.000000000  0.000000000

 
 Subroutine IBZKPT returns following result:
 ===========================================
 
 Found      6 irreducible k-points:
 
 Following reciprocal coordinates:
            Coordinates               Weight
  0.000000  0.000000  0.000000      1.000000
  0.500000  0.000000  0.000000      1.000000
 -0.000000  0.500000  0.000000      2.000000
  0.500000  0.500000  0.000000      2.000000
  0.000000  0.500000  0.500000      1.000000
  0.500000  0.500000  0.500000      1.000000
 
 Following cartesian coordinates:
            Coordinates               Weight
  0.000000  0.000000  0.000000      1.000000
  0.046002  0.000000  0.000000      1.000000
  0.000000  0.046002  0.000000      2.000000
  0.046002  0.046002  0.000000      2.000000
  0.000000  0.046002  0.046002      1.000000
  0.046002  0.046002  0.046002      1.000000
 


--------------------------------------------------------------------------------------------------------




 Dimension of arrays:
   k-points           NKPTS =      6   k-points in BZ     NKDIM =      6   number of bands    NBANDS=    168
   number of dos      NEDOS =    301   number of ions     NIONS =     64
   non local maximal  LDIM  =      4   non local SUM 2l+1 LMDIM =      8
   total plane-waves  NPLWV = 262144
   max r-space proj   IRMAX =      1   max aug-charges    IRDMAX=  54800
   dimension x,y,z NGX =    64 NGY =   64 NGZ =   64
   dimension x,y,z NGXF=   128 NGYF=  128 NGZF=  128
   support grid    NGXF=   256 NGYF=  256 NGZF=  256
   ions per type =              64
   NGX,Y,Z   is equivalent  to a cutoff of   9.79,  9.79,  9.79 a.u.
   NGXF,Y,Z  is equivalent  to a cutoff of  19.58, 19.58, 19.58 a.u.

 SYSTEM =  unknown system                          
 POSCAR =  Si                                      

 Startparameter for this run:
   NWRITE =      2    write-flag & timer
   PREC   = accura    normal or accurate (medium, high low for compatibility)
   ISTART =      0    job   : 0-new  1-cont  2-samecut
   ICHARG =      2    charge: 1-file 2-atom 10-const
   ISPIN  =      1    spin polarized calculation?
   LNONCOLLINEAR =      F non collinear calculations
   LSORBIT =      F    spin-orbit coupling
   INIWAV =      1    electr: 0-lowe 1-rand  2-diag
   LASPH  =      F    aspherical Exc in radial PAW
 Electronic Relaxation 1
   ENCUT  =  318.0 eV  23.37 Ry    4.83 a.u.  15.80 15.80 15.80*2*pi/ulx,y,z
   ENINI  =  318.0     initial cutoff
   ENAUG  =  322.1 eV  augmentation charge cutoff
   NELM   =     60;   NELMIN=  5; NELMDL= -5     # of ELM steps 
   EDIFF  = 0.1E-07   stopping-criterion for ELM
   LREAL  =      F    real-space projection
   NLSPLINE    = F    spline interpolate recip. space projectors
   LCOMPAT=      F    compatible to vasp.4.4
   GGA_COMPAT  = T    GGA compatible to vasp.4.4-vasp.4.6
   LMAXPAW     = -100 max onsite density
   LMAXMIX     =    2 max onsite mixed and CHGCAR
   VOSKOWN=      0    Vosko Wilk Nusair interpolation
   ROPT   =    0.00000
 Ionic relaxation
   EDIFFG = 0.1E-06   stopping-criterion for IOM
   NSW    =      0    number of steps for IOM
   NBLOCK =      1;   KBLOCK =      1    inner block; outer block 
   IBRION =     -1    ionic relax: 0-MD 1-quasi-New 2-CG
   NFREE  =      0    steps in history (QN), initial steepest desc. (CG)
   ISIF   =      2    stress and relaxation
   IWAVPR =     10    prediction:  0-non 1-charg 2-wave 3-comb
   ISYM   =      2    0-nonsym 1-usesym 2-fastsym
   LCORR  =      T    Harris-Foulkes like correction to forces

   POTIM  = 0.5000    time-step for ionic-motion
   TEIN   =    0.0    initial temperature
   TEBEG  =    0.0;   TEEND  =   0.0 temperature during run
   SMASS  =  -3.00    Nose mass-parameter (am)
   estimated Nose-frequenzy (Omega)   =  0.10E-29 period in steps = 0.13E+47 mass=  -0.270E-26a.u.
   SCALEE = 1.0000    scale energy and forces
   NPACO  =    256;   APACO  = 10.0  distance and # of slots for P.C.
   PSTRESS=    0.0 pullay stress

  Mass of Ions in am
   POMASS =  28.09
  Ionic Valenz
   ZVAL   =   4.00
  Atomic Wigner-Seitz radii
   RWIGS  =  -1.00
  virtual crystal weights 
   VCA    =   1.00
   NELECT =     256.0000    total number of electrons
   NUPDOWN=      -1.0000    fix difference up-down

 DOS related values:
   EMIN   =  10.00;   EMAX   =-10.00  energy-range for DOS
   EFERMI =   0.00
   ISMEAR =     0;   SIGMA  =   0.02  broadening in eV -4-tet -1-fermi 0-gaus

 Electronic relaxation 2 (details)
   IALGO  =     38    algorithm
   LDIAG  =      T    sub-space diagonalisation (order eigenvalues)
   LSUBROT=      F    optimize rotation matrix (better conditioning)
   TURBO    =      0    0=normal 1=particle mesh
   IRESTART =      0    0=no restart 2=restart with 2 vectors
   NREBOOT  =      0    no. of reboots
   NMIN     =      0    reboot dimension
   EREF     =   0.00    reference energy to select bands
   IMIX   =      4    mixing-type and parameters
     AMIX     =   0.40;   BMIX     =  1.00
     AMIX_MAG =   1.60;   BMIX_MAG =  1.00
     AMIN     =   0.10
     WC   =   100.;   INIMIX=   1;  MIXPRE=   1;  MAXMIX= -45

 Intra band minimization:
   WEIMIN = 0.0000     energy-eigenvalue tresh-hold
   EBREAK =  0.15E-10  absolut break condition
   DEPER  =   0.30     relativ break condition  

   TIME   =   0.40     timestep for ELM

  volume/ion in A,a.u.               =      20.06       135.40
  Fermi-wavevector in a.u.,A,eV,Ry     =   0.956370  1.807278 12.444490  0.914644
  Thomas-Fermi vector in A             =   2.085292
 
 Write flags
   LWAVE        =      F    write WAVECAR
   LDOWNSAMPLE  =      F    k-point downsampling of WAVECAR
   LCHARG       =      F    write CHGCAR
   LVTOT        =      F    write LOCPOT, total local potential
   LVHAR        =      F    write LOCPOT, Hartree potential only
   LELF         =      F    write electronic localiz. function (ELF)
   LORBIT       =      0    0 simple, 1 ext, 2 COOP (PROOUT), +10 PAW based schemes


 Dipole corrections
   LMONO  =      F    monopole corrections only (constant potential shift)
   LDIPOL =      F    correct potential (dipole corrections)
   IDIPOL =      0    1-x, 2-y, 3-z, 4-all directions 
   EPSILON=  1.0000000 bulk dielectric constant

 Exchange correlation treatment:
   GGA     =    PS    GGA type
   LEXCH   =    14    internal setting for exchange type
   LIBXC   =     F    Libxc                    
   VOSKOWN =     0    Vosko Wilk Nusair interpolation
   LHFCALC =     F    Hartree Fock is set to
   LHFONE  =     F    Hartree Fock one center treatment
   AEXX    =    0.0000 exact exchange contribution

 Linear response parameters
   LEPSILON=     F    determine dielectric tensor
   LRPA    =     F    only Hartree local field effects (RPA)
   LNABLA  =     F    use nabla operator in PAW spheres
   LVEL    =     F    velocity operator in full k-point grid
   CSHIFT  =0.1000    complex shift for real part using Kramers Kronig
   OMEGAMAX=  -1.0    maximum frequency
   DEG_THRESHOLD= 0.2000000E-02 threshold for treating states as degnerate
   RTIME   =   -0.100 relaxation time in fs
  (WPLASMAI=    0.000 imaginary part of plasma frequency in eV, 0.658/RTIME)
   DFIELD  = 0.0000000 0.0000000 0.0000000 field for delta impulse in time
 
  Optional k-point grid parameters
   LKPOINTS_OPT  =     F    use optional k-point grid
   KPOINTS_OPT_MODE=     1    mode for optional k-point grid
 
 Orbital magnetization related:
   ORBITALMAG=     F  switch on orbital magnetization
   LCHIMAG   =     F  perturbation theory with respect to B field
   DQ        =  0.001000  dq finite difference perturbation B field
   LLRAUG    =     F  two centre corrections for induced B field



--------------------------------------------------------------------------------------------------------


 Static calculation
 charge density and potential will be updated during run
 non-spin polarized calculation
 Variant of blocked Davidson
 Davidson routine will perform the subspace rotation
 perform sub-space diagonalisation
    after iterative eigenvector-optimisation
 modified Broyden-mixing scheme, WC =      100.0
 initial mixing is a Kerker type mixing with AMIX =  0.4000 and BMIX =      1.0000
 Hartree-type preconditioning will be used
 using additional bands           40
 reciprocal scheme for non local part
 use partial core corrections
 calculate Harris-corrections to forces 
   (improved forces if not selfconsistent)
 use gradient corrections 
 use of overlap-Matrix (Vanderbilt PP)
 Gauss-broadening in eV      SIGMA  =   0.02


--------------------------------------------------------------------------------------------------------


  energy-cutoff  :      318.00
  volume of cell :     1284.06
      direct lattice vectors                 reciprocal lattice vectors
    10.869145120 -0.000000000 -0.000000000     0.092003556  0.000000000 -0.000000000
    -0.000000000 10.869145120  0.000000000     0.000000000  0.092003556 -0.000000000
     0.000000000  0.000000000 10.869145120     0.000000000 -0.000000000  0.092003556

  length of vectors
    10.869145120 10.869145120 10.869145120     0.092003556  0.092003556  0.092003556


 
 k-points in units of 2pi/SCALE and weight: KPOINTS created by Atomic Simulation Env
   0.00000000  0.00000000  0.00000000       0.125
   0.04600178  0.00000000  0.00000000       0.125
   0.00000000  0.04600178  0.00000000       0.250
   0.04600178  0.04600178  0.00000000       0.250
   0.00000000  0.04600178  0.04600178       0.125
   0.04600178  0.04600178  0.04600178       0.125
 
 k-points in reciprocal lattice and weights: KPOINTS created by Atomic Simulation Env
   0.00000000  0.00000000  0.00000000       0.125
   0.50000000  0.00000000  0.00000000       0.125
  -0.00000000  0.50000000  0.00000000       0.250
   0.50000000  0.50000000  0.00000000       0.250
   0.00000000  0.50000000  0.50000000       0.125
   0.50000000  0.50000000  0.50000000       0.125
 
 position of ions in fractional coordinates (direct lattice) 
   0.24907996  0.25000000  0.25000000
   0.75000000  0.25000000  0.25000000
   0.25000000  0.75000000  0.25000000
   0.75000000  0.75000000  0.25000000
   0.25000000  0.25000000  0.75000000
   0.75000000  0.25000000  0.75000000
   0.25000000  0.75000000  0.75000000
   0.75000000  0.75000000  0.75000000
   0.24907996  0.00000000  0.00000000
   0.75000000  0.00000000  0.00000000
   0.25000000  0.50000000  0.00000000
   0.75000000  0.50000000  0.00000000
   0.25000000  0.00000000  0.50000000
   0.75000000  0.00000000  0.50000000
   0.25000000  0.50000000  0.50000000
   0.75000000  0.50000000  0.50000000
   0.00000000  0.25000000  0.00000000
   0.50000000  0.25000000  0.00000000
   0.00000000  0.75000000  0.00000000
   0.50000000  0.75000000  0.00000000
   0.00000000  0.25000000  0.50000000
   0.50000000  0.25000000  0.50000000
   0.00000000  0.75000000  0.50000000
   0.50000000  0.75000000  0.50000000
   0.00000000  0.00000000  0.25000000
   0.50000000  0.00000000  0.25000000
   0.00000000  0.50000000  0.25000000
   0.50000000  0.50000000  0.25000000
   0.00000000  0.00000000  0.75000000
   0.50000000  0.00000000  0.75000000
   0.00000000  0.50000000  0.75000000
   0.50000000  0.50000000  0.75000000
   0.37500000  0.37500000  0.37500000
   0.87500000  0.37500000  0.37500000
   0.37500000  0.87500000  0.37500000
   0.87500000  0.87500000  0.37500000
   0.37500000  0.37500000  0.87500000
   0.87500000  0.37500000  0.87500000
   0.37500000  0.87500000  0.87500000
   0.87500000  0.87500000  0.87500000
   0.37500000  0.12500000  0.12500000
   0.87500000  0.12500000  0.12500000
   0.37500000  0.62500000  0.12500000
   0.87500000  0.62500000  0.12500000
   0.37500000  0.12500000  0.62500000
   0.87500000  0.12500000  0.62500000
   0.37500000  0.62500000  0.62500000
   0.87500000  0.62500000  0.62500000
   0.12500000  0.37500000  0.12500000
   0.62500000  0.37500000  0.12500000
   0.12500000  0.87500000  0.12500000
   0.62500000  0.87500000  0.12500000
   0.12500000  0.37500000  0.62500000
   0.62500000  0.37500000  0.62500000
   0.12500000  0.87500000  0.62500000
   0.62500000  0.87500000  0.62500000
   0.12500000  0.12500000  0.37500000
   0.62500000  0.12500000  0.37500000
   0.12500000  0.62500000  0.37500000
   0.62500000  0.62500000  0.37500000
   0.12500000  0.12500000  0.87500000
   0.62500000  0.12500000  0.87500000
   0.12500000  0.62500000  0.87500000
   0.62500000  0.62500000  0.87500000
 
 position of ions in cartesian coordinates  (Angst):
   2.70728628  2.71728628  2.71728628
   8.15185884  2.71728628  2.71728628
   2.71728628  8.15185884  2.71728628
   8.15185884  8.15185884  2.71728628
   2.71728628  2.71728628  8.15185884
   8.15185884  2.71728628  8.15185884
   2.71728628  8.15185884  8.15185884
   8.15185884  8.15185884  8.15185884
   2.70728628 -0.00000000 -0.00000000
   8.15185884 -0.00000000 -0.00000000
   2.71728628  5.43457256  0.00000000
   8.15185884  5.43457256 -0.00000000
   2.71728628  0.00000000  5.43457256
   8.15185884 -0.00000000  5.43457256
   2.71728628  5.43457256  5.43457256
   8.15185884  5.43457256  5.43457256
  -0.00000000  2.71728628  0.00000000
   5.43457256  2.71728628 -0.00000000
  -0.00000000  8.15185884  0.00000000
   5.43457256  8.15185884  0.00000000
   0.00000000  2.71728628  5.43457256
   5.43457256  2.71728628  5.43457256
  -0.00000000  8.15185884  5.43457256
   5.43457256  8.15185884  5.43457256
   0.00000000  0.00000000  2.71728628
   5.43457256 -0.00000000  2.71728628
  -0.00000000  5.43457256  2.71728628
   5.43457256  5.43457256  2.71728628
   0.00000000  0.00000000  8.15185884
   5.43457256  0.00000000  8.15185884
   0.00000000  5.43457256  8.15185884
   5.43457256  5.43457256  8.15185884
   4.07592942  4.07592942  4.07592942
   9.51050198  4.07592942  4.07592942
   4.07592942  9.51050198  4.07592942
   9.51050198  9.51050198  4.07592942
   4.07592942  4.07592942  9.51050198
   9.51050198  4.07592942  9.51050198
   4.07592942  9.51050198  9.51050198
   9.51050198  9.51050198  9.51050198
   4.07592942  1.35864314  1.35864314
   9.51050198  1.35864314  1.35864314
   4.07592942  6.79321570  1.35864314
   9.51050198  6.79321570  1.35864314
   4.07592942  1.35864314  6.79321570
   9.51050198  1.35864314  6.79321570
   4.07592942  6.79321570  6.79321570
   9.51050198  6.79321570  6.79321570
   1.35864314  4.07592942  1.35864314
   6.79321570  4.07592942  1.35864314
   1.35864314  9.51050198  1.35864314
   6.79321570  9.51050198  1.35864314
   1.35864314  4.07592942  6.79321570
   6.79321570  4.07592942  6.79321570
   1.35864314  9.51050198  6.79321570
   6.79321570  9.51050198  6.79321570
   1.35864314  1.35864314  4.07592942
   6.79321570  1.35864314  4.07592942
   1.35864314  6.79321570  4.07592942
   6.79321570  6.79321570  4.07592942
   1.35864314  1.35864314  9.51050198
   6.79321570  1.35864314  9.51050198
   1.35864314  6.79321570  9.51050198
   6.79321570  6.79321570  9.51050198
 


--------------------------------------------------------------------------------------------------------


 k-point   1 :   0.0000 0.0000 0.0000  plane waves:   16519
 k-point   2 :   0.5000 0.0000 0.0000  plane waves:   16488
 k-point   3 :  -0.0000 0.5000 0.0000  plane waves:   16488
 k-point   4 :   0.5000 0.5000 0.0000  plane waves:   16588
 k-point   5 :   0.0000 0.5000 0.5000  plane waves:   16588
 k-point   6 :   0.5000 0.5000 0.5000  plane waves:   16560

 maximum and minimum number of plane-waves per node :      4170     4090

 maximum number of plane-waves:     16588
 maximum index in each direction: 
   IXMAX=   15   IYMAX=   15   IZMAX=   15
   IXMIN=  -16   IYMIN=  -16   IZMIN=  -16


 parallel 3D FFT for wavefunctions:
    minimum data exchange during FFTs selected (reduces bandwidth)
 parallel 3D FFT for charge:
    minimum data exchange during FFTs selected (reduces bandwidth)


 total amount of memory used by VASP MPI-rank0    61993. kBytes
=======================================================================

   base      :      30000. kBytes
   nonl-proj :       5879. kBytes
   fftplans  :      11573. kBytes
   grid      :       5816. kBytes
   one-center:         49. kBytes
   wavefun   :       8676. kBytes
 
     INWAV:  cpu time      0.0000: real time      0.0000
 Broyden mixing: mesh for mixing (old mesh)
   NGX = 31   NGY = 31   NGZ = 31
  (NGX  =128   NGY  =128   NGZ  =128)
  gives a total of  29791 points

 initial charge density was supplied:
 charge density of overlapping atoms calculated
 number of electron     256.0000000 magnetization 
 keeping initial charge density in first step


--------------------------------------------------------------------------------------------------------


 Maximum index for augmentation-charges         1701 (set IRDMAX)


--------------------------------------------------------------------------------------------------------


 First call to EWALD:  gamma=   0.163
 Maximum number of real-space cells 3x 3x 3
 Maximum number of reciprocal cells 3x 3x 3

    FEWALD:  cpu time      0.0016: real time      0.0016


--------------------------------------- Iteration      1(   1)  ---------------------------------------


    POTLOK:  cpu time      0.0227: real time      0.0229
    SETDIJ:  cpu time      0.0223: real time      0.0224
     EDDAV:  cpu time      1.7092: real time      1.7179
       DOS:  cpu time      0.0006: real time      0.0006
    --------------------------------------------
      LOOP:  cpu time      1.7548: real time      1.7639

 eigenvalue-minimisations  :  2016
 total energy-change (2. order) : 0.4553407E+03  (-0.7271899E+04)
 number of electron     256.0000000 magnetization 
 augmentation part      256.0000000 magnetization 

 Free energy of the ion-electron system (eV)
  ---------------------------------------------------
  alpha Z        PSCENC =       107.38120932
  Ewald energy   TEWEN  =     -7307.87500066
  -Hartree energ DENC   =      -353.25128773
  -exchange      EXHF   =         0.00000000
  -V(xc)+E(xc)   XCENC  =      -558.85370750
  PAW double counting   =      5598.62625415    -4492.17844134
  entropy T*S    EENTRO =        -0.00539660
  eigenvalues    EBANDS =       896.73009557
  atomic energy  EATOM  =      6564.76702419
  Solvation  Ediel_sol  =         0.00000000
  ---------------------------------------------------
  free energy    TOTEN  =       455.34074940 eV

  energy without entropy =      455.34614600  energy(sigma->0) =      455.34344770


--------------------------------------------------------------------------------------------------------




--------------------------------------- Iteration      1(   2)  ---------------------------------------


     EDDAV:  cpu time      1.9636: real time      1.9748
       DOS:  cpu time      0.0002: real time      0.0002
    --------------------------------------------
      LOOP:  cpu time      1.9638: real time      1.9750

 eigenvalue-minimisations  :  2424
 total energy-change (2. order) :-0.7765212E+03  (-0.7333168E+03)
 number of electron     256.0000000 magnetization 
 augmentation part      256.0000000 magnetization 

 Free energy of the ion-electron system (eV)
  ---------------------------------------------------
  alpha Z        PSCENC =       107.38120932
  Ewald energy   TEWEN  =     -7307.87500066
  -Hartree energ DENC   =      -353.25128773
  -exchange      EXHF   =         0.00000000
  -V(xc)+E(xc)   XCENC  =      -558.85370750
  PAW double counting   =      5598.62625415    -4492.17844134
  entropy T*S    EENTRO =        -0.00000000
  eigenvalues    EBANDS =       120.20353925
  atomic energy  EATOM  =      6564.76702419
  Solvation  Ediel_sol  =         0.00000000
  ---------------------------------------------------
  free energy    TOTEN  =      -321.18041032 eV

  energy without entropy =     -321.18041032  energy(sigma->0) =     -321.18041032


--------------------------------------------------------------------------------------------------------




--------------------------------------- Iteration      1(   3)  ---------------------------------------


     EDDAV:  cpu time      1.9908: real time      2.0016
       DOS:  cpu time      0.0002: real time      0.0002
    --------------------------------------------
      LOOP:  cpu time      1.9911: real time      2.0018

 eigenvalue-minimisations  :  2472
 total energy-change (2. order) :-0.5225137E+02  (-0.5143727E+02)
 number of electron     256.0000000 magnetization 
 augmentation part      256.0000000 magnetization 

 Free energy of the ion-electron system (eV)
  ---------------------------------------------------
  alpha Z        PSCENC =       107.38120932
  Ewald energy   TEWEN  =     -7307.87500066
  -Hartree energ DENC   =      -353.25128773
  -exchange      EXHF   =         0.00000000
  -V(xc)+E(xc)   XCENC  =      -558.85370750
  PAW double counting   =      5598.62625415    -4492.17844134
  entropy T*S    EENTRO =        -0.00000000
  eigenvalues    EBANDS =        67.95216930
  atomic energy  EATOM  =      6564.76702419
  Solvation  Ediel_sol  =         0.00000000
  ---------------------------------------------------
  free energy    TOTEN  =      -373.43178027 eV

  energy without entropy =     -373.43178027  energy(sigma->0) =     -373.43178027


--------------------------------------------------------------------------------------------------------




--------------------------------------- Iteration      1(   4)  ---------------------------------------


     EDDAV:  cpu time      1.9712: real time      1.9817
       DOS:  cpu time      0.0002: real time      0.0002
    --------------------------------------------
      LOOP:  cpu time      1.9714: real time      1.9819

 eigenvalue-minimisations  :  2440
 total energy-change (2. order) :-0.1168696E+01  (-0.1160730E+01)
 number of electron     256.0000000 magnetization 
 augmentation part      256.0000000 magnetization 

 Free energy of the ion-electron system (eV)
  ---------------------------------------------------
  alpha Z        PSCENC =       107.38120932
  Ewald energy   TEWEN  =     -7307.87500066
  -Hartree energ DENC   =      -353.25128773
  -exchange      EXHF   =         0.00000000
  -V(xc)+E(xc)   XCENC  =      -558.85370750
  PAW double counting   =      5598.62625415    -4492.17844134
  entropy T*S    EENTRO =        -0.00000000
  eigenvalues    EBANDS =        66.78347284
  atomic energy  EATOM  =      6564.76702419
  Solvation  Ediel_sol  =         0.00000000
  ---------------------------------------------------
  free energy    TOTEN  =      -374.60047673 eV

  energy without entropy =     -374.60047673  energy(sigma->0) =     -374.60047673


--------------------------------------------------------------------------------------------------------




--------------------------------------- Iteration      1(   5)  ---------------------------------------


     EDDAV:  cpu time      1.9270: real time      1.9376
       DOS:  cpu time      0.0002: real time      0.0002
    CHARGE:  cpu time      0.0806: real time      0.0810
    MIXING:  cpu time      0.0011: real time      0.0011
    --------------------------------------------
      LOOP:  cpu time      2.0089: real time      2.0199

 eigenvalue-minimisations  :  2368
 total energy-change (2. order) :-0.4019261E-01  (-0.4014352E-01)
 number of electron     255.9999994 magnetization 
 augmentation part      -14.9590287 magnetization 

 Broyden mixing:
  rms(total) = 0.28462E+01    rms(broyden)= 0.28462E+01
  rms(prec ) = 0.31318E+01
  weight for this iteration     100.00

 Free energy of the ion-electron system (eV)
  ---------------------------------------------------
  alpha Z        PSCENC =       107.38120932
  Ewald energy   TEWEN  =     -7307.87500066
  -Hartree energ DENC   =      -353.25128773
  -exchange      EXHF   =         0.00000000
  -V(xc)+E(xc)   XCENC  =      -558.85370750
  PAW double counting   =      5598.62625415    -4492.17844134
  entropy T*S    EENTRO =        -0.00000000
  eigenvalues    EBANDS =        66.74328023
  atomic energy  EATOM  =      6564.76702419
  Solvation  Ediel_sol  =         0.00000000
  ---------------------------------------------------
  free energy    TOTEN  =      -374.64066934 eV

  energy without entropy =     -374.64066934  energy(sigma->0) =     -374.64066934


--------------------------------------------------------------------------------------------------------




--------------------------------------- Iteration      1(   6)  ---------------------------------------


    POTLOK:  cpu time      0.0225: real time      0.0227
    SETDIJ:  cpu time      0.0219: real time      0.0220
     EDDAV:  cpu time      1.8768: real time      1.8870
       DOS:  cpu time      0.0005: real time      0.0005
    CHARGE:  cpu time      0.0810: real time      0.0813
    MIXING:  cpu time      0.0009: real time      0.0009
    --------------------------------------------
      LOOP:  cpu time      2.0036: real time      2.0144

 eigenvalue-minimisations  :  2288
 total energy-change (2. order) : 0.4919039E+01  (-0.2590830E+00)
 number of electron     255.9999994 magnetization 
 augmentation part      -14.7998013 magnetization 

 Broyden mixing:
  rms(total) = 0.17162E+01    rms(broyden)= 0.17162E+01
  rms(prec ) = 0.18754E+01
  weight for this iteration     100.00

 eigenvalues of (default mixing * dielectric matrix)
  average eigenvalue GAMMA=   2.5113
  2.5113

 Free energy of the ion-electron system (eV)
  ---------------------------------------------------
  alpha Z        PSCENC =       107.38120932
  Ewald energy   TEWEN  =     -7307.87500066
  -Hartree energ DENC   =      -399.23490241
  -exchange      EXHF   =         0.00000000
  -V(xc)+E(xc)   XCENC  =      -551.57559718
  PAW double counting   =     12481.80764029   -11378.60518138
  entropy T*S    EENTRO =        -0.00000000
  eigenvalues    EBANDS =       113.61317710
  atomic energy  EATOM  =      6564.76702419
  Solvation  Ediel_sol  =         0.00000000
  ---------------------------------------------------
  free energy    TOTEN  =      -369.72163073 eV

  energy without entropy =     -369.72163073  energy(sigma->0) =     -369.72163073


--------------------------------------------------------------------------------------------------------




--------------------------------------- Iteration      1(   7)  ---------------------------------------


    POTLOK:  cpu time      0.0214: real time      0.0216
    SETDIJ:  cpu time      0.0219: real time      0.0220
     EDDAV:  cpu time      1.8551: real time      1.8650
       DOS:  cpu time      0.0002: real time      0.0002
    CHARGE:  cpu time      0.0801: real time      0.0806
    MIXING:  cpu time      0.0011: real time      0.0011
    --------------------------------------------
      LOOP:  cpu time      1.9799: real time      1.9906

 eigenvalue-minimisations  :  2256
 total energy-change (2. order) : 0.2231263E+01  (-0.5241182E+00)
 number of electron     255.9999994 magnetization 
 augmentation part      -14.5985374 magnetization 

 Broyden mixing:
  rms(total) = 0.99632E-01    rms(broyden)= 0.99632E-01
  rms(prec ) = 0.12391E+00
  weight for this iteration     100.00

 eigenvalues of (default mixing * dielectric matrix)
  average eigenvalue GAMMA=   2.2464
  2.2464  2.2464

 Free energy of the ion-electron system (eV)
  ---------------------------------------------------
  alpha Z        PSCENC =       107.38120932
  Ewald energy   TEWEN  =     -7307.87500066
  -Hartree energ DENC   =      -473.65911559
  -exchange      EXHF   =         0.00000000
  -V(xc)+E(xc)   XCENC  =      -539.13610143
  PAW double counting   =     29121.15773224   -28022.32776015
  entropy T*S    EENTRO =        -0.00000000
  eigenvalues    EBANDS =       182.20164392
  atomic energy  EATOM  =      6564.76702419
  Solvation  Ediel_sol  =         0.00000000
  ---------------------------------------------------
  free energy    TOTEN  =      -367.49036816 eV

  energy without entropy =     -367.49036816  energy(sigma->0) =     -367.49036816


--------------------------------------------------------------------------------------------------------




--------------------------------------- Iteration      1(   8)  ---------------------------------------


    POTLOK:  cpu time      0.0218: real time      0.0220
    SETDIJ:  cpu time      0.0221: real time      0.0222
     EDDAV:  cpu time      1.8795: real time      1.8894
       DOS:  cpu time      0.0002: real time      0.0002
    CHARGE:  cpu time      0.0801: real time      0.0804
    MIXING:  cpu time      0.0011: real time      0.0011
    --------------------------------------------
      LOOP:  cpu time      2.0048: real time      2.0154

 eigenvalue-minimisations  :  2288
 total energy-change (2. order) :-0.7048092E-02  (-0.2827657E-01)
 number of electron     255.9999994 magnetization 
 augmentation part      -14.6402608 magnetization 

 Broyden mixing:
  rms(total) = 0.35129E-01    rms(broyden)= 0.35128E-01
  rms(prec ) = 0.40451E-01
  weight for this iteration     100.00

 eigenvalues of (default mixing * dielectric matrix)
  average eigenvalue GAMMA=   2.4031
  2.7856  2.2118  2.2118

 Free energy of the ion-electron system (eV)
  ---------------------------------------------------
  alpha Z        PSCENC =       107.38120932
  Ewald energy   TEWEN  =     -7307.87500066
  -Hartree energ DENC   =      -466.70252393
  -exchange      EXHF   =         0.00000000
  -V(xc)+E(xc)   XCENC  =      -539.74181915
  PAW double counting   =     28623.17402863   -27523.54464566
  entropy T*S    EENTRO =        -0.00000000
  eigenvalues    EBANDS =       175.04431102
  atomic energy  EATOM  =      6564.76702419
  Solvation  Ediel_sol  =         0.00000000
  ---------------------------------------------------
  free energy    TOTEN  =      -367.49741625 eV

  energy without entropy =     -367.49741625  energy(sigma->0) =     -367.49741625


--------------------------------------------------------------------------------------------------------




--------------------------------------- Iteration      1(   9)  ---------------------------------------


    POTLOK:  cpu time      0.0216: real time      0.0217
    SETDIJ:  cpu time      0.0220: real time      0.0221
     EDDAV:  cpu time      2.0086: real time      2.0193
       DOS:  cpu time      0.0002: real time      0.0002
    CHARGE:  cpu time      0.0802: real time      0.0807
    MIXING:  cpu time      0.0009: real time      0.0009
    --------------------------------------------
      LOOP:  cpu time      2.1335: real time      2.1450

 eigenvalue-minimisations  :  2504
 total energy-change (2. order) :-0.1532242E-02  (-0.7286645E-03)
 number of electron     255.9999994 magnetization 
 augmentation part      -14.6408778 magnetization 

 Broyden mixing:
  rms(total) = 0.30880E-01    rms(broyden)= 0.30880E-01
  rms(prec ) = 0.32003E-01
  weight for this iteration     100.00

 eigenvalues of (default mixing * dielectric matrix)
  average eigenvalue GAMMA=   2.3361
  3.7217  2.3937  2.3937  0.8353

 Free energy of the ion-electron system (eV)
  ---------------------------------------------------
  alpha Z        PSCENC =       107.38120932
  Ewald energy   TEWEN  =     -7307.87500066
  -Hartree energ DENC   =      -468.66765781
  -exchange      EXHF   =         0.00000000
  -V(xc)+E(xc)   XCENC  =      -539.41072600
  PAW double counting   =     28769.22271747   -27669.69795464
  entropy T*S    EENTRO =        -0.00000000
  eigenvalues    EBANDS =       176.78143964
  atomic energy  EATOM  =      6564.76702419
  Solvation  Ediel_sol  =         0.00000000
  ---------------------------------------------------
  free energy    TOTEN  =      -367.49894849 eV

  energy without entropy =     -367.49894849  energy(sigma->0) =     -367.49894849


--------------------------------------------------------------------------------------------------------




--------------------------------------- Iteration      1(  10)  ---------------------------------------


    POTLOK:  cpu time      0.0212: real time      0.0214
    SETDIJ:  cpu time      0.0219: real time      0.0221
     EDDAV:  cpu time      1.8522: real time      1.8618
       DOS:  cpu time      0.0002: real time      0.0002
    CHARGE:  cpu time      0.0806: real time      0.0812
    MIXING:  cpu time      0.0011: real time      0.0011
    --------------------------------------------
      LOOP:  cpu time      1.9772: real time      1.9877

 eigenvalue-minimisations  :  2248
 total energy-change (2. order) :-0.8421599E-03  (-0.2082094E-03)
 number of electron     255.9999994 magnetization 
 augmentation part      -14.6429125 magnetization 

 Broyden mixing:
  rms(total) = 0.22164E-01    rms(broyden)= 0.22164E-01
  rms(prec ) = 0.22277E-01
  weight for this iteration     100.00

 eigenvalues of (default mixing * dielectric matrix)
  average eigenvalue GAMMA=   1.8665
  2.8607  2.2493  2.2493  0.9866  0.9866

 Free energy of the ion-electron system (eV)
  ---------------------------------------------------
  alpha Z        PSCENC =       107.38120932
  Ewald energy   TEWEN  =     -7307.87500066
  -Hartree energ DENC   =      -468.88706739
  -exchange      EXHF   =         0.00000000
  -V(xc)+E(xc)   XCENC  =      -539.33902674
  PAW double counting   =     28261.57147642   -27162.01414416
  entropy T*S    EENTRO =        -0.00000000
  eigenvalues    EBANDS =       176.89573837
  atomic energy  EATOM  =      6564.76702419
  Solvation  Ediel_sol  =         0.00000000
  ---------------------------------------------------
  free energy    TOTEN  =      -367.49979065 eV

  energy without entropy =     -367.49979065  energy(sigma->0) =     -367.49979065


--------------------------------------------------------------------------------------------------------




--------------------------------------- Iteration      1(  11)  ---------------------------------------


    POTLOK:  cpu time      0.0212: real time      0.0214
    SETDIJ:  cpu time      0.0221: real time      0.0222
     EDDAV:  cpu time      1.9088: real time      1.9185
       DOS:  cpu time      0.0002: real time      0.0002
    CHARGE:  cpu time      0.0793: real time      0.0799
    MIXING:  cpu time      0.0021: real time      0.0021
    --------------------------------------------
      LOOP:  cpu time      2.0337: real time      2.0444

 eigenvalue-minimisations  :  2336
 total energy-change (2. order) :-0.3497746E-04  (-0.8567987E-05)
 number of electron     255.9999994 magnetization 
 augmentation part      -14.6438117 magnetization 

 Broyden mixing:
  rms(total) = 0.93137E-03    rms(broyden)= 0.93135E-03
  rms(prec ) = 0.10208E-02
  weight for this iteration     100.00

 eigenvalues of (default mixing * dielectric matrix)
  average eigenvalue GAMMA=   1.7576
  2.8877  2.2578  2.2578  1.1895  1.1895  0.7631

 Free energy of the ion-electron system (eV)
  ---------------------------------------------------
  alpha Z        PSCENC =       107.38120932
  Ewald energy   TEWEN  =     -7307.87500066
  -Hartree energ DENC   =      -468.75198253
  -exchange      EXHF   =         0.00000000
  -V(xc)+E(xc)   XCENC  =      -539.35254550
  PAW double counting   =     28480.37132721   -27380.80153235
  entropy T*S    EENTRO =        -0.00000000
  eigenvalues    EBANDS =       176.76167470
  atomic energy  EATOM  =      6564.76702419
  Solvation  Ediel_sol  =         0.00000000
  ---------------------------------------------------
  free energy    TOTEN  =      -367.49982563 eV

  energy without entropy =     -367.49982563  energy(sigma->0) =     -367.49982563


--------------------------------------------------------------------------------------------------------




--------------------------------------- Iteration      1(  12)  ---------------------------------------


    POTLOK:  cpu time      0.0211: real time      0.0213
    SETDIJ:  cpu time      0.0220: real time      0.0222
     EDDAV:  cpu time      1.9477: real time      1.9577
       DOS:  cpu time      0.0002: real time      0.0002
    CHARGE:  cpu time      0.0798: real time      0.0804
    MIXING:  cpu time      0.0018: real time      0.0018
    --------------------------------------------
      LOOP:  cpu time      2.0726: real time      2.0837

 eigenvalue-minimisations  :  2408
 total energy-change (2. order) :-0.2311800E-05  (-0.3217660E-06)
 number of electron     255.9999994 magnetization 
 augmentation part      -14.6436919 magnetization 

 Broyden mixing:
  rms(total) = 0.84048E-03    rms(broyden)= 0.84048E-03
  rms(prec ) = 0.86974E-03
  weight for this iteration     100.00

 eigenvalues of (default mixing * dielectric matrix)
  average eigenvalue GAMMA=   1.8553
  3.0110  2.5054  2.5054  2.1915  0.9856  0.8941  0.8941

 Free energy of the ion-electron system (eV)
  ---------------------------------------------------
  alpha Z        PSCENC =       107.38120932
  Ewald energy   TEWEN  =     -7307.87500066
  -Hartree energ DENC   =      -468.78416062
  -exchange      EXHF   =         0.00000000
  -V(xc)+E(xc)   XCENC  =      -539.35097583
  PAW double counting   =     28482.11665697   -27382.54602152
  entropy T*S    EENTRO =        -0.00000000
  eigenvalues    EBANDS =       176.79144022
  atomic energy  EATOM  =      6564.76702419
  Solvation  Ediel_sol  =         0.00000000
  ---------------------------------------------------
  free energy    TOTEN  =      -367.49982794 eV

  energy without entropy =     -367.49982794  energy(sigma->0) =     -367.49982794


--------------------------------------------------------------------------------------------------------




--------------------------------------- Iteration      1(  13)  ---------------------------------------


    POTLOK:  cpu time      0.0216: real time      0.0218
    SETDIJ:  cpu time      0.0221: real time      0.0222
     EDDAV:  cpu time      1.8658: real time      1.8757
       DOS:  cpu time      0.0002: real time      0.0002
    CHARGE:  cpu time      0.0808: real time      0.0811
    MIXING:  cpu time      0.0015: real time      0.0015
    --------------------------------------------
      LOOP:  cpu time      1.9920: real time      2.0025

 eigenvalue-minimisations  :  2272
 total energy-change (2. order) : 0.1047436E-05  (-0.8508477E-07)
 number of electron     255.9999994 magnetization 
 augmentation part      -14.6436541 magnetization 

 Broyden mixing:
  rms(total) = 0.19612E-03    rms(broyden)= 0.19612E-03
  rms(prec ) = 0.20231E-03
  weight for this iteration     100.00

 eigenvalues of (default mixing * dielectric matrix)
  average eigenvalue GAMMA=   1.7789
  3.0632  2.6342  2.3296  2.2417  0.9499  0.9499  1.0313  1.0313

 Free energy of the ion-electron system (eV)
  ---------------------------------------------------
  alpha Z        PSCENC =       107.38120932
  Ewald energy   TEWEN  =     -7307.87500066
  -Hartree energ DENC   =      -468.78729575
  -exchange      EXHF   =         0.00000000
  -V(xc)+E(xc)   XCENC  =      -539.35329388
  PAW double counting   =     28476.59189251   -27377.01879857
  entropy T*S    EENTRO =        -0.00000000
  eigenvalues    EBANDS =       176.79443596
  atomic energy  EATOM  =      6564.76702419
  Solvation  Ediel_sol  =         0.00000000
  ---------------------------------------------------
  free energy    TOTEN  =      -367.49982690 eV

  energy without entropy =     -367.49982690  energy(sigma->0) =     -367.49982690


--------------------------------------------------------------------------------------------------------




--------------------------------------- Iteration      1(  14)  ---------------------------------------


    POTLOK:  cpu time      0.0217: real time      0.0218
    SETDIJ:  cpu time      0.0219: real time      0.0220
     EDDAV:  cpu time      1.6298: real time      1.6382
       DOS:  cpu time      0.0002: real time      0.0002
    CHARGE:  cpu time      0.0798: real time      0.0801
    MIXING:  cpu time      0.0014: real time      0.0014
    --------------------------------------------
      LOOP:  cpu time      1.7548: real time      1.7638

 eigenvalue-minimisations  :  1880
 total energy-change (2. order) : 0.1633189E-06  (-0.2736971E-08)
 number of electron     255.9999994 magnetization 
 augmentation part      -14.6436494 magnetization 

 Broyden mixing:
  rms(total) = 0.47496E-04    rms(broyden)= 0.47496E-04
  rms(prec ) = 0.49714E-04
  weight for this iteration     100.00

 eigenvalues of (default mixing * dielectric matrix)
  average eigenvalue GAMMA=   1.8129
  3.0733  2.5234  2.5234  2.1049  2.1049  1.1626  0.9865  0.9186  0.9186

 Free energy of the ion-electron system (eV)
  ---------------------------------------------------
  alpha Z        PSCENC =       107.38120932
  Ewald energy   TEWEN  =     -7307.87500066
  -Hartree energ DENC   =      -468.78680709
  -exchange      EXHF   =         0.00000000
  -V(xc)+E(xc)   XCENC  =      -539.35375238
  PAW double counting   =     28475.04339445   -27375.47010076
  entropy T*S    EENTRO =        -0.00000000
  eigenvalues    EBANDS =       176.79420620
  atomic energy  EATOM  =      6564.76702419
  Solvation  Ediel_sol  =         0.00000000
  ---------------------------------------------------
  free energy    TOTEN  =      -367.49982673 eV

  energy without entropy =     -367.49982673  energy(sigma->0) =     -367.49982673


--------------------------------------------------------------------------------------------------------




--------------------------------------- Iteration      1(  15)  ---------------------------------------


    POTLOK:  cpu time      0.0211: real time      0.0213
    SETDIJ:  cpu time      0.0220: real time      0.0221
     EDDAV:  cpu time      1.3326: real time      1.3399
       DOS:  cpu time      0.0002: real time      0.0002
    --------------------------------------------
      LOOP:  cpu time      1.3759: real time      1.3835

 eigenvalue-minimisations  :  1392
 total energy-change (2. order) : 0.8300049E-08  (-0.1061494E-08)
 number of electron     255.9999994 magnetization 
 augmentation part      -14.6436494 magnetization 

 Free energy of the ion-electron system (eV)
  ---------------------------------------------------
  alpha Z        PSCENC =       107.38120932
  Ewald energy   TEWEN  =     -7307.87500066
  -Hartree energ DENC   =      -468.78640923
  -exchange      EXHF   =         0.00000000
  -V(xc)+E(xc)   XCENC  =      -539.35379505
  PAW double counting   =     28474.95143753   -27375.37819354
  entropy T*S    EENTRO =        -0.00000000
  eigenvalues    EBANDS =       176.79390072
  atomic energy  EATOM  =      6564.76702419
  Solvation  Ediel_sol  =         0.00000000
  ---------------------------------------------------
  free energy    TOTEN  =      -367.49982672 eV

  energy without entropy =     -367.49982672  energy(sigma->0) =     -367.49982672


--------------------------------------------------------------------------------------------------------




 average (electrostatic) potential at core
  the test charge radii are     0.9892
  (the norm of the test charge is              1.0000)
       1 -83.0552       2 -83.0576       3 -83.0594       4 -83.0570       5 -83.0594
       6 -83.0570       7 -83.0552       8 -83.0576       9 -83.0552      10 -83.0576
      11 -83.0594      12 -83.0570      13 -83.0594      14 -83.0570      15 -83.0552
      16 -83.0576      17 -83.0571      18 -83.0575      19 -83.0573      20 -83.0573
      21 -83.0573      22 -83.0573      23 -83.0575      24 -83.0571      25 -83.0571
      26 -83.0575      27 -83.0573      28 -83.0573      29 -83.0573      30 -83.0573
      31 -83.0575      32 -83.0571      33 -83.0563      34 -83.0578      35 -83.0578
      36 -83.0568      37 -83.0578      38 -83.0568      39 -83.0563      40 -83.0578
      41 -83.0578      42 -83.0579      43 -83.0577      44 -83.0568      45 -83.0577
      46 -83.0568      47 -83.0547      48 -83.0576      49 -83.0569      50 -83.0572
      51 -83.0569      52 -83.0572      53 -83.0584      54 -83.0574      55 -83.0584
      56 -83.0574      57 -83.0569      58 -83.0572      59 -83.0584      60 -83.0574
      61 -83.0569      62 -83.0572      63 -83.0584      64 -83.0574
 
 
 
 E-fermi :   5.8938     XC(G=0):  -9.5445     alpha+bet :-11.9543

 Fermi energy:         5.8938372926

 k-point     1 :       0.0000    0.0000    0.0000
  band No.  band energies     occupation 
      1      -6.2055      2.00000
      2      -5.1242      2.00000
      3      -5.1218      2.00000
      4      -5.1218      2.00000
      5      -5.1210      2.00000
      6      -5.1208      2.00000
      7      -5.1182      2.00000
      8      -4.1598      2.00000
      9      -4.1582      2.00000
     10      -4.1567      2.00000
     11      -4.1561      2.00000
     12      -4.1554      2.00000
     13      -4.1551      2.00000
     14      -4.1551      2.00000
     15      -4.1550      2.00000
     16      -4.1548      2.00000
     17      -4.1541      2.00000
     18      -4.1508      2.00000
     19      -4.1495      2.00000
     20      -3.8630      2.00000
     21      -3.8616      2.00000
     22      -3.8597      2.00000
     23      -3.8582      2.00000
     24      -2.0540      2.00000
     25      -2.0539      2.00000
     26      -2.0520      2.00000
     27      -2.0519      2.00000
     28      -2.0500      2.00000
     29      -2.0500      2.00000
     30      -1.8865      2.00000
     31      -1.8860      2.00000
     32      -1.8852      2.00000
     33      -1.8840      2.00000
     34      -1.8831      2.00000
     35      -1.8831      2.00000
     36      -1.8829      2.00000
     37      -1.8827      2.00000
     38      -1.8825      2.00000
     39      -1.8807      2.00000
     40      -1.8783      2.00000
     41      -1.8775      2.00000
     42      -1.2373      2.00000
     43      -1.2351      2.00000
     44      -1.2343      2.00000
     45      -1.2321      2.00000
     46       0.2783      2.00000
     47       0.2784      2.00000
     48       0.2802      2.00000
     49       0.2815      2.00000
     50       0.2818      2.00000
     51       0.2818      2.00000
     52       0.2819      2.00000
     53       0.2820      2.00000
     54       0.2821      2.00000
     55       0.2839      2.00000
     56       0.2852      2.00000
     57       0.2862      2.00000
     58       1.8686      2.00000
     59       1.8693      2.00000
     60       1.8705      2.00000
     61       1.8705      2.00000
     62       1.8709      2.00000
     63       1.8710      2.00000
     64       1.8711      2.00000
     65       1.8711      2.00000
     66       1.8715      2.00000
     67       1.8719      2.00000
     68       1.8733      2.00000
     69       1.8742      2.00000
     70       1.9708      2.00000
     71       1.9717      2.00000
     72       1.9717      2.00000
     73       1.9719      2.00000
     74       1.9722      2.00000
     75       1.9733      2.00000
     76       1.9737      2.00000
     77       1.9737      2.00000
     78       1.9740      2.00000
     79       1.9752      2.00000
     80       1.9756      2.00000
     81       1.9762      2.00000
     82       2.2495      2.00000
     83       2.2495      2.00000
     84       2.2504      2.00000
     85       2.2518      2.00000
     86       2.2534      2.00000
     87       2.2541      2.00000
     88       2.9006      2.00000
     89       2.9008      2.00000
     90       2.9017      2.00000
     91       2.9017      2.00000
     92       2.9027      2.00000
     93       2.9027      2.00000
     94       3.8615      2.00000
     95       3.8651      2.00000
     96       3.8652      2.00000
     97       3.8664      2.00000
     98       3.8665      2.00000
     99       3.8667      2.00000
    100       3.8667      2.00000
    101       3.8668      2.00000
    102       3.8669      2.00000
    103       3.8681      2.00000
    104       3.8682      2.00000
    105       3.8718      2.00000
    106       4.4314      2.00000
    107       4.4354      2.00000
    108       4.4358      2.00000
    109       4.4361      2.00000
    110       4.4362      2.00000
    111       4.4367      2.00000
    112       4.4368      2.00000
    113       4.4370      2.00000
    114       4.4376      2.00000
    115       4.4385      2.00000
    116       4.4398      2.00000
    117       4.4426      2.00000
    118       4.5655      2.00000
    119       4.5684      2.00000
    120       4.5689      2.00000
    121       4.5692      2.00000
    122       4.5704      2.00000
    123       4.5708      2.00000
    124       4.5713      2.00000
    125       4.5745      2.00000
    126       5.7690      2.00000
    127       5.7720      2.00000
    128       5.7750      2.00000
    129       6.3629      0.00000
    130       6.3643      0.00000
    131       6.3658      0.00000
    132       6.3658      0.00000
    133       6.3672      0.00000
    134       6.3686      0.00000
    135       6.8056      0.00000
    136       6.8067      0.00000
    137       6.8076      0.00000
    138       6.8095      0.00000
    139       6.8095      0.00000
    140       6.8095      0.00000
    141       7.2314      0.00000
    142       7.2318      0.00000
    143       7.2322      0.00000
    144       7.2325      0.00000
    145       8.1338      0.00000
    146       8.1353      0.00000
    147       8.1357      0.00000
    148       8.1374      0.00000
    149       8.1374      0.00000
    150       8.1379      0.00000
    151       8.1379      0.00000
    152       8.1384      0.00000
    153       8.1384      0.00000
    154       8.1402      0.00000
    155       8.1404      0.00000
    156       8.1419      0.00000
    157       8.2872      0.00000
    158       8.2889      0.00000
    159       8.2907      0.00000
    160       8.7968      0.00000
    161       8.7968      0.00000
    162       8.7970      0.00000
    163       8.7989      0.00000
    164       8.7990      0.00000
    165       8.7991      0.00000
    166       9.0488      0.00000
    167       9.0503      0.00000
    168       9.0538      0.00000

 k-point     2 :       0.5000    0.0000    0.0000
  band No.  band energies     occupation 
      1      -5.9334      2.00000
      2      -5.9307      2.00000
      3      -4.8746      2.00000
      4      -4.8746      2.00000
      5      -4.8739      2.00000
      6      -4.8739      2.00000
      7      -4.8726      2.00000
      8      -4.8726      2.00000
      9      -4.8699      2.00000
     10      -4.8699      2.00000
     11      -4.0268      2.00000
     12      -4.0247      2.00000
     13      -4.0230      2.00000
     14      -4.0228      2.00000
     15      -4.0226      2.00000
     16      -4.0224      2.00000
     17      -4.0207      2.00000
     18      -4.0187      2.00000
     19      -3.8079      2.00000
     20      -3.8033      2.00000
     21      -3.0796      2.00000
     22      -3.0796      2.00000
     23      -3.0774      2.00000
     24      -3.0774      2.00000
     25      -3.0768      2.00000
     26      -3.0768      2.00000
     27      -3.0719      2.00000
     28      -3.0718      2.00000
     29      -1.9758      2.00000
     30      -1.9719      2.00000
     31      -1.9719      2.00000
     32      -1.9716      2.00000
     33      -1.9713      2.00000
     34      -1.9711      2.00000
     35      -1.9710      2.00000
     36      -1.9672      2.00000
     37      -0.8043      2.00000
     38      -0.8043      2.00000
     39      -0.8040      2.00000
     40      -0.8039      2.00000
     41      -0.8035      2.00000
     42      -0.8035      2.00000
     43      -0.8004      2.00000
     44      -0.8004      2.00000
     45      -0.6385      2.00000
     46      -0.6364      2.00000
     47      -0.6350      2.00000
     48      -0.6341      2.00000
     49      -0.6338      2.00000
     50      -0.6329      2.00000
     51      -0.6315      2.00000
     52      -0.6293      2.00000
     53       0.0218      2.00000
     54       0.0247      2.00000
     55       1.4714      2.00000
     56       1.4714      2.00000
     57       1.4743      2.00000
     58       1.4743      2.00000
     59       1.4744      2.00000
     60       1.4744      2.00000
     61       1.4759      2.00000
     62       1.4759      2.00000
     63       1.4917      2.00000
     64       1.4917      2.00000
     65       1.4925      2.00000
     66       1.4925      2.00000
     67       1.4936      2.00000
     68       1.4936      2.00000
     69       1.4964      2.00000
     70       1.4964      2.00000
     71       2.3168      2.00000
     72       2.3171      2.00000
     73       2.3171      2.00000
     74       2.3180      2.00000
     75       2.3181      2.00000
     76       2.3190      2.00000
     77       2.3190      2.00000
     78       2.3193      2.00000
     79       3.0224      2.00000
     80       3.0225      2.00000
     81       3.0240      2.00000
     82       3.0240      2.00000
     83       3.0255      2.00000
     84       3.0255      2.00000
     85       3.0271      2.00000
     86       3.0271      2.00000
     87       3.1450      2.00000
     88       3.1474      2.00000
     89       3.1488      2.00000
     90       3.1507      2.00000
     91       3.1578      2.00000
     92       3.1579      2.00000
     93       3.1579      2.00000
     94       3.1581      2.00000
     95       3.1595      2.00000
     96       3.1595      2.00000
     97       3.1617      2.00000
     98       3.1618      2.00000
     99       3.2836      2.00000
    100       3.2843      2.00000
    101       3.2844      2.00000
    102       3.2856      2.00000
    103       3.2859      2.00000
    104       3.2871      2.00000
    105       3.2873      2.00000
    106       3.2880      2.00000
    107       4.3308      2.00000
    108       4.3309      2.00000
    109       4.3315      2.00000
    110       4.3315      2.00000
    111       4.3315      2.00000
    112       4.3315      2.00000
    113       4.3334      2.00000
    114       4.3334      2.00000
    115       4.4329      2.00000
    116       4.4330      2.00000
    117       4.4924      2.00000
    118       4.4996      2.00000
    119       4.5007      2.00000
    120       4.5008      2.00000
    121       4.5009      2.00000
    122       4.5011      2.00000
    123       4.5022      2.00000
    124       4.5093      2.00000
    125       4.9504      2.00000
    126       4.9542      2.00000
    127       4.9562      2.00000
    128       4.9601      2.00000
    129       6.2783      0.00000
    130       6.2811      0.00000
    131       7.1927      0.00000
    132       7.1952      0.00000
    133       7.6416      0.00000
    134       7.6444      0.00000
    135       7.6447      0.00000
    136       7.6458      0.00000
    137       7.6460      0.00000
    138       7.6470      0.00000
    139       7.6473      0.00000
    140       7.6501      0.00000
    141       7.7135      0.00000
    142       7.7147      0.00000
    143       8.0547      0.00000
    144       8.0585      0.00000
    145       8.0594      0.00000
    146       8.0597      0.00000
    147       8.0598      0.00000
    148       8.0600      0.00000
    149       8.0610      0.00000
    150       8.0646      0.00000
    151       8.1436      0.00000
    152       8.1436      0.00000
    153       8.1452      0.00000
    154       8.1452      0.00000
    155       8.1461      0.00000
    156       8.1462      0.00000
    157       8.1476      0.00000
    158       8.1477      0.00000
    159       8.5513      0.00000
    160       8.5513      0.00000
    161       8.5516      0.00000
    162       8.5516      0.00000
    163       8.5530      0.00000
    164       8.5530      0.00000
    165       8.5552      0.00000
    166       8.5552      0.00000
    167       9.3201      0.00000
    168       9.3236      0.00000

 k-point     3 :      -0.0000    0.5000    0.0000
  band No.  band energies     occupation 
      1      -5.9320      2.00000
      2      -5.9320      2.00000
      3      -4.8766      2.00000
      4      -4.8744      2.00000
      5      -4.8736      2.00000
      6      -4.8733      2.00000
      7      -4.8726      2.00000
      8      -4.8725      2.00000
      9      -4.8711      2.00000
     10      -4.8679      2.00000
     11      -4.0267      2.00000
     12      -4.0250      2.00000
     13      -4.0238      2.00000
     14      -4.0230      2.00000
     15      -4.0224      2.00000
     16      -4.0216      2.00000
     17      -4.0204      2.00000
     18      -4.0188      2.00000
     19      -3.8057      2.00000
     20      -3.8057      2.00000
     21      -3.0798      2.00000
     22      -3.0781      2.00000
     23      -3.0772      2.00000
     24      -3.0767      2.00000
     25      -3.0766      2.00000
     26      -3.0751      2.00000
     27      -3.0741      2.00000
     28      -3.0735      2.00000
     29      -1.9750      2.00000
     30      -1.9736      2.00000
     31      -1.9715      2.00000
     32      -1.9715      2.00000
     33      -1.9714      2.00000
     34      -1.9714      2.00000
     35      -1.9693      2.00000
     36      -1.9679      2.00000
     37      -0.8063      2.00000
     38      -0.8052      2.00000
     39      -0.8045      2.00000
     40      -0.8036      2.00000
     41      -0.8031      2.00000
     42      -0.8023      2.00000
     43      -0.8003      2.00000
     44      -0.7988      2.00000
     45      -0.6376      2.00000
     46      -0.6359      2.00000
     47      -0.6345      2.00000
     48      -0.6343      2.00000
     49      -0.6337      2.00000
     50      -0.6334      2.00000
     51      -0.6320      2.00000
     52      -0.6302      2.00000
     53       0.0232      2.00000
     54       0.0232      2.00000
     55       1.4710      2.00000
     56       1.4715      2.00000
     57       1.4736      2.00000
     58       1.4744      2.00000
     59       1.4747      2.00000
     60       1.4753      2.00000
     61       1.4761      2.00000
     62       1.4766      2.00000
     63       1.4921      2.00000
     64       1.4921      2.00000
     65       1.4927      2.00000
     66       1.4928      2.00000
     67       1.4935      2.00000
     68       1.4940      2.00000
     69       1.4941      2.00000
     70       1.4962      2.00000
     71       2.3165      2.00000
     72       2.3168      2.00000
     73       2.3176      2.00000
     74       2.3178      2.00000
     75       2.3183      2.00000
     76       2.3185      2.00000
     77       2.3192      2.00000
     78       2.3196      2.00000
     79       3.0234      2.00000
     80       3.0236      2.00000
     81       3.0241      2.00000
     82       3.0247      2.00000
     83       3.0249      2.00000
     84       3.0254      2.00000
     85       3.0257      2.00000
     86       3.0265      2.00000
     87       3.1478      2.00000
     88       3.1480      2.00000
     89       3.1481      2.00000
     90       3.1481      2.00000
     91       3.1569      2.00000
     92       3.1574      2.00000
     93       3.1586      2.00000
     94       3.1589      2.00000
     95       3.1594      2.00000
     96       3.1600      2.00000
     97       3.1608      2.00000
     98       3.1617      2.00000
     99       3.2822      2.00000
    100       3.2842      2.00000
    101       3.2846      2.00000
    102       3.2854      2.00000
    103       3.2861      2.00000
    104       3.2869      2.00000
    105       3.2874      2.00000
    106       3.2895      2.00000
    107       4.3286      2.00000
    108       4.3299      2.00000
    109       4.3307      2.00000
    110       4.3312      2.00000
    111       4.3316      2.00000
    112       4.3317      2.00000
    113       4.3342      2.00000
    114       4.3364      2.00000
    115       4.4329      2.00000
    116       4.4330      2.00000
    117       4.4987      2.00000
    118       4.4998      2.00000
    119       4.5005      2.00000
    120       4.5008      2.00000
    121       4.5009      2.00000
    122       4.5015      2.00000
    123       4.5021      2.00000
    124       4.5033      2.00000
    125       4.9552      2.00000
    126       4.9552      2.00000
    127       4.9552      2.00000
    128       4.9553      2.00000
[...]
         0         1         2         3         4         5         6         7         8         9
 total charge-density along one line
 
 pseudopotential strength for first ion, spin component:           1
 18.404  25.675   0.000   0.000  -0.000   0.000   0.000  -0.000
 25.675  35.824   0.000   0.000  -0.000   0.000   0.000  -0.001
  0.000   0.000   4.177  -0.000   0.000   7.782  -0.000   0.000
  0.000   0.000  -0.000   4.177   0.000  -0.000   7.782   0.000
 -0.000  -0.000   0.000   0.000   4.177   0.000   0.000   7.782
  0.000   0.000   7.782  -0.000   0.000  14.509  -0.000   0.000
  0.000   0.000  -0.000   7.782   0.000  -0.000  14.509   0.000
 -0.000  -0.001   0.000   0.000   7.782   0.000   0.000  14.509
 total augmentation occupancy for first ion, spin component:           1
  5.948  -2.288   0.000   0.000  -0.020  -0.000  -0.000   0.006
 -2.288   0.989  -0.000  -0.000   0.009   0.000   0.000  -0.003
  0.000  -0.000   3.001  -0.022  -0.000  -0.682   0.006   0.000
  0.000  -0.000  -0.022   3.001  -0.000   0.006  -0.682   0.000
 -0.020   0.009  -0.000  -0.000   3.000   0.000   0.000  -0.681
 -0.000   0.000  -0.682   0.006   0.000   0.164  -0.002   0.000
 -0.000   0.000   0.006  -0.682   0.000  -0.002   0.164   0.000
  0.006  -0.003   0.000   0.000  -0.681   0.000   0.000   0.164


------------------------ aborting loop because EDIFF is reached ----------------------------------------


    CHARGE:  cpu time      0.0785: real time      0.0788
    FORLOC:  cpu time      0.0090: real time      0.0090
    FORNL :  cpu time      0.8231: real time      0.8264
    STRESS:  cpu time      1.7262: real time      1.7337
    FORCOR:  cpu time      0.0281: real time      0.0282
    FORHAR:  cpu time      0.0115: real time      0.0118
    MIXING:  cpu time      0.0009: real time      0.0009
    OFIELD:  cpu time      0.0000: real time      0.0000

  FORCE on cell =-STRESS in cart. coord.  units (eV):
  Direction    XX          YY          ZZ          XY          YZ          ZX
  --------------------------------------------------------------------------------------
  Alpha Z   107.38121   107.38121   107.38121
  Ewald   -2435.98754 -2435.96667 -2435.96667    -0.00000    -1.56860     0.00000
  Hartree   156.25887   156.26363   156.26363     0.00000    -0.17358    -0.00000
  E(xc)    -817.39768  -817.39794  -817.39794    -0.00000     0.02029    -0.00000
  Local    -931.44410  -931.46879  -931.46879    -0.00000     1.63568    -0.00000
  n-local  2483.02224  2483.30913  2482.74351    -0.00000    -0.32547     0.00000
  augment  -368.16885  -368.16906  -368.16906     0.00000     0.01436     0.00000
  Kinetic  1806.30911  1807.67099  1804.94570    -0.00000     0.19975    -0.00000
  Fock        0.00000     0.00000     0.00000     0.00000     0.00000     0.00000
  -------------------------------------------------------------------------------------
  Total      -0.02674    -0.02296    -0.02296    -0.00000    -0.19756     0.00000
  in kB      -0.03336    -0.02865    -0.02865    -0.00000    -0.24650     0.00000
  external pressure =       -0.03 kB  Pullay stress =        0.00 kB


 VOLUME and BASIS-vectors are now :
 -----------------------------------------------------------------------------
  energy-cutoff  :      318.00
  volume of cell :     1284.06
      direct lattice vectors                 reciprocal lattice vectors
    10.869145120 -0.000000000 -0.000000000     0.092003556  0.000000000 -0.000000000
    -0.000000000 10.869145120  0.000000000     0.000000000  0.092003556 -0.000000000
     0.000000000  0.000000000 10.869145120     0.000000000 -0.000000000  0.092003556

  length of vectors
    10.869145120 10.869145120 10.869145120     0.092003556  0.092003556  0.092003556


 FORCES acting on ions
    electron-ion (+dipol)            ewald-force                    non-local-force                 convergence-correction
 -----------------------------------------------------------------------------------------------
   -.547E+00 -.489E-02 -.489E-02   0.510E+00 0.106E-03 0.106E-03   0.174E+00 0.574E-02 0.574E-02   -.303E-04 -.115E-04 -.115E-04
   0.810E-01 0.542E-04 0.542E-04   -.821E-01 0.318E-04 0.318E-04   0.106E-02 -.327E-06 -.327E-06   -.197E-04 -.954E-05 -.954E-05
   -.473E-01 -.497E-02 0.498E-02   0.562E-01 0.106E-03 -.106E-03   -.508E-02 0.580E-02 -.580E-02   0.565E-05 0.182E-04 -.262E-04
   0.363E-01 0.993E-04 -.100E-03   -.359E-01 -.318E-04 0.318E-04   -.383E-03 -.375E-06 0.715E-05   -.193E-04 0.935E-05 -.163E-04
   -.473E-01 0.498E-02 -.497E-02   0.562E-01 -.106E-03 0.106E-03   -.508E-02 -.580E-02 0.580E-02   0.565E-05 -.262E-04 0.182E-04
   0.363E-01 -.100E-03 0.993E-04   -.359E-01 0.318E-04 -.318E-04   -.383E-03 0.715E-05 -.375E-06   -.193E-04 -.163E-04 0.935E-05
   -.240E-01 0.468E-02 0.468E-02   0.448E-01 0.106E-03 0.106E-03   -.125E-01 -.574E-02 -.574E-02   0.221E-04 0.104E-04 0.104E-04
   0.271E-01 -.615E-04 -.615E-04   -.282E-01 -.318E-04 -.318E-04   0.874E-03 -.302E-05 -.302E-05   -.285E-04 0.196E-04 0.196E-04
   -.547E+00 0.489E-02 0.489E-02   0.510E+00 -.106E-03 -.106E-03   0.174E+00 -.574E-02 -.574E-02   -.303E-04 0.115E-04 0.115E-04
   0.810E-01 -.542E-04 -.541E-04   -.821E-01 -.318E-04 -.318E-04   0.106E-02 0.327E-06 0.327E-06   -.197E-04 0.954E-05 0.954E-05
   -.473E-01 0.497E-02 -.498E-02   0.562E-01 -.106E-03 0.106E-03   -.508E-02 -.580E-02 0.580E-02   0.565E-05 -.182E-04 0.262E-04
   0.363E-01 -.993E-04 0.100E-03   -.359E-01 0.318E-04 -.318E-04   -.383E-03 0.375E-06 -.715E-05   -.193E-04 -.935E-05 0.163E-04
   -.473E-01 -.498E-02 0.497E-02   0.562E-01 0.106E-03 -.106E-03   -.508E-02 0.580E-02 -.580E-02   0.565E-05 0.262E-04 -.182E-04
   0.363E-01 0.100E-03 -.993E-04   -.359E-01 -.318E-04 0.318E-04   -.383E-03 -.715E-05 0.375E-06   -.193E-04 0.163E-04 -.935E-05
   -.240E-01 -.468E-02 -.468E-02   0.448E-01 -.106E-03 -.106E-03   -.125E-01 0.574E-02 0.574E-02   0.221E-04 -.104E-04 -.104E-04
   0.271E-01 0.615E-04 0.615E-04   -.282E-01 0.318E-04 0.318E-04   0.874E-03 0.302E-05 0.302E-05   -.285E-04 -.196E-04 -.196E-04
   0.598E-01 -.543E-01 0.543E-01   -.591E-01 0.567E-01 -.567E-01   -.448E-02 0.436E-03 -.436E-03   0.191E-04 -.267E-04 0.267E-04
   0.601E-01 0.574E-01 -.574E-01   -.594E-01 -.564E-01 0.564E-01   -.445E-02 -.189E-02 0.189E-02   0.288E-04 -.554E-05 0.554E-05
   0.305E-01 0.565E-01 0.778E-02   -.305E-01 -.567E-01 -.467E-02   -.225E-02 -.163E-02 -.158E-02   0.145E-07 0.306E-04 0.245E-04
   0.307E-01 -.552E-01 -.442E-02   -.307E-01 0.564E-01 0.466E-02   -.225E-02 0.745E-03 0.861E-04   0.199E-04 0.673E-05 0.121E-04
   0.305E-01 -.778E-02 -.565E-01   -.305E-01 0.467E-02 0.567E-01   -.225E-02 0.158E-02 0.163E-02   0.145E-07 -.245E-04 -.306E-04
   0.307E-01 0.442E-02 0.552E-01   -.307E-01 -.466E-02 -.564E-01   -.225E-02 -.861E-04 -.745E-03   0.199E-04 -.121E-04 -.673E-05
   0.120E-02 0.555E-02 -.555E-02   -.182E-02 -.467E-02 0.467E-02   -.161E-04 -.375E-03 0.375E-03   -.123E-04 0.134E-04 -.134E-04
   0.133E-02 -.658E-02 0.658E-02   -.196E-02 0.466E-02 -.466E-02   -.385E-04 0.124E-02 -.124E-02   0.107E-04 0.342E-05 -.342E-05
   0.598E-01 0.543E-01 -.543E-01   -.591E-01 -.567E-01 0.567E-01   -.448E-02 -.436E-03 0.436E-03   0.191E-04 0.267E-04 -.267E-04
   0.601E-01 -.574E-01 0.574E-01   -.594E-01 0.564E-01 -.564E-01   -.445E-02 0.189E-02 -.189E-02   0.288E-04 0.554E-05 -.554E-05
   0.305E-01 -.565E-01 -.778E-02   -.305E-01 0.567E-01 0.467E-02   -.225E-02 0.163E-02 0.158E-02   0.145E-07 -.306E-04 -.245E-04
   0.307E-01 0.552E-01 0.442E-02   -.307E-01 -.564E-01 -.466E-02   -.225E-02 -.745E-03 -.861E-04   0.199E-04 -.673E-05 -.121E-04
   0.305E-01 0.778E-02 0.565E-01   -.305E-01 -.467E-02 -.567E-01   -.225E-02 -.158E-02 -.163E-02   0.145E-07 0.245E-04 0.306E-04
   0.307E-01 -.442E-02 -.552E-01   -.307E-01 0.466E-02 0.564E-01   -.225E-02 0.861E-04 0.745E-03   0.199E-04 0.121E-04 0.673E-05
   0.120E-02 -.555E-02 0.555E-02   -.182E-02 0.467E-02 -.467E-02   -.161E-04 0.375E-03 -.375E-03   -.123E-04 -.134E-04 0.134E-04
   0.133E-02 0.658E-02 -.658E-02   -.196E-02 -.466E-02 0.466E-02   -.385E-04 -.124E-02 0.124E-02   0.107E-04 -.342E-05 0.342E-05
   -.304E-02 0.202E+00 0.202E+00   -.902E-03 -.179E+00 -.179E+00   -.303E-01 -.456E-01 -.456E-01   0.103E-04 -.129E-04 -.129E-04
   0.594E-01 -.196E-01 -.196E-01   -.598E-01 0.195E-01 0.195E-01   0.674E-03 0.100E-03 0.100E-03   -.179E-04 -.232E-04 -.232E-04
   -.260E-01 -.232E-01 0.232E-01   0.296E-01 0.235E-01 -.235E-01   -.256E-02 -.274E-03 0.274E-03   0.219E-04 0.126E-04 -.126E-04
   0.309E-01 0.126E-01 -.126E-01   -.300E-01 -.117E-01 0.117E-01   -.132E-02 -.847E-03 0.847E-03   -.838E-05 0.251E-04 -.251E-04
   -.260E-01 0.232E-01 -.232E-01   0.296E-01 -.235E-01 0.235E-01   -.256E-02 0.274E-03 -.274E-03   0.219E-04 -.126E-04 0.126E-04
   0.309E-01 -.126E-01 0.126E-01   -.300E-01 0.117E-01 -.117E-01   -.132E-02 0.847E-03 -.847E-03   -.838E-05 -.251E-04 0.251E-04
   -.304E-02 -.202E+00 -.202E+00   -.902E-03 0.179E+00 0.179E+00   -.303E-01 0.456E-01 0.456E-01   0.103E-04 0.129E-04 0.129E-04
   0.594E-01 0.196E-01 0.196E-01   -.598E-01 -.195E-01 -.195E-01   0.674E-03 -.100E-03 -.100E-03   -.179E-04 0.232E-04 0.232E-04
   0.213E-01 0.528E-09 0.292E-09   -.168E-01 -.211E-14 0.133E-14   -.689E-01 0.190E-17 0.190E-17   -.466E-05 -.117E-13 -.141E-12
   0.104E+00 0.528E-09 0.292E-09   -.105E+00 0.855E-14 -.577E-14   0.117E-02 -.323E-19 -.323E-19   0.528E-05 -.253E-13 -.158E-12
   -.260E-01 -.142E-14 0.380E-10   0.296E-01 0.388E-14 0.533E-14   -.256E-02 0.707E-19 0.707E-19   0.223E-04 0.118E-13 -.115E-12
   0.309E-01 -.882E-12 0.395E-10   -.300E-01 0.323E-15 0.178E-14   -.133E-02 0.366E-19 0.366E-19   -.584E-05 0.245E-13 -.143E-12
   -.260E-01 -.103E-09 0.286E-10   0.296E-01 -.877E-14 0.222E-14   -.256E-02 0.707E-19 0.707E-19   0.223E-04 -.155E-13 0.146E-12
   0.309E-01 -.103E-09 0.291E-10   -.300E-01 0.544E-14 0.222E-14   -.133E-02 0.366E-19 0.366E-19   -.584E-05 -.239E-13 0.164E-12
   -.274E-01 0.367E-12 -.681E-10   0.150E-01 0.743E-14 0.178E-14   0.824E-02 -.227E-18 -.227E-18   0.232E-04 0.143E-13 0.120E-12
   0.152E-01 0.996E-13 -.689E-10   -.150E-01 0.743E-14 -.178E-14   0.174E-03 -.480E-20 -.482E-20   -.274E-04 0.240E-13 0.149E-12
   -.460E-02 -.220E+00 0.197E+00   0.829E-02 0.193E+00 -.170E+00   -.357E-01 0.501E-01 -.504E-01   -.931E-05 -.358E-04 0.639E-05
   0.672E-01 0.261E-01 -.136E-01   -.673E-01 -.247E-01 0.131E-01   -.673E-04 -.120E-02 0.407E-03   0.143E-06 -.223E-04 0.111E-04
   -.460E-02 0.220E+00 -.197E+00   0.829E-02 -.193E+00 0.170E+00   -.357E-01 -.501E-01 0.504E-01   -.931E-05 0.358E-04 -.639E-05
   0.672E-01 -.261E-01 0.136E-01   -.673E-01 0.247E-01 -.131E-01   -.673E-04 0.120E-02 -.407E-03   0.143E-06 0.223E-04 -.111E-04
   -.269E-01 -.604E-02 -.170E-01   0.225E-01 0.103E-01 0.131E-01   0.284E-02 -.406E-02 0.379E-02   0.733E-05 -.250E-04 -.129E-04
   0.231E-01 0.588E-02 0.662E-02   -.226E-01 -.621E-02 -.544E-02   -.572E-03 0.321E-03 -.111E-02   -.923E-05 -.104E-04 -.103E-04
   -.269E-01 0.604E-02 0.170E-01   0.225E-01 -.103E-01 -.131E-01   0.284E-02 0.406E-02 -.379E-02   0.733E-05 0.250E-04 0.129E-04
   0.231E-01 -.588E-02 -.662E-02   -.226E-01 0.621E-02 0.544E-02   -.572E-03 -.321E-03 0.111E-02   -.923E-05 0.104E-04 0.103E-04
   -.460E-02 0.197E+00 -.220E+00   0.829E-02 -.170E+00 0.193E+00   -.357E-01 -.504E-01 0.501E-01   -.931E-05 0.639E-05 -.358E-04
   0.672E-01 -.136E-01 0.261E-01   -.673E-01 0.131E-01 -.247E-01   -.673E-04 0.407E-03 -.120E-02   0.143E-06 0.111E-04 -.223E-04
   -.269E-01 -.170E-01 -.604E-02   0.225E-01 0.131E-01 0.103E-01   0.284E-02 0.379E-02 -.406E-02   0.733E-05 -.129E-04 -.250E-04
   0.231E-01 0.662E-02 0.588E-02   -.226E-01 -.544E-02 -.621E-02   -.572E-03 -.111E-02 0.321E-03   -.923E-05 -.103E-04 -.104E-04
   -.460E-02 -.197E+00 0.220E+00   0.829E-02 0.170E+00 -.193E+00   -.357E-01 0.504E-01 -.501E-01   -.931E-05 -.639E-05 0.358E-04
   0.672E-01 0.136E-01 -.261E-01   -.673E-01 -.131E-01 0.247E-01   -.673E-04 -.407E-03 0.120E-02   0.143E-06 -.111E-04 0.223E-04
   -.269E-01 0.170E-01 0.604E-02   0.225E-01 -.131E-01 -.103E-01   0.284E-02 -.379E-02 0.406E-02   0.733E-05 0.129E-04 0.250E-04
   0.231E-01 -.662E-02 -.588E-02   -.226E-01 0.544E-02 0.621E-02   -.572E-03 0.111E-02 -.321E-03   -.923E-05 0.103E-04 0.104E-04
 -----------------------------------------------------------------------------------------------
   -.239E-04 -.135E-09 -.454E-08   0.149E-13 0.150E-13 0.552E-14   0.108E-04 -.113E-16 -.569E-17   0.187E-05 -.621E-13 0.599E-13
 
 
 POSITION                                       TOTAL-FORCE (eV/Angst)
 -----------------------------------------------------------------------------------
      2.70729      2.71729      2.71729         0.136392      0.000941      0.000941
      8.15186      2.71729      2.71729        -0.000142      0.000076      0.000076
      2.71729      8.15186      2.71729         0.003796      0.000955     -0.000955
      8.15186      8.15186      2.71729        -0.000009      0.000076     -0.000078
      2.71729      2.71729      8.15186         0.003796     -0.000955      0.000955
      8.15186      2.71729      8.15186        -0.000009     -0.000078      0.000076
      2.71729      8.15186      8.15186         0.008196     -0.000941     -0.000941
      8.15186      8.15186      8.15186        -0.000189     -0.000077     -0.000077
      2.70729     -0.00000     -0.00000         0.136392     -0.000941     -0.000941
      8.15186     -0.00000     -0.00000        -0.000142     -0.000076     -0.000076
      2.71729      5.43457      0.00000         0.003796     -0.000955      0.000955
      8.15186      5.43457     -0.00000        -0.000009     -0.000076      0.000078
      2.71729      0.00000      5.43457         0.003796      0.000955     -0.000955
      8.15186     -0.00000      5.43457        -0.000009      0.000078     -0.000076
      2.71729      5.43457      5.43457         0.008196      0.000941      0.000941
      8.15186      5.43457      5.43457        -0.000189      0.000077      0.000077
     -0.00000      2.71729      0.00000        -0.003756      0.002819     -0.002819
      5.43457      2.71729     -0.00000        -0.003718     -0.000909      0.000909
     -0.00000      8.15186      0.00000        -0.002205     -0.001789      0.001557
      5.43457      8.15186      0.00000        -0.002187      0.001930      0.000339
      0.00000      2.71729      5.43457        -0.002205     -0.001557      0.001789
      5.43457      2.71729      5.43457        -0.002187     -0.000339     -0.001930
     -0.00000      8.15186      5.43457        -0.000653      0.000525     -0.000525
      5.43457      8.15186      5.43457        -0.000652     -0.000680      0.000680
      0.00000      0.00000      2.71729        -0.003756     -0.002819      0.002819
      5.43457     -0.00000      2.71729        -0.003718      0.000909     -0.000909
     -0.00000      5.43457      2.71729        -0.002205      0.001789     -0.001557
      5.43457      5.43457      2.71729        -0.002187     -0.001930     -0.000339
      0.00000      0.00000      8.15186        -0.002205      0.001557     -0.001789
      5.43457      0.00000      8.15186        -0.002187      0.000339      0.001930
      0.00000      5.43457      8.15186        -0.000653     -0.000525      0.000525
      5.43457      5.43457      8.15186        -0.000652      0.000680     -0.000680
      4.07593      4.07593      4.07593        -0.034258     -0.022151     -0.022151
      9.51050      4.07593      4.07593         0.000266     -0.000071     -0.000071
      4.07593      9.51050      4.07593         0.001020      0.000072     -0.000072
      9.51050      9.51050      4.07593        -0.000448      0.000042     -0.000042
      4.07593      4.07593      9.51050         0.001020     -0.000072      0.000072
      9.51050      4.07593      9.51050        -0.000448     -0.000042      0.000042
      4.07593      9.51050      9.51050        -0.034258      0.022151      0.022151
      9.51050      9.51050      9.51050         0.000266      0.000071      0.000071
      4.07593      1.35864      1.35864        -0.064352      0.000000      0.000000
      9.51050      1.35864      1.35864         0.000175     -0.000000     -0.000000
      4.07593      6.79322      1.35864         0.001022     -0.000000     -0.000000
      9.51050      6.79322      1.35864        -0.000448      0.000000      0.000000
      4.07593      1.35864      6.79322         0.001022     -0.000000     -0.000000
      9.51050      1.35864      6.79322        -0.000448      0.000000      0.000000
      4.07593      6.79322      6.79322        -0.004158      0.000000      0.000000
      9.51050      6.79322      6.79322         0.000354     -0.000000     -0.000000
      1.35864      4.07593      1.35864        -0.031972      0.022661     -0.022595
      6.79322      4.07593      1.35864        -0.000130      0.000129     -0.000090
      1.35864      9.51050      1.35864        -0.031972     -0.022661      0.022595
      6.79322      9.51050      1.35864        -0.000130     -0.000129      0.000090
      1.35864      4.07593      6.79322        -0.001573      0.000152     -0.000090
      6.79322      4.07593      6.79322        -0.000042     -0.000021      0.000059
      1.35864      9.51050      6.79322        -0.001573     -0.000152      0.000090
      6.79322      9.51050      6.79322        -0.000042      0.000021     -0.000059
      1.35864      1.35864      4.07593        -0.031972     -0.022595      0.022661
      6.79322      1.35864      4.07593        -0.000130     -0.000090      0.000129
      1.35864      6.79322      4.07593        -0.001573     -0.000090      0.000152
      6.79322      6.79322      4.07593        -0.000042      0.000059     -0.000021
      1.35864      1.35864      9.51050        -0.031972      0.022595     -0.022661
      6.79322      1.35864      9.51050        -0.000130      0.000090     -0.000129
      1.35864      6.79322      9.51050        -0.001573      0.000090     -0.000152
      6.79322      6.79322      9.51050        -0.000042     -0.000059      0.000021
 -----------------------------------------------------------------------------------
    total drift:                               -0.000011     -0.000000     -0.000000


--------------------------------------------------------------------------------------------------------



  FREE ENERGIE OF THE ION-ELECTRON SYSTEM (eV)
  ---------------------------------------------------
  free  energy   TOTEN  =      -367.49982672 eV

  energy  without entropy=     -367.49982672  energy(sigma->0) =     -367.49982672
 


--------------------------------------------------------------------------------------------------------


    POTLOK:  cpu time      0.0421: real time      0.0423


--------------------------------------------------------------------------------------------------------


     LOOP+:  cpu time     31.7645: real time     31.9378
    4ORBIT:  cpu time      0.0000: real time      0.0000

 total amount of memory used by VASP MPI-rank0    61993. kBytes
=======================================================================

   base      :      30000. kBytes
   nonl-proj :       5879. kBytes
   fftplans  :      11573. kBytes
   grid      :       5816. kBytes
   one-center:         49. kBytes
   wavefun   :       8676. kBytes
 
  
  
 General timing and accounting informations for this job:
 ========================================================
  
                  Total CPU time used (sec):       33.484
                            User time (sec):       32.407
                          System time (sec):        1.078
                         Elapsed time (sec):       33.832
  
                   Maximum memory used (kb):      215776.
                   Average memory used (kb):          N/A
  
                          Minor page faults:        89634
                          Major page faults:            0
                 Voluntary context switches:          736
