<?xml version="1.0" encoding="ISO-8859-1"?>
<modeling>
 <generator>
  <i name="program" type="string">vasp </i>
  <i name="version" type="string">6.3.2  </i>
  <i name="subversion" type="string">27Jun22 (build Oct 14 2022 12:13:54) complex                          parallel </i>
  <i name="platform" type="string">LinuxIFC </i>
  <i name="date" type="string">2023 04 03 </i>
  <i name="time" type="string">14:37:02 </i>
 </generator>
 <incar>
  <i type="string" name="PREC">Accurate</i>
  <i type="int" name="IALGO">    38</i>
  <i type="logical" name="ADDGRID"> T  </i>
  <i type="int" name="NELMIN">     5</i>
  <i type="int" name="IBRION">    -1</i>
  <i name="EDIFF">      0.00000001</i>
  <i name="ENCUT">    318.00000000</i>
  <i type="logical" name="LREAL"> F  </i>
  <i type="int" name="ISMEAR">     0</i>
  <i name="SIGMA">      0.02000000</i>
  <i type="logical" name="LWAVE"> F  </i>
  <i type="logical" name="LCHARG"> F  </i>
  <i type="string" name="GGA">Ps</i>
 </incar>
 <primitive_cell>
  <structure name="primitive_cell" >
   <crystal>
    <varray name="basis" >
     <v>      10.86914512      -0.00000000      -0.00000000 </v>
     <v>      -0.00000000      10.86914512       0.00000000 </v>
     <v>       0.00000000       0.00000000      10.86914512 </v>
    </varray>
    <i name="volume">   1284.06249692 </i>
    <varray name="rec_basis" >
     <v>       0.09200356       0.00000000      -0.00000000 </v>
     <v>       0.00000000       0.09200356      -0.00000000 </v>
     <v>       0.00000000      -0.00000000       0.09200356 </v>
    </varray>
   </crystal>
   <varray name="positions" >
    <v>       0.24907996       0.25000000       0.25000000 </v>
    <v>       0.75000000       0.25000000       0.25000000 </v>
    <v>       0.25000000       0.75000000       0.25000000 </v>
    <v>       0.75000000       0.75000000       0.25000000 </v>
    <v>       0.25000000       0.25000000       0.75000000 </v>
    <v>       0.75000000       0.25000000       0.75000000 </v>
    <v>       0.25000000       0.75000000       0.75000000 </v>
    <v>       0.75000000       0.75000000       0.75000000 </v>
    <v>       0.24907996       1.00000000       1.00000000 </v>
    <v>       0.75000000       1.00000000       1.00000000 </v>
    <v>       0.25000000       0.50000000       0.00000000 </v>
    <v>       0.75000000       0.50000000       1.00000000 </v>
    <v>       0.25000000       0.00000000       0.50000000 </v>
    <v>       0.75000000       1.00000000       0.50000000 </v>
    <v>       0.25000000       0.50000000       0.50000000 </v>
    <v>       0.75000000       0.50000000       0.50000000 </v>
    <v>       1.00000000       0.25000000       0.00000000 </v>
    <v>       0.50000000       0.25000000       1.00000000 </v>
    <v>       1.00000000       0.75000000       0.00000000 </v>
    <v>       0.50000000       0.75000000       0.00000000 </v>
    <v>       0.00000000       0.25000000       0.50000000 </v>
    <v>       0.50000000       0.25000000       0.50000000 </v>
    <v>       1.00000000       0.75000000       0.50000000 </v>
    <v>       0.50000000       0.75000000       0.50000000 </v>
    <v>       0.00000000       0.00000000       0.25000000 </v>
    <v>       0.50000000       1.00000000       0.25000000 </v>
    <v>       1.00000000       0.50000000       0.25000000 </v>
    <v>       0.50000000       0.50000000       0.25000000 </v>
    <v>       0.00000000       0.00000000       0.75000000 </v>
    <v>       0.50000000       0.00000000       0.75000000 </v>
    <v>       0.00000000       0.50000000       0.75000000 </v>
    <v>       0.50000000       0.50000000       0.75000000 </v>
    <v>       0.37500000       0.37500000       0.37500000 </v>
    <v>       0.87500000       0.37500000       0.37500000 </v>
    <v>       0.37500000       0.87500000       0.37500000 </v>
    <v>       0.87500000       0.87500000       0.37500000 </v>
    <v>       0.37500000       0.37500000       0.87500000 </v>
    <v>       0.87500000       0.37500000       0.87500000 </v>
    <v>       0.37500000       0.87500000       0.87500000 </v>
    <v>       0.87500000       0.87500000       0.87500000 </v>
    <v>       0.37500000       0.12500000       0.12500000 </v>
    <v>       0.87500000       0.12500000       0.12500000 </v>
    <v>       0.37500000       0.62500000       0.12500000 </v>
    <v>       0.87500000       0.62500000       0.12500000 </v>
    <v>       0.37500000       0.12500000       0.62500000 </v>
    <v>       0.87500000       0.12500000       0.62500000 </v>
    <v>       0.37500000       0.62500000       0.62500000 </v>
    <v>       0.87500000       0.62500000       0.62500000 </v>
    <v>       0.12500000       0.37500000       0.12500000 </v>
    <v>       0.62500000       0.37500000       0.12500000 </v>
    <v>       0.12500000       0.87500000       0.12500000 </v>
    <v>       0.62500000       0.87500000       0.12500000 </v>
    <v>       0.12500000       0.37500000       0.62500000 </v>
    <v>       0.62500000       0.37500000       0.62500000 </v>
    <v>       0.12500000       0.87500000       0.62500000 </v>
    <v>       0.62500000       0.87500000       0.62500000 </v>
    <v>       0.12500000       0.12500000       0.37500000 </v>
    <v>       0.62500000       0.12500000       0.37500000 </v>
    <v>       0.12500000       0.62500000       0.37500000 </v>
    <v>       0.62500000       0.62500000       0.37500000 </v>
    <v>       0.12500000       0.12500000       0.87500000 </v>
    <v>       0.62500000       0.12500000       0.87500000 </v>
    <v>       0.12500000       0.62500000       0.87500000 </v>
    <v>       0.62500000       0.62500000       0.87500000 </v>
   </varray>
  </structure>
  <varray name="primitive_index" >
   <v type="int" >        1 </v>
   <v type="int" >        2 </v>
   <v type="int" >        3 </v>
   <v type="int" >        4 </v>
   <v type="int" >        5 </v>
   <v type="int" >        6 </v>
   <v type="int" >        7 </v>
   <v type="int" >        8 </v>
   <v type="int" >        9 </v>
   <v type="int" >       10 </v>
   <v type="int" >       11 </v>
   <v type="int" >       12 </v>
   <v type="int" >       13 </v>
   <v type="int" >       14 </v>
   <v type="int" >       15 </v>
   <v type="int" >       16 </v>
   <v type="int" >       17 </v>
   <v type="int" >       18 </v>
   <v type="int" >       19 </v>
   <v type="int" >       20 </v>
   <v type="int" >       21 </v>
   <v type="int" >       22 </v>
   <v type="int" >       23 </v>
   <v type="int" >       24 </v>
   <v type="int" >       25 </v>
   <v type="int" >       26 </v>
   <v type="int" >       27 </v>
   <v type="int" >       28 </v>
   <v type="int" >       29 </v>
   <v type="int" >       30 </v>
   <v type="int" >       31 </v>
   <v type="int" >       32 </v>
   <v type="int" >       33 </v>
   <v type="int" >       34 </v>
   <v type="int" >       35 </v>
   <v type="int" >       36 </v>
   <v type="int" >       37 </v>
   <v type="int" >       38 </v>
   <v type="int" >       39 </v>
   <v type="int" >       40 </v>
   <v type="int" >       41 </v>
   <v type="int" >       42 </v>
   <v type="int" >       43 </v>
   <v type="int" >       44 </v>
   <v type="int" >       45 </v>
   <v type="int" >       46 </v>
   <v type="int" >       47 </v>
   <v type="int" >       48 </v>
   <v type="int" >       49 </v>
   <v type="int" >       50 </v>
   <v type="int" >       51 </v>
   <v type="int" >       52 </v>
   <v type="int" >       53 </v>
   <v type="int" >       54 </v>
   <v type="int" >       55 </v>
   <v type="int" >       56 </v>
   <v type="int" >       57 </v>
   <v type="int" >       58 </v>
   <v type="int" >       59 </v>
   <v type="int" >       60 </v>
   <v type="int" >       61 </v>
   <v type="int" >       62 </v>
   <v type="int" >       63 </v>
   <v type="int" >       64 </v>
  </varray>
 </primitive_cell>
 <kpoints>
  <generation param="Gamma">
   <v type="int" name="divisions">       2        2        2 </v>
   <v name="usershift">      0.00000000       0.00000000       0.00000000 </v>
   <v name="genvec1">      0.50000000      -0.00000000       0.00000000 </v>
   <v name="genvec2">     -0.00000000       0.50000000       0.00000000 </v>
   <v name="genvec3">     -0.00000000       0.00000000       0.50000000 </v>
   <v name="shift">      0.00000000       0.00000000       0.00000000 </v>
  </generation>
  <varray name="kpointlist" >
   <v>       0.00000000       0.00000000       0.00000000 </v>
   <v>       0.50000000       0.00000000       0.00000000 </v>
   <v>      -0.00000000       0.50000000       0.00000000 </v>
   <v>       0.50000000       0.50000000       0.00000000 </v>
   <v>       0.00000000       0.50000000       0.50000000 </v>
   <v>       0.50000000       0.50000000       0.50000000 </v>
  </varray>
  <varray name="weights" >
   <v>       0.12500000 </v>
   <v>       0.12500000 </v>
   <v>       0.25000000 </v>
   <v>       0.25000000 </v>
   <v>       0.12500000 </v>
   <v>       0.12500000 </v>
  </varray>
 </kpoints>
 <parameters>
  <separator name="general" >
   <i type="string" name="SYSTEM">unknown system</i>
   <i type="logical" name="LCOMPAT"> F  </i>
  </separator>
  <separator name="electronic" >
   <i type="string" name="PREC">accura</i>
   <i name="ENMAX">    318.00000000</i>
   <i name="ENAUG">    322.06900000</i>
   <i name="EDIFF">      0.00000001</i>
   <i type="int" name="IALGO">    38</i>
   <i type="int" name="IWAVPR">    10</i>
   <i type="int" name="NBANDS">   168</i>
   <i type="int" name="NBANDSLOW">    -1</i>
   <i type="int" name="NBANDSHIGH">    -1</i>
   <i name="NELECT">    256.00000000</i>
   <i type="int" name="TURBO">     0</i>
   <i type="int" name="IRESTART">     0</i>
   <i type="int" name="NREBOOT">     0</i>
   <i type="int" name="NMIN">     0</i>
   <i name="EREF">      0.00000000</i>
   <separator name="electronic smearing" >
    <i type="int" name="ISMEAR">     0</i>
    <i name="SIGMA">      0.02000000</i>
    <i name="KSPACING">      0.50000000</i>
    <i type="logical" name="KGAMMA"> T  </i>
    <i type="logical" name="KBLOWUP"> T  </i>
   </separator>
   <separator name="electronic projectors" >
    <i type="logical" name="LREAL"> F  </i>
    <v name="ROPT">      0.00000000</v>
    <i type="int" name="LMAXPAW">  -100</i>
    <i type="int" name="LMAXMIX">     2</i>
    <i type="logical" name="NLSPLINE"> F  </i>
   </separator>
   <separator name="electronic startup" >
    <i type="int" name="ISTART">     0</i>
    <i type="int" name="ICHARG">     2</i>
    <i type="int" name="INIWAV">     1</i>
   </separator>
   <separator name="electronic spin" >
    <i type="int" name="ISPIN">     1</i>
    <i type="logical" name="LNONCOLLINEAR"> F  </i>
    <v name="MAGMOM">      1.00000000      1.00000000      1.00000000      1.00000000      1.00000000      1.00000000      1.00000000      1.00000000      1.00000000      1.00000000      1.00000000      1.00000000      1.00000000      1.00000000      1.00000000      1.00000000      1.00000000      1.00000000      1.00000000      1.00000000
      1.00000000      1.00000000      1.00000000      1.00000000      1.00000000      1.00000000      1.00000000      1.00000000      1.00000000      1.00000000      1.00000000      1.00000000      1.00000000      1.00000000      1.00000000      1.00000000      1.00000000      1.00000000      1.00000000      1.00000000
      1.00000000      1.00000000      1.00000000      1.00000000      1.00000000      1.00000000      1.00000000      1.00000000      1.00000000      1.00000000      1.00000000      1.00000000      1.00000000      1.00000000      1.00000000      1.00000000      1.00000000      1.00000000      1.00000000      1.00000000
      1.00000000      1.00000000      1.00000000      1.00000000</v>
    <i name="NUPDOWN">     -1.00000000</i>
    <i type="logical" name="LSORBIT"> F  </i>
    <v name="SAXIS">      0.00000000      0.00000000      1.00000000</v>
    <i type="logical" name="LSPIRAL"> F  </i>
    <v name="QSPIRAL">      0.00000000      0.00000000      0.00000000</v>
    <i type="logical" name="LZEROZ"> F  </i>
   </separator>
   <separator name="electronic exchange-correlation" >
    <i type="logical" name="LASPH"> F  </i>
    <i type="logical" name="LMETAGGA"> F  </i>
   </separator>
   <separator name="electronic convergence" >
    <i type="int" name="NELM">    60</i>
    <i type="int" name="NELMDL">    -5</i>
    <i type="int" name="NELMIN">     5</i>
    <i name="ENINI">    318.00000000</i>
    <separator name="electronic convergence detail" >
     <i type="logical" name="LDIAG"> T  </i>
     <i type="logical" name="LSUBROT"> F  </i>
     <i name="WEIMIN">      0.00000000</i>
     <i name="EBREAK">      0.00000000</i>
     <i name="DEPER">      0.30000000</i>
     <i type="int" name="NRMM">     4</i>
     <i name="TIME">      0.40000000</i>
    </separator>
   </separator>
   <separator name="electronic mixer" >
    <i name="AMIX">      0.40000000</i>
    <i name="BMIX">      1.00000000</i>
    <i name="AMIN">      0.10000000</i>
    <i name="AMIX_MAG">      1.60000000</i>
    <i name="BMIX_MAG">      1.00000000</i>
    <separator name="electronic mixer details" >
     <i type="int" name="IMIX">     4</i>
     <i type="logical" name="MIXFIRST"> F  </i>
     <i type="int" name="MAXMIX">   -45</i>
     <i name="WC">    100.00000000</i>
     <i type="int" name="INIMIX">     1</i>
     <i type="int" name="MIXPRE">     1</i>
     <i type="int" name="MREMOVE">     5</i>
    </separator>
   </separator>
   <separator name="electronic dipolcorrection" >
    <i type="logical" name="LDIPOL"> F  </i>
    <i type="logical" name="LMONO"> F  </i>
    <i type="int" name="IDIPOL">     0</i>
    <i name="EPSILON">      1.00000000</i>
    <v name="DIPOL">   -100.00000000   -100.00000000   -100.00000000</v>
    <i name="EFIELD">      0.00000000</i>
   </separator>
  </separator>
  <separator name="grids" >
   <i type="int" name="NGX">    64</i>
   <i type="int" name="NGY">    64</i>
   <i type="int" name="NGZ">    64</i>
   <i type="int" name="NGXF">   128</i>
   <i type="int" name="NGYF">   128</i>
   <i type="int" name="NGZF">   128</i>
   <i type="logical" name="ADDGRID"> T  </i>
  </separator>
  <separator name="ionic" >
   <i type="int" name="NSW">     0</i>
   <i type="int" name="IBRION">    -1</i>
   <i type="int" name="MDALGO">     0</i>
   <i type="int" name="ISIF">     2</i>
   <i name="PSTRESS">      0.00000000</i>
   <i name="EDIFFG">      0.00000010</i>
   <i type="int" name="NFREE">     0</i>
   <i name="POTIM">      0.50000000</i>
   <i name="SMASS">     -3.00000000</i>
   <i name="SCALEE">      1.00000000</i>
  </separator>
  <separator name="ionic md" >
   <i name="TEBEG">      0.00010000</i>
   <i name="TEEND">      0.00010000</i>
   <i type="int" name="NBLOCK">     1</i>
   <i type="int" name="KBLOCK">     1</i>
   <i type="int" name="NPACO">   256</i>
   <i name="APACO">     10.00000000</i>
  </separator>
  <separator name="symmetry" >
   <i type="int" name="ISYM">     2</i>
   <i name="SYMPREC">      0.00001000</i>
  </separator>
  <separator name="dos" >
   <i type="int" name="LORBIT">     0</i>
   <v name="RWIGS">     -1.00000000</v>
   <i type="int" name="NEDOS">   301</i>
   <i name="EMIN">     10.00000000</i>
   <i name="EMAX">    -10.00000000</i>
   <i name="EFERMI">      0.00000000</i>
  </separator>
  <separator name="writing" >
   <i type="int" name="NWRITE">     2</i>
   <i type="logical" name="LWAVE"> F  </i>
   <i type="logical" name="LDOWNSAMPLE"> F  </i>
   <i type="logical" name="LCHARG"> F  </i>
   <i type="logical" name="LPARD"> F  </i>
   <i type="logical" name="LVTOT"> F  </i>
   <i type="logical" name="LVHAR"> F  </i>
   <i type="logical" name="LELF"> F  </i>
   <i type="logical" name="LOPTICS"> F  </i>
   <v name="STM">      0.00000000      0.00000000      0.00000000      0.00000000      0.00000000      0.00000000      0.00000000</v>
  </separator>
  <separator name="performance" >
   <i type="int" name="NPAR">     8</i>
   <i type="int" name="NSIM">     4</i>
   <i type="int" name="NBLK">    -1</i>
   <i type="logical" name="LPLANE"> T  </i>
   <i type="logical" name="LSCALAPACK"> T  </i>
   <i type="logical" name="LSCAAWARE"> F  </i>
   <i type="logical" name="LSCALU"> F  </i>
   <i type="logical" name="LASYNC"> F  </i>
   <i type="logical" name="LORBITALREAL"> F  </i>
  </separator>
  <separator name="miscellaneous" >
   <i type="int" name="IDIOT">     3</i>
   <i type="int" name="PHON_NSTRUCT">    -1</i>
   <i type="logical" name="LMUSIC"> F  </i>
   <v name="POMASS">     28.08500000</v>
   <v name="DARWINR">      0.00000000</v>
   <v name="DARWINV">      1.00000000</v>
   <i type="logical" name="LCORR"> T  </i>
  </separator>
  <i type="logical" name="GGA_COMPAT"> T  </i>
  <i type="logical" name="LBERRY"> F  </i>
  <i type="int" name="ICORELEVEL">     0</i>
  <i type="logical" name="LDAU"> F  </i>
  <i type="int" name="I_CONSTRAINED_M">     0</i>
  <separator name="electronic exchange-correlation" >
   <i type="string" name="GGA">PS</i>
   <i type="int" name="VOSKOWN">     0</i>
   <i type="logical" name="LHFCALC"> F  </i>
   <i type="string" name="PRECFOCK"></i>
   <i type="logical" name="LSYMGRAD"> F  </i>
   <i type="logical" name="LHFONE"> F  </i>
   <i type="logical" name="LRHFCALC"> F  </i>
   <i type="logical" name="LTHOMAS"> F  </i>
   <i type="logical" name="LMODELHF"> F  </i>
   <i type="logical" name="LFOCKACE"> F  </i>
   <i name="ENCUT4O">     -1.00000000</i>
   <i type="int" name="EXXOEP">     0</i>
   <i type="int" name="FOURORBIT">     0</i>
   <i name="AEXX">      0.00000000</i>
   <i name="HFALPHA">      0.00000000</i>
   <i name="MCALPHA">      0.00000000</i>
   <i name="ALDAX">      1.00000000</i>
   <i name="AGGAX">      1.00000000</i>
   <i name="ALDAC">      1.00000000</i>
   <i name="AGGAC">      1.00000000</i>
   <i type="int" name="NKREDX">     1</i>
   <i type="int" name="NKREDY">     1</i>
   <i type="int" name="NKREDZ">     1</i>
   <i type="logical" name="SHIFTRED"> F  </i>
   <i type="logical" name="ODDONLY"> F  </i>
   <i type="logical" name="EVENONLY"> F  </i>
   <i type="int" name="LMAXFOCK">     0</i>
   <i type="int" name="NMAXFOCKAE">     0</i>
   <i type="logical" name="LFOCKAEDFT"> F  </i>
   <i name="HFSCREEN">      0.00000000</i>
   <i name="HFSCREENC">      0.00000000</i>
   <i type="int" name="NBANDSGWLOW">     0</i>
  </separator>
  <separator name="vdW DFT" >
   <i type="logical" name="LUSE_VDW"> F  </i>
   <i name="Zab_VDW">     -0.84910000</i>
   <i name="PARAM1">      0.12340000</i>
   <i name="PARAM2">      1.00000000</i>
   <i name="PARAM3">      0.00000000</i>
  </separator>
  <separator name="model GW" >
   <i type="int" name="MODEL_GW">     0</i>
   <i name="MODEL_EPS0">     12.03808591</i>
   <i name="MODEL_ALPHA">      1.00000000</i>
  </separator>
  <separator name="linear response parameters" >
   <i type="logical" name="LEPSILON"> F  </i>
   <i type="logical" name="LRPA"> F  </i>
   <i type="logical" name="LNABLA"> F  </i>
   <i type="logical" name="LVEL"> F  </i>
   <i name="CSHIFT">      0.10000000</i>
   <i name="OMEGAMAX">     -1.00000000</i>
   <i name="DEG_THRESHOLD">      0.00200000</i>
   <i name="RTIME">     -0.10000000</i>
   <i name="WPLASMAI">      0.00000000</i>
   <v name="DFIELD">      0.00000000      0.00000000      0.00000000</v>
   <v name="WPLASMA">      0.00000000      0.00000000      0.00000000      0.00000000      0.00000000      0.00000000      0.00000000      0.00000000      0.00000000</v>
  </separator>
  <separator name="orbital magnetization" >
   <i type="logical" name="NUCIND"> F  </i>
   <v name="MAGPOS">      0.00000000      0.00000000      0.00000000</v>
   <i type="logical" name="LNICSALL"> T  </i>
   <i type="logical" name="ORBITALMAG"> F  </i>
   <i type="logical" name="LMAGBLOCH"> F  </i>
   <i type="logical" name="LCHIMAG"> F  </i>
   <i type="logical" name="LGAUGE"> T  </i>
   <i type="int" name="MAGATOM">     0</i>
   <v name="MAGDIPOL">      0.00000000      0.00000000      0.00000000</v>
   <v name="AVECCONST">      0.00000000      0.00000000      0.00000000</v>
  </separator>
  <separator name="response functions" >
   <i type="logical" name="LFINITE_TEMPERATURE"> F  </i>
   <i type="logical" name="LADDER"> F  </i>
   <i type="logical" name="LRPAFORCE"> F  </i>
   <i type="logical" name="LFXC"> F  </i>
   <i type="logical" name="LHARTREE"> T  </i>
   <i type="int" name="IBSE">     0</i>
   <v type="int" name="KPOINT">    -1     0     0     0</v>
   <i type="logical" name="LTCTC"> F  </i>
   <i type="logical" name="LTCTE"> F  </i>
   <i type="logical" name="LTETE"> F  </i>
   <i type="logical" name="LTRIPLET"> F  </i>
   <i type="logical" name="LFXCEPS"> F  </i>
   <i type="logical" name="LFXHEG"> F  </i>
   <i type="int" name="NATURALO">     2</i>
   <i type="logical" name="LHOLEGF"> F  </i>
   <i type="logical" name="L2ORDER"> F  </i>
   <i type="logical" name="LDMP1"> F  </i>
   <i type="logical" name="LMP2LT"> F  </i>
   <i type="logical" name="LSMP2LT"> F  </i>
   <i type="logical" name="LGWLF"> F  </i>
   <i name="ENCUTGW">     -2.00000000</i>
   <i name="ENCUTGWSOFT">     -2.00000000</i>
   <i name="ENCUTLF">     -1.00000000</i>
   <i type="logical" name="LESF_SPLINES"> F  </i>
   <i type="int" name="LMAXMP2">    -1</i>
   <i name="SCISSOR">      0.00000000</i>
   <i type="int" name="NOMEGA">     0</i>
   <i type="int" name="NOMEGAR">     0</i>
   <i type="int" name="NBANDSGW">    -1</i>
   <i type="int" name="NBANDSO">    -1</i>
   <i type="int" name="NBANDSV">    -1</i>
   <i type="int" name="NELMGW">     1</i>
   <i type="int" name="NELMHF">     1</i>
   <i type="int" name="DIM">     3</i>
   <i type="int" name="IESPILON">     4</i>
   <i type="int" name="ANTIRES">     0</i>
   <i name="OMEGAMAX">    -30.00000000</i>
   <i name="OMEGAMIN">    -30.00000000</i>
   <i name="OMEGATL">   -200.00000000</i>
   <i type="int" name="OMEGAGRID">     0</i>
   <i name="CSHIFT">     -0.10000000</i>
   <i type="logical" name="LSELFENERGY"> F  </i>
   <i type="logical" name="LSPECTRAL"> F  </i>
   <i type="logical" name="LSPECTRALGW"> F  </i>
   <i type="logical" name="LSINGLES"> F  </i>
   <i type="logical" name="LFERMIGW"> F  </i>
   <i type="logical" name="ODDONLYGW"> F  </i>
   <i type="logical" name="EVENONLYGW"> F  </i>
   <i type="int" name="NKREDLFX">     1</i>
   <i type="int" name="NKREDLFY">     1</i>
   <i type="int" name="NKREDLFZ">     1</i>
   <i type="int" name="MAXMEM">  2800</i>
   <i type="int" name="TELESCOPE">     0</i>
   <i type="int" name="NTAUPAR">    -1</i>
   <i type="int" name="NOMEGAPAR">    -1</i>
   <i name="DAMP_NEWTON">      0.80000001</i>
   <i name="LAMBDA">      1.00000000</i>
  </separator>
  <separator name="External order field" >
   <i name="OFIELD_KAPPA">      0.00000000</i>
   <v name="OFIELD_K">      0.00000000      0.00000000      0.00000000</v>
   <i name="OFIELD_Q6_NEAR">      0.00000000</i>
   <i name="OFIELD_Q6_FAR">      0.00000000</i>
   <i name="OFIELD_A">      0.00000000</i>
  </separator>
  <separator name="optional k-points parameters" >
   <i type="int" name="KPOINTS_OPT_MODE">     1</i>
   <i type="logical" name="LKPOINTS_OPT"> F  </i>
  </separator>
 </parameters>
 <atominfo>
  <atoms>      64 </atoms>
  <types>       1 </types>
  <array name="atoms" >
   <dimension dim="1">ion</dimension>
   <field type="string">element</field>
   <field type="int">atomtype</field>
   <set>
    <rc><c>Si</c><c>   1</c></rc>
    <rc><c>Si</c><c>   1</c></rc>
    <rc><c>Si</c><c>   1</c></rc>
    <rc><c>Si</c><c>   1</c></rc>
    <rc><c>Si</c><c>   1</c></rc>
    <rc><c>Si</c><c>   1</c></rc>
    <rc><c>Si</c><c>   1</c></rc>
    <rc><c>Si</c><c>   1</c></rc>
    <rc><c>Si</c><c>   1</c></rc>
    <rc><c>Si</c><c>   1</c></rc>
    <rc><c>Si</c><c>   1</c></rc>
    <rc><c>Si</c><c>   1</c></rc>
    <rc><c>Si</c><c>   1</c></rc>
    <rc><c>Si</c><c>   1</c></rc>
    <rc><c>Si</c><c>   1</c></rc>
    <rc><c>Si</c><c>   1</c></rc>
    <rc><c>Si</c><c>   1</c></rc>
    <rc><c>Si</c><c>   1</c></rc>
    <rc><c>Si</c><c>   1</c></rc>
    <rc><c>Si</c><c>   1</c></rc>
    <rc><c>Si</c><c>   1</c></rc>
    <rc><c>Si</c><c>   1</c></rc>
    <rc><c>Si</c><c>   1</c></rc>
    <rc><c>Si</c><c>   1</c></rc>
    <rc><c>Si</c><c>   1</c></rc>
    <rc><c>Si</c><c>   1</c></rc>
    <rc><c>Si</c><c>   1</c></rc>
    <rc><c>Si</c><c>   1</c></rc>
    <rc><c>Si</c><c>   1</c></rc>
    <rc><c>Si</c><c>   1</c></rc>
    <rc><c>Si</c><c>   1</c></rc>
    <rc><c>Si</c><c>   1</c></rc>
    <rc><c>Si</c><c>   1</c></rc>
    <rc><c>Si</c><c>   1</c></rc>
    <rc><c>Si</c><c>   1</c></rc>
    <rc><c>Si</c><c>   1</c></rc>
    <rc><c>Si</c><c>   1</c></rc>
    <rc><c>Si</c><c>   1</c></rc>
    <rc><c>Si</c><c>   1</c></rc>
    <rc><c>Si</c><c>   1</c></rc>
    <rc><c>Si</c><c>   1</c></rc>
    <rc><c>Si</c><c>   1</c></rc>
    <rc><c>Si</c><c>   1</c></rc>
    <rc><c>Si</c><c>   1</c></rc>
    <rc><c>Si</c><c>   1</c></rc>
    <rc><c>Si</c><c>   1</c></rc>
    <rc><c>Si</c><c>   1</c></rc>
    <rc><c>Si</c><c>   1</c></rc>
    <rc><c>Si</c><c>   1</c></rc>
    <rc><c>Si</c><c>   1</c></rc>
    <rc><c>Si</c><c>   1</c></rc>
    <rc><c>Si</c><c>   1</c></rc>
    <rc><c>Si</c><c>   1</c></rc>
    <rc><c>Si</c><c>   1</c></rc>
    <rc><c>Si</c><c>   1</c></rc>
    <rc><c>Si</c><c>   1</c></rc>
    <rc><c>Si</c><c>   1</c></rc>
    <rc><c>Si</c><c>   1</c></rc>
    <rc><c>Si</c><c>   1</c></rc>
    <rc><c>Si</c><c>   1</c></rc>
    <rc><c>Si</c><c>   1</c></rc>
    <rc><c>Si</c><c>   1</c></rc>
    <rc><c>Si</c><c>   1</c></rc>
    <rc><c>Si</c><c>   1</c></rc>
   </set>
  </array>
  <array name="atomtypes" >
   <dimension dim="1">type</dimension>
   <field type="int">atomspertype</field>
   <field type="string">element</field>
   <field>mass</field>
   <field>valence</field>
   <field type="string">pseudopotential</field>
   <set>
    <rc><c>  64</c><c>Si</c><c>     28.08500000</c><c>      4.00000000</c><c>  PAW_PBE Si 05Jan2001                  </c></rc>
   </set>
  </array>
 </atominfo>
 <structure name="initialpos" >
  <crystal>
   <varray name="basis" >
    <v>      10.86914512      -0.00000000      -0.00000000 </v>
    <v>      -0.00000000      10.86914512       0.00000000 </v>
    <v>       0.00000000       0.00000000      10.86914512 </v>
   </varray>
   <i name="volume">   1284.06249692 </i>
   <varray name="rec_basis" >
    <v>       0.09200356       0.00000000      -0.00000000 </v>
    <v>       0.00000000       0.09200356      -0.00000000 </v>
    <v>       0.00000000      -0.00000000       0.09200356 </v>
   </varray>
  </crystal>
  <varray name="positions" >
   <v>       0.24907996       0.25000000       0.25000000 </v>
   <v>       0.75000000       0.25000000       0.25000000 </v>
   <v>       0.25000000       0.75000000       0.25000000 </v>
   <v>       0.75000000       0.75000000       0.25000000 </v>
   <v>       0.25000000       0.25000000       0.75000000 </v>
   <v>       0.75000000       0.25000000       0.75000000 </v>
   <v>       0.25000000       0.75000000       0.75000000 </v>
   <v>       0.75000000       0.75000000       0.75000000 </v>
   <v>       0.24907996       0.00000000       0.00000000 </v>
   <v>       0.75000000       0.00000000       0.00000000 </v>
   <v>       0.25000000       0.50000000       0.00000000 </v>
   <v>       0.75000000       0.50000000       0.00000000 </v>
   <v>       0.25000000       0.00000000       0.50000000 </v>
   <v>       0.75000000       0.00000000       0.50000000 </v>
   <v>       0.25000000       0.50000000       0.50000000 </v>
   <v>       0.75000000       0.50000000       0.50000000 </v>
   <v>       0.00000000       0.25000000       0.00000000 </v>
   <v>       0.50000000       0.25000000       0.00000000 </v>
   <v>       0.00000000       0.75000000       0.00000000 </v>
   <v>       0.50000000       0.75000000       0.00000000 </v>
   <v>       0.00000000       0.25000000       0.50000000 </v>
   <v>       0.50000000       0.25000000       0.50000000 </v>
   <v>       0.00000000       0.75000000       0.50000000 </v>
   <v>       0.50000000       0.75000000       0.50000000 </v>
   <v>       0.00000000       0.00000000       0.25000000 </v>
   <v>       0.50000000       0.00000000       0.25000000 </v>
   <v>       0.00000000       0.50000000       0.25000000 </v>
   <v>       0.50000000       0.50000000       0.25000000 </v>
   <v>       0.00000000       0.00000000       0.75000000 </v>
   <v>       0.50000000       0.00000000       0.75000000 </v>
   <v>       0.00000000       0.50000000       0.75000000 </v>
   <v>       0.50000000       0.50000000       0.75000000 </v>
   <v>       0.37500000       0.37500000       0.37500000 </v>
   <v>       0.87500000       0.37500000       0.37500000 </v>
   <v>       0.37500000       0.87500000       0.37500000 </v>
   <v>       0.87500000       0.87500000       0.37500000 </v>
   <v>       0.37500000       0.37500000       0.87500000 </v>
   <v>       0.87500000       0.37500000       0.87500000 </v>
   <v>       0.37500000       0.87500000       0.87500000 </v>
   <v>       0.87500000       0.87500000       0.87500000 </v>
   <v>       0.37500000       0.12500000       0.12500000 </v>
   <v>       0.87500000       0.12500000       0.12500000 </v>
   <v>       0.37500000       0.62500000       0.12500000 </v>
   <v>       0.87500000       0.62500000       0.12500000 </v>
   <v>       0.37500000       0.12500000       0.62500000 </v>
   <v>       0.87500000       0.12500000       0.62500000 </v>
   <v>       0.37500000       0.62500000       0.62500000 </v>
   <v>       0.87500000       0.62500000       0.62500000 </v>
   <v>       0.12500000       0.37500000       0.12500000 </v>
   <v>       0.62500000       0.37500000       0.12500000 </v>
   <v>       0.12500000       0.87500000       0.12500000 </v>
   <v>       0.62500000       0.87500000       0.12500000 </v>
   <v>       0.12500000       0.37500000       0.62500000 </v>
   <v>       0.62500000       0.37500000       0.62500000 </v>
   <v>       0.12500000       0.87500000       0.62500000 </v>
   <v>       0.62500000       0.87500000       0.62500000 </v>
   <v>       0.12500000       0.12500000       0.37500000 </v>
   <v>       0.62500000       0.12500000       0.37500000 </v>
   <v>       0.12500000       0.62500000       0.37500000 </v>
   <v>       0.62500000       0.62500000       0.37500000 </v>
   <v>       0.12500000       0.12500000       0.87500000 </v>
   <v>       0.62500000       0.12500000       0.87500000 </v>
   <v>       0.12500000       0.62500000       0.87500000 </v>
   <v>       0.62500000       0.62500000       0.87500000 </v>
  </varray>
 </structure>
 <calculation>
  <scstep>
   <time name="dav">    1.71    1.72</time>
   <time name="total">    1.75    1.76</time>
   <energy>
    <i name="alphaZ">    107.38120932 </i>
    <i name="ewald">  -7307.87500066 </i>
    <i name="hartreedc">   -353.25128773 </i>
    <i name="XCdc">   -558.85370750 </i>
    <i name="pawpsdc">   5598.62625415 </i>
    <i name="pawaedc">  -4492.17844134 </i>
    <i name="eentropy">     -0.00539660 </i>
    <i name="bandstr">    896.73009557 </i>
    <i name="atom">   6564.76702419 </i>
    <i name="e_fr_energy">    455.34074940 </i>
    <i name="e_wo_entrp">    455.34614600 </i>
    <i name="e_0_energy">    455.34344770 </i>
   </energy>
  </scstep>
  <scstep>
   <time name="dav">    1.96    1.97</time>
   <time name="total">    1.96    1.98</time>
   <energy>
    <i name="e_fr_energy">   -321.18041032 </i>
    <i name="e_wo_entrp">   -321.18041032 </i>
    <i name="e_0_energy">   -321.18041032 </i>
   </energy>
  </scstep>
  <scstep>
   <time name="dav">    1.99    2.00</time>
   <time name="total">    1.99    2.00</time>
   <energy>
    <i name="e_fr_energy">   -373.43178027 </i>
    <i name="e_wo_entrp">   -373.43178027 </i>
    <i name="e_0_energy">   -373.43178027 </i>
   </energy>
  </scstep>
  <scstep>
   <time name="dav">    1.97    1.98</time>
   <time name="total">    1.97    1.98</time>
   <energy>
    <i name="e_fr_energy">   -374.60047673 </i>
    <i name="e_wo_entrp">   -374.60047673 </i>
    <i name="e_0_energy">   -374.60047673 </i>
   </energy>
  </scstep>
  <scstep>
   <time name="dav">    1.93    1.94</time>
   <time name="total">    2.01    2.02</time>
   <energy>
    <i name="e_fr_energy">   -374.64066934 </i>
    <i name="e_wo_entrp">   -374.64066934 </i>
    <i name="e_0_energy">   -374.64066934 </i>
   </energy>
  </scstep>
  <scstep>
   <time name="dav">    1.88    1.89</time>
   <time name="total">    2.00    2.01</time>
   <energy>
    <i name="e_fr_energy">   -369.72163073 </i>
    <i name="e_wo_entrp">   -369.72163073 </i>
    <i name="e_0_energy">   -369.72163073 </i>
   </energy>
  </scstep>
  <scstep>
   <time name="dav">    1.86    1.86</time>
   <time name="total">    1.98    1.99</time>
   <energy>
    <i name="e_fr_energy">   -367.49036816 </i>
    <i name="e_wo_entrp">   -367.49036816 </i>
    <i name="e_0_energy">   -367.49036816 </i>
   </energy>
  </scstep>
  <scstep>
   <time name="dav">    1.88    1.89</time>
   <time name="total">    2.00    2.02</time>
   <energy>
    <i name="e_fr_energy">   -367.49741625 </i>
    <i name="e_wo_entrp">   -367.49741625 </i>
    <i name="e_0_energy">   -367.49741625 </i>
   </energy>
  </scstep>
  <scstep>
   <time name="dav">    2.01    2.02</time>
   <time name="total">    2.13    2.14</time>
   <energy>
    <i name="e_fr_energy">   -367.49894849 </i>
    <i name="e_wo_entrp">   -367.49894849 </i>
    <i name="e_0_energy">   -367.49894849 </i>
   </energy>
  </scstep>
  <scstep>
   <time name="dav">    1.85    1.86</time>
   <time name="total">    1.98    1.99</time>
   <energy>
    <i name="e_fr_energy">   -367.49979065 </i>
    <i name="e_wo_entrp">   -367.49979065 </i>
    <i name="e_0_energy">   -367.49979065 </i>
   </energy>
  </scstep>
  <scstep>
   <time name="dav">    1.91    1.92</time>
   <time name="total">    2.03    2.04</time>
   <energy>
    <i name="e_fr_energy">   -367.49982563 </i>
    <i name="e_wo_entrp">   -367.49982563 </i>
    <i name="e_0_energy">   -367.49982563 </i>
   </energy>
  </scstep>
  <scstep>
   <time name="dav">    1.95    1.96</time>
   <time name="total">    2.07    2.08</time>
   <energy>
    <i name="e_fr_energy">   -367.49982794 </i>
    <i name="e_wo_entrp">   -367.49982794 </i>
    <i name="e_0_energy">   -367.49982794 </i>
   </energy>
  </scstep>
  <scstep>
   <time name="dav">    1.87    1.88</time>
   <time name="total">    1.99    2.00</time>
   <energy>
    <i name="e_fr_energy">   -367.49982690 </i>
    <i name="e_wo_entrp">   -367.49982690 </i>
    <i name="e_0_energy">   -367.49982690 </i>
   </energy>
  </scstep>
  <scstep>
   <time name="dav">    1.63    1.64</time>
   <time name="total">    1.75    1.76</time>
   <energy>
    <i name="e_fr_energy">   -367.49982673 </i>
    <i name="e_wo_entrp">   -367.49982673 </i>
    <i name="e_0_energy">   -367.49982673 </i>
   </energy>
  </scstep>
  <scstep>
   <time name="dav">    1.33    1.34</time>
   <time name="total">    1.38    1.38</time>
   <energy>
    <i name="alphaZ">    107.38120932 </i>
    <i name="ewald">  -7307.87500066 </i>
    <i name="hartreedc">   -468.78640923 </i>
    <i name="XCdc">   -539.35379505 </i>
    <i name="pawpsdc">  28474.95143753 </i>
    <i name="pawaedc"> -27375.37819354 </i>
    <i name="eentropy">     -0.00000000 </i>
    <i name="bandstr">    176.79390072 </i>
    <i name="atom">   6564.76702419 </i>
    <i name="e_fr_energy">   -367.49982672 </i>
    <i name="e_wo_entrp">   -367.49982672 </i>
    <i name="e_0_energy">   -367.49982672 </i>
   </energy>
  </scstep>
  <structure>
   <crystal>
    <varray name="basis" >
     <v>      10.86914512      -0.00000000      -0.00000000 </v>
     <v>      -0.00000000      10.86914512       0.00000000 </v>
     <v>       0.00000000       0.00000000      10.86914512 </v>
    </varray>
    <i name="volume">   1284.06249692 </i>
    <varray name="rec_basis" >
     <v>       0.09200356       0.00000000      -0.00000000 </v>
     <v>       0.00000000       0.09200356      -0.00000000 </v>
     <v>       0.00000000      -0.00000000       0.09200356 </v>
    </varray>
   </crystal>
   <varray name="positions" >
    <v>       0.24907996       0.25000000       0.25000000 </v>
    <v>       0.75000000       0.25000000       0.25000000 </v>
    <v>       0.25000000       0.75000000       0.25000000 </v>
    <v>       0.75000000       0.75000000       0.25000000 </v>
    <v>       0.25000000       0.25000000       0.75000000 </v>
    <v>       0.75000000       0.25000000       0.75000000 </v>
    <v>       0.25000000       0.75000000       0.75000000 </v>
    <v>       0.75000000       0.75000000       0.75000000 </v>
    <v>       0.24907996       0.00000000       0.00000000 </v>
    <v>       0.75000000       0.00000000       0.00000000 </v>
    <v>       0.25000000       0.50000000       0.00000000 </v>
    <v>       0.75000000       0.50000000       0.00000000 </v>
    <v>       0.25000000       0.00000000       0.50000000 </v>
    <v>       0.75000000       0.00000000       0.50000000 </v>
    <v>       0.25000000       0.50000000       0.50000000 </v>
    <v>       0.75000000       0.50000000       0.50000000 </v>
    <v>       0.00000000       0.25000000       0.00000000 </v>
    <v>       0.50000000       0.25000000       0.00000000 </v>
    <v>       0.00000000       0.75000000       0.00000000 </v>
    <v>       0.50000000       0.75000000       0.00000000 </v>
    <v>       0.00000000       0.25000000       0.50000000 </v>
    <v>       0.50000000       0.25000000       0.50000000 </v>
    <v>       0.00000000       0.75000000       0.50000000 </v>
    <v>       0.50000000       0.75000000       0.50000000 </v>
    <v>       0.00000000       0.00000000       0.25000000 </v>
    <v>       0.50000000       0.00000000       0.25000000 </v>
    <v>       0.00000000       0.50000000       0.25000000 </v>
    <v>       0.50000000       0.50000000       0.25000000 </v>
    <v>       0.00000000       0.00000000       0.75000000 </v>
    <v>       0.50000000       0.00000000       0.75000000 </v>
    <v>       0.00000000       0.50000000       0.75000000 </v>
    <v>       0.50000000       0.50000000       0.75000000 </v>
    <v>       0.37500000       0.37500000       0.37500000 </v>
    <v>       0.87500000       0.37500000       0.37500000 </v>
    <v>       0.37500000       0.87500000       0.37500000 </v>
    <v>       0.87500000       0.87500000       0.37500000 </v>
    <v>       0.37500000       0.37500000       0.87500000 </v>
    <v>       0.87500000       0.37500000       0.87500000 </v>
    <v>       0.37500000       0.87500000       0.87500000 </v>
    <v>       0.87500000       0.87500000       0.87500000 </v>
    <v>       0.37500000       0.12500000       0.12500000 </v>
    <v>       0.87500000       0.12500000       0.12500000 </v>
    <v>       0.37500000       0.62500000       0.12500000 </v>
    <v>       0.87500000       0.62500000       0.12500000 </v>
    <v>       0.37500000       0.12500000       0.62500000 </v>
    <v>       0.87500000       0.12500000       0.62500000 </v>
    <v>       0.37500000       0.62500000       0.62500000 </v>
    <v>       0.87500000       0.62500000       0.62500000 </v>
    <v>       0.12500000       0.37500000       0.12500000 </v>
    <v>       0.62500000       0.37500000       0.12500000 </v>
    <v>       0.12500000       0.87500000       0.12500000 </v>
    <v>       0.62500000       0.87500000       0.12500000 </v>
    <v>       0.12500000       0.37500000       0.62500000 </v>
    <v>       0.62500000       0.37500000       0.62500000 </v>
    <v>       0.12500000       0.87500000       0.62500000 </v>
    <v>       0.62500000       0.87500000       0.62500000 </v>
    <v>       0.12500000       0.12500000       0.37500000 </v>
    <v>       0.62500000       0.12500000       0.37500000 </v>
    <v>       0.12500000       0.62500000       0.37500000 </v>
    <v>       0.62500000       0.62500000       0.37500000 </v>
    <v>       0.12500000       0.12500000       0.87500000 </v>
    <v>       0.62500000       0.12500000       0.87500000 </v>
    <v>       0.12500000       0.62500000       0.87500000 </v>
    <v>       0.62500000       0.62500000       0.87500000 </v>
   </varray>
  </structure>
  <varray name="forces" >
   <v>       0.13639249       0.00094140       0.00094140 </v>
   <v>      -0.00014212       0.00007613       0.00007613 </v>
   <v>       0.00379614       0.00095524      -0.00095485 </v>
   <v>      -0.00000932       0.00007641      -0.00007781 </v>
   <v>       0.00379614      -0.00095485       0.00095524 </v>
   <v>      -0.00000932      -0.00007781       0.00007641 </v>
   <v>       0.00819646      -0.00094110      -0.00094110 </v>
   <v>      -0.00018887      -0.00007675      -0.00007675 </v>
   <v>       0.13639249      -0.00094140      -0.00094140 </v>
   <v>      -0.00014212      -0.00007613      -0.00007613 </v>
   <v>       0.00379614      -0.00095524       0.00095485 </v>
   <v>      -0.00000932      -0.00007641       0.00007781 </v>
   <v>       0.00379614       0.00095485      -0.00095524 </v>
   <v>      -0.00000932       0.00007781      -0.00007641 </v>
   <v>       0.00819646       0.00094110       0.00094110 </v>
   <v>      -0.00018887       0.00007675       0.00007675 </v>
   <v>      -0.00375590       0.00281857      -0.00281857 </v>
   <v>      -0.00371821      -0.00090910       0.00090910 </v>
   <v>      -0.00220477      -0.00178921       0.00155717 </v>
   <v>      -0.00218688       0.00193033       0.00033879 </v>
   <v>      -0.00220477      -0.00155717       0.00178921 </v>
   <v>      -0.00218688      -0.00033879      -0.00193033 </v>
   <v>      -0.00065252       0.00052474      -0.00052474 </v>
   <v>      -0.00065214      -0.00068033       0.00068033 </v>
   <v>      -0.00375590      -0.00281857       0.00281857 </v>
   <v>      -0.00371821       0.00090910      -0.00090910 </v>
   <v>      -0.00220477       0.00178921      -0.00155717 </v>
   <v>      -0.00218688      -0.00193033      -0.00033879 </v>
   <v>      -0.00220477       0.00155717      -0.00178921 </v>
   <v>      -0.00218688       0.00033879       0.00193033 </v>
   <v>      -0.00065252      -0.00052474       0.00052474 </v>
   <v>      -0.00065214       0.00068033      -0.00068033 </v>
   <v>      -0.03425777      -0.02215059      -0.02215059 </v>
   <v>       0.00026624      -0.00007129      -0.00007129 </v>
   <v>       0.00102048       0.00007225      -0.00007225 </v>
   <v>      -0.00044805       0.00004187      -0.00004187 </v>
   <v>       0.00102048      -0.00007225       0.00007225 </v>
   <v>      -0.00044805      -0.00004187       0.00004187 </v>
   <v>      -0.03425777       0.02215059       0.02215059 </v>
   <v>       0.00026624       0.00007129       0.00007129 </v>
   <v>      -0.06435248       0.00000000       0.00000000 </v>
   <v>       0.00017483      -0.00000000      -0.00000000 </v>
   <v>       0.00102180      -0.00000000      -0.00000000 </v>
   <v>      -0.00044809       0.00000000       0.00000000 </v>
   <v>       0.00102180      -0.00000000      -0.00000000 </v>
   <v>      -0.00044809       0.00000000       0.00000000 </v>
   <v>      -0.00415833       0.00000000       0.00000000 </v>
   <v>       0.00035397      -0.00000000      -0.00000000 </v>
   <v>      -0.03197177       0.02266142      -0.02259451 </v>
   <v>      -0.00012998       0.00012857      -0.00008968 </v>
   <v>      -0.03197177      -0.02266142       0.02259451 </v>
   <v>      -0.00012998      -0.00012857       0.00008968 </v>
   <v>      -0.00157323       0.00015189      -0.00008963 </v>
   <v>      -0.00004157      -0.00002120       0.00005876 </v>
   <v>      -0.00157323      -0.00015189       0.00008963 </v>
   <v>      -0.00004157       0.00002120      -0.00005876 </v>
   <v>      -0.03197177      -0.02259451       0.02266142 </v>
   <v>      -0.00012998      -0.00008968       0.00012857 </v>
   <v>      -0.00157323      -0.00008963       0.00015189 </v>
   <v>      -0.00004157       0.00005876      -0.00002120 </v>
   <v>      -0.03197177       0.02259451      -0.02266142 </v>
   <v>      -0.00012998       0.00008968      -0.00012857 </v>
   <v>      -0.00157323       0.00008963      -0.00015189 </v>
   <v>      -0.00004157      -0.00005876       0.00002120 </v>
  </varray>
  <varray name="stress" >
   <v>      -0.03335967      -0.00000000       0.00000000 </v>
   <v>      -0.00000000      -0.02864962      -0.24650403 </v>
   <v>       0.00000000      -0.24650403      -0.02864962 </v>
  </varray>
  <energy>
   <i name="e_fr_energy">   -367.49982672 </i>
   <i name="e_wo_entrp">   -367.49982672 </i>
   <i name="e_0_energy">   -367.49982672 </i>
  </energy>
  <time name="totalsc">   31.76   31.94</time>
  <eigenvalues>
   <array>
    <dimension dim="1">band</dimension>
    <dimension dim="2">kpoint</dimension>
    <dimension dim="3">spin</dimension>
    <field>eigene</field>
    <field>occ</field>
    <set>
     <set comment="spin 1">
      <set comment="kpoint 1">
       <r>   -6.2055    1.0000 </r>
       <r>   -5.1242    1.0000 </r>
       <r>   -5.1218    1.0000 </r>
       <r>   -5.1218    1.0000 </r>
       <r>   -5.1210    1.0000 </r>
       <r>   -5.1208    1.0000 </r>
       <r>   -5.1182    1.0000 </r>
       <r>   -4.1598    1.0000 </r>
       <r>   -4.1582    1.0000 </r>
       <r>   -4.1567    1.0000 </r>
       <r>   -4.1561    1.0000 </r>
       <r>   -4.1554    1.0000 </r>
       <r>   -4.1551    1.0000 </r>
       <r>   -4.1551    1.0000 </r>
       <r>   -4.1550    1.0000 </r>
       <r>   -4.1548    1.0000 </r>
       <r>   -4.1541    1.0000 </r>
       <r>   -4.1508    1.0000 </r>
       <r>   -4.1495    1.0000 </r>
       <r>   -3.8630    1.0000 </r>
       <r>   -3.8616    1.0000 </r>
       <r>   -3.8597    1.0000 </r>
       <r>   -3.8582    1.0000 </r>
       <r>   -2.0540    1.0000 </r>
       <r>   -2.0539    1.0000 </r>
       <r>   -2.0520    1.0000 </r>
       <r>   -2.0519    1.0000 </r>
       <r>   -2.0500    1.0000 </r>
       <r>   -2.0500    1.0000 </r>
       <r>   -1.8865    1.0000 </r>
       <r>   -1.8860    1.0000 </r>
       <r>   -1.8852    1.0000 </r>
       <r>   -1.8840    1.0000 </r>
       <r>   -1.8831    1.0000 </r>
       <r>   -1.8831    1.0000 </r>
       <r>   -1.8829    1.0000 </r>
       <r>   -1.8827    1.0000 </r>
       <r>   -1.8825    1.0000 </r>
       <r>   -1.8807    1.0000 </r>
       <r>   -1.8783    1.0000 </r>
       <r>   -1.8775    1.0000 </r>
       <r>   -1.2373    1.0000 </r>
       <r>   -1.2351    1.0000 </r>
       <r>   -1.2343    1.0000 </r>
       <r>   -1.2321    1.0000 </r>
       <r>    0.2783    1.0000 </r>
       <r>    0.2784    1.0000 </r>
       <r>    0.2802    1.0000 </r>
       <r>    0.2815    1.0000 </r>
       <r>    0.2818    1.0000 </r>
       <r>    0.2818    1.0000 </r>
       <r>    0.2819    1.0000 </r>
       <r>    0.2820    1.0000 </r>
       <r>    0.2821    1.0000 </r>
       <r>    0.2839    1.0000 </r>
       <r>    0.2852    1.0000 </r>
       <r>    0.2862    1.0000 </r>
       <r>    1.8686    1.0000 </r>
       <r>    1.8693    1.0000 </r>
       <r>    1.8705    1.0000 </r>
       <r>    1.8705    1.0000 </r>
       <r>    1.8709    1.0000 </r>
       <r>    1.8710    1.0000 </r>
       <r>    1.8711    1.0000 </r>
       <r>    1.8711    1.0000 </r>
       <r>    1.8715    1.0000 </r>
       <r>    1.8719    1.0000 </r>
       <r>    1.8733    1.0000 </r>
       <r>    1.8742    1.0000 </r>
       <r>    1.9708    1.0000 </r>
       <r>    1.9717    1.0000 </r>
       <r>    1.9717    1.0000 </r>
       <r>    1.9719    1.0000 </r>
       <r>    1.9722    1.0000 </r>
       <r>    1.9733    1.0000 </r>
       <r>    1.9737    1.0000 </r>
       <r>    1.9737    1.0000 </r>
       <r>    1.9740    1.0000 </r>
       <r>    1.9752    1.0000 </r>
       <r>    1.9756    1.0000 </r>
       <r>    1.9762    1.0000 </r>
       <r>    2.2495    1.0000 </r>
       <r>    2.2495    1.0000 </r>
       <r>    2.2504    1.0000 </r>
       <r>    2.2518    1.0000 </r>
       <r>    2.2534    1.0000 </r>
       <r>    2.2541    1.0000 </r>
       <r>    2.9006    1.0000 </r>
       <r>    2.9008    1.0000 </r>
       <r>    2.9017    1.0000 </r>
       <r>    2.9017    1.0000 </r>
       <r>    2.9027    1.0000 </r>
       <r>    2.9027    1.0000 </r>
       <r>    3.8615    1.0000 </r>
       <r>    3.8651    1.0000 </r>
       <r>    3.8652    1.0000 </r>
       <r>    3.8664    1.0000 </r>
       <r>    3.8665    1.0000 </r>
       <r>    3.8667    1.0000 </r>
       <r>    3.8667    1.0000 </r>
       <r>    3.8668    1.0000 </r>
       <r>    3.8669    1.0000 </r>
       <r>    3.8681    1.0000 </r>
       <r>    3.8682    1.0000 </r>
       <r>    3.8718    1.0000 </r>
       <r>    4.4314    1.0000 </r>
       <r>    4.4354    1.0000 </r>
       <r>    4.4358    1.0000 </r>
       <r>    4.4361    1.0000 </r>
       <r>    4.4362    1.0000 </r>
       <r>    4.4367    1.0000 </r>
       <r>    4.4368    1.0000 </r>
       <r>    4.4370    1.0000 </r>
       <r>    4.4376    1.0000 </r>
       <r>    4.4385    1.0000 </r>
       <r>    4.4398    1.0000 </r>
       <r>    4.4426    1.0000 </r>
       <r>    4.5655    1.0000 </r>
       <r>    4.5684    1.0000 </r>
       <r>    4.5689    1.0000 </r>
       <r>    4.5692    1.0000 </r>
       <r>    4.5704    1.0000 </r>
       <r>    4.5708    1.0000 </r>
       <r>    4.5713    1.0000 </r>
       <r>    4.5745    1.0000 </r>
       <r>    5.7690    1.0000 </r>
       <r>    5.7720    1.0000 </r>
       <r>    5.7750    1.0000 </r>
       <r>    6.3629    0.0000 </r>
       <r>    6.3643    0.0000 </r>
       <r>    6.3658    0.0000 </r>
       <r>    6.3658    0.0000 </r>
       <r>    6.3672    0.0000 </r>
       <r>    6.3686    0.0000 </r>
       <r>    6.8056    0.0000 </r>
       <r>    6.8067    0.0000 </r>
       <r>    6.8076    0.0000 </r>
       <r>    6.8095    0.0000 </r>
       <r>    6.8095    0.0000 </r>
       <r>    6.8095    0.0000 </r>
       <r>    7.2314    0.0000 </r>
       <r>    7.2318    0.0000 </r>
       <r>    7.2322    0.0000 </r>
       <r>    7.2325    0.0000 </r>
       <r>    8.1338    0.0000 </r>
       <r>    8.1353    0.0000 </r>
       <r>    8.1357    0.0000 </r>
       <r>    8.1374    0.0000 </r>
       <r>    8.1374    0.0000 </r>
       <r>    8.1379    0.0000 </r>
       <r>    8.1379    0.0000 </r>
       <r>    8.1384    0.0000 </r>
       <r>    8.1384    0.0000 </r>
       <r>    8.1402    0.0000 </r>
       <r>    8.1404    0.0000 </r>
       <r>    8.1419    0.0000 </r>
       <r>    8.2872    0.0000 </r>
       <r>    8.2889    0.0000 </r>
       <r>    8.2907    0.0000 </r>
       <r>    8.7968    0.0000 </r>
       <r>    8.7968    0.0000 </r>
       <r>    8.7970    0.0000 </r>
       <r>    8.7989    0.0000 </r>
       <r>    8.7990    0.0000 </r>
       <r>    8.7991    0.0000 </r>
       <r>    9.0488    0.0000 </r>
       <r>    9.0503    0.0000 </r>
       <r>    9.0538    0.0000 </r>
      </set>
      <set comment="kpoint 2">
       <r>   -5.9334    1.0000 </r>
       <r>   -5.9307    1.0000 </r>
       <r>   -4.8746    1.0000 </r>
       <r>   -4.8746    1.0000 </r>
       <r>   -4.8739    1.0000 </r>
       <r>   -4.8739    1.0000 </r>
       <r>   -4.8726    1.0000 </r>
       <r>   -4.8726    1.0000 </r>
       <r>   -4.8699    1.0000 </r>
       <r>   -4.8699    1.0000 </r>
       <r>   -4.0268    1.0000 </r>
       <r>   -4.0247    1.0000 </r>
       <r>   -4.0230    1.0000 </r>
       <r>   -4.0228    1.0000 </r>
       <r>   -4.0226    1.0000 </r>
       <r>   -4.0224    1.0000 </r>
       <r>   -4.0207    1.0000 </r>
       <r>   -4.0187    1.0000 </r>
       <r>   -3.8079    1.0000 </r>
       <r>   -3.8033    1.0000 </r>
       <r>   -3.0796    1.0000 </r>
       <r>   -3.0796    1.0000 </r>
       <r>   -3.0774    1.0000 </r>
       <r>   -3.0774    1.0000 </r>
       <r>   -3.0768    1.0000 </r>
       <r>   -3.0768    1.0000 </r>
       <r>   -3.0719    1.0000 </r>
       <r>   -3.0718    1.0000 </r>
       <r>   -1.9758    1.0000 </r>
       <r>   -1.9719    1.0000 </r>
       <r>   -1.9719    1.0000 </r>
       <r>   -1.9716    1.0000 </r>
       <r>   -1.9713    1.0000 </r>
       <r>   -1.9711    1.0000 </r>
       <r>   -1.9710    1.0000 </r>
       <r>   -1.9672    1.0000 </r>
       <r>   -0.8043    1.0000 </r>
       <r>   -0.8043    1.0000 </r>
       <r>   -0.8040    1.0000 </r>
       <r>   -0.8039    1.0000 </r>
       <r>   -0.8035    1.0000 </r>
       <r>   -0.8035    1.0000 </r>
       <r>   -0.8004    1.0000 </r>
       <r>   -0.8004    1.0000 </r>
       <r>   -0.6385    1.0000 </r>
       <r>   -0.6364    1.0000 </r>
       <r>   -0.6350    1.0000 </r>
       <r>   -0.6341    1.0000 </r>
       <r>   -0.6338    1.0000 </r>
       <r>   -0.6329    1.0000 </r>
       <r>   -0.6315    1.0000 </r>
       <r>   -0.6293    1.0000 </r>
       <r>    0.0218    1.0000 </r>
       <r>    0.0247    1.0000 </r>
       <r>    1.4714    1.0000 </r>
       <r>    1.4714    1.0000 </r>
       <r>    1.4743    1.0000 </r>
       <r>    1.4743    1.0000 </r>
       <r>    1.4744    1.0000 </r>
       <r>    1.4744    1.0000 </r>
       <r>    1.4759    1.0000 </r>
       <r>    1.4759    1.0000 </r>
       <r>    1.4917    1.0000 </r>
       <r>    1.4917    1.0000 </r>
       <r>    1.4925    1.0000 </r>
       <r>    1.4925    1.0000 </r>
       <r>    1.4936    1.0000 </r>
       <r>    1.4936    1.0000 </r>
       <r>    1.4964    1.0000 </r>
       <r>    1.4964    1.0000 </r>
       <r>    2.3168    1.0000 </r>
       <r>    2.3171    1.0000 </r>
       <r>    2.3171    1.0000 </r>
       <r>    2.3180    1.0000 </r>
       <r>    2.3181    1.0000 </r>
       <r>    2.3190    1.0000 </r>
       <r>    2.3190    1.0000 </r>
       <r>    2.3193    1.0000 </r>
       <r>    3.0224    1.0000 </r>
       <r>    3.0225    1.0000 </r>
       <r>    3.0240    1.0000 </r>
       <r>    3.0240    1.0000 </r>
       <r>    3.0255    1.0000 </r>
       <r>    3.0255    1.0000 </r>
       <r>    3.0271    1.0000 </r>
       <r>    3.0271    1.0000 </r>
       <r>    3.1450    1.0000 </r>
       <r>    3.1474    1.0000 </r>
       <r>    3.1488    1.0000 </r>
       <r>    3.1507    1.0000 </r>
       <r>    3.1578    1.0000 </r>
       <r>    3.1579    1.0000 </r>
       <r>    3.1579    1.0000 </r>
       <r>    3.1581    1.0000 </r>
       <r>    3.1595    1.0000 </r>
       <r>    3.1595    1.0000 </r>
       <r>    3.1617    1.0000 </r>
       <r>    3.1618    1.0000 </r>
       <r>    3.2836    1.0000 </r>
       <r>    3.2843    1.0000 </r>
       <r>    3.2844    1.0000 </r>
       <r>    3.2856    1.0000 </r>
       <r>    3.2859    1.0000 </r>
       <r>    3.2871    1.0000 </r>
       <r>    3.2873    1.0000 </r>
       <r>    3.2880    1.0000 </r>
       <r>    4.3308    1.0000 </r>
       <r>    4.3309    1.0000 </r>
       <r>    4.3315    1.0000 </r>
       <r>    4.3315    1.0000 </r>
       <r>    4.3315    1.0000 </r>
       <r>    4.3315    1.0000 </r>
       <r>    4.3334    1.0000 </r>
       <r>    4.3334    1.0000 </r>
       <r>    4.4329    1.0000 </r>
       <r>    4.4330    1.0000 </r>
       <r>    4.4924    1.0000 </r>
       <r>    4.4996    1.0000 </r>
       <r>    4.5007    1.0000 </r>
       <r>    4.5008    1.0000 </r>
       <r>    4.5009    1.0000 </r>
       <r>    4.5011    1.0000 </r>
       <r>    4.5022    1.0000 </r>
       <r>    4.5093    1.0000 </r>
       <r>    4.9504    1.0000 </r>
       <r>    4.9542    1.0000 </r>
       <r>    4.9562    1.0000 </r>
       <r>    4.9601    1.0000 </r>
       <r>    6.2783    0.0000 </r>
       <r>    6.2811    0.0000 </r>
       <r>    7.1927    0.0000 </r>
       <r>    7.1952    0.0000 </r>
       <r>    7.6416    0.0000 </r>
       <r>    7.6444    0.0000 </r>
       <r>    7.6447    0.0000 </r>
       <r>    7.6458    0.0000 </r>
       <r>    7.6460    0.0000 </r>
       <r>    7.6470    0.0000 </r>
       <r>    7.6473    0.0000 </r>
       <r>    7.6501    0.0000 </r>
       <r>    7.7135    0.0000 </r>
       <r>    7.7147    0.0000 </r>
       <r>    8.0547    0.0000 </r>
       <r>    8.0585    0.0000 </r>
       <r>    8.0594    0.0000 </r>
       <r>    8.0597    0.0000 </r>
       <r>    8.0598    0.0000 </r>
       <r>    8.0600    0.0000 </r>
       <r>    8.0610    0.0000 </r>
       <r>    8.0646    0.0000 </r>
       <r>    8.1436    0.0000 </r>
       <r>    8.1436    0.0000 </r>
       <r>    8.1452    0.0000 </r>
       <r>    8.1452    0.0000 </r>
       <r>    8.1461    0.0000 </r>
       <r>    8.1462    0.0000 </r>
       <r>    8.1476    0.0000 </r>
       <r>    8.1477    0.0000 </r>
       <r>    8.5513    0.0000 </r>
       <r>    8.5513    0.0000 </r>
       <r>    8.5516    0.0000 </r>
       <r>    8.5516    0.0000 </r>
       <r>    8.5530    0.0000 </r>
       <r>    8.5530    0.0000 </r>
       <r>    8.5552    0.0000 </r>
       <r>    8.5552    0.0000 </r>
       <r>    9.3201    0.0000 </r>
       <r>    9.3236    0.0000 </r>
      </set>
      <set comment="kpoint 3">
       <r>   -5.9320    1.0000 </r>
       <r>   -5.9320    1.0000 </r>
       <r>   -4.8766    1.0000 </r>
       <r>   -4.8744    1.0000 </r>
       <r>   -4.8736    1.0000 </r>
       <r>   -4.8733    1.0000 </r>
       <r>   -4.8726    1.0000 </r>
       <r>   -4.8725    1.0000 </r>
       <r>   -4.8711    1.0000 </r>
       <r>   -4.8679    1.0000 </r>
       <r>   -4.0267    1.0000 </r>
       <r>   -4.0250    1.0000 </r>
       <r>   -4.0238    1.0000 </r>
       <r>   -4.0230    1.0000 </r>
       <r>   -4.0224    1.0000 </r>
       <r>   -4.0216    1.0000 </r>
       <r>   -4.0204    1.0000 </r>
       <r>   -4.0188    1.0000 </r>
       <r>   -3.8057    1.0000 </r>
       <r>   -3.8057    1.0000 </r>
       <r>   -3.0798    1.0000 </r>
       <r>   -3.0781    1.0000 </r>
       <r>   -3.0772    1.0000 </r>
       <r>   -3.0767    1.0000 </r>
       <r>   -3.0766    1.0000 </r>
       <r>   -3.0751    1.0000 </r>
       <r>   -3.0741    1.0000 </r>
       <r>   -3.0735    1.0000 </r>
       <r>   -1.9750    1.0000 </r>
       <r>   -1.9736    1.0000 </r>
       <r>   -1.9715    1.0000 </r>
       <r>   -1.9715    1.0000 </r>
       <r>   -1.9714    1.0000 </r>
       <r>   -1.9714    1.0000 </r>
       <r>   -1.9693    1.0000 </r>
       <r>   -1.9679    1.0000 </r>
       <r>   -0.8063    1.0000 </r>
       <r>   -0.8052    1.0000 </r>
       <r>   -0.8045    1.0000 </r>
       <r>   -0.8036    1.0000 </r>
       <r>   -0.8031    1.0000 </r>
       <r>   -0.8023    1.0000 </r>
       <r>   -0.8003    1.0000 </r>
       <r>   -0.7988    1.0000 </r>
       <r>   -0.6376    1.0000 </r>
       <r>   -0.6359    1.0000 </r>
       <r>   -0.6345    1.0000 </r>
       <r>   -0.6343    1.0000 </r>
       <r>   -0.6337    1.0000 </r>
       <r>   -0.6334    1.0000 </r>
       <r>   -0.6320    1.0000 </r>
       <r>   -0.6302    1.0000 </r>
       <r>    0.0232    1.0000 </r>
       <r>    0.0232    1.0000 </r>
       <r>    1.4710    1.0000 </r>
       <r>    1.4715    1.0000 </r>
       <r>    1.4736    1.0000 </r>
       <r>    1.4744    1.0000 </r>
       <r>    1.4747    1.0000 </r>
       <r>    1.4753    1.0000 </r>
       <r>    1.4761    1.0000 </r>
       <r>    1.4766    1.0000 </r>
       <r>    1.4921    1.0000 </r>
       <r>    1.4921    1.0000 </r>
       <r>    1.4927    1.0000 </r>
       <r>    1.4928    1.0000 </r>
       <r>    1.4935    1.0000 </r>
       <r>    1.4940    1.0000 </r>
       <r>    1.4941    1.0000 </r>
       <r>    1.4962    1.0000 </r>
       <r>    2.3165    1.0000 </r>
       <r>    2.3168    1.0000 </r>
       <r>    2.3176    1.0000 </r>
       <r>    2.3178    1.0000 </r>
       <r>    2.3183    1.0000 </r>
       <r>    2.3185    1.0000 </r>
       <r>    2.3192    1.0000 </r>
       <r>    2.3196    1.0000 </r>
       <r>    3.0234    1.0000 </r>
       <r>    3.0236    1.0000 </r>
       <r>    3.0241    1.0000 </r>
       <r>    3.0247    1.0000 </r>
       <r>    3.0249    1.0000 </r>
       <r>    3.0254    1.0000 </r>
       <r>    3.0257    1.0000 </r>
       <r>    3.0265    1.0000 </r>
       <r>    3.1478    1.0000 </r>
       <r>    3.1480    1.0000 </r>
       <r>    3.1481    1.0000 </r>
       <r>    3.1481    1.0000 </r>
       <r>    3.1569    1.0000 </r>
       <r>    3.1574    1.0000 </r>
       <r>    3.1586    1.0000 </r>
       <r>    3.1589    1.0000 </r>
       <r>    3.1594    1.0000 </r>
       <r>    3.1600    1.0000 </r>
       <r>    3.1608    1.0000 </r>
       <r>    3.1617    1.0000 </r>
       <r>    3.2822    1.0000 </r>
       <r>    3.2842    1.0000 </r>
       <r>    3.2846    1.0000 </r>
       <r>    3.2854    1.0000 </r>
       <r>    3.2861    1.0000 </r>
       <r>    3.2869    1.0000 </r>
       <r>    3.2874    1.0000 </r>
       <r>    3.2895    1.0000 </r>
       <r>    4.3286    1.0000 </r>
       <r>    4.3299    1.0000 </r>
       <r>    4.3307    1.0000 </r>
       <r>    4.3312    1.0000 </r>
       <r>    4.3316    1.0000 </r>
       <r>    4.3317    1.0000 </r>
       <r>    4.3342    1.0000 </r>
       <r>    4.3364    1.0000 </r>
       <r>    4.4329    1.0000 </r>
       <r>    4.4330    1.0000 </r>
       <r>    4.4987    1.0000 </r>
       <r>    4.4998    1.0000 </r>
       <r>    4.5005    1.0000 </r>
       <r>    4.5008    1.0000 </r>
       <r>    4.5009    1.0000 </r>
       <r>    4.5015    1.0000 </r>
       <r>    4.5021    1.0000 </r>
       <r>    4.5033    1.0000 </r>
       <r>    4.9552    1.0000 </r>
       <r>    4.9552    1.0000 </r>
       <r>    4.9552    1.0000 </r>
       <r>    4.9553    1.0000 </r>
       <r>    6.2797    0.0000 </r>
       <r>    6.2797    0.0000 </r>
       <r>    7.1939    0.0000 </r>
       <r>    7.1939    0.0000 </r>
       <r>    7.6438    0.0000 </r>
       <r>    7.6447    0.0000 </r>
       <r>    7.6452    0.0000 </r>
       <r>    7.6456    0.0000 </r>
       <r>    7.6461    0.0000 </r>
       <r>    7.6465    0.0000 </r>
       <r>    7.6470    0.0000 </r>
       <r>    7.6479    0.0000 </r>
       <r>    7.7141    0.0000 </r>
       <r>    7.7141    0.0000 </r>
       <r>    8.0589    0.0000 </r>
       <r>    8.0591    0.0000 </r>
       <r>    8.0592    0.0000 </r>
       <r>    8.0595    0.0000 </r>
       <r>    8.0599    0.0000 </r>
       <r>    8.0603    0.0000 </r>
       <r>    8.0603    0.0000 </r>
       <r>    8.0604    0.0000 </r>
       <r>    8.1434    0.0000 </r>
       <r>    8.1437    0.0000 </r>
       <r>    8.1451    0.0000 </r>
       <r>    8.1452    0.0000 </r>
       <r>    8.1463    0.0000 </r>
       <r>    8.1470    0.0000 </r>
       <r>    8.1470    0.0000 </r>
       <r>    8.1476    0.0000 </r>
       <r>    8.5503    0.0000 </r>
       <r>    8.5513    0.0000 </r>
       <r>    8.5521    0.0000 </r>
       <r>    8.5525    0.0000 </r>
       <r>    8.5534    0.0000 </r>
       <r>    8.5537    0.0000 </r>
       <r>    8.5541    0.0000 </r>
       <r>    8.5549    0.0000 </r>
       <r>    9.3206    0.0000 </r>
       <r>    9.3239    0.0000 </r>
      </set>
      <set comment="kpoint 4">
       <r>   -5.6660    1.0000 </r>
       <r>   -5.6645    1.0000 </r>
       <r>   -5.6633    1.0000 </r>
       <r>   -5.6619    1.0000 </r>
       <r>   -4.6468    1.0000 </r>
       <r>   -4.6457    1.0000 </r>
       <r>   -4.6450    1.0000 </r>
       <r>   -4.6444    1.0000 </r>
       <r>   -4.6438    1.0000 </r>
       <r>   -4.6433    1.0000 </r>
       <r>   -4.6426    1.0000 </r>
       <r>   -4.6415    1.0000 </r>
       <r>   -3.6096    1.0000 </r>
       <r>   -3.6079    1.0000 </r>
       <r>   -3.6062    1.0000 </r>
       <r>   -3.6055    1.0000 </r>
       <r>   -3.6052    1.0000 </r>
       <r>   -3.6046    1.0000 </r>
       <r>   -3.6029    1.0000 </r>
       <r>   -3.6012    1.0000 </r>
       <r>   -3.3259    1.0000 </r>
       <r>   -3.3231    1.0000 </r>
       <r>   -3.3228    1.0000 </r>
       <r>   -3.3218    1.0000 </r>
       <r>   -3.3215    1.0000 </r>
       <r>   -3.3205    1.0000 </r>
       <r>   -3.3201    1.0000 </r>
       <r>   -3.3172    1.0000 </r>
       <r>   -2.4615    1.0000 </r>
       <r>   -2.4610    1.0000 </r>
       <r>   -2.4585    1.0000 </r>
       <r>   -2.4581    1.0000 </r>
       <r>   -1.4638    1.0000 </r>
       <r>   -1.4636    1.0000 </r>
       <r>   -1.4617    1.0000 </r>
       <r>   -1.4615    1.0000 </r>
       <r>   -1.0427    1.0000 </r>
       <r>   -1.0399    1.0000 </r>
       <r>   -1.0387    1.0000 </r>
       <r>   -1.0385    1.0000 </r>
       <r>   -1.0381    1.0000 </r>
       <r>   -1.0380    1.0000 </r>
       <r>   -1.0368    1.0000 </r>
       <r>   -1.0340    1.0000 </r>
       <r>   -0.1977    1.0000 </r>
       <r>   -0.1967    1.0000 </r>
       <r>   -0.1960    1.0000 </r>
       <r>   -0.1953    1.0000 </r>
       <r>   -0.1952    1.0000 </r>
       <r>   -0.1946    1.0000 </r>
       <r>   -0.1938    1.0000 </r>
       <r>   -0.1928    1.0000 </r>
       <r>    0.4617    1.0000 </r>
       <r>    0.4620    1.0000 </r>
       <r>    0.4642    1.0000 </r>
       <r>    0.4645    1.0000 </r>
       <r>    0.4655    1.0000 </r>
       <r>    0.4657    1.0000 </r>
       <r>    0.4680    1.0000 </r>
       <r>    0.4682    1.0000 </r>
       <r>    1.4162    1.0000 </r>
       <r>    1.4170    1.0000 </r>
       <r>    1.4171    1.0000 </r>
       <r>    1.4178    1.0000 </r>
       <r>    2.2856    1.0000 </r>
       <r>    2.2864    1.0000 </r>
       <r>    2.2871    1.0000 </r>
       <r>    2.2872    1.0000 </r>
       <r>    2.2874    1.0000 </r>
       <r>    2.2875    1.0000 </r>
       <r>    2.2882    1.0000 </r>
       <r>    2.2890    1.0000 </r>
       <r>    2.3707    1.0000 </r>
       <r>    2.3708    1.0000 </r>
       <r>    2.3715    1.0000 </r>
       <r>    2.3721    1.0000 </r>
       <r>    2.3723    1.0000 </r>
       <r>    2.3728    1.0000 </r>
       <r>    2.3737    1.0000 </r>
       <r>    2.3737    1.0000 </r>
       <r>    2.9820    1.0000 </r>
       <r>    2.9821    1.0000 </r>
       <r>    2.9830    1.0000 </r>
       <r>    2.9832    1.0000 </r>
       <r>    2.9832    1.0000 </r>
       <r>    2.9834    1.0000 </r>
       <r>    2.9843    1.0000 </r>
       <r>    2.9844    1.0000 </r>
       <r>    3.0761    1.0000 </r>
       <r>    3.0762    1.0000 </r>
       <r>    3.0773    1.0000 </r>
       <r>    3.0773    1.0000 </r>
       <r>    3.3301    1.0000 </r>
       <r>    3.3312    1.0000 </r>
       <r>    3.3316    1.0000 </r>
       <r>    3.3327    1.0000 </r>
       <r>    3.5877    1.0000 </r>
       <r>    3.5893    1.0000 </r>
       <r>    3.5905    1.0000 </r>
       <r>    3.5909    1.0000 </r>
       <r>    3.5913    1.0000 </r>
       <r>    3.5917    1.0000 </r>
       <r>    3.5929    1.0000 </r>
       <r>    3.5944    1.0000 </r>
       <r>    3.9141    1.0000 </r>
       <r>    3.9166    1.0000 </r>
       <r>    3.9175    1.0000 </r>
       <r>    3.9179    1.0000 </r>
       <r>    3.9185    1.0000 </r>
       <r>    3.9190    1.0000 </r>
       <r>    3.9199    1.0000 </r>
       <r>    3.9223    1.0000 </r>
       <r>    4.1179    1.0000 </r>
       <r>    4.1180    1.0000 </r>
       <r>    4.1188    1.0000 </r>
       <r>    4.1189    1.0000 </r>
       <r>    4.1726    1.0000 </r>
       <r>    4.1734    1.0000 </r>
       <r>    4.1738    1.0000 </r>
       <r>    4.1741    1.0000 </r>
       <r>    4.1742    1.0000 </r>
       <r>    4.1747    1.0000 </r>
       <r>    4.1748    1.0000 </r>
       <r>    4.1758    1.0000 </r>
       <r>    5.4794    1.0000 </r>
       <r>    5.4798    1.0000 </r>
       <r>    5.4807    1.0000 </r>
       <r>    5.4811    1.0000 </r>
       <r>    6.8649    0.0000 </r>
       <r>    6.8657    0.0000 </r>
       <r>    6.8659    0.0000 </r>
       <r>    6.8667    0.0000 </r>
       <r>    7.6298    0.0000 </r>
       <r>    7.6305    0.0000 </r>
       <r>    7.6314    0.0000 </r>
       <r>    7.6315    0.0000 </r>
       <r>    7.6317    0.0000 </r>
       <r>    7.6318    0.0000 </r>
       <r>    7.6326    0.0000 </r>
       <r>    7.6334    0.0000 </r>
       <r>    7.9394    0.0000 </r>
       <r>    7.9397    0.0000 </r>
       <r>    7.9398    0.0000 </r>
       <r>    7.9399    0.0000 </r>
       <r>    7.9400    0.0000 </r>
       <r>    7.9402    0.0000 </r>
       <r>    7.9403    0.0000 </r>
       <r>    7.9406    0.0000 </r>
       <r>    8.3135    0.0000 </r>
       <r>    8.3143    0.0000 </r>
       <r>    8.3148    0.0000 </r>
       <r>    8.3150    0.0000 </r>
       <r>    8.3154    0.0000 </r>
       <r>    8.3156    0.0000 </r>
       <r>    8.3161    0.0000 </r>
       <r>    8.3168    0.0000 </r>
       <r>    8.7647    0.0000 </r>
       <r>    8.7663    0.0000 </r>
       <r>    8.7680    0.0000 </r>
       <r>    8.7702    0.0000 </r>
       <r>    8.7711    0.0000 </r>
       <r>    8.7736    0.0000 </r>
       <r>    8.7750    0.0000 </r>
       <r>    8.7768    0.0000 </r>
       <r>    8.7856    0.0000 </r>
       <r>    8.7890    0.0000 </r>
       <r>    8.8057    0.0000 </r>
       <r>    8.8117    0.0000 </r>
      </set>
      <set comment="kpoint 5">
       <r>   -5.6644    1.0000 </r>
       <r>   -5.6640    1.0000 </r>
       <r>   -5.6640    1.0000 </r>
       <r>   -5.6633    1.0000 </r>
       <r>   -4.6490    1.0000 </r>
       <r>   -4.6464    1.0000 </r>
       <r>   -4.6452    1.0000 </r>
       <r>   -4.6443    1.0000 </r>
       <r>   -4.6442    1.0000 </r>
       <r>   -4.6435    1.0000 </r>
       <r>   -4.6422    1.0000 </r>
       <r>   -4.6382    1.0000 </r>
       <r>   -3.6075    1.0000 </r>
       <r>   -3.6069    1.0000 </r>
       <r>   -3.6062    1.0000 </r>
       <r>   -3.6057    1.0000 </r>
       <r>   -3.6054    1.0000 </r>
       <r>   -3.6043    1.0000 </r>
       <r>   -3.6038    1.0000 </r>
       <r>   -3.6032    1.0000 </r>
       <r>   -3.3248    1.0000 </r>
       <r>   -3.3235    1.0000 </r>
       <r>   -3.3226    1.0000 </r>
       <r>   -3.3220    1.0000 </r>
       <r>   -3.3216    1.0000 </r>
       <r>   -3.3203    1.0000 </r>
       <r>   -3.3194    1.0000 </r>
       <r>   -3.3188    1.0000 </r>
       <r>   -2.4613    1.0000 </r>
       <r>   -2.4613    1.0000 </r>
       <r>   -2.4606    1.0000 </r>
       <r>   -2.4559    1.0000 </r>
       <r>   -1.4658    1.0000 </r>
       <r>   -1.4635    1.0000 </r>
       <r>   -1.4607    1.0000 </r>
       <r>   -1.4607    1.0000 </r>
       <r>   -1.0408    1.0000 </r>
       <r>   -1.0406    1.0000 </r>
       <r>   -1.0401    1.0000 </r>
       <r>   -1.0391    1.0000 </r>
       <r>   -1.0388    1.0000 </r>
       <r>   -1.0381    1.0000 </r>
       <r>   -1.0363    1.0000 </r>
       <r>   -1.0331    1.0000 </r>
       <r>   -0.1983    1.0000 </r>
       <r>   -0.1968    1.0000 </r>
       <r>   -0.1968    1.0000 </r>
       <r>   -0.1964    1.0000 </r>
       <r>   -0.1955    1.0000 </r>
       <r>   -0.1955    1.0000 </r>
       <r>   -0.1915    1.0000 </r>
       <r>   -0.1912    1.0000 </r>
       <r>    0.4618    1.0000 </r>
       <r>    0.4624    1.0000 </r>
       <r>    0.4642    1.0000 </r>
       <r>    0.4647    1.0000 </r>
       <r>    0.4656    1.0000 </r>
       <r>    0.4657    1.0000 </r>
       <r>    0.4673    1.0000 </r>
       <r>    0.4681    1.0000 </r>
       <r>    1.4153    1.0000 </r>
       <r>    1.4171    1.0000 </r>
       <r>    1.4178    1.0000 </r>
       <r>    1.4178    1.0000 </r>
       <r>    2.2834    1.0000 </r>
       <r>    2.2844    1.0000 </r>
       <r>    2.2866    1.0000 </r>
       <r>    2.2872    1.0000 </r>
       <r>    2.2874    1.0000 </r>
       <r>    2.2880    1.0000 </r>
       <r>    2.2905    1.0000 </r>
       <r>    2.2908    1.0000 </r>
       <r>    2.3708    1.0000 </r>
       <r>    2.3715    1.0000 </r>
       <r>    2.3716    1.0000 </r>
       <r>    2.3717    1.0000 </r>
       <r>    2.3717    1.0000 </r>
       <r>    2.3730    1.0000 </r>
       <r>    2.3731    1.0000 </r>
       <r>    2.3741    1.0000 </r>
       <r>    2.9801    1.0000 </r>
       <r>    2.9803    1.0000 </r>
       <r>    2.9826    1.0000 </r>
       <r>    2.9830    1.0000 </r>
       <r>    2.9833    1.0000 </r>
       <r>    2.9840    1.0000 </r>
       <r>    2.9860    1.0000 </r>
       <r>    2.9863    1.0000 </r>
       <r>    3.0735    1.0000 </r>
       <r>    3.0756    1.0000 </r>
       <r>    3.0790    1.0000 </r>
       <r>    3.0790    1.0000 </r>
       <r>    3.3302    1.0000 </r>
       <r>    3.3302    1.0000 </r>
       <r>    3.3310    1.0000 </r>
       <r>    3.3342    1.0000 </r>
       <r>    3.5898    1.0000 </r>
       <r>    3.5898    1.0000 </r>
       <r>    3.5906    1.0000 </r>
       <r>    3.5906    1.0000 </r>
       <r>    3.5907    1.0000 </r>
       <r>    3.5914    1.0000 </r>
       <r>    3.5925    1.0000 </r>
       <r>    3.5935    1.0000 </r>
       <r>    3.9158    1.0000 </r>
       <r>    3.9164    1.0000 </r>
       <r>    3.9179    1.0000 </r>
       <r>    3.9187    1.0000 </r>
       <r>    3.9187    1.0000 </r>
       <r>    3.9187    1.0000 </r>
       <r>    3.9197    1.0000 </r>
       <r>    3.9198    1.0000 </r>
       <r>    4.1181    1.0000 </r>
       <r>    4.1181    1.0000 </r>
       <r>    4.1184    1.0000 </r>
       <r>    4.1193    1.0000 </r>
       <r>    4.1700    1.0000 </r>
       <r>    4.1700    1.0000 </r>
       <r>    4.1726    1.0000 </r>
       <r>    4.1734    1.0000 </r>
       <r>    4.1739    1.0000 </r>
       <r>    4.1751    1.0000 </r>
       <r>    4.1751    1.0000 </r>
       <r>    4.1826    1.0000 </r>
       <r>    5.4776    1.0000 </r>
       <r>    5.4776    1.0000 </r>
       <r>    5.4797    1.0000 </r>
       <r>    5.4861    1.0000 </r>
       <r>    6.8643    0.0000 </r>
       <r>    6.8643    0.0000 </r>
       <r>    6.8656    0.0000 </r>
       <r>    6.8690    0.0000 </r>
       <r>    7.6293    0.0000 </r>
       <r>    7.6303    0.0000 </r>
       <r>    7.6307    0.0000 </r>
       <r>    7.6309    0.0000 </r>
       <r>    7.6315    0.0000 </r>
       <r>    7.6323    0.0000 </r>
       <r>    7.6326    0.0000 </r>
       <r>    7.6352    0.0000 </r>
       <r>    7.9371    0.0000 </r>
       <r>    7.9371    0.0000 </r>
       <r>    7.9386    0.0000 </r>
       <r>    7.9397    0.0000 </r>
       <r>    7.9398    0.0000 </r>
       <r>    7.9406    0.0000 </r>
       <r>    7.9407    0.0000 </r>
       <r>    7.9464    0.0000 </r>
       <r>    8.3114    0.0000 </r>
       <r>    8.3135    0.0000 </r>
       <r>    8.3138    0.0000 </r>
       <r>    8.3146    0.0000 </r>
       <r>    8.3152    0.0000 </r>
       <r>    8.3172    0.0000 </r>
       <r>    8.3174    0.0000 </r>
       <r>    8.3183    0.0000 </r>
       <r>    8.7638    0.0000 </r>
       <r>    8.7673    0.0000 </r>
       <r>    8.7680    0.0000 </r>
       <r>    8.7694    0.0000 </r>
       <r>    8.7712    0.0000 </r>
       <r>    8.7722    0.0000 </r>
       <r>    8.7795    0.0000 </r>
       <r>    8.7848    0.0000 </r>
       <r>    8.7874    0.0000 </r>
       <r>    8.7994    0.0000 </r>
       <r>    8.8074    0.0000 </r>
       <r>    8.8231    0.0000 </r>
      </set>
      <set comment="kpoint 6">
       <r>   -5.4068    1.0000 </r>
       <r>   -5.4052    1.0000 </r>
       <r>   -5.4048    1.0000 </r>
       <r>   -5.4040    1.0000 </r>
       <r>   -5.4036    1.0000 </r>
       <r>   -5.4032    1.0000 </r>
       <r>   -5.4025    1.0000 </r>
       <r>   -5.3999    1.0000 </r>
       <r>   -3.4865    1.0000 </r>
       <r>   -3.4838    1.0000 </r>
       <r>   -3.4814    1.0000 </r>
       <r>   -3.4806    1.0000 </r>
       <r>   -3.4787    1.0000 </r>
       <r>   -3.4785    1.0000 </r>
       <r>   -3.4784    1.0000 </r>
       <r>   -3.4783    1.0000 </r>
       <r>   -3.4782    1.0000 </r>
       <r>   -3.4780    1.0000 </r>
       <r>   -3.4779    1.0000 </r>
       <r>   -3.4779    1.0000 </r>
       <r>   -3.4778    1.0000 </r>
       <r>   -3.4778    1.0000 </r>
       <r>   -3.4777    1.0000 </r>
       <r>   -3.4777    1.0000 </r>
       <r>   -3.4777    1.0000 </r>
       <r>   -3.4774    1.0000 </r>
       <r>   -3.4774    1.0000 </r>
       <r>   -3.4773    1.0000 </r>
       <r>   -3.4769    1.0000 </r>
       <r>   -3.4734    1.0000 </r>
       <r>   -3.4708    1.0000 </r>
       <r>   -3.4664    1.0000 </r>
       <r>   -0.6325    1.0000 </r>
       <r>   -0.6294    1.0000 </r>
       <r>   -0.6287    1.0000 </r>
       <r>   -0.6287    1.0000 </r>
       <r>   -0.6258    1.0000 </r>
       <r>   -0.6252    1.0000 </r>
       <r>   -0.6252    1.0000 </r>
       <r>   -0.6252    1.0000 </r>
       <r>   -0.6250    1.0000 </r>
       <r>   -0.6250    1.0000 </r>
       <r>   -0.6249    1.0000 </r>
       <r>   -0.6248    1.0000 </r>
       <r>   -0.6248    1.0000 </r>
       <r>   -0.6246    1.0000 </r>
       <r>   -0.6245    1.0000 </r>
       <r>   -0.6244    1.0000 </r>
       <r>   -0.6241    1.0000 </r>
       <r>   -0.6241    1.0000 </r>
       <r>   -0.6240    1.0000 </r>
       <r>   -0.6239    1.0000 </r>
       <r>   -0.6238    1.0000 </r>
       <r>   -0.6208    1.0000 </r>
       <r>   -0.6176    1.0000 </r>
       <r>   -0.6132    1.0000 </r>
       <r>    1.8188    1.0000 </r>
       <r>    1.8202    1.0000 </r>
       <r>    1.8219    1.0000 </r>
       <r>    1.8222    1.0000 </r>
       <r>    1.8233    1.0000 </r>
       <r>    1.8238    1.0000 </r>
       <r>    1.8254    1.0000 </r>
       <r>    1.8257    1.0000 </r>
       <r>    2.1933    1.0000 </r>
       <r>    2.1937    1.0000 </r>
       <r>    2.1950    1.0000 </r>
       <r>    2.1962    1.0000 </r>
       <r>    2.1966    1.0000 </r>
       <r>    2.1975    1.0000 </r>
       <r>    2.1977    1.0000 </r>
       <r>    2.1978    1.0000 </r>
       <r>    2.1979    1.0000 </r>
       <r>    2.1980    1.0000 </r>
       <r>    2.1980    1.0000 </r>
       <r>    2.1980    1.0000 </r>
       <r>    2.1981    1.0000 </r>
       <r>    2.1982    1.0000 </r>
       <r>    2.1983    1.0000 </r>
       <r>    2.1984    1.0000 </r>
       <r>    2.1987    1.0000 </r>
       <r>    2.1994    1.0000 </r>
       <r>    2.1995    1.0000 </r>
       <r>    2.1995    1.0000 </r>
       <r>    2.1997    1.0000 </r>
       <r>    2.2008    1.0000 </r>
       <r>    2.2052    1.0000 </r>
       <r>    2.2057    1.0000 </r>
       <r>    3.5464    1.0000 </r>
       <r>    3.5485    1.0000 </r>
       <r>    3.5491    1.0000 </r>
       <r>    3.5511    1.0000 </r>
       <r>    3.5514    1.0000 </r>
       <r>    3.5515    1.0000 </r>
       <r>    3.5516    1.0000 </r>
       <r>    3.5517    1.0000 </r>
       <r>    3.5520    1.0000 </r>
       <r>    3.5520    1.0000 </r>
       <r>    3.5520    1.0000 </r>
       <r>    3.5523    1.0000 </r>
       <r>    3.5524    1.0000 </r>
       <r>    3.5525    1.0000 </r>
       <r>    3.5525    1.0000 </r>
       <r>    3.5526    1.0000 </r>
       <r>    3.5527    1.0000 </r>
       <r>    3.5530    1.0000 </r>
       <r>    3.5535    1.0000 </r>
       <r>    3.5535    1.0000 </r>
       <r>    3.5536    1.0000 </r>
       <r>    3.5564    1.0000 </r>
       <r>    3.5565    1.0000 </r>
       <r>    3.5605    1.0000 </r>
       <r>    5.0006    1.0000 </r>
       <r>    5.0028    1.0000 </r>
       <r>    5.0060    1.0000 </r>
       <r>    5.0065    1.0000 </r>
       <r>    5.0068    1.0000 </r>
       <r>    5.0071    1.0000 </r>
[...]
      </set>
     </set>
    </set>
   </array>
  </eigenvalues>
  <separator name="orbital magnetization" >
   <v name="MAGDIPOLOUT">      0.00000000      0.00000000      0.00000000</v>
  </separator>
  <dos>
   <i name="efermi">      5.89383729 </i>
   <total>
    <array>
     <dimension dim="1">gridpoints</dimension>
     <dimension dim="2">spin</dimension>
     <field>energy</field>
     <field>total</field>
     <field>integrated</field>
     <set>
      <set comment="spin 1">
       <r>    -6.9820     0.0000     0.0000 </r>
       <r>    -6.9250     0.0000     0.0000 </r>
       <r>    -6.8681     0.0000     0.0000 </r>
       <r>    -6.8112     0.0000     0.0000 </r>
       <r>    -6.7542     0.0000     0.0000 </r>
       <r>    -6.6973     0.0000     0.0000 </r>
       <r>    -6.6403     0.0000     0.0000 </r>
       <r>    -6.5834     0.0000     0.0000 </r>
       <r>    -6.5265     0.0000     0.0000 </r>
       <r>    -6.4695     0.0000     0.0000 </r>
       <r>    -6.4126     0.0000     0.0000 </r>
       <r>    -6.3556     0.0000     0.0000 </r>
       <r>    -6.2987     0.0000     0.0000 </r>
       <r>    -6.2418     0.0228     0.0013 </r>
       <r>    -6.1848     4.0534     0.2321 </r>
       <r>    -6.1279     0.3143     0.2500 </r>
       <r>    -6.0709     0.0000     0.2500 </r>
       <r>    -6.0140     0.0000     0.2500 </r>
       <r>    -5.9570     1.0184     0.3080 </r>
       <r>    -5.9001    25.0055     1.7318 </r>
       <r>    -5.8432     0.3190     1.7500 </r>
       <r>    -5.7862     0.0000     1.7500 </r>
       <r>    -5.7293     0.0001     1.7500 </r>
       <r>    -5.6723    14.5704     2.5797 </r>
       <r>    -5.6154    38.0988     4.7491 </r>
       <r>    -5.5585     0.0167     4.7500 </r>
       <r>    -5.5015     0.0000     4.7500 </r>
       <r>    -5.4446     0.0738     4.7542 </r>
       <r>    -5.3876    30.4983     6.4908 </r>
       <r>    -5.3307     4.5519     6.7500 </r>
       <r>    -5.2738     0.0000     6.7500 </r>
       <r>    -5.2168     0.0000     6.7500 </r>
       <r>    -5.1599     0.0889     6.7551 </r>
       <r>    -5.1029    23.6443     8.1014 </r>
       <r>    -5.0460     2.6098     8.2500 </r>
       <r>    -4.9890     0.0000     8.2500 </r>
       <r>    -4.9321     0.0017     8.2501 </r>
       <r>    -4.8752    45.6020    10.8467 </r>
       <r>    -4.8182    59.7607    14.2496 </r>
       <r>    -4.7613     0.0075    14.2500 </r>
       <r>    -4.7043     0.0013    14.2501 </r>
       <r>    -4.6474    43.1900    16.7094 </r>
       <r>    -4.5905    62.1712    20.2495 </r>
       <r>    -4.5335     0.0093    20.2500 </r>
       <r>    -4.4766     0.0000    20.2500 </r>
       <r>    -4.4196     0.0000    20.2500 </r>
       <r>    -4.3627     0.0000    20.2500 </r>
       <r>    -4.3058     0.0000    20.2500 </r>
       <r>    -4.2488     0.0000    20.2500 </r>
       <r>    -4.1919     0.2752    20.2657 </r>
       <r>    -4.1349    48.1330    23.0064 </r>
       <r>    -4.0780     4.2838    23.2503 </r>
       <r>    -4.0210    57.5408    26.5268 </r>
       <r>    -3.9641    47.8227    29.2499 </r>
       <r>    -3.9072     0.0119    29.2505 </r>
       <r>    -3.8502    13.4876    30.0186 </r>
       <r>    -3.7933    25.3533    31.4622 </r>
       <r>    -3.7363     5.0544    31.7500 </r>
       <r>    -3.6794     0.0000    31.7500 </r>
       <r>    -3.6225    12.2491    32.4475 </r>
       <r>    -3.5655    92.8414    37.7340 </r>
       <r>    -3.5086     2.1117    37.8542 </r>
       <r>    -3.4516    99.6033    43.5257 </r>
       <r>    -3.3947     3.9383    43.7500 </r>
       <r>    -3.3378    13.6847    44.5292 </r>
       <r>    -3.2808    91.4569    49.7369 </r>
       <r>    -3.2239     0.2303    49.7500 </r>
       <r>    -3.1669     0.0000    49.7500 </r>
       <r>    -3.1100     0.9980    49.8068 </r>
       <r>    -3.0530    98.9336    55.4402 </r>
       <r>    -2.9961     5.4403    55.7500 </r>
       <r>    -2.9392     0.0000    55.7500 </r>
       <r>    -2.8822     0.0000    55.7500 </r>
       <r>    -2.8253     0.0000    55.7500 </r>
       <r>    -2.7683     0.0000    55.7500 </r>
       <r>    -2.7114     0.0000    55.7500 </r>
       <r>    -2.6545     0.0000    55.7500 </r>
       <r>    -2.5975     0.0000    55.7500 </r>
       <r>    -2.5406     0.0000    55.7500 </r>
       <r>    -2.4836     2.4719    55.8908 </r>
       <r>    -2.4267    49.6762    58.7194 </r>
       <r>    -2.3698     0.5378    58.7500 </r>
       <r>    -2.3128     0.0000    58.7500 </r>
       <r>    -2.2559     0.0000    58.7500 </r>
       <r>    -2.1989     0.0000    58.7500 </r>
       <r>    -2.1420     0.0000    58.7500 </r>
       <r>    -2.0850     0.2649    58.7651 </r>
       <r>    -2.0281    24.8479    60.1800 </r>
       <r>    -1.9712    54.8084    63.3008 </r>
       <r>    -1.9142    52.5353    66.2922 </r>
       <r>    -1.8573    49.9006    69.1336 </r>
       <r>    -1.8003     2.0436    69.2500 </r>
       <r>    -1.7434     0.0000    69.2500 </r>
       <r>    -1.6865     0.0000    69.2500 </r>
       <r>    -1.6295     0.0000    69.2500 </r>
       <r>    -1.5726     0.0000    69.2500 </r>
       <r>    -1.5156     0.0052    69.2503 </r>
       <r>    -1.4587    32.1435    71.0806 </r>
       <r>    -1.4018    20.5367    72.2500 </r>
       <r>    -1.3448     0.0005    72.2500 </r>
       <r>    -1.2879     0.0017    72.2501 </r>
       <r>    -1.2309    10.6068    72.8541 </r>
       <r>    -1.1740     6.9533    73.2500 </r>
       <r>    -1.1170     0.0002    73.2500 </r>
       <r>    -1.0601     6.7853    73.6364 </r>
       <r>    -1.0032    97.8398    79.2075 </r>
       <r>    -0.9462     0.7467    79.2500 </r>
       <r>    -0.8893     0.0000    79.2500 </r>
       <r>    -0.8323     2.1188    79.3706 </r>
       <r>    -0.7754   100.4343    85.0895 </r>
       <r>    -0.7185     2.8187    85.2500 </r>
       <r>    -0.6615     3.4517    85.4465 </r>
       <r>    -0.6046   196.1583    96.6160 </r>
       <r>    -0.5476    11.1337    97.2500 </r>
       <r>    -0.4907     0.0000    97.2500 </r>
       <r>    -0.4338     0.0000    97.2500 </r>
       <r>    -0.3768     0.0000    97.2500 </r>
       <r>    -0.3199     0.0000    97.2500 </r>
       <r>    -0.2629     0.0001    97.2500 </r>
       <r>    -0.2060    23.7894    98.6046 </r>
       <r>    -0.1490    81.5190   103.2464 </r>
       <r>    -0.0921     0.0633   103.2500 </r>
       <r>    -0.0352     0.0005   103.2500 </r>
       <r>     0.0218    12.0887   103.9384 </r>
       <r>     0.0787    14.2526   104.7499 </r>
       <r>     0.1357     0.0012   104.7500 </r>
       <r>     0.1926     0.0000   104.7500 </r>
       <r>     0.2495     0.6232   104.7855 </r>
       <r>     0.3065    49.7770   107.6198 </r>
       <r>     0.3634     2.2858   107.7500 </r>
       <r>     0.4204     0.0960   107.7555 </r>
       <r>     0.4773    84.7747   112.5826 </r>
       <r>     0.5342    20.5011   113.7500 </r>
       <r>     0.5912     0.0001   113.7500 </r>
       <r>     0.6481     0.0000   113.7500 </r>
       <r>     0.7051     0.0000   113.7500 </r>
       <r>     0.7620     0.0000   113.7500 </r>
       <r>     0.8190     0.0000   113.7500 </r>
       <r>     0.8759     0.0000   113.7500 </r>
       <r>     0.9328     0.0000   113.7500 </r>
       <r>     0.9898     0.0000   113.7500 </r>
       <r>     1.0467     0.0000   113.7500 </r>
       <r>     1.1037     0.0000   113.7500 </r>
       <r>     1.1606     0.0000   113.7500 </r>
       <r>     1.2175     0.0000   113.7500 </r>
       <r>     1.2745     0.0000   113.7500 </r>
       <r>     1.3314     0.0000   113.7500 </r>
       <r>     1.3884     1.1355   113.8147 </r>
       <r>     1.4453    52.6714   116.8138 </r>
       <r>     1.5022   178.7580   126.9925 </r>
       <r>     1.5592    30.8646   128.7500 </r>
       <r>     1.6161     0.0002   128.7500 </r>
       <r>     1.6731     0.0000   128.7500 </r>
       <r>     1.7300     0.0000   128.7500 </r>
       <r>     1.7870     0.2222   128.7626 </r>
       <r>     1.8439    33.9275   130.6945 </r>
       <r>     1.9008    52.6879   133.6946 </r>
       <r>     1.9578     8.2200   134.1627 </r>
       <r>     2.0147    45.3423   136.7445 </r>
       <r>     2.0717     0.0960   136.7500 </r>
       <r>     2.1286     0.0001   136.7500 </r>
       <r>     2.1855    19.6407   137.8684 </r>
       <r>     2.2425    92.6824   143.1458 </r>
       <r>     2.2994   113.9586   149.6348 </r>
       <r>     2.3564   129.7499   157.0229 </r>
       <r>     2.4133    91.6013   162.2388 </r>
       <r>     2.4702     0.1974   162.2500 </r>
       <r>     2.5272     0.0000   162.2500 </r>
       <r>     2.5841     0.0000   162.2500 </r>
       <r>     2.6411     0.0000   162.2500 </r>
       <r>     2.6980     0.0000   162.2500 </r>
       <r>     2.7550     0.0000   162.2500 </r>
       <r>     2.8119     0.0000   162.2500 </r>
       <r>     2.8688     0.2670   162.2652 </r>
       <r>     2.9258    24.9010   163.6831 </r>
       <r>     2.9827    52.6139   166.6790 </r>
       <r>     3.0397   143.9883   174.8779 </r>
       <r>     3.0966    63.7357   178.5070 </r>
       <r>     3.1535    74.9149   182.7728 </r>
       <r>     3.2105    87.3927   187.7490 </r>
       <r>     3.2674    10.4776   188.3456 </r>
       <r>     3.3244   110.8883   194.6598 </r>
       <r>     3.3813    36.6973   196.7493 </r>
       <r>     3.4382     0.0116   196.7500 </r>
       <r>     3.4952     0.0035   196.7502 </r>
       <r>     3.5521    52.0579   199.7144 </r>
       <r>     3.6091   147.7629   208.1282 </r>
       <r>     3.6660    10.9194   208.7500 </r>
       <r>     3.7230     0.0000   208.7500 </r>
       <r>     3.7799     0.0000   208.7500 </r>
       <r>     3.8368     0.9832   208.8060 </r>
       <r>     3.8938    54.7430   211.9231 </r>
       <r>     3.9507   101.1237   217.6812 </r>
       <r>     4.0077     1.2079   217.7500 </r>
       <r>     4.0646     0.0037   217.7502 </r>
       <r>     4.1215    30.9361   219.5118 </r>
       <r>     4.1785    86.9968   224.4655 </r>
       <r>     4.2354    40.1200   226.7499 </r>
       <r>     4.2924     0.3015   226.7671 </r>
       <r>     4.3493    93.4682   232.0893 </r>
       <r>     4.4062    13.2361   232.8430 </r>
       <r>     4.4632    75.6343   237.1497 </r>
       <r>     4.5201    97.5522   242.7044 </r>
       <r>     4.5771    33.8870   244.6340 </r>
       <r>     4.6340    10.8184   245.2500 </r>
       <r>     4.6910     0.0001   245.2500 </r>
       <r>     4.7479     0.0000   245.2500 </r>
       <r>     4.8048     0.0000   245.2500 </r>
       <r>     4.8618     0.0000   245.2500 </r>
       <r>     4.9187     0.2796   245.2659 </r>
       <r>     4.9757    49.3634   248.0767 </r>
       <r>     5.0326    70.1626   252.0719 </r>
       <r>     5.0895     3.1282   252.2500 </r>
       <r>     5.1465     0.0000   252.2500 </r>
       <r>     5.2034     0.0000   252.2500 </r>
       <r>     5.2604     0.0000   252.2500 </r>
       <r>     5.3173     0.0000   252.2500 </r>
       <r>     5.3742     0.0000   252.2500 </r>
       <r>     5.4312     0.0154   252.2509 </r>
       <r>     5.4881    37.3741   254.3790 </r>
       <r>     5.5451    15.2962   255.2500 </r>
       <r>     5.6020     0.0002   255.2500 </r>
       <r>     5.6590     0.0000   255.2500 </r>
       <r>     5.7159     0.0006   255.2500 </r>
       <r>     5.7728     6.9046   255.6432 </r>
       <r>     5.8298     6.2659   256.0000 </r>
       <r>     5.8867     0.0004   256.0000 </r>
       <r>     5.9437     0.0000   256.0000 </r>
       <r>     6.0006     0.0000   256.0000 </r>
       <r>     6.0575     0.0000   256.0000 </r>
       <r>     6.1145     0.0000   256.0000 </r>
       <r>     6.1714     0.0000   256.0000 </r>
       <r>     6.2284     0.0038   256.0002 </r>
       <r>     6.2853    17.2087   256.9801 </r>
       <r>     6.3422    10.4374   257.5744 </r>
       <r>     6.3992    24.7847   258.9857 </r>
       <r>     6.4561     0.2514   259.0000 </r>
       <r>     6.5131     0.0000   259.0000 </r>
       <r>     6.5700     0.0000   259.0000 </r>
       <r>     6.6270     0.0000   259.0000 </r>
       <r>     6.6839     0.0000   259.0000 </r>
       <r>     6.7408     0.0000   259.0000 </r>
       <r>     6.7978     6.1852   259.3522 </r>
       <r>     6.8547    31.6097   261.1521 </r>
       <r>     6.9117    41.2013   263.4981 </r>
       <r>     6.9686     0.0327   263.5000 </r>
       <r>     7.0255     0.0000   263.5000 </r>
       <r>     7.0825     0.0000   263.5000 </r>
       <r>     7.1394     0.0363   263.5021 </r>
       <r>     7.1964    88.8957   268.5639 </r>
       <r>     7.2533    59.1873   271.9341 </r>
       <r>     7.3102     1.1575   272.0000 </r>
       <r>     7.3672     0.0000   272.0000 </r>
       <r>     7.4241     0.0000   272.0000 </r>
       <r>     7.4811     0.0000   272.0000 </r>
       <r>     7.5380     0.0000   272.0000 </r>
       <r>     7.5950     0.5383   272.0307 </r>
       <r>     7.6519   166.7613   281.5262 </r>
       <r>     7.7088    56.6506   284.7520 </r>
       <r>     7.7658    48.1634   287.4945 </r>
       <r>     7.8227     0.0970   287.5000 </r>
       <r>     7.8797     0.0012   287.5001 </r>
       <r>     7.9366    42.7749   289.9357 </r>
       <r>     7.9935    62.5868   293.4995 </r>
       <r>     8.0505    27.2779   295.0527 </r>
       <r>     8.1074    79.3121   299.5688 </r>
       <r>     8.1644   145.2306   307.8385 </r>
       <r>     8.2213    11.6181   308.5000 </r>
       <r>     8.2782     3.4742   308.6978 </r>
       <r>     8.3352   106.6711   314.7718 </r>
       <r>     8.3921     8.3980   315.2500 </r>
       <r>     8.4491     0.0000   315.2500 </r>
       <r>     8.5060     0.0528   315.2530 </r>
       <r>     8.5630    80.3127   319.8261 </r>
       <r>     8.6199    25.0063   321.2500 </r>
       <r>     8.6768     0.0001   321.2500 </r>
       <r>     8.7338     0.6279   321.2858 </r>
       <r>     8.7907   119.3036   328.0790 </r>
       <r>     8.8477    64.2080   331.7351 </r>
       <r>     8.9046     0.2613   331.7500 </r>
       <r>     8.9615     0.0000   331.7500 </r>
       <r>     9.0185     0.1511   331.7586 </r>
       <r>     9.0754    12.4446   332.4672 </r>
       <r>     9.1324     0.5758   332.5000 </r>
       <r>     9.1893     0.0703   332.5040 </r>
       <r>     9.2463    30.3800   334.2339 </r>
       <r>     9.3032     7.1002   334.6382 </r>
       <r>     9.3601    23.8165   335.9943 </r>
       <r>     9.4171     0.0999   336.0000 </r>
       <r>     9.4740     0.0000   336.0000 </r>
       <r>     9.5310     0.0000   336.0000 </r>
       <r>     9.5879     0.0000   336.0000 </r>
       <r>     9.6448     0.0000   336.0000 </r>
       <r>     9.7018     0.0000   336.0000 </r>
       <r>     9.7587     0.0000   336.0000 </r>
       <r>     9.8157     0.0000   336.0000 </r>
       <r>     9.8726     0.0000   336.0000 </r>
       <r>     9.9295     0.0000   336.0000 </r>
       <r>     9.9865     0.0000   336.0000 </r>
       <r>    10.0434     0.0000   336.0000 </r>
       <r>    10.1004     0.0000   336.0000 </r>
      </set>
     </set>
    </array>
   </total>
  </dos>
 </calculation>
 <structure name="finalpos" >
  <crystal>
   <varray name="basis" >
    <v>      10.86914512      -0.00000000      -0.00000000 </v>
    <v>      -0.00000000      10.86914512       0.00000000 </v>
    <v>       0.00000000       0.00000000      10.86914512 </v>
   </varray>
   <i name="volume">   1284.06249692 </i>
   <varray name="rec_basis" >
    <v>       0.09200356       0.00000000      -0.00000000 </v>
    <v>       0.00000000       0.09200356      -0.00000000 </v>
    <v>       0.00000000      -0.00000000       0.09200356 </v>
   </varray>
  </crystal>
  <varray name="positions" >
   <v>       0.24907996       0.25000000       0.25000000 </v>
   <v>       0.75000000       0.25000000       0.25000000 </v>
   <v>       0.25000000       0.75000000       0.25000000 </v>
   <v>       0.75000000       0.75000000       0.25000000 </v>
   <v>       0.25000000       0.25000000       0.75000000 </v>
   <v>       0.75000000       0.25000000       0.75000000 </v>
   <v>       0.25000000       0.75000000       0.75000000 </v>
   <v>       0.75000000       0.75000000       0.75000000 </v>
   <v>       0.24907996       0.00000000       0.00000000 </v>
   <v>       0.75000000       0.00000000       0.00000000 </v>
   <v>       0.25000000       0.50000000       0.00000000 </v>
   <v>       0.75000000       0.50000000       0.00000000 </v>
   <v>       0.25000000       0.00000000       0.50000000 </v>
   <v>       0.75000000       0.00000000       0.50000000 </v>
   <v>       0.25000000       0.50000000       0.50000000 </v>
   <v>       0.75000000       0.50000000       0.50000000 </v>
   <v>       0.00000000       0.25000000       0.00000000 </v>
   <v>       0.50000000       0.25000000       0.00000000 </v>
   <v>       0.00000000       0.75000000       0.00000000 </v>
   <v>       0.50000000       0.75000000       0.00000000 </v>
   <v>       0.00000000       0.25000000       0.50000000 </v>
   <v>       0.50000000       0.25000000       0.50000000 </v>
   <v>       0.00000000       0.75000000       0.50000000 </v>
   <v>       0.50000000       0.75000000       0.50000000 </v>
   <v>       0.00000000       0.00000000       0.25000000 </v>
   <v>       0.50000000       0.00000000       0.25000000 </v>
   <v>       0.00000000       0.50000000       0.25000000 </v>
   <v>       0.50000000       0.50000000       0.25000000 </v>
   <v>       0.00000000       0.00000000       0.75000000 </v>
   <v>       0.50000000       0.00000000       0.75000000 </v>
   <v>       0.00000000       0.50000000       0.75000000 </v>
   <v>       0.50000000       0.50000000       0.75000000 </v>
   <v>       0.37500000       0.37500000       0.37500000 </v>
   <v>       0.87500000       0.37500000       0.37500000 </v>
   <v>       0.37500000       0.87500000       0.37500000 </v>
   <v>       0.87500000       0.87500000       0.37500000 </v>
   <v>       0.37500000       0.37500000       0.87500000 </v>
   <v>       0.87500000       0.37500000       0.87500000 </v>
   <v>       0.37500000       0.87500000       0.87500000 </v>
   <v>       0.87500000       0.87500000       0.87500000 </v>
   <v>       0.37500000       0.12500000       0.12500000 </v>
   <v>       0.87500000       0.12500000       0.12500000 </v>
   <v>       0.37500000       0.62500000       0.12500000 </v>
   <v>       0.87500000       0.62500000       0.12500000 </v>
   <v>       0.37500000       0.12500000       0.62500000 </v>
   <v>       0.87500000       0.12500000       0.62500000 </v>
   <v>       0.37500000       0.62500000       0.62500000 </v>
   <v>       0.87500000       0.62500000       0.62500000 </v>
   <v>       0.12500000       0.37500000       0.12500000 </v>
   <v>       0.62500000       0.37500000       0.12500000 </v>
   <v>       0.12500000       0.87500000       0.12500000 </v>
   <v>       0.62500000       0.87500000       0.12500000 </v>
   <v>       0.12500000       0.37500000       0.62500000 </v>
   <v>       0.62500000       0.37500000       0.62500000 </v>
   <v>       0.12500000       0.87500000       0.62500000 </v>
   <v>       0.62500000       0.87500000       0.62500000 </v>
   <v>       0.12500000       0.12500000       0.37500000 </v>
   <v>       0.62500000       0.12500000       0.37500000 </v>
   <v>       0.12500000       0.62500000       0.37500000 </v>
   <v>       0.62500000       0.62500000       0.37500000 </v>
   <v>       0.12500000       0.12500000       0.87500000 </v>
   <v>       0.62500000       0.12500000       0.87500000 </v>
   <v>       0.12500000       0.62500000       0.87500000 </v>
   <v>       0.62500000       0.62500000       0.87500000 </v>
  </varray>
 </structure>
</modeling>
