 running on   32 total cores
 distrk:  each k-point on   32 cores,    1 groups
 distr:  one band on    4 cores,    8 groups
 vasp.6.3.2 27Jun22 (build Oct 14 2022 12:13:54) complex                        
  
 POSCAR found type information on POSCAR Si
 POSCAR found :  1 types and      64 ions
 scaLAPACK will be used
 -----------------------------------------------------------------------------
|                                                                             |
|               ----> ADVICE to this user running VASP <----                  |
|                                                                             |
|     You have a (more or less) 'large supercell' and for larger cells it     |
|     might be more efficient to use real-space projection operators.         |
|     Therefore, try LREAL= Auto in the INCAR file.                           |
|     Mind: For very accurate calculation, you might also keep the            |
|     reciprocal projection scheme (i.e. LREAL=.FALSE.).                      |
|                                                                             |
 -----------------------------------------------------------------------------

 -----------------------------------------------------------------------------
|                                                                             |
|               ----> ADVICE to this user running VASP <----                  |
|                                                                             |
|     You enforced a specific xc type in the INCAR file but a different       |
|     type was found in the POTCAR file.                                      |
|     I HOPE YOU KNOW WHAT YOU ARE DOING!                                     |
|                                                                             |
 -----------------------------------------------------------------------------

 LDA part: xc-table for Pade appr. of Perdew
 POSCAR, INCAR and KPOINTS ok, starting setup
 FFT: planning ... GRIDC
 FFT: planning ... GRID_SOFT
 FFT: planning ... GRID
 WAVECAR not read
 entering main loop
       N       E                     dE             d eps       ncg     rms          rms(c)
DAV:   1     0.455340749400E+03    0.45534E+03   -0.72719E+04  2016   0.852E+02
DAV:   2    -0.321180410323E+03   -0.77652E+03   -0.73332E+03  2424   0.156E+02
DAV:   3    -0.373431780268E+03   -0.52251E+02   -0.51437E+02  2472   0.369E+01
DAV:   4    -0.374600476731E+03   -0.11687E+01   -0.11607E+01  2440   0.671E+00
DAV:   5    -0.374640669336E+03   -0.40193E-01   -0.40144E-01  2368   0.110E+00    0.285E+01
DAV:   6    -0.369721630727E+03    0.49190E+01   -0.25908E+00  2288   0.242E+00    0.172E+01
DAV:   7    -0.367490368160E+03    0.22313E+01   -0.52412E+00  2256   0.349E+00    0.996E-01
DAV:   8    -0.367497416253E+03   -0.70481E-02   -0.28277E-01  2288   0.969E-01    0.351E-01
DAV:   9    -0.367498948495E+03   -0.15322E-02   -0.72866E-03  2504   0.163E-01    0.309E-01
DAV:  10    -0.367499790655E+03   -0.84216E-03   -0.20821E-03  2248   0.828E-02    0.222E-01
DAV:  11    -0.367499825632E+03   -0.34977E-04   -0.85680E-05  2336   0.186E-02    0.931E-03
DAV:  12    -0.367499827944E+03   -0.23118E-05   -0.32177E-06  2408   0.354E-03    0.840E-03
DAV:  13    -0.367499826896E+03    0.10474E-05   -0.85085E-07  2272   0.194E-03    0.196E-03
DAV:  14    -0.367499826733E+03    0.16332E-06   -0.27370E-08  1880   0.370E-04    0.475E-04
DAV:  15    -0.367499826725E+03    0.83000E-08   -0.10615E-08  1392   0.197E-04
   1 F= -.36749983E+03 E0= -.36749983E+03  d E =-.769659E-18
