  64  64   0   0
  0.2197554E+02  0.1120400E-08  0.1120400E-08  0.1120400E-08  0.5000000E-15
  1.000000000000000E-004
  CAR 
 unknown system                          
     11.04660178    -22.84592780  301     -0.56158960      1.00000000
    -22.846  0.0000E+00  0.0000E+00
    -22.733  0.0000E+00  0.0000E+00
    -22.620  0.0000E+00  0.0000E+00
    -22.507  0.0000E+00  0.0000E+00
    -22.394  0.0000E+00  0.0000E+00
    -22.281  0.0000E+00  0.0000E+00
    -22.168  0.0000E+00  0.0000E+00
    -22.055  0.0000E+00  0.0000E+00
    -21.942  0.0000E+00  0.0000E+00
    -21.829  0.0000E+00  0.0000E+00
    -21.716  0.0000E+00  0.0000E+00
    -21.603  0.0000E+00  0.0000E+00
    -21.490  0.0000E+00  0.0000E+00
    -21.377  0.4193E-05  0.4737E-06
    -21.264  0.1426E+04  0.1611E+03
    -21.151  0.2739E+03  0.1920E+03
    -21.038  0.0000E+00  0.1920E+03
    -20.925  0.0000E+00  0.1920E+03
    -20.812  0.0000E+00  0.1920E+03
    -20.699  0.0000E+00  0.1920E+03
    -20.586  0.0000E+00  0.1920E+03
    -20.473  0.0000E+00  0.1920E+03
    -20.360  0.0000E+00  0.1920E+03
    -20.248  0.0000E+00  0.1920E+03
    -20.135  0.0000E+00  0.1920E+03
    -20.022  0.0000E+00  0.1920E+03
    -19.909  0.0000E+00  0.1920E+03
    -19.796  0.0000E+00  0.1920E+03
    -19.683  0.0000E+00  0.1920E+03
    -19.570  0.0000E+00  0.1920E+03
    -19.457  0.0000E+00  0.1920E+03
    -19.344  0.0000E+00  0.1920E+03
    -19.231  0.0000E+00  0.1920E+03
    -19.118  0.0000E+00  0.1920E+03
    -19.005  0.0000E+00  0.1920E+03
    -18.892  0.0000E+00  0.1920E+03
    -18.779  0.0000E+00  0.1920E+03
    -18.666  0.0000E+00  0.1920E+03
    -18.553  0.0000E+00  0.1920E+03
    -18.440  0.0000E+00  0.1920E+03
    -18.327  0.0000E+00  0.1920E+03
    -18.214  0.0000E+00  0.1920E+03
    -18.101  0.0000E+00  0.1920E+03
    -17.988  0.0000E+00  0.1920E+03
    -17.875  0.0000E+00  0.1920E+03
    -17.762  0.0000E+00  0.1920E+03
    -17.649  0.0000E+00  0.1920E+03
    -17.536  0.0000E+00  0.1920E+03
    -17.423  0.0000E+00  0.1920E+03
    -17.310  0.0000E+00  0.1920E+03
    -17.197  0.0000E+00  0.1920E+03
    -17.084  0.0000E+00  0.1920E+03
    -16.971  0.0000E+00  0.1920E+03
    -16.858  0.0000E+00  0.1920E+03
    -16.745  0.0000E+00  0.1920E+03
    -16.632  0.0000E+00  0.1920E+03
    -16.519  0.0000E+00  0.1920E+03
    -16.406  0.0000E+00  0.1920E+03
    -16.293  0.0000E+00  0.1920E+03
    -16.180  0.0000E+00  0.1920E+03
    -16.067  0.0000E+00  0.1920E+03
    -15.954  0.0000E+00  0.1920E+03
    -15.841  0.0000E+00  0.1920E+03
    -15.728  0.0000E+00  0.1920E+03
    -15.616  0.0000E+00  0.1920E+03
    -15.503  0.0000E+00  0.1920E+03
    -15.390  0.0000E+00  0.1920E+03
    -15.277  0.0000E+00  0.1920E+03
    -15.164  0.0000E+00  0.1920E+03
    -15.051  0.0000E+00  0.1920E+03
    -14.938  0.0000E+00  0.1920E+03
    -14.825  0.0000E+00  0.1920E+03
    -14.712  0.0000E+00  0.1920E+03
    -14.599  0.0000E+00  0.1920E+03
    -14.486  0.0000E+00  0.1920E+03
    -14.373  0.0000E+00  0.1920E+03
    -14.260  0.0000E+00  0.1920E+03
    -14.147  0.0000E+00  0.1920E+03
    -14.034  0.0000E+00  0.1920E+03
    -13.921  0.0000E+00  0.1920E+03
    -13.808  0.0000E+00  0.1920E+03
    -13.695  0.0000E+00  0.1920E+03
    -13.582  0.0000E+00  0.1920E+03
    -13.469  0.4914E-14  0.1920E+03
    -13.356  0.1235E+01  0.1921E+03
    -13.243  0.2006E+02  0.1944E+03
    -13.130  0.4833E+02  0.1999E+03
    -13.017  0.1273E+03  0.2142E+03
    -12.904  0.3656E+03  0.2556E+03
    -12.791  0.3929E+01  0.2560E+03
    -12.678  0.0000E+00  0.2560E+03
    -12.565  0.0000E+00  0.2560E+03
    -12.452  0.0000E+00  0.2560E+03
    -12.339  0.0000E+00  0.2560E+03
    -12.226  0.0000E+00  0.2560E+03
    -12.113  0.0000E+00  0.2560E+03
    -12.000  0.0000E+00  0.2560E+03
    -11.887  0.0000E+00  0.2560E+03
    -11.774  0.0000E+00  0.2560E+03
    -11.661  0.0000E+00  0.2560E+03
    -11.548  0.0000E+00  0.2560E+03
    -11.435  0.0000E+00  0.2560E+03
    -11.322  0.0000E+00  0.2560E+03
    -11.209  0.0000E+00  0.2560E+03
    -11.097  0.0000E+00  0.2560E+03
    -10.984  0.0000E+00  0.2560E+03
    -10.871  0.0000E+00  0.2560E+03
    -10.758  0.0000E+00  0.2560E+03
    -10.645  0.0000E+00  0.2560E+03
    -10.532  0.0000E+00  0.2560E+03
    -10.419  0.0000E+00  0.2560E+03
    -10.306  0.0000E+00  0.2560E+03
    -10.193  0.0000E+00  0.2560E+03
    -10.080  0.0000E+00  0.2560E+03
     -9.967  0.0000E+00  0.2560E+03
     -9.854  0.0000E+00  0.2560E+03
     -9.741  0.0000E+00  0.2560E+03
     -9.628  0.0000E+00  0.2560E+03
     -9.515  0.0000E+00  0.2560E+03
     -9.402  0.0000E+00  0.2560E+03
     -9.289  0.0000E+00  0.2560E+03
     -9.176  0.0000E+00  0.2560E+03
     -9.063  0.0000E+00  0.2560E+03
     -8.950  0.0000E+00  0.2560E+03
     -8.837  0.0000E+00  0.2560E+03
     -8.724  0.0000E+00  0.2560E+03
     -8.611  0.0000E+00  0.2560E+03
     -8.498  0.0000E+00  0.2560E+03
     -8.385  0.0000E+00  0.2560E+03
     -8.272  0.0000E+00  0.2560E+03
     -8.159  0.0000E+00  0.2560E+03
     -8.046  0.0000E+00  0.2560E+03
     -7.933  0.0000E+00  0.2560E+03
     -7.820  0.0000E+00  0.2560E+03
     -7.707  0.0000E+00  0.2560E+03
     -7.594  0.0000E+00  0.2560E+03
     -7.481  0.0000E+00  0.2560E+03
     -7.368  0.0000E+00  0.2560E+03
     -7.255  0.0000E+00  0.2560E+03
     -7.142  0.0000E+00  0.2560E+03
     -7.029  0.0000E+00  0.2560E+03
     -6.916  0.0000E+00  0.2560E+03
     -6.803  0.0000E+00  0.2560E+03
     -6.690  0.0000E+00  0.2560E+03
     -6.578  0.0000E+00  0.2560E+03
     -6.465  0.0000E+00  0.2560E+03
     -6.352  0.0000E+00  0.2560E+03
     -6.239  0.0000E+00  0.2560E+03
     -6.126  0.0000E+00  0.2560E+03
     -6.013  0.0000E+00  0.2560E+03
     -5.900  0.0000E+00  0.2560E+03
     -5.787  0.0000E+00  0.2560E+03
     -5.674  0.0000E+00  0.2560E+03
     -5.561  0.0000E+00  0.2560E+03
     -5.448  0.0000E+00  0.2560E+03
     -5.335  0.0000E+00  0.2560E+03
     -5.222  0.0000E+00  0.2560E+03
     -5.109  0.0000E+00  0.2560E+03
     -4.996  0.0000E+00  0.2560E+03
     -4.883  0.0000E+00  0.2560E+03
     -4.770  0.0000E+00  0.2560E+03
     -4.657  0.0000E+00  0.2560E+03
     -4.544  0.0000E+00  0.2560E+03
     -4.431  0.0000E+00  0.2560E+03
     -4.318  0.0000E+00  0.2560E+03
     -4.205  0.0000E+00  0.2560E+03
     -4.092  0.0000E+00  0.2560E+03
     -3.979  0.0000E+00  0.2560E+03
     -3.866  0.0000E+00  0.2560E+03
     -3.753  0.0000E+00  0.2560E+03
     -3.640  0.0000E+00  0.2560E+03
     -3.527  0.0000E+00  0.2560E+03
     -3.414  0.0000E+00  0.2560E+03
     -3.301  0.0000E+00  0.2560E+03
     -3.188  0.0000E+00  0.2560E+03
     -3.075  0.0000E+00  0.2560E+03
     -2.962  0.0000E+00  0.2560E+03
     -2.849  0.0000E+00  0.2560E+03
     -2.736  0.4494E-01  0.2560E+03
     -2.623  0.8807E+01  0.2570E+03
     -2.510  0.1789E+02  0.2590E+03
     -2.397  0.8748E+02  0.2689E+03
     -2.284  0.7992E+02  0.2779E+03
     -2.171  0.1573E+03  0.2957E+03
     -2.059  0.7566E+02  0.3043E+03
     -1.946  0.5488E+02  0.3105E+03
     -1.833  0.5686E+02  0.3169E+03
     -1.720  0.7857E+02  0.3257E+03
     -1.607  0.1110E-10  0.3258E+03
     -1.494  0.5316E+02  0.3318E+03
     -1.381  0.2091E+03  0.3554E+03
     -1.268  0.2961E+02  0.3587E+03
     -1.155  0.2425E+03  0.3861E+03
     -1.042  0.1454E+03  0.4025E+03
     -0.929  0.2490E+03  0.4307E+03
     -0.816  0.7033E+02  0.4386E+03
     -0.703  0.7624E+02  0.4472E+03
     -0.590  0.6760E+01  0.4480E+03
     -0.477  0.0000E+00  0.4480E+03
     -0.364  0.0000E+00  0.4480E+03
     -0.251  0.0000E+00  0.4480E+03
     -0.138  0.0000E+00  0.4480E+03
     -0.025  0.0000E+00  0.4480E+03
      0.088  0.0000E+00  0.4480E+03
      0.201  0.0000E+00  0.4480E+03
      0.314  0.0000E+00  0.4480E+03
      0.427  0.0000E+00  0.4480E+03
      0.540  0.0000E+00  0.4480E+03
      0.653  0.0000E+00  0.4480E+03
      0.766  0.0000E+00  0.4480E+03
      0.879  0.0000E+00  0.4480E+03
      0.992  0.0000E+00  0.4480E+03
      1.105  0.0000E+00  0.4480E+03
      1.218  0.0000E+00  0.4480E+03
      1.331  0.0000E+00  0.4480E+03
      1.444  0.0000E+00  0.4480E+03
      1.557  0.0000E+00  0.4480E+03
      1.670  0.0000E+00  0.4480E+03
      1.783  0.0000E+00  0.4480E+03
      1.896  0.0000E+00  0.4480E+03
      2.009  0.0000E+00  0.4480E+03
      2.122  0.0000E+00  0.4480E+03
      2.235  0.0000E+00  0.4480E+03
      2.348  0.0000E+00  0.4480E+03
      2.460  0.0000E+00  0.4480E+03
      2.573  0.0000E+00  0.4480E+03
      2.686  0.0000E+00  0.4480E+03
      2.799  0.0000E+00  0.4480E+03
      2.912  0.0000E+00  0.4480E+03
      3.025  0.0000E+00  0.4480E+03
      3.138  0.0000E+00  0.4480E+03
      3.251  0.0000E+00  0.4480E+03
      3.364  0.0000E+00  0.4480E+03
      3.477  0.0000E+00  0.4480E+03
      3.590  0.0000E+00  0.4480E+03
      3.703  0.0000E+00  0.4480E+03
      3.816  0.0000E+00  0.4480E+03
      3.929  0.0000E+00  0.4480E+03
      4.042  0.0000E+00  0.4480E+03
      4.155  0.0000E+00  0.4480E+03
      4.268  0.3622E-06  0.4480E+03
      4.381  0.2208E+01  0.4482E+03
      4.494  0.4378E-02  0.4482E+03
      4.607  0.0000E+00  0.4482E+03
      4.720  0.0000E+00  0.4482E+03
      4.833  0.0000E+00  0.4482E+03
      4.946  0.5080E-06  0.4483E+03
      5.059  0.1321E+02  0.4497E+03
      5.172  0.6758E-01  0.4498E+03
      5.285  0.0000E+00  0.4498E+03
      5.398  0.0000E+00  0.4498E+03
      5.511  0.6018E+00  0.4498E+03
      5.624  0.2595E+02  0.4527E+03
      5.737  0.4280E-09  0.4528E+03
      5.850  0.1589E+02  0.4545E+03
      5.963  0.1809E+01  0.4548E+03
      6.076  0.0000E+00  0.4548E+03
      6.189  0.0000E+00  0.4548E+03
      6.302  0.1903E-04  0.4548E+03
      6.415  0.1342E+02  0.4563E+03
      6.528  0.8708E+01  0.4572E+03
      6.641  0.2871E+02  0.4605E+03
      6.754  0.7715E+02  0.4692E+03
      6.867  0.5736E+02  0.4757E+03
      6.979  0.1236E+02  0.4771E+03
      7.092  0.3666E+01  0.4775E+03
      7.205  0.3057E+01  0.4778E+03
      7.318  0.3608E+01  0.4783E+03
      7.431  0.7929E+02  0.4872E+03
      7.544  0.1633E+03  0.5057E+03
      7.657  0.9676E+01  0.5068E+03
      7.770  0.2655E+02  0.5097E+03
      7.883  0.1319E-01  0.5098E+03
      7.996  0.5310E+02  0.5157E+03
      8.109  0.2014E-03  0.5158E+03
      8.222  0.1334E+02  0.5173E+03
      8.335  0.9277E+02  0.5277E+03
      8.448  0.1123E+00  0.5278E+03
      8.561  0.1321E+03  0.5427E+03
      8.674  0.2726E+02  0.5458E+03
      8.787  0.4443E-08  0.5458E+03
      8.900  0.6555E+02  0.5532E+03
      9.013  0.1313E+03  0.5680E+03
      9.126  0.1335E+02  0.5695E+03
      9.239  0.1109E+02  0.5708E+03
      9.352  0.3317E+02  0.5745E+03
      9.465  0.2288E+00  0.5745E+03
      9.578  0.1305E+02  0.5760E+03
      9.691  0.0000E+00  0.5760E+03
      9.804  0.0000E+00  0.5760E+03
      9.917  0.0000E+00  0.5760E+03
     10.030  0.0000E+00  0.5760E+03
     10.143  0.0000E+00  0.5760E+03
     10.256  0.0000E+00  0.5760E+03
     10.369  0.0000E+00  0.5760E+03
     10.482  0.0000E+00  0.5760E+03
     10.595  0.0000E+00  0.5760E+03
     10.708  0.0000E+00  0.5760E+03
     10.821  0.0000E+00  0.5760E+03
     10.934  0.0000E+00  0.5760E+03
     11.047  0.0000E+00  0.5760E+03
