       N       E                     dE             d eps       ncg     rms          rms(c)
DAV:   1     0.432391916128E+04    0.43239E+04   -0.17163E+05  4608   0.125E+03
DAV:   2     0.364060384842E+03   -0.39599E+04   -0.37668E+04  5120   0.368E+02
DAV:   3    -0.206175777926E+03   -0.57024E+03   -0.56599E+03  5632   0.156E+02
DAV:   4    -0.228191162414E+03   -0.22015E+02   -0.21917E+02  5536   0.331E+01
DAV:   5    -0.229005153289E+03   -0.81399E+00   -0.81265E+00  5632   0.616E+00    0.106E+01
DAV:   6    -0.224138368131E+03    0.48668E+01   -0.94897E+00  5728   0.526E+00    0.776E+00
DAV:   7    -0.223777610568E+03    0.36076E+00   -0.20622E+00  6208   0.236E+00    0.533E+00
DAV:   8    -0.223902810496E+03   -0.12520E+00   -0.26506E-01  5408   0.122E+00    0.140E+00
DAV:   9    -0.223897407311E+03    0.54032E-02   -0.11364E-02  5728   0.257E-01    0.592E-01
DAV:  10    -0.223901766146E+03   -0.43588E-02   -0.18195E-02  5376   0.219E-01    0.293E-01
DAV:  11    -0.223901026601E+03    0.73954E-03   -0.16693E-03  5728   0.776E-02    0.789E-02
DAV:  12    -0.223900994241E+03    0.32360E-04   -0.14780E-04  5952   0.222E-02    0.919E-03
DAV:  13    -0.223901000516E+03   -0.62755E-05   -0.13105E-05  5472   0.624E-03    0.249E-03
DAV:  14    -0.223901000304E+03    0.21199E-06   -0.10264E-06  6112   0.233E-03    0.849E-03
DAV:  15    -0.223901001320E+03   -0.10160E-05   -0.37463E-07  4992   0.120E-03    0.339E-03
DAV:  16    -0.223901001954E+03   -0.63310E-06   -0.11959E-07  5248   0.707E-04    0.261E-04
DAV:  17    -0.223901001932E+03    0.21857E-07   -0.49968E-09  3552   0.380E-04    0.159E-04
DAV:  18    -0.223901001931E+03    0.80036E-09   -0.36369E-09  3200   0.235E-04
   1 F= -.22390100E+03 E0= -.22390100E+03  d E =-.109224E-13
