  64  64   0   0
  0.2006348E+02  0.1086915E-08  0.1086915E-08  0.1086915E-08  0.5000000E-15
  1.000000000000000E-004
  CAR 
 unknown system                          
     10.10101159     -6.98202078  301      5.89431487      1.00000000
     -6.982  0.0000E+00  0.0000E+00
     -6.925  0.0000E+00  0.0000E+00
     -6.868  0.0000E+00  0.0000E+00
     -6.811  0.0000E+00  0.0000E+00
     -6.754  0.0000E+00  0.0000E+00
     -6.697  0.0000E+00  0.0000E+00
     -6.640  0.0000E+00  0.0000E+00
     -6.583  0.0000E+00  0.0000E+00
     -6.526  0.0000E+00  0.0000E+00
     -6.470  0.0000E+00  0.0000E+00
     -6.413  0.0000E+00  0.0000E+00
     -6.356  0.0000E+00  0.0000E+00
     -6.299  0.9731E-10  0.5541E-11
     -6.242  0.2282E-01  0.1300E-02
     -6.185  0.4053E+01  0.2321E+00
     -6.128  0.3142E+00  0.2500E+00
     -6.071  0.8788E-07  0.2500E+00
     -6.014  0.9238E-07  0.2500E+00
     -5.957  0.1017E+01  0.3079E+00
     -5.900  0.2501E+02  0.1732E+01
     -5.843  0.3168E+00  0.1750E+01
     -5.786  0.4466E-08  0.1750E+01
     -5.729  0.1070E-03  0.1750E+01
     -5.672  0.1459E+02  0.2581E+01
     -5.615  0.3808E+02  0.4749E+01
     -5.558  0.1637E-01  0.4750E+01
     -5.501  0.1200E-09  0.4750E+01
     -5.445  0.7436E-01  0.4754E+01
     -5.388  0.3051E+02  0.6491E+01
     -5.331  0.4541E+01  0.6750E+01
     -5.274  0.5813E-05  0.6750E+01
     -5.217  0.2604E-09  0.6750E+01
     -5.160  0.8956E-01  0.6755E+01
     -5.103  0.2366E+02  0.8102E+01
     -5.046  0.2594E+01  0.8250E+01
     -4.989  0.1664E-05  0.8250E+01
     -4.932  0.1828E-02  0.8250E+01
     -4.875  0.4576E+02  0.1086E+02
     -4.818  0.5959E+02  0.1425E+02
     -4.761  0.7575E-02  0.1425E+02
     -4.704  0.1276E-02  0.1425E+02
     -4.647  0.4336E+02  0.1672E+02
     -4.590  0.6200E+02  0.2025E+02
     -4.533  0.8945E-02  0.2025E+02
     -4.477  0.0000E+00  0.2025E+02
     -4.420  0.0000E+00  0.2025E+02
     -4.363  0.0000E+00  0.2025E+02
     -4.306  0.0000E+00  0.2025E+02
     -4.249  0.1702E-08  0.2025E+02
     -4.192  0.2771E+00  0.2027E+02
     -4.135  0.4818E+02  0.2301E+02
     -4.078  0.4234E+01  0.2325E+02
     -4.021  0.5783E+02  0.2654E+02
     -3.964  0.4753E+02  0.2925E+02
     -3.907  0.1153E-01  0.2925E+02
     -3.850  0.1354E+02  0.3002E+02
     -3.793  0.2535E+02  0.3147E+02
     -3.736  0.5000E+01  0.3175E+02
     -3.679  0.2487E-04  0.3175E+02
     -3.622  0.1236E+02  0.3245E+02
     -3.565  0.9273E+02  0.3773E+02
     -3.508  0.2164E+01  0.3786E+02
     -3.452  0.9958E+02  0.4353E+02
     -3.395  0.3894E+01  0.4375E+02
     -3.338  0.1379E+02  0.4454E+02
     -3.281  0.9136E+02  0.4974E+02
     -3.224  0.2194E+00  0.4975E+02
     -3.167  0.1309E-07  0.4975E+02
     -3.110  0.1012E+01  0.4981E+02
     -3.053  0.9904E+02  0.5545E+02
     -2.996  0.5318E+01  0.5575E+02
     -2.939  0.1026E-05  0.5575E+02
     -2.882  0.0000E+00  0.5575E+02
     -2.825  0.0000E+00  0.5575E+02
     -2.768  0.0000E+00  0.5575E+02
     -2.711  0.0000E+00  0.5575E+02
     -2.654  0.0000E+00  0.5575E+02
     -2.597  0.0000E+00  0.5575E+02
     -2.540  0.3665E-06  0.5575E+02
     -2.483  0.2504E+01  0.5589E+02
     -2.427  0.4967E+02  0.5872E+02
     -2.370  0.5125E+00  0.5875E+02
     -2.313  0.5850E-08  0.5875E+02
     -2.256  0.0000E+00  0.5875E+02
     -2.199  0.0000E+00  0.5875E+02
     -2.142  0.3766E-08  0.5875E+02
     -2.085  0.2758E+00  0.5877E+02
     -2.028  0.2486E+02  0.6018E+02
     -1.971  0.5528E+02  0.6333E+02
     -1.914  0.5206E+02  0.6629E+02
     -1.857  0.4993E+02  0.6914E+02
     -1.800  0.1991E+01  0.6925E+02
     -1.743  0.2690E-06  0.6925E+02
     -1.686  0.0000E+00  0.6925E+02
     -1.629  0.0000E+00  0.6925E+02
     -1.572  0.2890E-12  0.6925E+02
     -1.515  0.5350E-02  0.6925E+02
     -1.459  0.3241E+02  0.7110E+02
     -1.402  0.2027E+02  0.7225E+02
     -1.345  0.4529E-03  0.7225E+02
     -1.288  0.1679E-02  0.7225E+02
     -1.231  0.1071E+02  0.7286E+02
     -1.174  0.6851E+01  0.7325E+02
     -1.117  0.1601E-03  0.7325E+02
     -1.060  0.6887E+01  0.7364E+02
     -1.003  0.9779E+02  0.7921E+02
     -0.946  0.6926E+00  0.7925E+02
     -0.889  0.8920E-07  0.7925E+02
     -0.832  0.2177E+01  0.7937E+02
     -0.775  0.1005E+03  0.8510E+02
     -0.718  0.2696E+01  0.8525E+02
     -0.661  0.3528E+01  0.8545E+02
     -0.604  0.1965E+03  0.9664E+02
     -0.547  0.1068E+02  0.9725E+02
     -0.490  0.6694E-05  0.9725E+02
     -0.434  0.0000E+00  0.9725E+02
     -0.377  0.0000E+00  0.9725E+02
     -0.320  0.0000E+00  0.9725E+02
     -0.263  0.1201E-03  0.9725E+02
     -0.206  0.2433E+02  0.9864E+02
     -0.149  0.8097E+02  0.1032E+03
     -0.092  0.5977E-01  0.1032E+03
     -0.035  0.5227E-03  0.1033E+03
      0.022  0.1227E+02  0.1039E+03
      0.079  0.1407E+02  0.1047E+03
      0.136  0.1087E-02  0.1048E+03
      0.193  0.1266E-07  0.1048E+03
      0.250  0.6523E+00  0.1048E+03
      0.307  0.4983E+02  0.1076E+03
      0.364  0.2197E+01  0.1077E+03
      0.421  0.9855E-01  0.1078E+03
      0.478  0.8539E+02  0.1126E+03
      0.535  0.1988E+02  0.1137E+03
      0.591  0.5586E-04  0.1138E+03
      0.648  0.0000E+00  0.1138E+03
      0.705  0.0000E+00  0.1138E+03
      0.762  0.0000E+00  0.1138E+03
      0.819  0.0000E+00  0.1138E+03
      0.876  0.0000E+00  0.1138E+03
      0.933  0.0000E+00  0.1138E+03
      0.990  0.0000E+00  0.1138E+03
      1.047  0.0000E+00  0.1138E+03
      1.104  0.0000E+00  0.1138E+03
      1.161  0.0000E+00  0.1138E+03
      1.218  0.0000E+00  0.1138E+03
      1.275  0.0000E+00  0.1138E+03
      1.332  0.4470E-07  0.1138E+03
      1.389  0.1193E+01  0.1138E+03
      1.446  0.5280E+02  0.1168E+03
      1.503  0.1794E+03  0.1270E+03
      1.559  0.2998E+02  0.1287E+03
      1.616  0.1818E-03  0.1288E+03
      1.673  0.0000E+00  0.1288E+03
      1.730  0.1673E-08  0.1288E+03
      1.787  0.2299E+00  0.1288E+03
      1.844  0.3412E+02  0.1307E+03
      1.901  0.5253E+02  0.1337E+03
      1.958  0.8421E+01  0.1342E+03
      2.015  0.4510E+02  0.1367E+03
      2.072  0.8845E-01  0.1367E+03
      2.129  0.6957E-04  0.1368E+03
      2.186  0.2024E+02  0.1379E+03
      2.243  0.9230E+02  0.1432E+03
      2.300  0.1149E+03  0.1497E+03
      2.357  0.1291E+03  0.1571E+03
      2.414  0.9105E+02  0.1622E+03
      2.471  0.1827E+00  0.1622E+03
      2.528  0.2097E-09  0.1622E+03
      2.584  0.0000E+00  0.1622E+03
      2.641  0.0000E+00  0.1622E+03
      2.698  0.0000E+00  0.1622E+03
      2.755  0.0000E+00  0.1622E+03
      2.812  0.3495E-08  0.1623E+03
      2.869  0.2850E+00  0.1623E+03
      2.926  0.2495E+02  0.1637E+03
      2.983  0.5364E+02  0.1667E+03
      3.040  0.1435E+03  0.1749E+03
      3.097  0.6331E+02  0.1785E+03
      3.154  0.7620E+02  0.1829E+03
      3.211  0.8588E+02  0.1877E+03
      3.268  0.1089E+02  0.1884E+03
      3.325  0.1110E+03  0.1947E+03
      3.382  0.3617E+02  0.1967E+03
      3.439  0.1033E-01  0.1967E+03
      3.496  0.4126E-02  0.1968E+03
      3.553  0.5317E+02  0.1998E+03
      3.609  0.1472E+03  0.2082E+03
      3.666  0.1035E+02  0.2087E+03
      3.723  0.6087E-05  0.2088E+03
      3.780  0.3979E-07  0.2088E+03
      3.837  0.1040E+01  0.2088E+03
      3.894  0.5502E+02  0.2119E+03
      3.951  0.1009E+03  0.2177E+03
      4.008  0.1104E+01  0.2177E+03
      4.065  0.4181E-02  0.2178E+03
      4.122  0.3151E+02  0.2195E+03
      4.179  0.8759E+02  0.2245E+03
      4.236  0.3895E+02  0.2267E+03
      4.293  0.3277E+00  0.2268E+03
      4.350  0.9404E+02  0.2321E+03
      4.407  0.1273E+02  0.2328E+03
      4.464  0.7571E+02  0.2372E+03
      4.521  0.9806E+02  0.2427E+03
      4.577  0.3361E+02  0.2447E+03
      4.634  0.1041E+02  0.2452E+03
      4.691  0.1060E-03  0.2452E+03
      4.748  0.0000E+00  0.2452E+03
      4.805  0.0000E+00  0.2452E+03
      4.862  0.1572E-08  0.2453E+03
      4.919  0.2940E+00  0.2453E+03
      4.976  0.4969E+02  0.2481E+03
      5.033  0.7016E+02  0.2521E+03
      5.090  0.2793E+01  0.2522E+03
      5.147  0.5036E-06  0.2522E+03
      5.204  0.0000E+00  0.2522E+03
      5.261  0.0000E+00  0.2522E+03
      5.318  0.0000E+00  0.2522E+03
      5.375  0.3453E-11  0.2523E+03
      5.432  0.1714E-01  0.2523E+03
      5.489  0.3797E+02  0.2544E+03
      5.546  0.1469E+02  0.2552E+03
      5.602  0.1202E-03  0.2552E+03
      5.659  0.1779E-13  0.2552E+03
      5.716  0.6268E-03  0.2553E+03
      5.773  0.7082E+01  0.2557E+03
      5.830  0.6088E+01  0.2560E+03
      5.887  0.2815E-03  0.2560E+03
      5.944  0.0000E+00  0.2560E+03
      6.001  0.0000E+00  0.2560E+03
      6.058  0.0000E+00  0.2560E+03
      6.115  0.0000E+00  0.2560E+03
      6.172  0.3429E-12  0.2560E+03
      6.229  0.4298E-02  0.2560E+03
      6.286  0.1755E+02  0.2570E+03
      6.343  0.1018E+02  0.2576E+03
      6.400  0.2473E+02  0.2590E+03
      6.457  0.2233E+00  0.2590E+03
      6.514  0.2103E-08  0.2590E+03
      6.571  0.0000E+00  0.2590E+03
      6.627  0.0000E+00  0.2590E+03
      6.684  0.0000E+00  0.2590E+03
      6.741  0.3599E-04  0.2590E+03
      6.798  0.6485E+01  0.2594E+03
      6.855  0.3187E+02  0.2612E+03
      6.912  0.4064E+02  0.2635E+03
      6.969  0.2837E-01  0.2635E+03
      7.026  0.4429E-11  0.2635E+03
      7.083  0.1436E-10  0.2635E+03
      7.140  0.4094E-01  0.2635E+03
      7.197  0.9063E+02  0.2687E+03
      7.254  0.5753E+02  0.2719E+03
      7.311  0.1075E+01  0.2720E+03
      7.368  0.2228E-06  0.2720E+03
      7.425  0.0000E+00  0.2720E+03
      7.482  0.0000E+00  0.2720E+03
      7.539  0.3144E-08  0.2720E+03
      7.596  0.6059E+00  0.2720E+03
      7.652  0.1688E+03  0.2816E+03
      7.709  0.5523E+02  0.2848E+03
      7.766  0.4753E+02  0.2875E+03
      7.823  0.8697E-01  0.2875E+03
      7.880  0.1373E-02  0.2875E+03
      7.937  0.4436E+02  0.2900E+03
      7.994  0.6100E+02  0.2935E+03
      8.051  0.2859E+02  0.2951E+03
      8.108  0.7812E+02  0.2996E+03
      8.165  0.1460E+03  0.3079E+03
      8.222  0.1074E+02  0.3085E+03
      8.279  0.3684E+01  0.3087E+03
      8.336  0.1071E+03  0.3148E+03
      8.393  0.7749E+01  0.3152E+03
      8.450  0.2501E-05  0.3153E+03
      8.507  0.6094E-01  0.3153E+03
      8.564  0.8160E+02  0.3199E+03
      8.620  0.2371E+02  0.3212E+03
      8.677  0.1018E-03  0.3213E+03
      8.734  0.6740E+00  0.3213E+03
      8.791  0.1230E+03  0.3283E+03
      8.848  0.6064E+02  0.3317E+03
      8.905  0.8480E-01  0.3317E+03
      8.962  0.3627E-08  0.3318E+03
      9.019  0.1778E+00  0.3318E+03
      9.076  0.1251E+02  0.3325E+03
      9.133  0.4849E+00  0.3325E+03
      9.190  0.7511E-01  0.3325E+03
      9.247  0.3063E+02  0.3342E+03
      9.304  0.7035E+01  0.3346E+03
      9.361  0.2364E+02  0.3360E+03
      9.418  0.9115E-01  0.3360E+03
      9.475  0.2872E-09  0.3360E+03
      9.532  0.0000E+00  0.3360E+03
      9.589  0.0000E+00  0.3360E+03
      9.645  0.0000E+00  0.3360E+03
      9.702  0.0000E+00  0.3360E+03
      9.759  0.0000E+00  0.3360E+03
      9.816  0.0000E+00  0.3360E+03
      9.873  0.0000E+00  0.3360E+03
      9.930  0.0000E+00  0.3360E+03
      9.987  0.0000E+00  0.3360E+03
     10.044  0.0000E+00  0.3360E+03
     10.101  0.0000E+00  0.3360E+03
