       N       E                     dE             d eps       ncg     rms          rms(c)
DAV:   1     0.455112309841E+03    0.45511E+03   -0.72742E+04  2016   0.852E+02
DAV:   2    -0.321632781179E+03   -0.77675E+03   -0.73292E+03  2424   0.156E+02
DAV:   3    -0.373439901979E+03   -0.51807E+02   -0.51001E+02  2480   0.368E+01
DAV:   4    -0.374601174366E+03   -0.11613E+01   -0.11532E+01  2416   0.669E+00
DAV:   5    -0.374640743016E+03   -0.39569E-01   -0.39518E-01  2376   0.111E+00    0.285E+01
DAV:   6    -0.369721689488E+03    0.49191E+01   -0.25904E+00  2280   0.242E+00    0.172E+01
DAV:   7    -0.367490295126E+03    0.22314E+01   -0.52388E+00  2264   0.349E+00    0.996E-01
DAV:   8    -0.367497484738E+03   -0.71896E-02   -0.28286E-01  2304   0.969E-01    0.352E-01
DAV:   9    -0.367498951407E+03   -0.14667E-02   -0.72322E-03  2472   0.163E-01    0.309E-01
DAV:  10    -0.367499813081E+03   -0.86167E-03   -0.20908E-03  2240   0.833E-02    0.227E-01
DAV:  11    -0.367499849626E+03   -0.36545E-04   -0.87548E-05  2312   0.188E-02    0.930E-03
DAV:  12    -0.367499852017E+03   -0.23917E-05   -0.34280E-06  2424   0.361E-03    0.786E-03
DAV:  13    -0.367499851110E+03    0.90693E-06   -0.81581E-07  2256   0.191E-03    0.218E-03
DAV:  14    -0.367499850886E+03    0.22390E-06   -0.37815E-08  2072   0.429E-04    0.484E-04
DAV:  15    -0.367499850877E+03    0.98935E-08   -0.83017E-09  1352   0.177E-04
   1 F= -.36749985E+03 E0= -.36749985E+03  d E =-.384141E-18
