 vasp.6.3.2 27Jun22 (build Oct 14 2022 12:13:54) complex                        
  
 executed on             LinuxIFC date 2023.04.03  14:50:24
 running on   32 total cores
 distrk:  each k-point on   32 cores,    1 groups
 distr:  one band on NCORE=   4 cores,    8 groups


--------------------------------------------------------------------------------------------------------


 INCAR:
   ADDGRID = True
   EDIFF = 1e-08
   ENCUT = 318
   GGA = Ps
   IALGO = 38
   IBRION = -1
   ISMEAR = 0
   LCHARG = False
   LREAL = False
   LWAVE = False
   NELMIN = 5
   NPAR = 8
   PREC = Accurate
   SIGMA = 0.02

 POTCAR:    PAW_PBE Si 05Jan2001                  
 POTCAR:    PAW_PBE Si 05Jan2001                  
   SHA256 =  79d9987ad8750f624c4d6acb2a16d13abf6a777132adc04dc6c8399be72b42bb Si/POTCAR             
   COPYR  = (c) Copyright 05Jan2001 Georg Kresse                                                    
   COPYR  = This file is part of the software VASP. Any use, copying, and all other rights are regul
   COPYR  = If you do not have a valid VASP license, you may not use, copy or distribute this file. 
   VRHFIN =Si: s2p2                                                                                 
   LEXCH  = PE                                                                                      
   EATOM  =   103.0669 eV,    7.5752 Ry                                                             
                                                                                                    
   TITEL  = PAW_PBE Si 05Jan2001                                                                    
   LULTRA =        F    use ultrasoft PP ?                                                          
   IUNSCR =        1    unscreen: 0-lin 1-nonlin 2-no                                               
   RPACOR =    1.500    partial core radius                                                         
   POMASS =   28.085; ZVAL   =    4.000    mass and valenz                                          
   RCORE  =    1.900    outmost cutoff radius                                                       
   RWIGS  =    2.480; RWIGS  =    1.312    wigner-seitz radius (au A)                               
   ENMAX  =  245.345; ENMIN  =  184.009 eV                                                          
   ICORE  =        2    local potential                                                             
   LCOR   =        T    correct aug charges                                                         
   LPAW   =        T    paw PP                                                                      
   EAUG   =  322.069                                                                                
   DEXC   =    0.000                                                                                
   RMAX   =    1.950    core radius for proj-oper                                                   
   RAUG   =    1.300    factor for augmentation sphere                                              
   RDEP   =    1.993    radius for radial grids                                                     
   RDEPT  =    1.837    core radius for aug-charge                                                  
                                                                                                    
   Atomic configuration                                                                             
    6 entries                                                                                       
     n  l   j            E        occ.                                                              
     1  0  0.50     -1785.8828   2.0000                                                             
     2  0  0.50      -139.4969   2.0000                                                             
     2  1  1.50       -95.5546   6.0000                                                             
     3  0  0.50       -10.8127   2.0000                                                             
     3  1  0.50        -4.0811   2.0000                                                             
     3  2  1.50        -4.0817   0.0000                                                             
   Description                                                                                      
     l       E           TYP  RCUT    TYP  RCUT                                                     
     0    -10.8127223     23  1.900                                                                 
     0     -7.6451159     23  1.900                                                                 
     1     -4.0811372     23  1.900                                                                 
     1      2.4879257     23  1.900                                                                 
     2     -4.0817478      7  1.900                                                                 
  local pseudopotential read in
  partial core-charges read in
  partial kinetic energy density read in
  atomic valenz-charges read in
  non local Contribution for L=           0  read in
    real space projection operators read in
  non local Contribution for L=           0  read in
    real space projection operators read in
  non local Contribution for L=           1  read in
    real space projection operators read in
  non local Contribution for L=           1  read in
    real space projection operators read in
    PAW grid and wavefunctions read in
 
   number of l-projection  operators is LMAX  =           4
   number of lm-projection operators is LMMAX =           8
 
 -----------------------------------------------------------------------------
|                                                                             |
|               ----> ADVICE to this user running VASP <----                  |
|                                                                             |
|     You have a (more or less) 'large supercell' and for larger cells it     |
|     might be more efficient to use real-space projection operators.         |
|     Therefore, try LREAL= Auto in the INCAR file.                           |
|     Mind: For very accurate calculation, you might also keep the            |
|     reciprocal projection scheme (i.e. LREAL=.FALSE.).                      |
|                                                                             |
 -----------------------------------------------------------------------------

 -----------------------------------------------------------------------------
|                                                                             |
|               ----> ADVICE to this user running VASP <----                  |
|                                                                             |
|     You enforced a specific xc type in the INCAR file but a different       |
|     type was found in the POTCAR file.                                      |
|     I HOPE YOU KNOW WHAT YOU ARE DOING!                                     |
|                                                                             |
 -----------------------------------------------------------------------------

  PAW_PBE Si 05Jan2001                  :
 energy of atom  1       EATOM= -103.0669
 kinetic energy error for atom=    0.0016 (will be added to EATOM!!)
 
 
 POSCAR: Si
  positions in cartesian coordinates
  No initial velocities read in
 exchange correlation table for  LEXCH =       14
   RHO(1)=    0.500       N(1)  =     2000
   RHO(2)=  100.500       N(2)  =     4000
 


--------------------------------------------------------------------------------------------------------


 ion  position               nearest neighbor table
   1  0.251  0.250  0.250-  33 2.35  41 2.35  49 2.36  57 2.36
   2  0.750  0.250  0.250-  34 2.35  42 2.35  50 2.35  58 2.35
   3  0.250  0.750  0.250-  35 2.35  43 2.35  51 2.35  59 2.35
   4  0.750  0.750  0.250-  36 2.35  44 2.35  52 2.35  60 2.35
   5  0.250  0.250  0.750-  37 2.35  45 2.35  53 2.35  61 2.35
   6  0.750  0.250  0.750-  38 2.35  46 2.35  54 2.35  62 2.35
   7  0.250  0.750  0.750-  39 2.35  47 2.35  55 2.35  63 2.35
   8  0.750  0.750  0.750-  40 2.35  48 2.35  56 2.35  64 2.35
   9  0.250  0.000  0.000-  39 2.35  41 2.35  51 2.35  61 2.35
  10  0.750  0.000  0.000-  40 2.35  42 2.35  52 2.35  62 2.35
  11  0.250  0.500  0.000-  37 2.35  43 2.35  49 2.35  63 2.35
  12  0.750  0.500  0.000-  38 2.35  44 2.35  50 2.35  64 2.35
  13  0.250  0.000  0.500-  35 2.35  45 2.35  55 2.35  57 2.35
  14  0.750  0.000  0.500-  36 2.35  46 2.35  56 2.35  58 2.35
  15  0.250  0.500  0.500-  33 2.35  47 2.35  53 2.35  59 2.35
  16  0.750  0.500  0.500-  34 2.35  48 2.35  54 2.35  60 2.35
  17  0.000  0.250  0.999-  38 2.35  61 2.35  49 2.36  42 2.36
  18  0.500  0.250  0.000-  37 2.35  41 2.35  50 2.35  62 2.35
  19  0.000  0.750  0.000-  40 2.35  44 2.35  51 2.35  63 2.35
  20  0.500  0.750  0.000-  39 2.35  43 2.35  52 2.35  64 2.35
  21  0.000  0.250  0.500-  34 2.35  46 2.35  53 2.35  57 2.35
  22  0.500  0.250  0.500-  33 2.35  45 2.35  54 2.35  58 2.35
  23  0.000  0.750  0.500-  36 2.35  48 2.35  55 2.35  59 2.35
  24  0.500  0.750  0.500-  35 2.35  47 2.35  56 2.35  60 2.35
  25  0.000  0.000  0.250-  36 2.35  42 2.35  51 2.35  57 2.35
  26  0.500  0.000  0.250-  35 2.35  41 2.35  52 2.35  58 2.35
  27  0.000  0.500  0.250-  34 2.35  44 2.35  49 2.35  59 2.35
  28  0.500  0.500  0.250-  33 2.35  43 2.35  50 2.35  60 2.35
  29  0.000  0.000  0.750-  40 2.35  46 2.35  55 2.35  61 2.35
  30  0.500  0.000  0.750-  39 2.35  45 2.35  56 2.35  62 2.35
  31  0.000  0.500  0.750-  38 2.35  48 2.35  53 2.35  63 2.35
  32  0.500  0.500  0.750-  37 2.35  47 2.35  54 2.35  64 2.35
  33  0.375  0.375  0.375-   1 2.35  15 2.35  22 2.35  28 2.35
  34  0.875  0.375  0.375-   2 2.35  16 2.35  21 2.35  27 2.35
  35  0.375  0.875  0.375-   3 2.35  13 2.35  24 2.35  26 2.35
  36  0.875  0.875  0.375-   4 2.35  14 2.35  23 2.35  25 2.35
  37  0.375  0.375  0.875-   5 2.35  11 2.35  18 2.35  32 2.35
  38  0.875  0.375  0.875-  17 2.35  12 2.35   6 2.35  31 2.35
  39  0.375  0.875  0.875-   7 2.35   9 2.35  20 2.35  30 2.35
  40  0.875  0.875  0.875-   8 2.35  10 2.35  19 2.35  29 2.35
  41  0.375  0.125  0.125-   1 2.35   9 2.35  18 2.35  26 2.35
  42  0.875  0.125  0.125-   2 2.35  10 2.35  25 2.35  17 2.36
  43  0.375  0.625  0.125-   3 2.35  11 2.35  20 2.35  28 2.35
  44  0.875  0.625  0.125-   4 2.35  12 2.35  19 2.35  27 2.35
  45  0.375  0.125  0.625-   5 2.35  13 2.35  22 2.35  30 2.35
  46  0.875  0.125  0.625-   6 2.35  14 2.35  21 2.35  29 2.35
  47  0.375  0.625  0.625-   7 2.35  15 2.35  24 2.35  32 2.35
  48  0.875  0.625  0.625-   8 2.35  16 2.35  23 2.35  31 2.35
  49  0.125  0.375  0.125-  11 2.35  27 2.35  17 2.36   1 2.36
  50  0.625  0.375  0.125-   2 2.35  12 2.35  18 2.35  28 2.35
  51  0.125  0.875  0.125-   3 2.35   9 2.35  19 2.35  25 2.35
  52  0.625  0.875  0.125-   4 2.35  10 2.35  20 2.35  26 2.35
  53  0.125  0.375  0.625-   5 2.35  15 2.35  21 2.35  31 2.35
  54  0.625  0.375  0.625-   6 2.35  16 2.35  22 2.35  32 2.35
  55  0.125  0.875  0.625-   7 2.35  13 2.35  23 2.35  29 2.35
  56  0.625  0.875  0.625-   8 2.35  14 2.35  24 2.35  30 2.35
  57  0.125  0.125  0.375-  13 2.35  21 2.35  25 2.35   1 2.36
  58  0.625  0.125  0.375-   2 2.35  14 2.35  22 2.35  26 2.35
  59  0.125  0.625  0.375-   3 2.35  15 2.35  23 2.35  27 2.35
  60  0.625  0.625  0.375-   4 2.35  16 2.35  24 2.35  28 2.35
  61  0.125  0.125  0.875-  17 2.35   9 2.35   5 2.35  29 2.35
  62  0.625  0.125  0.875-   6 2.35  10 2.35  18 2.35  30 2.35
  63  0.125  0.625  0.875-   7 2.35  11 2.35  19 2.35  31 2.35
  64  0.625  0.625  0.875-   8 2.35  12 2.35  20 2.35  32 2.35
 
  LATTYP: Found a simple cubic cell.
 ALAT       =    10.8691451200
  
  Lattice vectors:
  
 A1 = (  10.8691451200,  -0.0000000000,  -0.0000000000)
 A2 = (  -0.0000000000,  10.8691451200,   0.0000000000)
 A3 = (   0.0000000000,   0.0000000000,  10.8691451200)


Analysis of symmetry for initial positions (statically):
=====================================================================
 Subroutine PRICEL returns:
 Original cell was already a primitive cell.
 

 Routine SETGRP: Setting up the symmetry group for a 
 simple cubic supercell.


 Subroutine GETGRP returns: Found  2 space group operations
 (whereof  1 operations were pure point group operations)
 out of a pool of 48 trial point group operations.


The static configuration has the point symmetry C_1 .
 The point group associated with its full space group is C_1h.


Analysis of symmetry for dynamics (positions and initial velocities):
=====================================================================
 Subroutine PRICEL returns:
 Original cell was already a primitive cell.
 

 Routine SETGRP: Setting up the symmetry group for a 
 simple cubic supercell.


 Subroutine GETGRP returns: Found  2 space group operations
 (whereof  1 operations were pure point group operations)
 out of a pool of 48 trial point group operations.


The dynamic configuration has the point symmetry C_1 .
 The point group associated with its full space group is C_1h.


 Subroutine INISYM returns: Found  2 space group operations
 (whereof  1 operations are pure point group operations),
 and found     1 'primitive' translations


----------------------------------------------------------------------------------------

                                     Primitive cell                                     

  volume of cell :    1284.0625

  direct lattice vectors                    reciprocal lattice vectors
    10.869145120 -0.000000000 -0.000000000     0.092003556  0.000000000 -0.000000000
    -0.000000000 10.869145120  0.000000000     0.000000000  0.092003556 -0.000000000
     0.000000000  0.000000000 10.869145120     0.000000000 -0.000000000  0.092003556

  length of vectors
    10.869145120 10.869145120 10.869145120     0.092003556  0.092003556  0.092003556

  position of ions in fractional coordinates (direct lattice)
     0.250920036  0.250000000  0.250000000
     0.750000000  0.250000000  0.250000000
     0.250000000  0.750000000  0.250000000
     0.750000000  0.750000000  0.250000000
     0.250000000  0.250000000  0.750000000
     0.750000000  0.250000000  0.750000000
     0.250000000  0.750000000  0.750000000
     0.750000000  0.750000000  0.750000000
     0.250000000  1.000000000  1.000000000
     0.750000000  1.000000000  1.000000000
     0.250000000  0.500000000  0.000000000
     0.750000000  0.500000000  1.000000000
     0.250000000  0.000000000  0.500000000
     0.750000000  1.000000000  0.500000000
     0.250000000  0.500000000  0.500000000
     0.750000000  0.500000000  0.500000000
     0.000000000  0.250000000  0.999079964
     0.500000000  0.250000000  1.000000000
     1.000000000  0.750000000  0.000000000
     0.500000000  0.750000000  0.000000000
     0.000000000  0.250000000  0.500000000
     0.500000000  0.250000000  0.500000000
     1.000000000  0.750000000  0.500000000
     0.500000000  0.750000000  0.500000000
     0.000000000  0.000000000  0.250000000
     0.500000000  1.000000000  0.250000000
     1.000000000  0.500000000  0.250000000
     0.500000000  0.500000000  0.250000000
     0.000000000  0.000000000  0.750000000
     0.500000000  0.000000000  0.750000000
     0.000000000  0.500000000  0.750000000
     0.500000000  0.500000000  0.750000000
     0.375000000  0.375000000  0.375000000
     0.875000000  0.375000000  0.375000000
     0.375000000  0.875000000  0.375000000
     0.875000000  0.875000000  0.375000000
     0.375000000  0.375000000  0.875000000
     0.875000000  0.375000000  0.875000000
     0.375000000  0.875000000  0.875000000
     0.875000000  0.875000000  0.875000000
     0.375000000  0.125000000  0.125000000
     0.875000000  0.125000000  0.125000000
     0.375000000  0.625000000  0.125000000
     0.875000000  0.625000000  0.125000000
     0.375000000  0.125000000  0.625000000
     0.875000000  0.125000000  0.625000000
     0.375000000  0.625000000  0.625000000
     0.875000000  0.625000000  0.625000000
     0.125000000  0.375000000  0.125000000
     0.625000000  0.375000000  0.125000000
     0.125000000  0.875000000  0.125000000
     0.625000000  0.875000000  0.125000000
     0.125000000  0.375000000  0.625000000
     0.625000000  0.375000000  0.625000000
     0.125000000  0.875000000  0.625000000
     0.625000000  0.875000000  0.625000000
     0.125000000  0.125000000  0.375000000
     0.625000000  0.125000000  0.375000000
     0.125000000  0.625000000  0.375000000
     0.625000000  0.625000000  0.375000000
     0.125000000  0.125000000  0.875000000
     0.625000000  0.125000000  0.875000000
     0.125000000  0.625000000  0.875000000
     0.625000000  0.625000000  0.875000000

  ion indices of the primitive-cell ions
   primitive index   ion index
                 1           1
                 2           2
                 3           3
                 4           4
                 5           5
                 6           6
                 7           7
                 8           8
                 9           9
                10          10
                11          11
                12          12
                13          13
                14          14
                15          15
                16          16
                17          17
                18          18
                19          19
                20          20
                21          21
                22          22
                23          23
                24          24
                25          25
                26          26
                27          27
                28          28
                29          29
                30          30
                31          31
                32          32
                33          33
                34          34
                35          35
                36          36
                37          37
                38          38
                39          39
                40          40
                41          41
                42          42
                43          43
                44          44
                45          45
                46          46
                47          47
                48          48
                49          49
                50          50
                51          51
                52          52
                53          53
                54          54
                55          55
                56          56
                57          57
                58          58
                59          59
                60          60
                61          61
                62          62
                63          63
                64          64

----------------------------------------------------------------------------------------

 
 
 KPOINTS: KPOINTS created by Atomic Simulation Env

Automatic generation of k-mesh.
 Grid dimensions read from file:
 generate k-points for:    2    2    2

 Generating k-lattice:

  Cartesian coordinates                     Fractional coordinates (reciprocal lattice)
     0.046001778  0.000000000 -0.000000000     0.500000000 -0.000000000  0.000000000
     0.000000000  0.046001778 -0.000000000    -0.000000000  0.500000000  0.000000000
     0.000000000 -0.000000000  0.046001778    -0.000000000  0.000000000  0.500000000

  Length of vectors
     0.046001778  0.046001778  0.046001778

  Shift w.r.t. Gamma in fractional coordinates (k-lattice)
     0.000000000  0.000000000  0.000000000

 
 Subroutine IBZKPT returns following result:
 ===========================================
 
 Found      6 irreducible k-points:
 
 Following reciprocal coordinates:
            Coordinates               Weight
  0.000000  0.000000  0.000000      1.000000
  0.500000  0.000000  0.000000      2.000000
 -0.000000  0.500000  0.000000      1.000000
  0.500000  0.500000  0.000000      2.000000
  0.500000 -0.000000  0.500000      1.000000
  0.500000  0.500000  0.500000      1.000000
 
 Following cartesian coordinates:
            Coordinates               Weight
  0.000000  0.000000  0.000000      1.000000
  0.046002  0.000000  0.000000      2.000000
  0.000000  0.046002  0.000000      1.000000
  0.046002  0.046002  0.000000      2.000000
  0.046002  0.000000  0.046002      1.000000
  0.046002  0.046002  0.046002      1.000000
 


--------------------------------------------------------------------------------------------------------




 Dimension of arrays:
   k-points           NKPTS =      6   k-points in BZ     NKDIM =      6   number of bands    NBANDS=    168
   number of dos      NEDOS =    301   number of ions     NIONS =     64
   non local maximal  LDIM  =      4   non local SUM 2l+1 LMDIM =      8
   total plane-waves  NPLWV = 262144
   max r-space proj   IRMAX =      1   max aug-charges    IRDMAX=  54800
   dimension x,y,z NGX =    64 NGY =   64 NGZ =   64
   dimension x,y,z NGXF=   128 NGYF=  128 NGZF=  128
   support grid    NGXF=   256 NGYF=  256 NGZF=  256
   ions per type =              64
   NGX,Y,Z   is equivalent  to a cutoff of   9.79,  9.79,  9.79 a.u.
   NGXF,Y,Z  is equivalent  to a cutoff of  19.58, 19.58, 19.58 a.u.

 SYSTEM =  unknown system                          
 POSCAR =  Si                                      

 Startparameter for this run:
   NWRITE =      2    write-flag & timer
   PREC   = accura    normal or accurate (medium, high low for compatibility)
   ISTART =      0    job   : 0-new  1-cont  2-samecut
   ICHARG =      2    charge: 1-file 2-atom 10-const
   ISPIN  =      1    spin polarized calculation?
   LNONCOLLINEAR =      F non collinear calculations
   LSORBIT =      F    spin-orbit coupling
   INIWAV =      1    electr: 0-lowe 1-rand  2-diag
   LASPH  =      F    aspherical Exc in radial PAW
 Electronic Relaxation 1
   ENCUT  =  318.0 eV  23.37 Ry    4.83 a.u.  15.80 15.80 15.80*2*pi/ulx,y,z
   ENINI  =  318.0     initial cutoff
   ENAUG  =  322.1 eV  augmentation charge cutoff
   NELM   =     60;   NELMIN=  5; NELMDL= -5     # of ELM steps 
   EDIFF  = 0.1E-07   stopping-criterion for ELM
   LREAL  =      F    real-space projection
   NLSPLINE    = F    spline interpolate recip. space projectors
   LCOMPAT=      F    compatible to vasp.4.4
   GGA_COMPAT  = T    GGA compatible to vasp.4.4-vasp.4.6
   LMAXPAW     = -100 max onsite density
   LMAXMIX     =    2 max onsite mixed and CHGCAR
   VOSKOWN=      0    Vosko Wilk Nusair interpolation
   ROPT   =    0.00000
 Ionic relaxation
   EDIFFG = 0.1E-06   stopping-criterion for IOM
   NSW    =      0    number of steps for IOM
   NBLOCK =      1;   KBLOCK =      1    inner block; outer block 
   IBRION =     -1    ionic relax: 0-MD 1-quasi-New 2-CG
   NFREE  =      0    steps in history (QN), initial steepest desc. (CG)
   ISIF   =      2    stress and relaxation
   IWAVPR =     10    prediction:  0-non 1-charg 2-wave 3-comb
   ISYM   =      2    0-nonsym 1-usesym 2-fastsym
   LCORR  =      T    Harris-Foulkes like correction to forces

   POTIM  = 0.5000    time-step for ionic-motion
   TEIN   =    0.0    initial temperature
   TEBEG  =    0.0;   TEEND  =   0.0 temperature during run
   SMASS  =  -3.00    Nose mass-parameter (am)
   estimated Nose-frequenzy (Omega)   =  0.10E-29 period in steps = 0.13E+47 mass=  -0.270E-26a.u.
   SCALEE = 1.0000    scale energy and forces
   NPACO  =    256;   APACO  = 10.0  distance and # of slots for P.C.
   PSTRESS=    0.0 pullay stress

  Mass of Ions in am
   POMASS =  28.09
  Ionic Valenz
   ZVAL   =   4.00
  Atomic Wigner-Seitz radii
   RWIGS  =  -1.00
  virtual crystal weights 
   VCA    =   1.00
   NELECT =     256.0000    total number of electrons
   NUPDOWN=      -1.0000    fix difference up-down

 DOS related values:
   EMIN   =  10.00;   EMAX   =-10.00  energy-range for DOS
   EFERMI =   0.00
   ISMEAR =     0;   SIGMA  =   0.02  broadening in eV -4-tet -1-fermi 0-gaus

 Electronic relaxation 2 (details)
   IALGO  =     38    algorithm
   LDIAG  =      T    sub-space diagonalisation (order eigenvalues)
   LSUBROT=      F    optimize rotation matrix (better conditioning)
   TURBO    =      0    0=normal 1=particle mesh
   IRESTART =      0    0=no restart 2=restart with 2 vectors
   NREBOOT  =      0    no. of reboots
   NMIN     =      0    reboot dimension
   EREF     =   0.00    reference energy to select bands
   IMIX   =      4    mixing-type and parameters
     AMIX     =   0.40;   BMIX     =  1.00
     AMIX_MAG =   1.60;   BMIX_MAG =  1.00
     AMIN     =   0.10
     WC   =   100.;   INIMIX=   1;  MIXPRE=   1;  MAXMIX= -45

 Intra band minimization:
   WEIMIN = 0.0000     energy-eigenvalue tresh-hold
   EBREAK =  0.15E-10  absolut break condition
   DEPER  =   0.30     relativ break condition  

   TIME   =   0.40     timestep for ELM

  volume/ion in A,a.u.               =      20.06       135.40
  Fermi-wavevector in a.u.,A,eV,Ry     =   0.956370  1.807278 12.444490  0.914644
  Thomas-Fermi vector in A             =   2.085292
 
 Write flags
   LWAVE        =      F    write WAVECAR
   LDOWNSAMPLE  =      F    k-point downsampling of WAVECAR
   LCHARG       =      F    write CHGCAR
   LVTOT        =      F    write LOCPOT, total local potential
   LVHAR        =      F    write LOCPOT, Hartree potential only
   LELF         =      F    write electronic localiz. function (ELF)
   LORBIT       =      0    0 simple, 1 ext, 2 COOP (PROOUT), +10 PAW based schemes


 Dipole corrections
   LMONO  =      F    monopole corrections only (constant potential shift)
   LDIPOL =      F    correct potential (dipole corrections)
   IDIPOL =      0    1-x, 2-y, 3-z, 4-all directions 
   EPSILON=  1.0000000 bulk dielectric constant

 Exchange correlation treatment:
   GGA     =    PS    GGA type
   LEXCH   =    14    internal setting for exchange type
   LIBXC   =     F    Libxc                    
   VOSKOWN =     0    Vosko Wilk Nusair interpolation
   LHFCALC =     F    Hartree Fock is set to
   LHFONE  =     F    Hartree Fock one center treatment
   AEXX    =    0.0000 exact exchange contribution

 Linear response parameters
   LEPSILON=     F    determine dielectric tensor
   LRPA    =     F    only Hartree local field effects (RPA)
   LNABLA  =     F    use nabla operator in PAW spheres
   LVEL    =     F    velocity operator in full k-point grid
   CSHIFT  =0.1000    complex shift for real part using Kramers Kronig
   OMEGAMAX=  -1.0    maximum frequency
   DEG_THRESHOLD= 0.2000000E-02 threshold for treating states as degnerate
   RTIME   =   -0.100 relaxation time in fs
  (WPLASMAI=    0.000 imaginary part of plasma frequency in eV, 0.658/RTIME)
   DFIELD  = 0.0000000 0.0000000 0.0000000 field for delta impulse in time
 
  Optional k-point grid parameters
   LKPOINTS_OPT  =     F    use optional k-point grid
   KPOINTS_OPT_MODE=     1    mode for optional k-point grid
 
 Orbital magnetization related:
   ORBITALMAG=     F  switch on orbital magnetization
   LCHIMAG   =     F  perturbation theory with respect to B field
   DQ        =  0.001000  dq finite difference perturbation B field
   LLRAUG    =     F  two centre corrections for induced B field



--------------------------------------------------------------------------------------------------------


 Static calculation
 charge density and potential will be updated during run
 non-spin polarized calculation
 Variant of blocked Davidson
 Davidson routine will perform the subspace rotation
 perform sub-space diagonalisation
    after iterative eigenvector-optimisation
 modified Broyden-mixing scheme, WC =      100.0
 initial mixing is a Kerker type mixing with AMIX =  0.4000 and BMIX =      1.0000
 Hartree-type preconditioning will be used
 using additional bands           40
 reciprocal scheme for non local part
 use partial core corrections
 calculate Harris-corrections to forces 
   (improved forces if not selfconsistent)
 use gradient corrections 
 use of overlap-Matrix (Vanderbilt PP)
 Gauss-broadening in eV      SIGMA  =   0.02


--------------------------------------------------------------------------------------------------------


  energy-cutoff  :      318.00
  volume of cell :     1284.06
      direct lattice vectors                 reciprocal lattice vectors
    10.869145120 -0.000000000 -0.000000000     0.092003556  0.000000000 -0.000000000
    -0.000000000 10.869145120  0.000000000     0.000000000  0.092003556 -0.000000000
     0.000000000  0.000000000 10.869145120     0.000000000 -0.000000000  0.092003556

  length of vectors
    10.869145120 10.869145120 10.869145120     0.092003556  0.092003556  0.092003556


 
 k-points in units of 2pi/SCALE and weight: KPOINTS created by Atomic Simulation Env
   0.00000000  0.00000000  0.00000000       0.125
   0.04600178  0.00000000  0.00000000       0.250
   0.00000000  0.04600178  0.00000000       0.125
   0.04600178  0.04600178  0.00000000       0.250
   0.04600178  0.00000000  0.04600178       0.125
   0.04600178  0.04600178  0.04600178       0.125
 
 k-points in reciprocal lattice and weights: KPOINTS created by Atomic Simulation Env
   0.00000000  0.00000000  0.00000000       0.125
   0.50000000  0.00000000  0.00000000       0.250
  -0.00000000  0.50000000  0.00000000       0.125
   0.50000000  0.50000000  0.00000000       0.250
   0.50000000 -0.00000000  0.50000000       0.125
   0.50000000  0.50000000  0.50000000       0.125
 
 position of ions in fractional coordinates (direct lattice) 
   0.25092004  0.25000000  0.25000000
   0.75000000  0.25000000  0.25000000
   0.25000000  0.75000000  0.25000000
   0.75000000  0.75000000  0.25000000
   0.25000000  0.25000000  0.75000000
   0.75000000  0.25000000  0.75000000
   0.25000000  0.75000000  0.75000000
   0.75000000  0.75000000  0.75000000
   0.25000000  0.00000000  0.00000000
   0.75000000  0.00000000  0.00000000
   0.25000000  0.50000000  0.00000000
   0.75000000  0.50000000  0.00000000
   0.25000000  0.00000000  0.50000000
   0.75000000  0.00000000  0.50000000
   0.25000000  0.50000000  0.50000000
   0.75000000  0.50000000  0.50000000
   0.00000000  0.25000000  0.99907996
   0.50000000  0.25000000  0.00000000
   0.00000000  0.75000000  0.00000000
   0.50000000  0.75000000  0.00000000
   0.00000000  0.25000000  0.50000000
   0.50000000  0.25000000  0.50000000
   0.00000000  0.75000000  0.50000000
   0.50000000  0.75000000  0.50000000
   0.00000000  0.00000000  0.25000000
   0.50000000  0.00000000  0.25000000
   0.00000000  0.50000000  0.25000000
   0.50000000  0.50000000  0.25000000
   0.00000000  0.00000000  0.75000000
   0.50000000  0.00000000  0.75000000
   0.00000000  0.50000000  0.75000000
   0.50000000  0.50000000  0.75000000
   0.37500000  0.37500000  0.37500000
   0.87500000  0.37500000  0.37500000
   0.37500000  0.87500000  0.37500000
   0.87500000  0.87500000  0.37500000
   0.37500000  0.37500000  0.87500000
   0.87500000  0.37500000  0.87500000
   0.37500000  0.87500000  0.87500000
   0.87500000  0.87500000  0.87500000
   0.37500000  0.12500000  0.12500000
   0.87500000  0.12500000  0.12500000
   0.37500000  0.62500000  0.12500000
   0.87500000  0.62500000  0.12500000
   0.37500000  0.12500000  0.62500000
   0.87500000  0.12500000  0.62500000
   0.37500000  0.62500000  0.62500000
   0.87500000  0.62500000  0.62500000
   0.12500000  0.37500000  0.12500000
   0.62500000  0.37500000  0.12500000
   0.12500000  0.87500000  0.12500000
   0.62500000  0.87500000  0.12500000
   0.12500000  0.37500000  0.62500000
   0.62500000  0.37500000  0.62500000
   0.12500000  0.87500000  0.62500000
   0.62500000  0.87500000  0.62500000
   0.12500000  0.12500000  0.37500000
   0.62500000  0.12500000  0.37500000
   0.12500000  0.62500000  0.37500000
   0.62500000  0.62500000  0.37500000
   0.12500000  0.12500000  0.87500000
   0.62500000  0.12500000  0.87500000
   0.12500000  0.62500000  0.87500000
   0.62500000  0.62500000  0.87500000
 
 position of ions in cartesian coordinates  (Angst):
   2.72728628  2.71728628  2.71728628
   8.15185884  2.71728628  2.71728628
   2.71728628  8.15185884  2.71728628
   8.15185884  8.15185884  2.71728628
   2.71728628  2.71728628  8.15185884
   8.15185884  2.71728628  8.15185884
   2.71728628  8.15185884  8.15185884
   8.15185884  8.15185884  8.15185884
   2.71728628 -0.00000000 -0.00000000
   8.15185884 -0.00000000 -0.00000000
   2.71728628  5.43457256  0.00000000
   8.15185884  5.43457256 -0.00000000
   2.71728628  0.00000000  5.43457256
   8.15185884 -0.00000000  5.43457256
   2.71728628  5.43457256  5.43457256
   8.15185884  5.43457256  5.43457256
   0.00000000  2.71728628 10.85914512
   5.43457256  2.71728628 -0.00000000
  -0.00000000  8.15185884  0.00000000
   5.43457256  8.15185884  0.00000000
   0.00000000  2.71728628  5.43457256
   5.43457256  2.71728628  5.43457256
  -0.00000000  8.15185884  5.43457256
   5.43457256  8.15185884  5.43457256
   0.00000000  0.00000000  2.71728628
   5.43457256 -0.00000000  2.71728628
  -0.00000000  5.43457256  2.71728628
   5.43457256  5.43457256  2.71728628
   0.00000000  0.00000000  8.15185884
   5.43457256  0.00000000  8.15185884
   0.00000000  5.43457256  8.15185884
   5.43457256  5.43457256  8.15185884
   4.07592942  4.07592942  4.07592942
   9.51050198  4.07592942  4.07592942
   4.07592942  9.51050198  4.07592942
   9.51050198  9.51050198  4.07592942
   4.07592942  4.07592942  9.51050198
   9.51050198  4.07592942  9.51050198
   4.07592942  9.51050198  9.51050198
   9.51050198  9.51050198  9.51050198
   4.07592942  1.35864314  1.35864314
   9.51050198  1.35864314  1.35864314
   4.07592942  6.79321570  1.35864314
   9.51050198  6.79321570  1.35864314
   4.07592942  1.35864314  6.79321570
   9.51050198  1.35864314  6.79321570
   4.07592942  6.79321570  6.79321570
   9.51050198  6.79321570  6.79321570
   1.35864314  4.07592942  1.35864314
   6.79321570  4.07592942  1.35864314
   1.35864314  9.51050198  1.35864314
   6.79321570  9.51050198  1.35864314
   1.35864314  4.07592942  6.79321570
   6.79321570  4.07592942  6.79321570
   1.35864314  9.51050198  6.79321570
   6.79321570  9.51050198  6.79321570
   1.35864314  1.35864314  4.07592942
   6.79321570  1.35864314  4.07592942
   1.35864314  6.79321570  4.07592942
   6.79321570  6.79321570  4.07592942
   1.35864314  1.35864314  9.51050198
   6.79321570  1.35864314  9.51050198
   1.35864314  6.79321570  9.51050198
   6.79321570  6.79321570  9.51050198
 


--------------------------------------------------------------------------------------------------------


 k-point   1 :   0.0000 0.0000 0.0000  plane waves:   16519
 k-point   2 :   0.5000 0.0000 0.0000  plane waves:   16488
 k-point   3 :  -0.0000 0.5000 0.0000  plane waves:   16488
 k-point   4 :   0.5000 0.5000 0.0000  plane waves:   16588
 k-point   5 :   0.5000-0.0000 0.5000  plane waves:   16588
 k-point   6 :   0.5000 0.5000 0.5000  plane waves:   16560

 maximum and minimum number of plane-waves per node :      4164     4106

 maximum number of plane-waves:     16588
 maximum index in each direction: 
   IXMAX=   15   IYMAX=   15   IZMAX=   15
   IXMIN=  -16   IYMIN=  -16   IZMIN=  -16


 parallel 3D FFT for wavefunctions:
    minimum data exchange during FFTs selected (reduces bandwidth)
 parallel 3D FFT for charge:
    minimum data exchange during FFTs selected (reduces bandwidth)


 total amount of memory used by VASP MPI-rank0    61966. kBytes
=======================================================================

   base      :      30000. kBytes
   nonl-proj :       5868. kBytes
   fftplans  :      11573. kBytes
   grid      :       5816. kBytes
   one-center:         49. kBytes
   wavefun   :       8660. kBytes
 
     INWAV:  cpu time      0.0000: real time      0.0000
 Broyden mixing: mesh for mixing (old mesh)
   NGX = 31   NGY = 31   NGZ = 31
  (NGX  =128   NGY  =128   NGZ  =128)
  gives a total of  29791 points

 initial charge density was supplied:
 charge density of overlapping atoms calculated
 number of electron     256.0000000 magnetization 
 keeping initial charge density in first step


--------------------------------------------------------------------------------------------------------


 Maximum index for augmentation-charges         1707 (set IRDMAX)


--------------------------------------------------------------------------------------------------------


 First call to EWALD:  gamma=   0.163
 Maximum number of real-space cells 3x 3x 3
 Maximum number of reciprocal cells 3x 3x 3

    FEWALD:  cpu time      0.0018: real time      0.0018


--------------------------------------- Iteration      1(   1)  ---------------------------------------


    POTLOK:  cpu time      0.0230: real time      0.0232
    SETDIJ:  cpu time      0.0229: real time      0.0231
     EDDAV:  cpu time      1.6813: real time      1.6895
       DOS:  cpu time      0.0007: real time      0.0007
    --------------------------------------------
      LOOP:  cpu time      1.7279: real time      1.7365

 eigenvalue-minimisations  :  2016
 total energy-change (2. order) : 0.4551123E+03  (-0.7274152E+04)
 number of electron     256.0000000 magnetization 
 augmentation part      256.0000000 magnetization 

 Free energy of the ion-electron system (eV)
  ---------------------------------------------------
  alpha Z        PSCENC =       107.38120932
  Ewald energy   TEWEN  =     -7307.87480590
  -Hartree energ DENC   =      -353.25144753
  -exchange      EXHF   =         0.00000000
  -V(xc)+E(xc)   XCENC  =      -558.85370378
  PAW double counting   =      5598.62625415    -4492.17844134
  entropy T*S    EENTRO =        -0.00589891
  eigenvalues    EBANDS =       896.50211964
  atomic energy  EATOM  =      6564.76702419
  Solvation  Ediel_sol  =         0.00000000
  ---------------------------------------------------
  free energy    TOTEN  =       455.11230984 eV

  energy without entropy =      455.11820876  energy(sigma->0) =      455.11525930


--------------------------------------------------------------------------------------------------------




--------------------------------------- Iteration      1(   2)  ---------------------------------------


     EDDAV:  cpu time      1.9401: real time      1.9511
       DOS:  cpu time      0.0002: real time      0.0002
    --------------------------------------------
      LOOP:  cpu time      1.9403: real time      1.9513

 eigenvalue-minimisations  :  2424
 total energy-change (2. order) :-0.7767451E+03  (-0.7329186E+03)
 number of electron     256.0000000 magnetization 
 augmentation part      256.0000000 magnetization 

 Free energy of the ion-electron system (eV)
  ---------------------------------------------------
  alpha Z        PSCENC =       107.38120932
  Ewald energy   TEWEN  =     -7307.87480590
  -Hartree energ DENC   =      -353.25144753
  -exchange      EXHF   =         0.00000000
  -V(xc)+E(xc)   XCENC  =      -558.85370378
  PAW double counting   =      5598.62625415    -4492.17844134
  entropy T*S    EENTRO =        -0.00000000
  eigenvalues    EBANDS =       119.75112971
  atomic energy  EATOM  =      6564.76702419
  Solvation  Ediel_sol  =         0.00000000
  ---------------------------------------------------
  free energy    TOTEN  =      -321.63278118 eV

  energy without entropy =     -321.63278118  energy(sigma->0) =     -321.63278118


--------------------------------------------------------------------------------------------------------




--------------------------------------- Iteration      1(   3)  ---------------------------------------


     EDDAV:  cpu time      1.9750: real time      1.9875
       DOS:  cpu time      0.0002: real time      0.0002
    --------------------------------------------
      LOOP:  cpu time      1.9752: real time      1.9877

 eigenvalue-minimisations  :  2480
 total energy-change (2. order) :-0.5180712E+02  (-0.5100059E+02)
 number of electron     256.0000000 magnetization 
 augmentation part      256.0000000 magnetization 

 Free energy of the ion-electron system (eV)
  ---------------------------------------------------
  alpha Z        PSCENC =       107.38120932
  Ewald energy   TEWEN  =     -7307.87480590
  -Hartree energ DENC   =      -353.25144753
  -exchange      EXHF   =         0.00000000
  -V(xc)+E(xc)   XCENC  =      -558.85370378
  PAW double counting   =      5598.62625415    -4492.17844134
  entropy T*S    EENTRO =        -0.00000000
  eigenvalues    EBANDS =        67.94400891
  atomic energy  EATOM  =      6564.76702419
  Solvation  Ediel_sol  =         0.00000000
  ---------------------------------------------------
  free energy    TOTEN  =      -373.43990198 eV

  energy without entropy =     -373.43990198  energy(sigma->0) =     -373.43990198


--------------------------------------------------------------------------------------------------------




--------------------------------------- Iteration      1(   4)  ---------------------------------------


     EDDAV:  cpu time      1.9244: real time      1.9359
       DOS:  cpu time      0.0002: real time      0.0002
    --------------------------------------------
      LOOP:  cpu time      1.9245: real time      1.9361

 eigenvalue-minimisations  :  2416
 total energy-change (2. order) :-0.1161272E+01  (-0.1153150E+01)
 number of electron     256.0000000 magnetization 
 augmentation part      256.0000000 magnetization 

 Free energy of the ion-electron system (eV)
  ---------------------------------------------------
  alpha Z        PSCENC =       107.38120932
  Ewald energy   TEWEN  =     -7307.87480590
  -Hartree energ DENC   =      -353.25144753
  -exchange      EXHF   =         0.00000000
  -V(xc)+E(xc)   XCENC  =      -558.85370378
  PAW double counting   =      5598.62625415    -4492.17844134
  entropy T*S    EENTRO =        -0.00000000
  eigenvalues    EBANDS =        66.78273652
  atomic energy  EATOM  =      6564.76702419
  Solvation  Ediel_sol  =         0.00000000
  ---------------------------------------------------
  free energy    TOTEN  =      -374.60117437 eV

  energy without entropy =     -374.60117437  energy(sigma->0) =     -374.60117437


--------------------------------------------------------------------------------------------------------




--------------------------------------- Iteration      1(   5)  ---------------------------------------


     EDDAV:  cpu time      1.9098: real time      1.9213
       DOS:  cpu time      0.0002: real time      0.0002
    CHARGE:  cpu time      0.0847: real time      0.0851
    MIXING:  cpu time      0.0018: real time      0.0018
    --------------------------------------------
      LOOP:  cpu time      1.9965: real time      2.0084

 eigenvalue-minimisations  :  2376
 total energy-change (2. order) :-0.3956865E-01  (-0.3951847E-01)
 number of electron     255.9999994 magnetization 
 augmentation part      -14.9588222 magnetization 

 Broyden mixing:
  rms(total) = 0.28467E+01    rms(broyden)= 0.28467E+01
  rms(prec ) = 0.31323E+01
  weight for this iteration     100.00

 Free energy of the ion-electron system (eV)
  ---------------------------------------------------
  alpha Z        PSCENC =       107.38120932
  Ewald energy   TEWEN  =     -7307.87480590
  -Hartree energ DENC   =      -353.25144753
  -exchange      EXHF   =         0.00000000
  -V(xc)+E(xc)   XCENC  =      -558.85370378
  PAW double counting   =      5598.62625415    -4492.17844134
  entropy T*S    EENTRO =        -0.00000000
  eigenvalues    EBANDS =        66.74316787
  atomic energy  EATOM  =      6564.76702419
  Solvation  Ediel_sol  =         0.00000000
  ---------------------------------------------------
  free energy    TOTEN  =      -374.64074302 eV

  energy without entropy =     -374.64074302  energy(sigma->0) =     -374.64074302


--------------------------------------------------------------------------------------------------------




--------------------------------------- Iteration      1(   6)  ---------------------------------------


    POTLOK:  cpu time      0.0221: real time      0.0230
    SETDIJ:  cpu time      0.0221: real time      0.0223
     EDDAV:  cpu time      1.8552: real time      1.8647
       DOS:  cpu time      0.0005: real time      0.0005
    CHARGE:  cpu time      0.0838: real time      0.0841
    MIXING:  cpu time      0.0013: real time      0.0013
    --------------------------------------------
      LOOP:  cpu time      1.9850: real time      1.9959

 eigenvalue-minimisations  :  2280
 total energy-change (2. order) : 0.4919054E+01  (-0.2590376E+00)
 number of electron     255.9999994 magnetization 
 augmentation part      -14.7997113 magnetization 

 Broyden mixing:
  rms(total) = 0.17163E+01    rms(broyden)= 0.17163E+01
  rms(prec ) = 0.18754E+01
  weight for this iteration     100.00

 eigenvalues of (default mixing * dielectric matrix)
  average eigenvalue GAMMA=   2.5108
  2.5108

 Free energy of the ion-electron system (eV)
  ---------------------------------------------------
  alpha Z        PSCENC =       107.38120932
  Ewald energy   TEWEN  =     -7307.87480590
  -Hartree energ DENC   =      -399.23439022
  -exchange      EXHF   =         0.00000000
  -V(xc)+E(xc)   XCENC  =      -551.57555877
  PAW double counting   =     12483.38241602   -11380.17995600
  entropy T*S    EENTRO =        -0.00000000
  eigenvalues    EBANDS =       113.61237187
  atomic energy  EATOM  =      6564.76702419
  Solvation  Ediel_sol  =         0.00000000
  ---------------------------------------------------
  free energy    TOTEN  =      -369.72168949 eV

  energy without entropy =     -369.72168949  energy(sigma->0) =     -369.72168949


--------------------------------------------------------------------------------------------------------




--------------------------------------- Iteration      1(   7)  ---------------------------------------


    POTLOK:  cpu time      0.0216: real time      0.0218
    SETDIJ:  cpu time      0.0221: real time      0.0222
     EDDAV:  cpu time      1.8348: real time      1.8444
       DOS:  cpu time      0.0002: real time      0.0002
    CHARGE:  cpu time      0.0853: real time      0.0857
    MIXING:  cpu time      0.0013: real time      0.0013
    --------------------------------------------
      LOOP:  cpu time      1.9652: real time      1.9755

 eigenvalue-minimisations  :  2264
 total energy-change (2. order) : 0.2231394E+01  (-0.5238839E+00)
 number of electron     255.9999994 magnetization 
 augmentation part      -14.5985865 magnetization 

 Broyden mixing:
  rms(total) = 0.99589E-01    rms(broyden)= 0.99588E-01
  rms(prec ) = 0.12382E+00
  weight for this iteration     100.00

 eigenvalues of (default mixing * dielectric matrix)
  average eigenvalue GAMMA=   2.2518
  2.2518  2.2518

 Free energy of the ion-electron system (eV)
  ---------------------------------------------------
  alpha Z        PSCENC =       107.38120932
  Ewald energy   TEWEN  =     -7307.87480590
  -Hartree energ DENC   =      -473.64435748
  -exchange      EXHF   =         0.00000000
  -V(xc)+E(xc)   XCENC  =      -539.13832613
  PAW double counting   =     29120.99918544   -28022.16841417
  entropy T*S    EENTRO =        -0.00000000
  eigenvalues    EBANDS =       182.18818960
  atomic energy  EATOM  =      6564.76702419
  Solvation  Ediel_sol  =         0.00000000
  ---------------------------------------------------
  free energy    TOTEN  =      -367.49029513 eV

  energy without entropy =     -367.49029513  energy(sigma->0) =     -367.49029513


--------------------------------------------------------------------------------------------------------




--------------------------------------- Iteration      1(   8)  ---------------------------------------


    POTLOK:  cpu time      0.0212: real time      0.0214
    SETDIJ:  cpu time      0.0219: real time      0.0220
     EDDAV:  cpu time      1.8612: real time      1.8709
       DOS:  cpu time      0.0002: real time      0.0002
    CHARGE:  cpu time      0.0849: real time      0.0852
    MIXING:  cpu time      0.0019: real time      0.0019
    --------------------------------------------
      LOOP:  cpu time      1.9913: real time      2.0016

 eigenvalue-minimisations  :  2304
 total energy-change (2. order) :-0.7189612E-02  (-0.2828625E-01)
 number of electron     255.9999994 magnetization 
 augmentation part      -14.6403530 magnetization 

 Broyden mixing:
  rms(total) = 0.35173E-01    rms(broyden)= 0.35172E-01
  rms(prec ) = 0.40502E-01
  weight for this iteration     100.00

 eigenvalues of (default mixing * dielectric matrix)
  average eigenvalue GAMMA=   2.4220
  2.8021  2.2319  2.2319

 Free energy of the ion-electron system (eV)
  ---------------------------------------------------
  alpha Z        PSCENC =       107.38120932
  Ewald energy   TEWEN  =     -7307.87480590
  -Hartree energ DENC   =      -466.69001387
  -exchange      EXHF   =         0.00000000
  -V(xc)+E(xc)   XCENC  =      -539.74239085
  PAW double counting   =     28624.28596433   -27524.65475820
  entropy T*S    EENTRO =        -0.00000000
  eigenvalues    EBANDS =       175.03028625
  atomic energy  EATOM  =      6564.76702419
  Solvation  Ediel_sol  =         0.00000000
  ---------------------------------------------------
  free energy    TOTEN  =      -367.49748474 eV

  energy without entropy =     -367.49748474  energy(sigma->0) =     -367.49748474


--------------------------------------------------------------------------------------------------------




--------------------------------------- Iteration      1(   9)  ---------------------------------------


    POTLOK:  cpu time      0.0212: real time      0.0214
    SETDIJ:  cpu time      0.0221: real time      0.0222
     EDDAV:  cpu time      1.9588: real time      1.9689
       DOS:  cpu time      0.0002: real time      0.0002
    CHARGE:  cpu time      0.0853: real time      0.0856
    MIXING:  cpu time      0.0017: real time      0.0017
    --------------------------------------------
      LOOP:  cpu time      2.0893: real time      2.1001

 eigenvalue-minimisations  :  2472
 total energy-change (2. order) :-0.1466669E-02  (-0.7232159E-03)
 number of electron     255.9999994 magnetization 
 augmentation part      -14.6409540 magnetization 

 Broyden mixing:
  rms(total) = 0.30924E-01    rms(broyden)= 0.30924E-01
  rms(prec ) = 0.32039E-01
  weight for this iteration     100.00

 eigenvalues of (default mixing * dielectric matrix)
  average eigenvalue GAMMA=   2.3599
  3.8120  2.3878  2.3878  0.8520

 Free energy of the ion-electron system (eV)
  ---------------------------------------------------
  alpha Z        PSCENC =       107.38120932
  Ewald energy   TEWEN  =     -7307.87480590
  -Hartree energ DENC   =      -468.63947424
  -exchange      EXHF   =         0.00000000
  -V(xc)+E(xc)   XCENC  =      -539.41513396
  PAW double counting   =     28766.97595478   -27667.44940592
  entropy T*S    EENTRO =        -0.00000000
  eigenvalues    EBANDS =       176.75568033
  atomic energy  EATOM  =      6564.76702419
  Solvation  Ediel_sol  =         0.00000000
  ---------------------------------------------------
  free energy    TOTEN  =      -367.49895141 eV

  energy without entropy =     -367.49895141  energy(sigma->0) =     -367.49895141


--------------------------------------------------------------------------------------------------------




--------------------------------------- Iteration      1(  10)  ---------------------------------------


    POTLOK:  cpu time      0.0212: real time      0.0214
    SETDIJ:  cpu time      0.0219: real time      0.0220
     EDDAV:  cpu time      1.8127: real time      1.8223
       DOS:  cpu time      0.0002: real time      0.0002
    CHARGE:  cpu time      0.0843: real time      0.0846
    MIXING:  cpu time      0.0018: real time      0.0018
    --------------------------------------------
      LOOP:  cpu time      1.9421: real time      1.9523

 eigenvalue-minimisations  :  2240
 total energy-change (2. order) :-0.8616738E-03  (-0.2090781E-03)
 number of electron     255.9999994 magnetization 
 augmentation part      -14.6429476 magnetization 

 Broyden mixing:
  rms(total) = 0.22678E-01    rms(broyden)= 0.22678E-01
  rms(prec ) = 0.22796E-01
  weight for this iteration     100.00

 eigenvalues of (default mixing * dielectric matrix)
  average eigenvalue GAMMA=   1.8662
  2.8561  2.2474  2.2474  0.9901  0.9901

 Free energy of the ion-electron system (eV)
  ---------------------------------------------------
  alpha Z        PSCENC =       107.38120932
  Ewald energy   TEWEN  =     -7307.87480590
  -Hartree energ DENC   =      -468.87621827
  -exchange      EXHF   =         0.00000000
  -V(xc)+E(xc)   XCENC  =      -539.34088217
  PAW double counting   =     28255.63985269   -27156.08177675
  entropy T*S    EENTRO =        -0.00000000
  eigenvalues    EBANDS =       176.88578381
  atomic energy  EATOM  =      6564.76702419
  Solvation  Ediel_sol  =         0.00000000
  ---------------------------------------------------
  free energy    TOTEN  =      -367.49981308 eV

  energy without entropy =     -367.49981308  energy(sigma->0) =     -367.49981308


--------------------------------------------------------------------------------------------------------




--------------------------------------- Iteration      1(  11)  ---------------------------------------


    POTLOK:  cpu time      0.0215: real time      0.0217
    SETDIJ:  cpu time      0.0221: real time      0.0222
     EDDAV:  cpu time      1.8715: real time      1.8813
       DOS:  cpu time      0.0002: real time      0.0002
    CHARGE:  cpu time      0.0838: real time      0.0841
    MIXING:  cpu time      0.0026: real time      0.0026
    --------------------------------------------
      LOOP:  cpu time      2.0016: real time      2.0121

 eigenvalue-minimisations  :  2312
 total energy-change (2. order) :-0.3654475E-04  (-0.8754769E-05)
 number of electron     255.9999994 magnetization 
 augmentation part      -14.6438060 magnetization 

 Broyden mixing:
  rms(total) = 0.93038E-03    rms(broyden)= 0.93037E-03
  rms(prec ) = 0.10243E-02
  weight for this iteration     100.00

 eigenvalues of (default mixing * dielectric matrix)
  average eigenvalue GAMMA=   1.7410
  2.8910  2.2563  2.2563  1.1490  1.1490  0.7445

 Free energy of the ion-electron system (eV)
  ---------------------------------------------------
  alpha Z        PSCENC =       107.38120932
  Ewald energy   TEWEN  =     -7307.87480590
  -Hartree energ DENC   =      -468.75105584
  -exchange      EXHF   =         0.00000000
  -V(xc)+E(xc)   XCENC  =      -539.35273309
  PAW double counting   =     28480.57899241   -27381.00912021
  entropy T*S    EENTRO =        -0.00000000
  eigenvalues    EBANDS =       176.76063949
  atomic energy  EATOM  =      6564.76702419
  Solvation  Ediel_sol  =         0.00000000
  ---------------------------------------------------
  free energy    TOTEN  =      -367.49984963 eV

  energy without entropy =     -367.49984963  energy(sigma->0) =     -367.49984963


--------------------------------------------------------------------------------------------------------




--------------------------------------- Iteration      1(  12)  ---------------------------------------


    POTLOK:  cpu time      0.0214: real time      0.0215
    SETDIJ:  cpu time      0.0221: real time      0.0222
     EDDAV:  cpu time      1.9353: real time      1.9456
       DOS:  cpu time      0.0002: real time      0.0002
    CHARGE:  cpu time      0.0841: real time      0.0845
    MIXING:  cpu time      0.0029: real time      0.0029
    --------------------------------------------
      LOOP:  cpu time      2.0660: real time      2.0770

 eigenvalue-minimisations  :  2424
 total energy-change (2. order) :-0.2391715E-05  (-0.3428048E-06)
 number of electron     255.9999994 magnetization 
 augmentation part      -14.6437021 magnetization 

 Broyden mixing:
  rms(total) = 0.78569E-03    rms(broyden)= 0.78569E-03
  rms(prec ) = 0.81706E-03
  weight for this iteration     100.00

 eigenvalues of (default mixing * dielectric matrix)
  average eigenvalue GAMMA=   1.8494
  2.9946  2.4981  2.4981  2.1778  0.9932  0.8918  0.8918

 Free energy of the ion-electron system (eV)
  ---------------------------------------------------
  alpha Z        PSCENC =       107.38120932
  Ewald energy   TEWEN  =     -7307.87480590
  -Hartree energ DENC   =      -468.78266642
  -exchange      EXHF   =         0.00000000
  -V(xc)+E(xc)   XCENC  =      -539.35103831
  PAW double counting   =     28481.16910403   -27381.59851951
  entropy T*S    EENTRO =        -0.00000000
  eigenvalues    EBANDS =       176.78984058
  atomic energy  EATOM  =      6564.76702419
  Solvation  Ediel_sol  =         0.00000000
  ---------------------------------------------------
  free energy    TOTEN  =      -367.49985202 eV

  energy without entropy =     -367.49985202  energy(sigma->0) =     -367.49985202


--------------------------------------------------------------------------------------------------------




--------------------------------------- Iteration      1(  13)  ---------------------------------------


    POTLOK:  cpu time      0.0218: real time      0.0220
    SETDIJ:  cpu time      0.0216: real time      0.0220
     EDDAV:  cpu time      1.8264: real time      1.8357
       DOS:  cpu time      0.0002: real time      0.0002
    CHARGE:  cpu time      0.0852: real time      0.0855
    MIXING:  cpu time      0.0021: real time      0.0021
    --------------------------------------------
      LOOP:  cpu time      1.9574: real time      1.9675

 eigenvalue-minimisations  :  2256
 total energy-change (2. order) : 0.9069290E-06  (-0.8158119E-07)
 number of electron     255.9999994 magnetization 
 augmentation part      -14.6436585 magnetization 

 Broyden mixing:
  rms(total) = 0.21776E-03    rms(broyden)= 0.21776E-03
  rms(prec ) = 0.22493E-03
  weight for this iteration     100.00

 eigenvalues of (default mixing * dielectric matrix)
  average eigenvalue GAMMA=   1.7760
  3.0686  2.6358  2.3289  2.2394  0.9606  0.9606  1.0071  1.0071

 Free energy of the ion-electron system (eV)
  ---------------------------------------------------
  alpha Z        PSCENC =       107.38120932
  Ewald energy   TEWEN  =     -7307.87480590
  -Hartree energ DENC   =      -468.78728963
  -exchange      EXHF   =         0.00000000
  -V(xc)+E(xc)   XCENC  =      -539.35319132
  PAW double counting   =     28476.74175912   -27377.16876959
  entropy T*S    EENTRO =        -0.00000000
  eigenvalues    EBANDS =       176.79421269
  atomic energy  EATOM  =      6564.76702419
  Solvation  Ediel_sol  =         0.00000000
  ---------------------------------------------------
  free energy    TOTEN  =      -367.49985111 eV

  energy without entropy =     -367.49985111  energy(sigma->0) =     -367.49985111


--------------------------------------------------------------------------------------------------------




--------------------------------------- Iteration      1(  14)  ---------------------------------------


    POTLOK:  cpu time      0.0214: real time      0.0216
    SETDIJ:  cpu time      0.0221: real time      0.0221
     EDDAV:  cpu time      1.7321: real time      1.7428
       DOS:  cpu time      0.0002: real time      0.0002
    CHARGE:  cpu time      0.0831: real time      0.0835
    MIXING:  cpu time      0.0033: real time      0.0033
    --------------------------------------------
      LOOP:  cpu time      1.8622: real time      1.8736

 eigenvalue-minimisations  :  2072
 total energy-change (2. order) : 0.2238985E-06  (-0.3781492E-08)
 number of electron     255.9999994 magnetization 
 augmentation part      -14.6436495 magnetization 

 Broyden mixing:
  rms(total) = 0.48436E-04    rms(broyden)= 0.48429E-04
  rms(prec ) = 0.51142E-04
  weight for this iteration     100.00

 eigenvalues of (default mixing * dielectric matrix)
  average eigenvalue GAMMA=   1.7534
  3.0738  2.5602  2.4151  2.1992  1.4548  1.2942  0.9720  0.9058  0.9058

 Free energy of the ion-electron system (eV)
  ---------------------------------------------------
  alpha Z        PSCENC =       107.38120932
  Ewald energy   TEWEN  =     -7307.87480590
  -Hartree energ DENC   =      -468.78714332
  -exchange      EXHF   =         0.00000000
  -V(xc)+E(xc)   XCENC  =      -539.35373942
  PAW double counting   =     28474.99901082   -27375.42571499
  entropy T*S    EENTRO =        -0.00000000
  eigenvalues    EBANDS =       176.79430841
  atomic energy  EATOM  =      6564.76702419
  Solvation  Ediel_sol  =         0.00000000
  ---------------------------------------------------
  free energy    TOTEN  =      -367.49985089 eV

  energy without entropy =     -367.49985089  energy(sigma->0) =     -367.49985089


--------------------------------------------------------------------------------------------------------




--------------------------------------- Iteration      1(  15)  ---------------------------------------


    POTLOK:  cpu time      0.0215: real time      0.0217
    SETDIJ:  cpu time      0.0219: real time      0.0220
     EDDAV:  cpu time      1.2886: real time      1.2956
       DOS:  cpu time      0.0002: real time      0.0002
    --------------------------------------------
      LOOP:  cpu time      1.3322: real time      1.3396

 eigenvalue-minimisations  :  1352
 total energy-change (2. order) : 0.9893483E-08  (-0.8301732E-09)
 number of electron     255.9999994 magnetization 
 augmentation part      -14.6436495 magnetization 

 Free energy of the ion-electron system (eV)
  ---------------------------------------------------
  alpha Z        PSCENC =       107.38120932
  Ewald energy   TEWEN  =     -7307.87480590
  -Hartree energ DENC   =      -468.78666466
  -exchange      EXHF   =         0.00000000
  -V(xc)+E(xc)   XCENC  =      -539.35378678
  PAW double counting   =     28474.93385305   -27375.36059818
  entropy T*S    EENTRO =        -0.00000000
  eigenvalues    EBANDS =       176.79391809
  atomic energy  EATOM  =      6564.76702419
  Solvation  Ediel_sol  =         0.00000000
  ---------------------------------------------------
  free energy    TOTEN  =      -367.49985088 eV

  energy without entropy =     -367.49985088  energy(sigma->0) =     -367.49985088


--------------------------------------------------------------------------------------------------------




 average (electrostatic) potential at core
  the test charge radii are     0.9892
  (the norm of the test charge is              1.0000)
       1 -83.0574       2 -83.0574       3 -83.0572       4 -83.0572       5 -83.0572
       6 -83.0572       7 -83.0574       8 -83.0574       9 -83.0615      10 -83.0549
      11 -83.0531      12 -83.0597      13 -83.0549      14 -83.0579      15 -83.0597
      16 -83.0567      17 -83.0574      18 -83.0572      19 -83.0572      20 -83.0574
      21 -83.0574      22 -83.0572      23 -83.0572      24 -83.0574      25 -83.0575
      26 -83.0571      27 -83.0575      28 -83.0571      29 -83.0571      30 -83.0575
      31 -83.0571      32 -83.0575      33 -83.0573      34 -83.0567      35 -83.0569
      36 -83.0578      37 -83.0569      38 -83.0573      39 -83.0599      40 -83.0569
      41 -83.0573      42 -83.0572      43 -83.0558      44 -83.0578      45 -83.0568
      46 -83.0579      47 -83.0588      48 -83.0569      49 -83.0578      50 -83.0578
      51 -83.0578      52 -83.0558      53 -83.0578      54 -83.0568      55 -83.0558
      56 -83.0576      57 -83.0572      58 -83.0579      59 -83.0578      60 -83.0569
      61 -83.0573      62 -83.0568      63 -83.0558      64 -83.0588
 
 
 
 E-fermi :   5.8943     XC(G=0):  -9.5445     alpha+bet :-11.9543

 Fermi energy:         5.8943148729

 k-point     1 :       0.0000    0.0000    0.0000
  band No.  band energies     occupation 
      1      -6.2055      2.00000
      2      -5.1238      2.00000
      3      -5.1225      2.00000
      4      -5.1217      2.00000
      5      -5.1208      2.00000
      6      -5.1207      2.00000
      7      -5.1182      2.00000
      8      -4.1596      2.00000
      9      -4.1582      2.00000
     10      -4.1564      2.00000
     11      -4.1563      2.00000
     12      -4.1552      2.00000
     13      -4.1551      2.00000
     14      -4.1550      2.00000
     15      -4.1548      2.00000
     16      -4.1547      2.00000
     17      -4.1534      2.00000
     18      -4.1532      2.00000
     19      -4.1485      2.00000
     20      -3.8625      2.00000
     21      -3.8606      2.00000
     22      -3.8606      2.00000
     23      -3.8588      2.00000
     24      -2.0542      2.00000
     25      -2.0542      2.00000
     26      -2.0520      2.00000
     27      -2.0519      2.00000
     28      -2.0498      2.00000
     29      -2.0497      2.00000
     30      -1.8866      2.00000
     31      -1.8860      2.00000
     32      -1.8857      2.00000
     33      -1.8837      2.00000
     34      -1.8830      2.00000
     35      -1.8828      2.00000
     36      -1.8827      2.00000
     37      -1.8825      2.00000
     38      -1.8823      2.00000
     39      -1.8811      2.00000
     40      -1.8782      2.00000
     41      -1.8776      2.00000
     42      -1.2366      2.00000
     43      -1.2347      2.00000
     44      -1.2347      2.00000
     45      -1.2328      2.00000
     46       0.2779      2.00000
     47       0.2791      2.00000
     48       0.2798      2.00000
     49       0.2813      2.00000
     50       0.2817      2.00000
     51       0.2818      2.00000
     52       0.2820      2.00000
     53       0.2820      2.00000
     54       0.2823      2.00000
     55       0.2846      2.00000
     56       0.2853      2.00000
     57       0.2856      2.00000
     58       1.8685      2.00000
     59       1.8695      2.00000
     60       1.8702      2.00000
     61       1.8704      2.00000
     62       1.8707      2.00000
     63       1.8710      2.00000
     64       1.8712      2.00000
     65       1.8714      2.00000
     66       1.8719      2.00000
     67       1.8720      2.00000
     68       1.8722      2.00000
     69       1.8750      2.00000
     70       1.9711      2.00000
     71       1.9711      2.00000
     72       1.9723      2.00000
     73       1.9723      2.00000
     74       1.9727      2.00000
     75       1.9731      2.00000
     76       1.9733      2.00000
     77       1.9737      2.00000
     78       1.9739      2.00000
     79       1.9751      2.00000
     80       1.9752      2.00000
     81       1.9761      2.00000
     82       2.2487      2.00000
     83       2.2498      2.00000
     84       2.2513      2.00000
     85       2.2519      2.00000
     86       2.2528      2.00000
     87       2.2542      2.00000
     88       2.9005      2.00000
     89       2.9016      2.00000
     90       2.9017      2.00000
     91       2.9017      2.00000
     92       2.9019      2.00000
     93       2.9030      2.00000
     94       3.8629      2.00000
     95       3.8634      2.00000
     96       3.8659      2.00000
     97       3.8662      2.00000
     98       3.8666      2.00000
     99       3.8666      2.00000
    100       3.8667      2.00000
    101       3.8668      2.00000
    102       3.8672      2.00000
    103       3.8675      2.00000
    104       3.8699      2.00000
    105       3.8704      2.00000
    106       4.4325      2.00000
    107       4.4344      2.00000
    108       4.4353      2.00000
    109       4.4363      2.00000
    110       4.4364      2.00000
    111       4.4368      2.00000
    112       4.4372      2.00000
    113       4.4373      2.00000
    114       4.4377      2.00000
    115       4.4389      2.00000
    116       4.4401      2.00000
    117       4.4410      2.00000
    118       4.5670      2.00000
    119       4.5675      2.00000
    120       4.5690      2.00000
    121       4.5697      2.00000
    122       4.5700      2.00000
    123       4.5707      2.00000
    124       4.5722      2.00000
    125       4.5729      2.00000
    126       5.7698      2.00000
    127       5.7720      2.00000
    128       5.7741      2.00000
    129       6.3634      0.00000
    130       6.3654      0.00000
    131       6.3657      0.00000
    132       6.3658      0.00000
    133       6.3662      0.00000
    134       6.3681      0.00000
    135       6.8061      0.00000
    136       6.8065      0.00000
    137       6.8076      0.00000
    138       6.8082      0.00000
    139       6.8097      0.00000
    140       6.8104      0.00000
    141       7.2316      0.00000
    142       7.2320      0.00000
    143       7.2320      0.00000
    144       7.2324      0.00000
    145       8.1350      0.00000
    146       8.1354      0.00000
    147       8.1358      0.00000
    148       8.1361      0.00000
    149       8.1378      0.00000
    150       8.1378      0.00000
    151       8.1380      0.00000
    152       8.1383      0.00000
    153       8.1387      0.00000
    154       8.1400      0.00000
    155       8.1407      0.00000
    156       8.1415      0.00000
    157       8.2877      0.00000
    158       8.2889      0.00000
    159       8.2902      0.00000
    160       8.7963      0.00000
    161       8.7975      0.00000
    162       8.7979      0.00000
    163       8.7980      0.00000
    164       8.7984      0.00000
    165       8.7996      0.00000
    166       9.0490      0.00000
    167       9.0499      0.00000
    168       9.0528      0.00000

 k-point     2 :       0.5000    0.0000    0.0000
  band No.  band energies     occupation 
      1      -5.9327      2.00000
      2      -5.9314      2.00000
      3      -4.8758      2.00000
      4      -4.8748      2.00000
      5      -4.8742      2.00000
      6      -4.8732      2.00000
      7      -4.8726      2.00000
      8      -4.8720      2.00000
      9      -4.8711      2.00000
     10      -4.8682      2.00000
     11      -4.0250      2.00000
     12      -4.0246      2.00000
     13      -4.0237      2.00000
     14      -4.0229      2.00000
     15      -4.0227      2.00000
     16      -4.0225      2.00000
     17      -4.0214      2.00000
     18      -4.0188      2.00000
     19      -3.8068      2.00000
     20      -3.8045      2.00000
     21      -3.0794      2.00000
     22      -3.0787      2.00000
     23      -3.0776      2.00000
     24      -3.0769      2.00000
     25      -3.0761      2.00000
     26      -3.0759      2.00000
     27      -3.0745      2.00000
     28      -3.0719      2.00000
     29      -1.9740      2.00000
     30      -1.9736      2.00000
     31      -1.9717      2.00000
     32      -1.9717      2.00000
     33      -1.9715      2.00000
     34      -1.9713      2.00000
     35      -1.9705      2.00000
     36      -1.9675      2.00000
     37      -0.8054      2.00000
     38      -0.8049      2.00000
     39      -0.8043      2.00000
     40      -0.8036      2.00000
     41      -0.8027      2.00000
     42      -0.8018      2.00000
     43      -0.8013      2.00000
     44      -0.8001      2.00000
     45      -0.6374      2.00000
     46      -0.6355      2.00000
     47      -0.6346      2.00000
     48      -0.6343      2.00000
     49      -0.6340      2.00000
     50      -0.6331      2.00000
     51      -0.6317      2.00000
     52      -0.6311      2.00000
     53       0.0225      2.00000
     54       0.0240      2.00000
     55       1.4704      2.00000
     56       1.4717      2.00000
     57       1.4734      2.00000
     58       1.4741      2.00000
     59       1.4747      2.00000
     60       1.4753      2.00000
     61       1.4756      2.00000
     62       1.4779      2.00000
     63       1.4915      2.00000
     64       1.4917      2.00000
     65       1.4926      2.00000
     66       1.4932      2.00000
     67       1.4935      2.00000
     68       1.4940      2.00000
     69       1.4946      2.00000
     70       1.4967      2.00000
     71       2.3169      2.00000
     72       2.3170      2.00000
     73       2.3176      2.00000
     74       2.3177      2.00000
     75       2.3181      2.00000
     76       2.3185      2.00000
     77       2.3191      2.00000
     78       2.3194      2.00000
     79       3.0220      2.00000
     80       3.0240      2.00000
     81       3.0244      2.00000
     82       3.0246      2.00000
     83       3.0247      2.00000
     84       3.0254      2.00000
     85       3.0256      2.00000
     86       3.0276      2.00000
     87       3.1464      2.00000
     88       3.1477      2.00000
     89       3.1484      2.00000
     90       3.1494      2.00000
     91       3.1573      2.00000
     92       3.1580      2.00000
     93       3.1583      2.00000
     94       3.1587      2.00000
     95       3.1591      2.00000
     96       3.1598      2.00000
     97       3.1608      2.00000
     98       3.1620      2.00000
     99       3.2835      2.00000
    100       3.2845      2.00000
    101       3.2850      2.00000
    102       3.2854      2.00000
    103       3.2859      2.00000
    104       3.2864      2.00000
    105       3.2872      2.00000
    106       3.2883      2.00000
    107       4.3291      2.00000
    108       4.3311      2.00000
    109       4.3313      2.00000
    110       4.3316      2.00000
    111       4.3320      2.00000
    112       4.3325      2.00000
    113       4.3326      2.00000
    114       4.3343      2.00000
    115       4.4329      2.00000
    116       4.4330      2.00000
    117       4.4966      2.00000
    118       4.4999      2.00000
    119       4.5002      2.00000
    120       4.5008      2.00000
    121       4.5009      2.00000
    122       4.5014      2.00000
    123       4.5021      2.00000
    124       4.5055      2.00000
    125       4.9528      2.00000
    126       4.9547      2.00000
    127       4.9557      2.00000
    128       4.9577      2.00000
    129       6.2790      0.00000
    130       6.2804      0.00000
    131       7.1933      0.00000
    132       7.1946      0.00000
    133       7.6431      0.00000
    134       7.6444      0.00000
    135       7.6449      0.00000
    136       7.6461      0.00000
    137       7.6463      0.00000
    138       7.6467      0.00000
    139       7.6468      0.00000
    140       7.6483      0.00000
    141       7.7138      0.00000
    142       7.7144      0.00000
    143       8.0572      0.00000
    144       8.0590      0.00000
    145       8.0593      0.00000
    146       8.0596      0.00000
    147       8.0597      0.00000
    148       8.0602      0.00000
    149       8.0603      0.00000
    150       8.0623      0.00000
    151       8.1435      0.00000
    152       8.1448      0.00000
    153       8.1452      0.00000
    154       8.1453      0.00000
    155       8.1460      0.00000
    156       8.1463      0.00000
    157       8.1464      0.00000
    158       8.1478      0.00000
    159       8.5504      0.00000
    160       8.5514      0.00000
    161       8.5517      0.00000
    162       8.5520      0.00000
    163       8.5535      0.00000
    164       8.5539      0.00000
    165       8.5542      0.00000
    166       8.5554      0.00000
    167       9.3199      0.00000
    168       9.3245      0.00000

 k-point     3 :      -0.0000    0.5000    0.0000
  band No.  band energies     occupation 
      1      -5.9320      2.00000
      2      -5.9320      2.00000
      3      -4.8778      2.00000
      4      -4.8743      2.00000
      5      -4.8735      2.00000
      6      -4.8729      2.00000
      7      -4.8726      2.00000
      8      -4.8720      2.00000
      9      -4.8712      2.00000
     10      -4.8677      2.00000
     11      -4.0267      2.00000
     12      -4.0230      2.00000
     13      -4.0227      2.00000
     14      -4.0227      2.00000
     15      -4.0227      2.00000
     16      -4.0227      2.00000
     17      -4.0224      2.00000
     18      -4.0187      2.00000
     19      -3.8057      2.00000
     20      -3.8057      2.00000
     21      -3.0796      2.00000
     22      -3.0781      2.00000
     23      -3.0778      2.00000
     24      -3.0767      2.00000
     25      -3.0761      2.00000
     26      -3.0750      2.00000
     27      -3.0747      2.00000
     28      -3.0732      2.00000
     29      -1.9758      2.00000
     30      -1.9718      2.00000
     31      -1.9715      2.00000
     32      -1.9715      2.00000
     33      -1.9715      2.00000
     34      -1.9714      2.00000
     35      -1.9711      2.00000
     36      -1.9672      2.00000
     37      -0.8062      2.00000
     38      -0.8059      2.00000
     39      -0.8044      2.00000
     40      -0.8032      2.00000
     41      -0.8028      2.00000
     42      -0.8016      2.00000
     43      -0.8002      2.00000
     44      -0.7999      2.00000
     45      -0.6374      2.00000
     46      -0.6350      2.00000
     47      -0.6340      2.00000
     48      -0.6340      2.00000
     49      -0.6340      2.00000
     50      -0.6340      2.00000
     51      -0.6329      2.00000
     52      -0.6304      2.00000
     53       0.0232      2.00000
     54       0.0232      2.00000
     55       1.4719      2.00000
     56       1.4720      2.00000
     57       1.4731      2.00000
     58       1.4740      2.00000
     59       1.4745      2.00000
     60       1.4751      2.00000
     61       1.4763      2.00000
     62       1.4764      2.00000
     63       1.4910      2.00000
     64       1.4926      2.00000
     65       1.4931      2.00000
     66       1.4934      2.00000
     67       1.4936      2.00000
     68       1.4936      2.00000
     69       1.4941      2.00000
     70       1.4960      2.00000
     71       2.3165      2.00000
     72       2.3168      2.00000
     73       2.3177      2.00000
     74       2.3179      2.00000
     75       2.3182      2.00000
     76       2.3184      2.00000
     77       2.3193      2.00000
     78       2.3196      2.00000
     79       3.0239      2.00000
     80       3.0240      2.00000
     81       3.0244      2.00000
     82       3.0245      2.00000
     83       3.0251      2.00000
     84       3.0252      2.00000
     85       3.0256      2.00000
     86       3.0257      2.00000
     87       3.1480      2.00000
     88       3.1480      2.00000
     89       3.1481      2.00000
     90       3.1481      2.00000
     91       3.1571      2.00000
     92       3.1576      2.00000
     93       3.1581      2.00000
     94       3.1591      2.00000
     95       3.1593      2.00000
     96       3.1603      2.00000
     97       3.1609      2.00000
     98       3.1613      2.00000
     99       3.2826      2.00000
    100       3.2845      2.00000
    101       3.2857      2.00000
    102       3.2857      2.00000
    103       3.2858      2.00000
    104       3.2858      2.00000
    105       3.2870      2.00000
    106       3.2890      2.00000
    107       4.3281      2.00000
    108       4.3286      2.00000
    109       4.3312      2.00000
    110       4.3314      2.00000
    111       4.3322      2.00000
    112       4.3325      2.00000
    113       4.3350      2.00000
    114       4.3354      2.00000
    115       4.4330      2.00000
    116       4.4331      2.00000
    117       4.4986      2.00000
    118       4.5008      2.00000
    119       4.5009      2.00000
    120       4.5009      2.00000
    121       4.5009      2.00000
    122       4.5009      2.00000
    123       4.5012      2.00000
    124       4.5032      2.00000
    125       4.9552      2.00000
    126       4.9552      2.00000
    127       4.9552      2.00000
    128       4.9553      2.00000
[...]
         0         1         2         3         4         5         6         7         8         9
 total charge-density along one line
 
 pseudopotential strength for first ion, spin component:           1
 18.404  25.676   0.000   0.000   0.000   0.000   0.000   0.000
 25.676  35.825   0.000   0.000   0.000   0.000   0.000   0.001
  0.000   0.000   4.177   0.000  -0.000   7.782   0.000  -0.000
  0.000   0.000   0.000   4.177  -0.000   0.000   7.782  -0.000
  0.000   0.000  -0.000  -0.000   4.177  -0.000  -0.000   7.782
  0.000   0.000   7.782   0.000  -0.000  14.509   0.000  -0.000
  0.000   0.000   0.000   7.782  -0.000   0.000  14.509  -0.000
  0.000   0.001  -0.000  -0.000   7.782  -0.000  -0.000  14.509
 total augmentation occupancy for first ion, spin component:           1
  5.947  -2.288   0.000   0.000   0.019  -0.000  -0.000  -0.006
 -2.288   0.989  -0.000   0.000  -0.009   0.000   0.000   0.003
  0.000  -0.000   3.000   0.022  -0.000  -0.681  -0.006   0.000
  0.000   0.000   0.022   3.001   0.000  -0.006  -0.681  -0.000
  0.019  -0.009  -0.000   0.000   3.000   0.000  -0.000  -0.681
 -0.000   0.000  -0.681  -0.006   0.000   0.164   0.002  -0.000
 -0.000   0.000  -0.006  -0.681  -0.000   0.002   0.164   0.000
 -0.006   0.003   0.000  -0.000  -0.681  -0.000   0.000   0.164


------------------------ aborting loop because EDIFF is reached ----------------------------------------


    CHARGE:  cpu time      0.0827: real time      0.0830
    FORLOC:  cpu time      0.0102: real time      0.0102
    FORNL :  cpu time      0.8271: real time      0.8305
    STRESS:  cpu time      1.6855: real time      1.6933
    FORCOR:  cpu time      0.0299: real time      0.0300
    FORHAR:  cpu time      0.0115: real time      0.0115
    MIXING:  cpu time      0.0009: real time      0.0009
    OFIELD:  cpu time      0.0000: real time      0.0000

  FORCE on cell =-STRESS in cart. coord.  units (eV):
  Direction    XX          YY          ZZ          XY          YZ          ZX
  --------------------------------------------------------------------------------------
  Alpha Z   107.38121   107.38121   107.38121
  Ewald   -2435.97668 -2435.96733 -2435.97668    -0.78458     0.78458     0.00066
  Hartree   156.26149   156.26338   156.26149    -0.08694     0.08694     0.00025
  E(xc)    -817.39782  -817.39795  -817.39782     0.01015    -0.01015     0.00000
  Local    -931.45715  -931.46791  -931.45715     0.81826    -0.81826    -0.00091
  n-local  2483.30720  2483.02636  2482.74160    -0.16214     0.16339    -0.00000
  augment  -368.16898  -368.16908  -368.16898     0.00718    -0.00718    -0.00000
  Kinetic  1807.67144  1806.30834  1804.94609     0.10011    -0.09972     0.00003
  Fock        0.00000     0.00000     0.00000     0.00000     0.00000     0.00000
  -------------------------------------------------------------------------------------
  Total      -0.02477    -0.02298    -0.02477    -0.09879     0.09879     0.00003
  in kB      -0.03090    -0.02867    -0.03090    -0.12327     0.12327     0.00003
  external pressure =       -0.03 kB  Pullay stress =        0.00 kB


 VOLUME and BASIS-vectors are now :
 -----------------------------------------------------------------------------
  energy-cutoff  :      318.00
  volume of cell :     1284.06
      direct lattice vectors                 reciprocal lattice vectors
    10.869145120 -0.000000000 -0.000000000     0.092003556  0.000000000 -0.000000000
    -0.000000000 10.869145120  0.000000000     0.000000000  0.092003556 -0.000000000
     0.000000000  0.000000000 10.869145120     0.000000000 -0.000000000  0.092003556

  length of vectors
    10.869145120 10.869145120 10.869145120     0.092003556  0.092003556  0.092003556


 FORCES acting on ions
    electron-ion (+dipol)            ewald-force                    non-local-force                 convergence-correction
 -----------------------------------------------------------------------------------------------
   0.576E+00 -.164E-02 0.297E-01   -.530E+00 -.118E-13 -.294E-01   -.181E+00 0.712E-03 -.220E-02   0.956E-05 -.117E-04 -.366E-05
   -.117E+00 0.166E-02 0.301E-01   0.118E+00 -.102E-13 -.297E-01   0.706E-03 -.707E-03 -.223E-02   -.331E-05 -.105E-04 0.556E-05
   0.269E-01 -.515E-03 0.673E-03   -.241E-01 -.355E-14 -.980E-03   -.166E-02 0.431E-03 -.146E-04   0.120E-04 0.854E-05 -.596E-05
   -.223E-01 0.505E-03 0.666E-03   0.200E-01 -.355E-14 -.980E-03   0.177E-02 -.442E-03 -.125E-04   -.913E-05 0.155E-04 0.107E-05
   -.353E-01 -.171E-02 0.299E-01   0.373E-01 -.622E-14 -.296E-01   0.344E-03 0.769E-03 -.224E-02   0.237E-05 -.164E-04 -.718E-06
   0.399E-01 0.172E-02 0.299E-01   -.414E-01 -.622E-14 -.296E-01   -.220E-03 -.746E-03 -.223E-02   -.948E-05 -.154E-04 -.242E-05
   -.859E-02 -.512E-03 0.588E-03   -.337E-02 -.622E-14 -.911E-03   0.744E-02 0.425E-03 -.680E-05   -.136E-04 0.117E-04 0.235E-05
   -.942E-03 0.499E-03 0.595E-03   0.285E-02 -.142E-13 -.911E-03   -.109E-02 -.438E-03 -.770E-05   0.706E-05 0.174E-04 -.310E-05
   0.315E-01 -.991E-02 -.315E-01   -.368E-01 0.212E-03 0.368E-01   0.127E-03 0.116E-01 -.127E-03   0.114E-05 0.157E-04 -.114E-05
   -.154E-01 0.480E-02 -.264E-01   0.208E-01 0.744E-04 0.367E-01   -.631E-02 -.575E-02 -.591E-02   -.629E-05 0.102E-04 -.689E-05
   0.218E-01 -.940E-02 -.218E-01   -.368E-01 -.212E-03 0.368E-01   0.117E-01 0.115E-01 -.117E-01   -.165E-05 -.401E-05 0.165E-05
   -.251E-01 0.502E-02 -.266E-01   0.208E-01 -.744E-04 0.367E-01   0.524E-02 -.581E-02 -.593E-02   -.281E-06 -.150E-04 -.838E-06
   0.264E-01 0.480E-02 0.154E-01   -.367E-01 0.744E-04 -.208E-01   0.591E-02 -.575E-02 0.631E-02   0.689E-05 0.102E-04 0.629E-05
   -.202E-01 -.103E-03 0.202E-01   0.206E-01 -.637E-04 -.206E-01   -.574E-03 0.143E-06 0.574E-03   -.323E-05 0.134E-04 0.323E-05
   0.266E-01 0.502E-02 0.251E-01   -.367E-01 -.744E-04 -.208E-01   0.593E-02 -.581E-02 -.524E-02   0.838E-06 -.150E-04 0.281E-06
   -.200E-01 -.218E-03 0.200E-01   0.206E-01 0.637E-04 -.206E-01   -.572E-03 0.151E-04 0.572E-03   -.286E-05 -.156E-04 0.286E-05
   -.297E-01 -.164E-02 -.576E+00   0.294E-01 -.311E-14 0.530E+00   0.220E-02 0.712E-03 0.181E+00   0.366E-05 -.117E-04 -.956E-05
   -.299E-01 -.171E-02 0.353E-01   0.296E-01 0.000E+00 -.373E-01   0.224E-02 0.769E-03 -.344E-03   0.718E-06 -.164E-04 -.237E-05
   -.673E-03 -.515E-03 -.269E-01   0.980E-03 -.577E-14 0.241E-01   0.146E-04 0.431E-03 0.166E-02   0.596E-05 0.854E-05 -.120E-04
   -.588E-03 -.512E-03 0.859E-02   0.911E-03 -.355E-14 0.337E-02   0.680E-05 0.425E-03 -.744E-02   -.235E-05 0.117E-04 0.136E-04
   -.301E-01 0.166E-02 0.117E+00   0.297E-01 -.755E-14 -.118E+00   0.223E-02 -.707E-03 -.706E-03   -.556E-05 -.105E-04 0.331E-05
   -.299E-01 0.172E-02 -.399E-01   0.296E-01 -.400E-14 0.414E-01   0.223E-02 -.746E-03 0.220E-03   0.242E-05 -.154E-04 0.948E-05
   -.666E-03 0.505E-03 0.223E-01   0.980E-03 -.131E-13 -.200E-01   0.125E-04 -.442E-03 -.177E-02   -.107E-05 0.155E-04 0.913E-05
   -.595E-03 0.499E-03 0.942E-03   0.911E-03 0.311E-14 -.285E-02   0.770E-05 -.438E-03 0.109E-02   0.310E-05 0.174E-04 -.706E-05
   -.284E-01 -.111E+00 0.284E-01   0.297E-01 0.113E+00 -.297E-01   0.152E-02 0.236E-02 -.152E-02   -.342E-05 0.985E-05 0.342E-05
   -.294E-01 0.500E-01 -.105E-02   0.296E-01 -.521E-01 -.980E-03   0.181E-02 -.395E-03 0.748E-03   -.204E-05 0.937E-05 -.121E-05
   -.317E-01 0.111E+00 0.317E-01   0.297E-01 -.113E+00 -.297E-01   0.295E-02 -.238E-02 -.295E-02   -.841E-06 -.126E-04 0.841E-06
   -.304E-01 -.500E-01 0.238E-02   0.296E-01 0.521E-01 -.980E-03   0.267E-02 0.389E-03 -.770E-03   -.458E-05 -.638E-05 -.376E-05
   0.105E-02 0.500E-01 0.294E-01   0.980E-03 -.521E-01 -.296E-01   -.748E-03 -.395E-03 -.181E-02   0.121E-05 0.937E-05 0.204E-05
   -.895E-04 0.121E-01 0.895E-04   0.911E-03 -.933E-02 -.911E-03   -.423E-03 -.161E-02 0.423E-03   0.512E-05 0.246E-04 -.512E-05
   -.238E-02 -.500E-01 0.304E-01   0.980E-03 0.521E-01 -.296E-01   0.770E-03 0.389E-03 -.267E-02   0.376E-05 -.638E-05 0.458E-05
   -.109E-02 -.121E-01 0.109E-02   0.911E-03 0.933E-02 -.911E-03   0.430E-03 0.161E-02 -.430E-03   0.437E-05 -.236E-04 -.437E-05
   0.212E-03 -.199E+00 -.187E+00   -.141E-02 0.173E+00 0.161E+00   0.335E-01 0.495E-01 0.487E-01   0.379E-05 -.160E-04 0.412E-05
   -.690E-01 0.346E-01 0.690E-01   0.689E-01 -.333E-01 -.689E-01   -.311E-03 -.551E-03 0.311E-03   -.157E-05 -.205E-04 0.157E-05
   0.153E-01 0.157E-01 0.242E-02   -.175E-01 -.141E-01 -.859E-03   0.146E-02 -.963E-03 -.973E-03   0.318E-05 0.160E-04 -.547E-05
   -.192E-01 -.175E-01 0.192E-01   0.187E-01 0.161E-01 -.187E-01   0.536E-03 0.185E-02 -.536E-03   -.144E-04 0.211E-04 0.144E-04
   -.470E-02 -.104E-01 0.470E-02   0.180E-02 0.133E-01 -.180E-02   0.204E-02 -.210E-02 -.204E-02   0.495E-06 -.240E-04 -.495E-06
   0.187E+00 -.199E+00 -.212E-03   -.161E+00 0.173E+00 0.141E-02   -.487E-01 0.495E-01 -.335E-01   -.412E-05 -.160E-04 -.379E-05
   0.129E-01 0.168E-02 -.129E-01   -.393E-02 -.722E-02 0.393E-02   -.713E-02 0.603E-02 0.713E-02   -.648E-05 0.205E-04 0.648E-05
   -.242E-02 0.157E-01 -.153E-01   0.859E-03 -.141E-01 0.175E-01   0.973E-03 -.963E-03 -.146E-02   0.547E-05 0.160E-04 -.318E-05
   0.936E-02 0.197E+00 0.190E+00   -.102E-01 -.170E+00 -.161E+00   0.336E-01 -.504E-01 -.506E-01   0.219E-05 -.409E-05 -.479E-05
   -.253E+00 -.219E+00 -.667E-02   0.228E+00 0.192E+00 0.829E-02   0.480E-01 0.489E-01 -.341E-01   -.689E-05 0.285E-05 -.399E-05
   0.140E-01 -.170E-01 -.848E-02   -.186E-01 0.131E-01 0.810E-03   0.430E-02 0.380E-02 0.518E-02   -.817E-06 0.313E-05 0.422E-05
   -.207E-01 0.267E-01 -.167E-01   0.218E-01 -.248E-01 0.184E-01   -.396E-03 -.171E-02 -.141E-02   -.200E-05 -.146E-06 -.681E-05
   0.431E-02 0.899E-02 -.240E-02   -.682E-02 -.103E-01 0.172E-02   0.221E-02 0.116E-02 0.115E-03   0.604E-05 0.653E-05 -.177E-06
   0.197E-02 0.137E-01 0.606E-01   -.179E-02 -.132E-01 -.604E-01   0.390E-03 -.408E-03 -.345E-03   -.128E-04 -.596E-05 -.159E-05
   0.116E-01 -.301E-02 0.675E-02   -.491E-02 0.623E-02 -.389E-02   -.429E-02 -.320E-02 -.294E-02   -.443E-05 -.304E-05 -.281E-05
   -.385E-02 -.669E-02 0.176E-01   0.390E-02 0.550E-02 -.176E-01   0.194E-04 0.112E-02 -.480E-03   0.490E-05 0.348E-05 0.484E-05
   0.191E+00 0.403E+00 -.191E+00   -.167E+00 -.351E+00 0.167E+00   -.142E-01 -.972E-01 0.142E-01   0.546E-05 -.133E-04 -.546E-05
   -.697E-01 -.122E-01 0.447E-02   0.691E-01 0.101E-01 -.206E-02   0.198E-03 0.134E-02 -.155E-02   -.344E-05 -.153E-04 -.347E-05
   0.182E-01 -.358E-01 -.182E-01   -.215E-01 0.336E-01 0.215E-01   0.232E-02 0.156E-02 -.232E-02   0.123E-04 0.992E-05 -.123E-04
   -.163E-01 0.798E-02 -.991E-02   0.186E-01 -.449E-02 0.385E-02   -.237E-02 -.398E-02 0.423E-02   -.576E-05 0.150E-04 0.208E-05
   -.447E-02 -.122E-01 0.697E-01   0.206E-02 0.101E-01 -.691E-01   0.155E-02 0.134E-02 -.198E-03   0.347E-05 -.153E-04 0.344E-05
   -.661E-02 -.755E-02 0.661E-02   0.689E-02 0.726E-02 -.689E-02   -.277E-03 -.200E-03 0.277E-03   -.399E-05 -.293E-04 0.399E-05
   0.991E-02 0.798E-02 0.163E-01   -.385E-02 -.449E-02 -.186E-01   -.423E-02 -.398E-02 0.237E-02   -.208E-05 0.150E-04 0.576E-05
   -.542E-02 0.433E-02 0.542E-02   0.487E-02 -.525E-02 -.487E-02   0.903E-04 0.352E-03 -.903E-04   0.955E-05 0.285E-04 -.955E-05
   0.667E-02 -.219E+00 0.253E+00   -.829E-02 0.192E+00 -.228E+00   0.341E-01 0.489E-01 -.480E-01   0.399E-05 0.285E-05 0.689E-05
   -.606E-01 0.137E-01 -.197E-02   0.604E-01 -.132E-01 0.179E-02   0.345E-03 -.408E-03 -.390E-03   0.159E-05 -.596E-05 0.128E-04
   0.167E-01 0.267E-01 0.207E-01   -.184E-01 -.248E-01 -.218E-01   0.141E-02 -.171E-02 0.396E-03   0.681E-05 -.146E-06 0.200E-05
   -.176E-01 -.669E-02 0.385E-02   0.176E-01 0.550E-02 -.390E-02   0.480E-03 0.112E-02 -.194E-04   -.484E-05 0.348E-05 -.490E-05
   -.190E+00 0.197E+00 -.936E-02   0.161E+00 -.170E+00 0.102E-01   0.506E-01 -.504E-01 -.336E-01   0.479E-05 -.409E-05 -.219E-05
   0.240E-02 0.899E-02 -.431E-02   -.172E-02 -.103E-01 0.682E-02   -.115E-03 0.116E-02 -.221E-02   0.177E-06 0.653E-05 -.604E-05
   0.848E-02 -.170E-01 -.140E-01   -.810E-03 0.131E-01 0.186E-01   -.518E-02 0.380E-02 -.430E-02   -.422E-05 0.313E-05 0.817E-06
   -.675E-02 -.301E-02 -.116E-01   0.389E-02 0.623E-02 0.491E-02   0.294E-02 -.320E-02 0.429E-02   0.281E-05 -.304E-05 0.443E-05
 -----------------------------------------------------------------------------------------------
   -.217E-04 -.116E-04 0.217E-04   0.903E-14 0.197E-13 0.131E-13   0.261E-04 0.986E-05 -.261E-04   -.361E-06 0.339E-06 0.361E-06
 
 
 POSITION                                       TOTAL-FORCE (eV/Angst)
 -----------------------------------------------------------------------------------
      2.72729      2.71729      2.71729        -0.133972     -0.000936     -0.001840
      8.15186      2.71729      2.71729         0.002031      0.000942     -0.001860
      2.71729      8.15186      2.71729         0.001084     -0.000076     -0.000327
      8.15186      8.15186      2.71729        -0.000556      0.000079     -0.000325
      2.71729      2.71729      8.15186         0.002346     -0.000955     -0.001876
      8.15186      2.71729      8.15186        -0.001818      0.000955     -0.001877
      2.71729      8.15186      8.15186        -0.004531     -0.000076     -0.000327
      8.15186      8.15186      8.15186         0.000828      0.000079     -0.000327
      2.71729     -0.00000     -0.00000        -0.005231      0.001911      0.005231
      8.15186     -0.00000     -0.00000        -0.000982     -0.000865      0.004343
      2.71729      5.43457      0.00000        -0.003322      0.001892      0.003322
      8.15186      5.43457     -0.00000         0.000917     -0.000879      0.004199
      2.71729      0.00000      5.43457        -0.004343     -0.000865      0.000982
      8.15186     -0.00000      5.43457        -0.000114     -0.000153      0.000114
      2.71729      5.43457      5.43457        -0.004199     -0.000879     -0.000917
      8.15186      5.43457      5.43457         0.000037     -0.000155     -0.000037
      0.00000      2.71729     10.85915         0.001840     -0.000936      0.133972
      5.43457      2.71729     -0.00000         0.001876     -0.000955     -0.002346
     -0.00000      8.15186      0.00000         0.000327     -0.000076     -0.001084
      5.43457      8.15186      0.00000         0.000327     -0.000076      0.004531
      0.00000      2.71729      5.43457         0.001860      0.000942     -0.002031
      5.43457      2.71729      5.43457         0.001877      0.000955      0.001818
     -0.00000      8.15186      5.43457         0.000325      0.000079      0.000556
      5.43457      8.15186      5.43457         0.000327      0.000079     -0.000828
      0.00000      0.00000      2.71729         0.002802      0.003706     -0.002802
      5.43457     -0.00000      2.71729         0.001954     -0.002467     -0.001280
     -0.00000      5.43457      2.71729         0.000912     -0.003704     -0.000912
      5.43457      5.43457      2.71729         0.001799      0.002469      0.000628
      0.00000      0.00000      8.15186         0.001280     -0.002467     -0.001954
      5.43457      0.00000      8.15186         0.000404      0.001206     -0.000404
      0.00000      5.43457      8.15186        -0.000628      0.002469     -0.001799
      5.43457      5.43457      8.15186         0.000250     -0.001205     -0.000250
      4.07593      4.07593      4.07593         0.032280      0.023247      0.022785
      9.51050      4.07593      4.07593        -0.000430      0.000680      0.000430
      4.07593      9.51050      4.07593        -0.000786      0.000615      0.000585
      9.51050      9.51050      4.07593        -0.000032      0.000426      0.000032
      4.07593      4.07593      9.51050        -0.000859      0.000813      0.000859
      9.51050      4.07593      9.51050        -0.022785      0.023247     -0.032280
      4.07593      9.51050      9.51050         0.001836      0.000507     -0.001836
      9.51050      9.51050      9.51050        -0.000585      0.000615      0.000786
      4.07593      1.35864      1.35864         0.032827     -0.022595     -0.022497
      9.51050      1.35864      1.35864         0.022311      0.022059     -0.032524
      4.07593      6.79322      1.35864        -0.000264     -0.000092     -0.002488
      9.51050      6.79322      1.35864         0.000629      0.000126      0.000259
      4.07593      1.35864      6.79322        -0.000299     -0.000151     -0.000567
      9.51050      1.35864      6.79322         0.000557      0.000090     -0.000124
      4.07593      6.79322      6.79322         0.002357      0.000015     -0.000076
      9.51050      6.79322      6.79322         0.000079     -0.000055     -0.000494
      1.35864      4.07593      1.35864         0.009786     -0.044816     -0.009786
      6.79322      4.07593      1.35864        -0.000427     -0.000751      0.000851
      1.35864      9.51050      1.35864        -0.000920     -0.000677      0.000920
      6.79322      9.51050      1.35864        -0.000028     -0.000467     -0.001825
      1.35864      4.07593      6.79322        -0.000851     -0.000751      0.000427
      6.79322      4.07593      6.79322         0.000008     -0.000516     -0.000008
      1.35864      9.51050      6.79322         0.001825     -0.000467      0.000028
      6.79322      9.51050      6.79322        -0.000447     -0.000536      0.000447
      1.35864      1.35864      4.07593         0.032524      0.022059     -0.022311
      6.79322      1.35864      4.07593         0.000124      0.000090     -0.000557
      1.35864      6.79322      4.07593        -0.000259      0.000126     -0.000629
      6.79322      6.79322      4.07593         0.000494     -0.000055     -0.000079
      1.35864      1.35864      9.51050         0.022497     -0.022595     -0.032827
      6.79322      1.35864      9.51050         0.000567     -0.000151      0.000299
      1.35864      6.79322      9.51050         0.002488     -0.000092      0.000264
      6.79322      6.79322      9.51050         0.000076      0.000015     -0.002357
 -----------------------------------------------------------------------------------
    total drift:                                0.000004     -0.000001     -0.000004


--------------------------------------------------------------------------------------------------------



  FREE ENERGIE OF THE ION-ELECTRON SYSTEM (eV)
  ---------------------------------------------------
  free  energy   TOTEN  =      -367.49985088 eV

  energy  without entropy=     -367.49985088  energy(sigma->0) =     -367.49985088
 


--------------------------------------------------------------------------------------------------------


    POTLOK:  cpu time      0.0430: real time      0.0432


--------------------------------------------------------------------------------------------------------


     LOOP+:  cpu time     31.4748: real time     31.6514
    4ORBIT:  cpu time      0.0000: real time      0.0000

 total amount of memory used by VASP MPI-rank0    61966. kBytes
=======================================================================

   base      :      30000. kBytes
   nonl-proj :       5868. kBytes
   fftplans  :      11573. kBytes
   grid      :       5816. kBytes
   one-center:         49. kBytes
   wavefun   :       8660. kBytes
 
  
  
 General timing and accounting informations for this job:
 ========================================================
  
                  Total CPU time used (sec):       33.394
                            User time (sec):       32.474
                          System time (sec):        0.920
                         Elapsed time (sec):       33.739
  
                   Maximum memory used (kb):      220292.
                   Average memory used (kb):          N/A
  
                          Minor page faults:        90158
                          Major page faults:            0
                 Voluntary context switches:          784
