<?xml version="1.0" encoding="ISO-8859-1"?>
<modeling>
 <generator>
  <i name="program" type="string">vasp </i>
  <i name="version" type="string">6.3.2  </i>
  <i name="subversion" type="string">27Jun22 (build Oct 14 2022 12:13:54) complex                          parallel </i>
  <i name="platform" type="string">LinuxIFC </i>
  <i name="date" type="string">2023 04 03 </i>
  <i name="time" type="string">14:50:24 </i>
 </generator>
 <incar>
  <i type="string" name="PREC">Accurate</i>
  <i type="int" name="IALGO">    38</i>
  <i type="logical" name="ADDGRID"> T  </i>
  <i type="int" name="NELMIN">     5</i>
  <i type="int" name="IBRION">    -1</i>
  <i name="EDIFF">      0.00000001</i>
  <i name="ENCUT">    318.00000000</i>
  <i type="logical" name="LREAL"> F  </i>
  <i type="int" name="ISMEAR">     0</i>
  <i name="SIGMA">      0.02000000</i>
  <i type="logical" name="LWAVE"> F  </i>
  <i type="logical" name="LCHARG"> F  </i>
  <i type="string" name="GGA">Ps</i>
 </incar>
 <primitive_cell>
  <structure name="primitive_cell" >
   <crystal>
    <varray name="basis" >
     <v>      10.86914512      -0.00000000      -0.00000000 </v>
     <v>      -0.00000000      10.86914512       0.00000000 </v>
     <v>       0.00000000       0.00000000      10.86914512 </v>
    </varray>
    <i name="volume">   1284.06249692 </i>
    <varray name="rec_basis" >
     <v>       0.09200356       0.00000000      -0.00000000 </v>
     <v>       0.00000000       0.09200356      -0.00000000 </v>
     <v>       0.00000000      -0.00000000       0.09200356 </v>
    </varray>
   </crystal>
   <varray name="positions" >
    <v>       0.25092004       0.25000000       0.25000000 </v>
    <v>       0.75000000       0.25000000       0.25000000 </v>
    <v>       0.25000000       0.75000000       0.25000000 </v>
    <v>       0.75000000       0.75000000       0.25000000 </v>
    <v>       0.25000000       0.25000000       0.75000000 </v>
    <v>       0.75000000       0.25000000       0.75000000 </v>
    <v>       0.25000000       0.75000000       0.75000000 </v>
    <v>       0.75000000       0.75000000       0.75000000 </v>
    <v>       0.25000000       1.00000000       1.00000000 </v>
    <v>       0.75000000       1.00000000       1.00000000 </v>
    <v>       0.25000000       0.50000000       0.00000000 </v>
    <v>       0.75000000       0.50000000       1.00000000 </v>
    <v>       0.25000000       0.00000000       0.50000000 </v>
    <v>       0.75000000       1.00000000       0.50000000 </v>
    <v>       0.25000000       0.50000000       0.50000000 </v>
    <v>       0.75000000       0.50000000       0.50000000 </v>
    <v>       0.00000000       0.25000000       0.99907996 </v>
    <v>       0.50000000       0.25000000       1.00000000 </v>
    <v>       1.00000000       0.75000000       0.00000000 </v>
    <v>       0.50000000       0.75000000       0.00000000 </v>
    <v>       0.00000000       0.25000000       0.50000000 </v>
    <v>       0.50000000       0.25000000       0.50000000 </v>
    <v>       1.00000000       0.75000000       0.50000000 </v>
    <v>       0.50000000       0.75000000       0.50000000 </v>
    <v>       0.00000000       0.00000000       0.25000000 </v>
    <v>       0.50000000       1.00000000       0.25000000 </v>
    <v>       1.00000000       0.50000000       0.25000000 </v>
    <v>       0.50000000       0.50000000       0.25000000 </v>
    <v>       0.00000000       0.00000000       0.75000000 </v>
    <v>       0.50000000       0.00000000       0.75000000 </v>
    <v>       0.00000000       0.50000000       0.75000000 </v>
    <v>       0.50000000       0.50000000       0.75000000 </v>
    <v>       0.37500000       0.37500000       0.37500000 </v>
    <v>       0.87500000       0.37500000       0.37500000 </v>
    <v>       0.37500000       0.87500000       0.37500000 </v>
    <v>       0.87500000       0.87500000       0.37500000 </v>
    <v>       0.37500000       0.37500000       0.87500000 </v>
    <v>       0.87500000       0.37500000       0.87500000 </v>
    <v>       0.37500000       0.87500000       0.87500000 </v>
    <v>       0.87500000       0.87500000       0.87500000 </v>
    <v>       0.37500000       0.12500000       0.12500000 </v>
    <v>       0.87500000       0.12500000       0.12500000 </v>
    <v>       0.37500000       0.62500000       0.12500000 </v>
    <v>       0.87500000       0.62500000       0.12500000 </v>
    <v>       0.37500000       0.12500000       0.62500000 </v>
    <v>       0.87500000       0.12500000       0.62500000 </v>
    <v>       0.37500000       0.62500000       0.62500000 </v>
    <v>       0.87500000       0.62500000       0.62500000 </v>
    <v>       0.12500000       0.37500000       0.12500000 </v>
    <v>       0.62500000       0.37500000       0.12500000 </v>
    <v>       0.12500000       0.87500000       0.12500000 </v>
    <v>       0.62500000       0.87500000       0.12500000 </v>
    <v>       0.12500000       0.37500000       0.62500000 </v>
    <v>       0.62500000       0.37500000       0.62500000 </v>
    <v>       0.12500000       0.87500000       0.62500000 </v>
    <v>       0.62500000       0.87500000       0.62500000 </v>
    <v>       0.12500000       0.12500000       0.37500000 </v>
    <v>       0.62500000       0.12500000       0.37500000 </v>
    <v>       0.12500000       0.62500000       0.37500000 </v>
    <v>       0.62500000       0.62500000       0.37500000 </v>
    <v>       0.12500000       0.12500000       0.87500000 </v>
    <v>       0.62500000       0.12500000       0.87500000 </v>
    <v>       0.12500000       0.62500000       0.87500000 </v>
    <v>       0.62500000       0.62500000       0.87500000 </v>
   </varray>
  </structure>
  <varray name="primitive_index" >
   <v type="int" >        1 </v>
   <v type="int" >        2 </v>
   <v type="int" >        3 </v>
   <v type="int" >        4 </v>
   <v type="int" >        5 </v>
   <v type="int" >        6 </v>
   <v type="int" >        7 </v>
   <v type="int" >        8 </v>
   <v type="int" >        9 </v>
   <v type="int" >       10 </v>
   <v type="int" >       11 </v>
   <v type="int" >       12 </v>
   <v type="int" >       13 </v>
   <v type="int" >       14 </v>
   <v type="int" >       15 </v>
   <v type="int" >       16 </v>
   <v type="int" >       17 </v>
   <v type="int" >       18 </v>
   <v type="int" >       19 </v>
   <v type="int" >       20 </v>
   <v type="int" >       21 </v>
   <v type="int" >       22 </v>
   <v type="int" >       23 </v>
   <v type="int" >       24 </v>
   <v type="int" >       25 </v>
   <v type="int" >       26 </v>
   <v type="int" >       27 </v>
   <v type="int" >       28 </v>
   <v type="int" >       29 </v>
   <v type="int" >       30 </v>
   <v type="int" >       31 </v>
   <v type="int" >       32 </v>
   <v type="int" >       33 </v>
   <v type="int" >       34 </v>
   <v type="int" >       35 </v>
   <v type="int" >       36 </v>
   <v type="int" >       37 </v>
   <v type="int" >       38 </v>
   <v type="int" >       39 </v>
   <v type="int" >       40 </v>
   <v type="int" >       41 </v>
   <v type="int" >       42 </v>
   <v type="int" >       43 </v>
   <v type="int" >       44 </v>
   <v type="int" >       45 </v>
   <v type="int" >       46 </v>
   <v type="int" >       47 </v>
   <v type="int" >       48 </v>
   <v type="int" >       49 </v>
   <v type="int" >       50 </v>
   <v type="int" >       51 </v>
   <v type="int" >       52 </v>
   <v type="int" >       53 </v>
   <v type="int" >       54 </v>
   <v type="int" >       55 </v>
   <v type="int" >       56 </v>
   <v type="int" >       57 </v>
   <v type="int" >       58 </v>
   <v type="int" >       59 </v>
   <v type="int" >       60 </v>
   <v type="int" >       61 </v>
   <v type="int" >       62 </v>
   <v type="int" >       63 </v>
   <v type="int" >       64 </v>
  </varray>
 </primitive_cell>
 <kpoints>
  <generation param="Gamma">
   <v type="int" name="divisions">       2        2        2 </v>
   <v name="usershift">      0.00000000       0.00000000       0.00000000 </v>
   <v name="genvec1">      0.50000000      -0.00000000       0.00000000 </v>
   <v name="genvec2">     -0.00000000       0.50000000       0.00000000 </v>
   <v name="genvec3">     -0.00000000       0.00000000       0.50000000 </v>
   <v name="shift">      0.00000000       0.00000000       0.00000000 </v>
  </generation>
  <varray name="kpointlist" >
   <v>       0.00000000       0.00000000       0.00000000 </v>
   <v>       0.50000000       0.00000000       0.00000000 </v>
   <v>      -0.00000000       0.50000000       0.00000000 </v>
   <v>       0.50000000       0.50000000       0.00000000 </v>
   <v>       0.50000000      -0.00000000       0.50000000 </v>
   <v>       0.50000000       0.50000000       0.50000000 </v>
  </varray>
  <varray name="weights" >
   <v>       0.12500000 </v>
   <v>       0.25000000 </v>
   <v>       0.12500000 </v>
   <v>       0.25000000 </v>
   <v>       0.12500000 </v>
   <v>       0.12500000 </v>
  </varray>
 </kpoints>
 <parameters>
  <separator name="general" >
   <i type="string" name="SYSTEM">unknown system</i>
   <i type="logical" name="LCOMPAT"> F  </i>
  </separator>
  <separator name="electronic" >
   <i type="string" name="PREC">accura</i>
   <i name="ENMAX">    318.00000000</i>
   <i name="ENAUG">    322.06900000</i>
   <i name="EDIFF">      0.00000001</i>
   <i type="int" name="IALGO">    38</i>
   <i type="int" name="IWAVPR">    10</i>
   <i type="int" name="NBANDS">   168</i>
   <i type="int" name="NBANDSLOW">    -1</i>
   <i type="int" name="NBANDSHIGH">    -1</i>
   <i name="NELECT">    256.00000000</i>
   <i type="int" name="TURBO">     0</i>
   <i type="int" name="IRESTART">     0</i>
   <i type="int" name="NREBOOT">     0</i>
   <i type="int" name="NMIN">     0</i>
   <i name="EREF">      0.00000000</i>
   <separator name="electronic smearing" >
    <i type="int" name="ISMEAR">     0</i>
    <i name="SIGMA">      0.02000000</i>
    <i name="KSPACING">      0.50000000</i>
    <i type="logical" name="KGAMMA"> T  </i>
    <i type="logical" name="KBLOWUP"> T  </i>
   </separator>
   <separator name="electronic projectors" >
    <i type="logical" name="LREAL"> F  </i>
    <v name="ROPT">      0.00000000</v>
    <i type="int" name="LMAXPAW">  -100</i>
    <i type="int" name="LMAXMIX">     2</i>
    <i type="logical" name="NLSPLINE"> F  </i>
   </separator>
   <separator name="electronic startup" >
    <i type="int" name="ISTART">     0</i>
    <i type="int" name="ICHARG">     2</i>
    <i type="int" name="INIWAV">     1</i>
   </separator>
   <separator name="electronic spin" >
    <i type="int" name="ISPIN">     1</i>
    <i type="logical" name="LNONCOLLINEAR"> F  </i>
    <v name="MAGMOM">      1.00000000      1.00000000      1.00000000      1.00000000      1.00000000      1.00000000      1.00000000      1.00000000      1.00000000      1.00000000      1.00000000      1.00000000      1.00000000      1.00000000      1.00000000      1.00000000      1.00000000      1.00000000      1.00000000      1.00000000
      1.00000000      1.00000000      1.00000000      1.00000000      1.00000000      1.00000000      1.00000000      1.00000000      1.00000000      1.00000000      1.00000000      1.00000000      1.00000000      1.00000000      1.00000000      1.00000000      1.00000000      1.00000000      1.00000000      1.00000000
      1.00000000      1.00000000      1.00000000      1.00000000      1.00000000      1.00000000      1.00000000      1.00000000      1.00000000      1.00000000      1.00000000      1.00000000      1.00000000      1.00000000      1.00000000      1.00000000      1.00000000      1.00000000      1.00000000      1.00000000
      1.00000000      1.00000000      1.00000000      1.00000000</v>
    <i name="NUPDOWN">     -1.00000000</i>
    <i type="logical" name="LSORBIT"> F  </i>
    <v name="SAXIS">      0.00000000      0.00000000      1.00000000</v>
    <i type="logical" name="LSPIRAL"> F  </i>
    <v name="QSPIRAL">      0.00000000      0.00000000      0.00000000</v>
    <i type="logical" name="LZEROZ"> F  </i>
   </separator>
   <separator name="electronic exchange-correlation" >
    <i type="logical" name="LASPH"> F  </i>
    <i type="logical" name="LMETAGGA"> F  </i>
   </separator>
   <separator name="electronic convergence" >
    <i type="int" name="NELM">    60</i>
    <i type="int" name="NELMDL">    -5</i>
    <i type="int" name="NELMIN">     5</i>
    <i name="ENINI">    318.00000000</i>
    <separator name="electronic convergence detail" >
     <i type="logical" name="LDIAG"> T  </i>
     <i type="logical" name="LSUBROT"> F  </i>
     <i name="WEIMIN">      0.00000000</i>
     <i name="EBREAK">      0.00000000</i>
     <i name="DEPER">      0.30000000</i>
     <i type="int" name="NRMM">     4</i>
     <i name="TIME">      0.40000000</i>
    </separator>
   </separator>
   <separator name="electronic mixer" >
    <i name="AMIX">      0.40000000</i>
    <i name="BMIX">      1.00000000</i>
    <i name="AMIN">      0.10000000</i>
    <i name="AMIX_MAG">      1.60000000</i>
    <i name="BMIX_MAG">      1.00000000</i>
    <separator name="electronic mixer details" >
     <i type="int" name="IMIX">     4</i>
     <i type="logical" name="MIXFIRST"> F  </i>
     <i type="int" name="MAXMIX">   -45</i>
     <i name="WC">    100.00000000</i>
     <i type="int" name="INIMIX">     1</i>
     <i type="int" name="MIXPRE">     1</i>
     <i type="int" name="MREMOVE">     5</i>
    </separator>
   </separator>
   <separator name="electronic dipolcorrection" >
    <i type="logical" name="LDIPOL"> F  </i>
    <i type="logical" name="LMONO"> F  </i>
    <i type="int" name="IDIPOL">     0</i>
    <i name="EPSILON">      1.00000000</i>
    <v name="DIPOL">   -100.00000000   -100.00000000   -100.00000000</v>
    <i name="EFIELD">      0.00000000</i>
   </separator>
  </separator>
  <separator name="grids" >
   <i type="int" name="NGX">    64</i>
   <i type="int" name="NGY">    64</i>
   <i type="int" name="NGZ">    64</i>
   <i type="int" name="NGXF">   128</i>
   <i type="int" name="NGYF">   128</i>
   <i type="int" name="NGZF">   128</i>
   <i type="logical" name="ADDGRID"> T  </i>
  </separator>
  <separator name="ionic" >
   <i type="int" name="NSW">     0</i>
   <i type="int" name="IBRION">    -1</i>
   <i type="int" name="MDALGO">     0</i>
   <i type="int" name="ISIF">     2</i>
   <i name="PSTRESS">      0.00000000</i>
   <i name="EDIFFG">      0.00000010</i>
   <i type="int" name="NFREE">     0</i>
   <i name="POTIM">      0.50000000</i>
   <i name="SMASS">     -3.00000000</i>
   <i name="SCALEE">      1.00000000</i>
  </separator>
  <separator name="ionic md" >
   <i name="TEBEG">      0.00010000</i>
   <i name="TEEND">      0.00010000</i>
   <i type="int" name="NBLOCK">     1</i>
   <i type="int" name="KBLOCK">     1</i>
   <i type="int" name="NPACO">   256</i>
   <i name="APACO">     10.00000000</i>
  </separator>
  <separator name="symmetry" >
   <i type="int" name="ISYM">     2</i>
   <i name="SYMPREC">      0.00001000</i>
  </separator>
  <separator name="dos" >
   <i type="int" name="LORBIT">     0</i>
   <v name="RWIGS">     -1.00000000</v>
   <i type="int" name="NEDOS">   301</i>
   <i name="EMIN">     10.00000000</i>
   <i name="EMAX">    -10.00000000</i>
   <i name="EFERMI">      0.00000000</i>
  </separator>
  <separator name="writing" >
   <i type="int" name="NWRITE">     2</i>
   <i type="logical" name="LWAVE"> F  </i>
   <i type="logical" name="LDOWNSAMPLE"> F  </i>
   <i type="logical" name="LCHARG"> F  </i>
   <i type="logical" name="LPARD"> F  </i>
   <i type="logical" name="LVTOT"> F  </i>
   <i type="logical" name="LVHAR"> F  </i>
   <i type="logical" name="LELF"> F  </i>
   <i type="logical" name="LOPTICS"> F  </i>
   <v name="STM">      0.00000000      0.00000000      0.00000000      0.00000000      0.00000000      0.00000000      0.00000000</v>
  </separator>
  <separator name="performance" >
   <i type="int" name="NPAR">     8</i>
   <i type="int" name="NSIM">     4</i>
   <i type="int" name="NBLK">    -1</i>
   <i type="logical" name="LPLANE"> T  </i>
   <i type="logical" name="LSCALAPACK"> T  </i>
   <i type="logical" name="LSCAAWARE"> F  </i>
   <i type="logical" name="LSCALU"> F  </i>
   <i type="logical" name="LASYNC"> F  </i>
   <i type="logical" name="LORBITALREAL"> F  </i>
  </separator>
  <separator name="miscellaneous" >
   <i type="int" name="IDIOT">     3</i>
   <i type="int" name="PHON_NSTRUCT">    -1</i>
   <i type="logical" name="LMUSIC"> F  </i>
   <v name="POMASS">     28.08500000</v>
   <v name="DARWINR">      0.00000000</v>
   <v name="DARWINV">      1.00000000</v>
   <i type="logical" name="LCORR"> T  </i>
  </separator>
  <i type="logical" name="GGA_COMPAT"> T  </i>
  <i type="logical" name="LBERRY"> F  </i>
  <i type="int" name="ICORELEVEL">     0</i>
  <i type="logical" name="LDAU"> F  </i>
  <i type="int" name="I_CONSTRAINED_M">     0</i>
  <separator name="electronic exchange-correlation" >
   <i type="string" name="GGA">PS</i>
   <i type="int" name="VOSKOWN">     0</i>
   <i type="logical" name="LHFCALC"> F  </i>
   <i type="string" name="PRECFOCK"></i>
   <i type="logical" name="LSYMGRAD"> F  </i>
   <i type="logical" name="LHFONE"> F  </i>
   <i type="logical" name="LRHFCALC"> F  </i>
   <i type="logical" name="LTHOMAS"> F  </i>
   <i type="logical" name="LMODELHF"> F  </i>
   <i type="logical" name="LFOCKACE"> F  </i>
   <i name="ENCUT4O">     -1.00000000</i>
   <i type="int" name="EXXOEP">     0</i>
   <i type="int" name="FOURORBIT">     0</i>
   <i name="AEXX">      0.00000000</i>
   <i name="HFALPHA">      0.00000000</i>
   <i name="MCALPHA">      0.00000000</i>
   <i name="ALDAX">      1.00000000</i>
   <i name="AGGAX">      1.00000000</i>
   <i name="ALDAC">      1.00000000</i>
   <i name="AGGAC">      1.00000000</i>
   <i type="int" name="NKREDX">     1</i>
   <i type="int" name="NKREDY">     1</i>
   <i type="int" name="NKREDZ">     1</i>
   <i type="logical" name="SHIFTRED"> F  </i>
   <i type="logical" name="ODDONLY"> F  </i>
   <i type="logical" name="EVENONLY"> F  </i>
   <i type="int" name="LMAXFOCK">     0</i>
   <i type="int" name="NMAXFOCKAE">     0</i>
   <i type="logical" name="LFOCKAEDFT"> F  </i>
   <i name="HFSCREEN">      0.00000000</i>
   <i name="HFSCREENC">      0.00000000</i>
   <i type="int" name="NBANDSGWLOW">     0</i>
  </separator>
  <separator name="vdW DFT" >
   <i type="logical" name="LUSE_VDW"> F  </i>
   <i name="Zab_VDW">     -0.84910000</i>
   <i name="PARAM1">      0.12340000</i>
   <i name="PARAM2">      1.00000000</i>
   <i name="PARAM3">      0.00000000</i>
  </separator>
  <separator name="model GW" >
   <i type="int" name="MODEL_GW">     0</i>
   <i name="MODEL_EPS0">     12.03808591</i>
   <i name="MODEL_ALPHA">      1.00000000</i>
  </separator>
  <separator name="linear response parameters" >
   <i type="logical" name="LEPSILON"> F  </i>
   <i type="logical" name="LRPA"> F  </i>
   <i type="logical" name="LNABLA"> F  </i>
   <i type="logical" name="LVEL"> F  </i>
   <i name="CSHIFT">      0.10000000</i>
   <i name="OMEGAMAX">     -1.00000000</i>
   <i name="DEG_THRESHOLD">      0.00200000</i>
   <i name="RTIME">     -0.10000000</i>
   <i name="WPLASMAI">      0.00000000</i>
   <v name="DFIELD">      0.00000000      0.00000000      0.00000000</v>
   <v name="WPLASMA">      0.00000000      0.00000000      0.00000000      0.00000000      0.00000000      0.00000000      0.00000000      0.00000000      0.00000000</v>
  </separator>
  <separator name="orbital magnetization" >
   <i type="logical" name="NUCIND"> F  </i>
   <v name="MAGPOS">      0.00000000      0.00000000      0.00000000</v>
   <i type="logical" name="LNICSALL"> T  </i>
   <i type="logical" name="ORBITALMAG"> F  </i>
   <i type="logical" name="LMAGBLOCH"> F  </i>
   <i type="logical" name="LCHIMAG"> F  </i>
   <i type="logical" name="LGAUGE"> T  </i>
   <i type="int" name="MAGATOM">     0</i>
   <v name="MAGDIPOL">      0.00000000      0.00000000      0.00000000</v>
   <v name="AVECCONST">      0.00000000      0.00000000      0.00000000</v>
  </separator>
  <separator name="response functions" >
   <i type="logical" name="LFINITE_TEMPERATURE"> F  </i>
   <i type="logical" name="LADDER"> F  </i>
   <i type="logical" name="LRPAFORCE"> F  </i>
   <i type="logical" name="LFXC"> F  </i>
   <i type="logical" name="LHARTREE"> T  </i>
   <i type="int" name="IBSE">     0</i>
   <v type="int" name="KPOINT">    -1     0     0     0</v>
   <i type="logical" name="LTCTC"> F  </i>
   <i type="logical" name="LTCTE"> F  </i>
   <i type="logical" name="LTETE"> F  </i>
   <i type="logical" name="LTRIPLET"> F  </i>
   <i type="logical" name="LFXCEPS"> F  </i>
   <i type="logical" name="LFXHEG"> F  </i>
   <i type="int" name="NATURALO">     2</i>
   <i type="logical" name="LHOLEGF"> F  </i>
   <i type="logical" name="L2ORDER"> F  </i>
   <i type="logical" name="LDMP1"> F  </i>
   <i type="logical" name="LMP2LT"> F  </i>
   <i type="logical" name="LSMP2LT"> F  </i>
   <i type="logical" name="LGWLF"> F  </i>
   <i name="ENCUTGW">     -2.00000000</i>
   <i name="ENCUTGWSOFT">     -2.00000000</i>
   <i name="ENCUTLF">     -1.00000000</i>
   <i type="logical" name="LESF_SPLINES"> F  </i>
   <i type="int" name="LMAXMP2">    -1</i>
   <i name="SCISSOR">      0.00000000</i>
   <i type="int" name="NOMEGA">     0</i>
   <i type="int" name="NOMEGAR">     0</i>
   <i type="int" name="NBANDSGW">    -1</i>
   <i type="int" name="NBANDSO">    -1</i>
   <i type="int" name="NBANDSV">    -1</i>
   <i type="int" name="NELMGW">     1</i>
   <i type="int" name="NELMHF">     1</i>
   <i type="int" name="DIM">     3</i>
   <i type="int" name="IESPILON">     4</i>
   <i type="int" name="ANTIRES">     0</i>
   <i name="OMEGAMAX">    -30.00000000</i>
   <i name="OMEGAMIN">    -30.00000000</i>
   <i name="OMEGATL">   -200.00000000</i>
   <i type="int" name="OMEGAGRID">     0</i>
   <i name="CSHIFT">     -0.10000000</i>
   <i type="logical" name="LSELFENERGY"> F  </i>
   <i type="logical" name="LSPECTRAL"> F  </i>
   <i type="logical" name="LSPECTRALGW"> F  </i>
   <i type="logical" name="LSINGLES"> F  </i>
   <i type="logical" name="LFERMIGW"> F  </i>
   <i type="logical" name="ODDONLYGW"> F  </i>
   <i type="logical" name="EVENONLYGW"> F  </i>
   <i type="int" name="NKREDLFX">     1</i>
   <i type="int" name="NKREDLFY">     1</i>
   <i type="int" name="NKREDLFZ">     1</i>
   <i type="int" name="MAXMEM">  2800</i>
   <i type="int" name="TELESCOPE">     0</i>
   <i type="int" name="NTAUPAR">    -1</i>
   <i type="int" name="NOMEGAPAR">    -1</i>
   <i name="DAMP_NEWTON">      0.80000001</i>
   <i name="LAMBDA">      1.00000000</i>
  </separator>
  <separator name="External order field" >
   <i name="OFIELD_KAPPA">      0.00000000</i>
   <v name="OFIELD_K">      0.00000000      0.00000000      0.00000000</v>
   <i name="OFIELD_Q6_NEAR">      0.00000000</i>
   <i name="OFIELD_Q6_FAR">      0.00000000</i>
   <i name="OFIELD_A">      0.00000000</i>
  </separator>
  <separator name="optional k-points parameters" >
   <i type="int" name="KPOINTS_OPT_MODE">     1</i>
   <i type="logical" name="LKPOINTS_OPT"> F  </i>
  </separator>
 </parameters>
 <atominfo>
  <atoms>      64 </atoms>
  <types>       1 </types>
  <array name="atoms" >
   <dimension dim="1">ion</dimension>
   <field type="string">element</field>
   <field type="int">atomtype</field>
   <set>
    <rc><c>Si</c><c>   1</c></rc>
    <rc><c>Si</c><c>   1</c></rc>
    <rc><c>Si</c><c>   1</c></rc>
    <rc><c>Si</c><c>   1</c></rc>
    <rc><c>Si</c><c>   1</c></rc>
    <rc><c>Si</c><c>   1</c></rc>
    <rc><c>Si</c><c>   1</c></rc>
    <rc><c>Si</c><c>   1</c></rc>
    <rc><c>Si</c><c>   1</c></rc>
    <rc><c>Si</c><c>   1</c></rc>
    <rc><c>Si</c><c>   1</c></rc>
    <rc><c>Si</c><c>   1</c></rc>
    <rc><c>Si</c><c>   1</c></rc>
    <rc><c>Si</c><c>   1</c></rc>
    <rc><c>Si</c><c>   1</c></rc>
    <rc><c>Si</c><c>   1</c></rc>
    <rc><c>Si</c><c>   1</c></rc>
    <rc><c>Si</c><c>   1</c></rc>
    <rc><c>Si</c><c>   1</c></rc>
    <rc><c>Si</c><c>   1</c></rc>
    <rc><c>Si</c><c>   1</c></rc>
    <rc><c>Si</c><c>   1</c></rc>
    <rc><c>Si</c><c>   1</c></rc>
    <rc><c>Si</c><c>   1</c></rc>
    <rc><c>Si</c><c>   1</c></rc>
    <rc><c>Si</c><c>   1</c></rc>
    <rc><c>Si</c><c>   1</c></rc>
    <rc><c>Si</c><c>   1</c></rc>
    <rc><c>Si</c><c>   1</c></rc>
    <rc><c>Si</c><c>   1</c></rc>
    <rc><c>Si</c><c>   1</c></rc>
    <rc><c>Si</c><c>   1</c></rc>
    <rc><c>Si</c><c>   1</c></rc>
    <rc><c>Si</c><c>   1</c></rc>
    <rc><c>Si</c><c>   1</c></rc>
    <rc><c>Si</c><c>   1</c></rc>
    <rc><c>Si</c><c>   1</c></rc>
    <rc><c>Si</c><c>   1</c></rc>
    <rc><c>Si</c><c>   1</c></rc>
    <rc><c>Si</c><c>   1</c></rc>
    <rc><c>Si</c><c>   1</c></rc>
    <rc><c>Si</c><c>   1</c></rc>
    <rc><c>Si</c><c>   1</c></rc>
    <rc><c>Si</c><c>   1</c></rc>
    <rc><c>Si</c><c>   1</c></rc>
    <rc><c>Si</c><c>   1</c></rc>
    <rc><c>Si</c><c>   1</c></rc>
    <rc><c>Si</c><c>   1</c></rc>
    <rc><c>Si</c><c>   1</c></rc>
    <rc><c>Si</c><c>   1</c></rc>
    <rc><c>Si</c><c>   1</c></rc>
    <rc><c>Si</c><c>   1</c></rc>
    <rc><c>Si</c><c>   1</c></rc>
    <rc><c>Si</c><c>   1</c></rc>
    <rc><c>Si</c><c>   1</c></rc>
    <rc><c>Si</c><c>   1</c></rc>
    <rc><c>Si</c><c>   1</c></rc>
    <rc><c>Si</c><c>   1</c></rc>
    <rc><c>Si</c><c>   1</c></rc>
    <rc><c>Si</c><c>   1</c></rc>
    <rc><c>Si</c><c>   1</c></rc>
    <rc><c>Si</c><c>   1</c></rc>
    <rc><c>Si</c><c>   1</c></rc>
    <rc><c>Si</c><c>   1</c></rc>
   </set>
  </array>
  <array name="atomtypes" >
   <dimension dim="1">type</dimension>
   <field type="int">atomspertype</field>
   <field type="string">element</field>
   <field>mass</field>
   <field>valence</field>
   <field type="string">pseudopotential</field>
   <set>
    <rc><c>  64</c><c>Si</c><c>     28.08500000</c><c>      4.00000000</c><c>  PAW_PBE Si 05Jan2001                  </c></rc>
   </set>
  </array>
 </atominfo>
 <structure name="initialpos" >
  <crystal>
   <varray name="basis" >
    <v>      10.86914512      -0.00000000      -0.00000000 </v>
    <v>      -0.00000000      10.86914512       0.00000000 </v>
    <v>       0.00000000       0.00000000      10.86914512 </v>
   </varray>
   <i name="volume">   1284.06249692 </i>
   <varray name="rec_basis" >
    <v>       0.09200356       0.00000000      -0.00000000 </v>
    <v>       0.00000000       0.09200356      -0.00000000 </v>
    <v>       0.00000000      -0.00000000       0.09200356 </v>
   </varray>
  </crystal>
  <varray name="positions" >
   <v>       0.25092004       0.25000000       0.25000000 </v>
   <v>       0.75000000       0.25000000       0.25000000 </v>
   <v>       0.25000000       0.75000000       0.25000000 </v>
   <v>       0.75000000       0.75000000       0.25000000 </v>
   <v>       0.25000000       0.25000000       0.75000000 </v>
   <v>       0.75000000       0.25000000       0.75000000 </v>
   <v>       0.25000000       0.75000000       0.75000000 </v>
   <v>       0.75000000       0.75000000       0.75000000 </v>
   <v>       0.25000000       0.00000000       0.00000000 </v>
   <v>       0.75000000       0.00000000       0.00000000 </v>
   <v>       0.25000000       0.50000000       0.00000000 </v>
   <v>       0.75000000       0.50000000       0.00000000 </v>
   <v>       0.25000000       0.00000000       0.50000000 </v>
   <v>       0.75000000       0.00000000       0.50000000 </v>
   <v>       0.25000000       0.50000000       0.50000000 </v>
   <v>       0.75000000       0.50000000       0.50000000 </v>
   <v>       0.00000000       0.25000000       0.99907996 </v>
   <v>       0.50000000       0.25000000       0.00000000 </v>
   <v>       0.00000000       0.75000000       0.00000000 </v>
   <v>       0.50000000       0.75000000       0.00000000 </v>
   <v>       0.00000000       0.25000000       0.50000000 </v>
   <v>       0.50000000       0.25000000       0.50000000 </v>
   <v>       0.00000000       0.75000000       0.50000000 </v>
   <v>       0.50000000       0.75000000       0.50000000 </v>
   <v>       0.00000000       0.00000000       0.25000000 </v>
   <v>       0.50000000       0.00000000       0.25000000 </v>
   <v>       0.00000000       0.50000000       0.25000000 </v>
   <v>       0.50000000       0.50000000       0.25000000 </v>
   <v>       0.00000000       0.00000000       0.75000000 </v>
   <v>       0.50000000       0.00000000       0.75000000 </v>
   <v>       0.00000000       0.50000000       0.75000000 </v>
   <v>       0.50000000       0.50000000       0.75000000 </v>
   <v>       0.37500000       0.37500000       0.37500000 </v>
   <v>       0.87500000       0.37500000       0.37500000 </v>
   <v>       0.37500000       0.87500000       0.37500000 </v>
   <v>       0.87500000       0.87500000       0.37500000 </v>
   <v>       0.37500000       0.37500000       0.87500000 </v>
   <v>       0.87500000       0.37500000       0.87500000 </v>
   <v>       0.37500000       0.87500000       0.87500000 </v>
   <v>       0.87500000       0.87500000       0.87500000 </v>
   <v>       0.37500000       0.12500000       0.12500000 </v>
   <v>       0.87500000       0.12500000       0.12500000 </v>
   <v>       0.37500000       0.62500000       0.12500000 </v>
   <v>       0.87500000       0.62500000       0.12500000 </v>
   <v>       0.37500000       0.12500000       0.62500000 </v>
   <v>       0.87500000       0.12500000       0.62500000 </v>
   <v>       0.37500000       0.62500000       0.62500000 </v>
   <v>       0.87500000       0.62500000       0.62500000 </v>
   <v>       0.12500000       0.37500000       0.12500000 </v>
   <v>       0.62500000       0.37500000       0.12500000 </v>
   <v>       0.12500000       0.87500000       0.12500000 </v>
   <v>       0.62500000       0.87500000       0.12500000 </v>
   <v>       0.12500000       0.37500000       0.62500000 </v>
   <v>       0.62500000       0.37500000       0.62500000 </v>
   <v>       0.12500000       0.87500000       0.62500000 </v>
   <v>       0.62500000       0.87500000       0.62500000 </v>
   <v>       0.12500000       0.12500000       0.37500000 </v>
   <v>       0.62500000       0.12500000       0.37500000 </v>
   <v>       0.12500000       0.62500000       0.37500000 </v>
   <v>       0.62500000       0.62500000       0.37500000 </v>
   <v>       0.12500000       0.12500000       0.87500000 </v>
   <v>       0.62500000       0.12500000       0.87500000 </v>
   <v>       0.12500000       0.62500000       0.87500000 </v>
   <v>       0.62500000       0.62500000       0.87500000 </v>
  </varray>
 </structure>
 <calculation>
  <scstep>
   <time name="dav">    1.68    1.69</time>
   <time name="total">    1.73    1.74</time>
   <energy>
    <i name="alphaZ">    107.38120932 </i>
    <i name="ewald">  -7307.87480590 </i>
    <i name="hartreedc">   -353.25144753 </i>
    <i name="XCdc">   -558.85370378 </i>
    <i name="pawpsdc">   5598.62625415 </i>
    <i name="pawaedc">  -4492.17844134 </i>
    <i name="eentropy">     -0.00589891 </i>
    <i name="bandstr">    896.50211964 </i>
    <i name="atom">   6564.76702419 </i>
    <i name="e_fr_energy">    455.11230984 </i>
    <i name="e_wo_entrp">    455.11820876 </i>
    <i name="e_0_energy">    455.11525930 </i>
   </energy>
  </scstep>
  <scstep>
   <time name="dav">    1.94    1.95</time>
   <time name="total">    1.94    1.95</time>
   <energy>
    <i name="e_fr_energy">   -321.63278118 </i>
    <i name="e_wo_entrp">   -321.63278118 </i>
    <i name="e_0_energy">   -321.63278118 </i>
   </energy>
  </scstep>
  <scstep>
   <time name="dav">    1.97    1.99</time>
   <time name="total">    1.98    1.99</time>
   <energy>
    <i name="e_fr_energy">   -373.43990198 </i>
    <i name="e_wo_entrp">   -373.43990198 </i>
    <i name="e_0_energy">   -373.43990198 </i>
   </energy>
  </scstep>
  <scstep>
   <time name="dav">    1.92    1.94</time>
   <time name="total">    1.92    1.94</time>
   <energy>
    <i name="e_fr_energy">   -374.60117437 </i>
    <i name="e_wo_entrp">   -374.60117437 </i>
    <i name="e_0_energy">   -374.60117437 </i>
   </energy>
  </scstep>
  <scstep>
   <time name="dav">    1.91    1.92</time>
   <time name="total">    2.00    2.01</time>
   <energy>
    <i name="e_fr_energy">   -374.64074302 </i>
    <i name="e_wo_entrp">   -374.64074302 </i>
    <i name="e_0_energy">   -374.64074302 </i>
   </energy>
  </scstep>
  <scstep>
   <time name="dav">    1.86    1.86</time>
   <time name="total">    1.99    2.00</time>
   <energy>
    <i name="e_fr_energy">   -369.72168949 </i>
    <i name="e_wo_entrp">   -369.72168949 </i>
    <i name="e_0_energy">   -369.72168949 </i>
   </energy>
  </scstep>
  <scstep>
   <time name="dav">    1.83    1.84</time>
   <time name="total">    1.97    1.98</time>
   <energy>
    <i name="e_fr_energy">   -367.49029513 </i>
    <i name="e_wo_entrp">   -367.49029513 </i>
    <i name="e_0_energy">   -367.49029513 </i>
   </energy>
  </scstep>
  <scstep>
   <time name="dav">    1.86    1.87</time>
   <time name="total">    1.99    2.00</time>
   <energy>
    <i name="e_fr_energy">   -367.49748474 </i>
    <i name="e_wo_entrp">   -367.49748474 </i>
    <i name="e_0_energy">   -367.49748474 </i>
   </energy>
  </scstep>
  <scstep>
   <time name="dav">    1.96    1.97</time>
   <time name="total">    2.09    2.10</time>
   <energy>
    <i name="e_fr_energy">   -367.49895141 </i>
    <i name="e_wo_entrp">   -367.49895141 </i>
    <i name="e_0_energy">   -367.49895141 </i>
   </energy>
  </scstep>
  <scstep>
   <time name="dav">    1.81    1.82</time>
   <time name="total">    1.94    1.95</time>
   <energy>
    <i name="e_fr_energy">   -367.49981308 </i>
    <i name="e_wo_entrp">   -367.49981308 </i>
    <i name="e_0_energy">   -367.49981308 </i>
   </energy>
  </scstep>
  <scstep>
   <time name="dav">    1.87    1.88</time>
   <time name="total">    2.00    2.01</time>
   <energy>
    <i name="e_fr_energy">   -367.49984963 </i>
    <i name="e_wo_entrp">   -367.49984963 </i>
    <i name="e_0_energy">   -367.49984963 </i>
   </energy>
  </scstep>
  <scstep>
   <time name="dav">    1.94    1.95</time>
   <time name="total">    2.07    2.08</time>
   <energy>
    <i name="e_fr_energy">   -367.49985202 </i>
    <i name="e_wo_entrp">   -367.49985202 </i>
    <i name="e_0_energy">   -367.49985202 </i>
   </energy>
  </scstep>
  <scstep>
   <time name="dav">    1.83    1.84</time>
   <time name="total">    1.96    1.97</time>
   <energy>
    <i name="e_fr_energy">   -367.49985111 </i>
    <i name="e_wo_entrp">   -367.49985111 </i>
    <i name="e_0_energy">   -367.49985111 </i>
   </energy>
  </scstep>
  <scstep>
   <time name="dav">    1.73    1.74</time>
   <time name="total">    1.86    1.87</time>
   <energy>
    <i name="e_fr_energy">   -367.49985089 </i>
    <i name="e_wo_entrp">   -367.49985089 </i>
    <i name="e_0_energy">   -367.49985089 </i>
   </energy>
  </scstep>
  <scstep>
   <time name="dav">    1.29    1.30</time>
   <time name="total">    1.33    1.34</time>
   <energy>
    <i name="alphaZ">    107.38120932 </i>
    <i name="ewald">  -7307.87480590 </i>
    <i name="hartreedc">   -468.78666466 </i>
    <i name="XCdc">   -539.35378678 </i>
    <i name="pawpsdc">  28474.93385305 </i>
    <i name="pawaedc"> -27375.36059818 </i>
    <i name="eentropy">     -0.00000000 </i>
    <i name="bandstr">    176.79391809 </i>
    <i name="atom">   6564.76702419 </i>
    <i name="e_fr_energy">   -367.49985088 </i>
    <i name="e_wo_entrp">   -367.49985088 </i>
    <i name="e_0_energy">   -367.49985088 </i>
   </energy>
  </scstep>
  <structure>
   <crystal>
    <varray name="basis" >
     <v>      10.86914512      -0.00000000      -0.00000000 </v>
     <v>      -0.00000000      10.86914512       0.00000000 </v>
     <v>       0.00000000       0.00000000      10.86914512 </v>
    </varray>
    <i name="volume">   1284.06249692 </i>
    <varray name="rec_basis" >
     <v>       0.09200356       0.00000000      -0.00000000 </v>
     <v>       0.00000000       0.09200356      -0.00000000 </v>
     <v>       0.00000000      -0.00000000       0.09200356 </v>
    </varray>
   </crystal>
   <varray name="positions" >
    <v>       0.25092004       0.25000000       0.25000000 </v>
    <v>       0.75000000       0.25000000       0.25000000 </v>
    <v>       0.25000000       0.75000000       0.25000000 </v>
    <v>       0.75000000       0.75000000       0.25000000 </v>
    <v>       0.25000000       0.25000000       0.75000000 </v>
    <v>       0.75000000       0.25000000       0.75000000 </v>
    <v>       0.25000000       0.75000000       0.75000000 </v>
    <v>       0.75000000       0.75000000       0.75000000 </v>
    <v>       0.25000000       0.00000000       0.00000000 </v>
    <v>       0.75000000       0.00000000       0.00000000 </v>
    <v>       0.25000000       0.50000000       0.00000000 </v>
    <v>       0.75000000       0.50000000       0.00000000 </v>
    <v>       0.25000000       0.00000000       0.50000000 </v>
    <v>       0.75000000       0.00000000       0.50000000 </v>
    <v>       0.25000000       0.50000000       0.50000000 </v>
    <v>       0.75000000       0.50000000       0.50000000 </v>
    <v>       0.00000000       0.25000000       0.99907996 </v>
    <v>       0.50000000       0.25000000       0.00000000 </v>
    <v>       0.00000000       0.75000000       0.00000000 </v>
    <v>       0.50000000       0.75000000       0.00000000 </v>
    <v>       0.00000000       0.25000000       0.50000000 </v>
    <v>       0.50000000       0.25000000       0.50000000 </v>
    <v>       0.00000000       0.75000000       0.50000000 </v>
    <v>       0.50000000       0.75000000       0.50000000 </v>
    <v>       0.00000000       0.00000000       0.25000000 </v>
    <v>       0.50000000       0.00000000       0.25000000 </v>
    <v>       0.00000000       0.50000000       0.25000000 </v>
    <v>       0.50000000       0.50000000       0.25000000 </v>
    <v>       0.00000000       0.00000000       0.75000000 </v>
    <v>       0.50000000       0.00000000       0.75000000 </v>
    <v>       0.00000000       0.50000000       0.75000000 </v>
    <v>       0.50000000       0.50000000       0.75000000 </v>
    <v>       0.37500000       0.37500000       0.37500000 </v>
    <v>       0.87500000       0.37500000       0.37500000 </v>
    <v>       0.37500000       0.87500000       0.37500000 </v>
    <v>       0.87500000       0.87500000       0.37500000 </v>
    <v>       0.37500000       0.37500000       0.87500000 </v>
    <v>       0.87500000       0.37500000       0.87500000 </v>
    <v>       0.37500000       0.87500000       0.87500000 </v>
    <v>       0.87500000       0.87500000       0.87500000 </v>
    <v>       0.37500000       0.12500000       0.12500000 </v>
    <v>       0.87500000       0.12500000       0.12500000 </v>
    <v>       0.37500000       0.62500000       0.12500000 </v>
    <v>       0.87500000       0.62500000       0.12500000 </v>
    <v>       0.37500000       0.12500000       0.62500000 </v>
    <v>       0.87500000       0.12500000       0.62500000 </v>
    <v>       0.37500000       0.62500000       0.62500000 </v>
    <v>       0.87500000       0.62500000       0.62500000 </v>
    <v>       0.12500000       0.37500000       0.12500000 </v>
    <v>       0.62500000       0.37500000       0.12500000 </v>
    <v>       0.12500000       0.87500000       0.12500000 </v>
    <v>       0.62500000       0.87500000       0.12500000 </v>
    <v>       0.12500000       0.37500000       0.62500000 </v>
    <v>       0.62500000       0.37500000       0.62500000 </v>
    <v>       0.12500000       0.87500000       0.62500000 </v>
    <v>       0.62500000       0.87500000       0.62500000 </v>
    <v>       0.12500000       0.12500000       0.37500000 </v>
    <v>       0.62500000       0.12500000       0.37500000 </v>
    <v>       0.12500000       0.62500000       0.37500000 </v>
    <v>       0.62500000       0.62500000       0.37500000 </v>
    <v>       0.12500000       0.12500000       0.87500000 </v>
    <v>       0.62500000       0.12500000       0.87500000 </v>
    <v>       0.12500000       0.62500000       0.87500000 </v>
    <v>       0.62500000       0.62500000       0.87500000 </v>
   </varray>
  </structure>
  <varray name="forces" >
   <v>      -0.13397150      -0.00093613      -0.00184000 </v>
   <v>       0.00203119       0.00094152      -0.00185964 </v>
   <v>       0.00108447      -0.00007621      -0.00032725 </v>
   <v>      -0.00055636       0.00007857      -0.00032537 </v>
   <v>       0.00234643      -0.00095474      -0.00187628 </v>
   <v>      -0.00181836       0.00095482      -0.00187747 </v>
   <v>      -0.00453100      -0.00007567      -0.00032698 </v>
   <v>       0.00082762       0.00007872      -0.00032716 </v>
   <v>      -0.00523057       0.00191112       0.00523057 </v>
   <v>      -0.00098223      -0.00086460       0.00434250 </v>
   <v>      -0.00332233       0.00189220       0.00332233 </v>
   <v>       0.00091653      -0.00087878       0.00419907 </v>
   <v>      -0.00434250      -0.00086460       0.00098223 </v>
   <v>      -0.00011413      -0.00015294       0.00011413 </v>
   <v>      -0.00419907      -0.00087878      -0.00091653 </v>
   <v>       0.00003679      -0.00015499      -0.00003679 </v>
   <v>       0.00184000      -0.00093613       0.13397150 </v>
   <v>       0.00187628      -0.00095474      -0.00234643 </v>
   <v>       0.00032725      -0.00007621      -0.00108447 </v>
   <v>       0.00032698      -0.00007567       0.00453100 </v>
   <v>       0.00185964       0.00094152      -0.00203119 </v>
   <v>       0.00187747       0.00095482       0.00181836 </v>
   <v>       0.00032537       0.00007857       0.00055636 </v>
   <v>       0.00032716       0.00007872      -0.00082762 </v>
   <v>       0.00280174       0.00370636      -0.00280174 </v>
   <v>       0.00195399      -0.00246738      -0.00127958 </v>
   <v>       0.00091231      -0.00370406      -0.00091231 </v>
   <v>       0.00179892       0.00246898       0.00062769 </v>
   <v>       0.00127958      -0.00246738      -0.00195399 </v>
   <v>       0.00040389       0.00120604      -0.00040389 </v>
   <v>      -0.00062769       0.00246898      -0.00179892 </v>
   <v>       0.00025019      -0.00120520      -0.00025019 </v>
   <v>       0.03227953       0.02324733       0.02278499 </v>
   <v>      -0.00042991       0.00068008       0.00042991 </v>
   <v>      -0.00078603       0.00061503       0.00058450 </v>
   <v>      -0.00003152       0.00042559       0.00003152 </v>
   <v>      -0.00085890       0.00081251       0.00085890 </v>
   <v>      -0.02278499       0.02324733      -0.03227953 </v>
   <v>       0.00183604       0.00050686      -0.00183604 </v>
   <v>      -0.00058450       0.00061503       0.00078603 </v>
   <v>       0.03282694      -0.02259536      -0.02249693 </v>
   <v>       0.02231082       0.02205876      -0.03252410 </v>
   <v>      -0.00026370      -0.00009166      -0.00248785 </v>
   <v>       0.00062937       0.00012627       0.00025916 </v>
   <v>      -0.00029944      -0.00015133      -0.00056669 </v>
   <v>       0.00055720       0.00008969      -0.00012400 </v>
   <v>       0.00235699       0.00001542      -0.00007636 </v>
   <v>       0.00007865      -0.00005499      -0.00049433 </v>
   <v>       0.00978556      -0.04481612      -0.00978556 </v>
   <v>      -0.00042701      -0.00075096       0.00085127 </v>
   <v>      -0.00092048      -0.00067658       0.00092048 </v>
   <v>      -0.00002845      -0.00046668      -0.00182530 </v>
   <v>      -0.00085127      -0.00075096       0.00042701 </v>
   <v>       0.00000795      -0.00051601      -0.00000795 </v>
   <v>       0.00182530      -0.00046668       0.00002845 </v>
   <v>      -0.00044731      -0.00053613       0.00044731 </v>
   <v>       0.03252410       0.02205876      -0.02231082 </v>
   <v>       0.00012400       0.00008969      -0.00055720 </v>
   <v>      -0.00025916       0.00012627      -0.00062937 </v>
   <v>       0.00049433      -0.00005499      -0.00007865 </v>
   <v>       0.02249693      -0.02259536      -0.03282694 </v>
   <v>       0.00056669      -0.00015133       0.00029944 </v>
   <v>       0.00248785      -0.00009166       0.00026370 </v>
   <v>       0.00007636       0.00001542      -0.00235699 </v>
  </varray>
  <varray name="stress" >
   <v>      -0.03090350      -0.12326525       0.00003129 </v>
   <v>      -0.12326525      -0.02866690       0.12326525 </v>
   <v>       0.00003129       0.12326525      -0.03090350 </v>
  </varray>
  <energy>
   <i name="e_fr_energy">   -367.49985088 </i>
   <i name="e_wo_entrp">   -367.49985088 </i>
   <i name="e_0_energy">   -367.49985088 </i>
  </energy>
  <time name="totalsc">   31.47   31.65</time>
  <eigenvalues>
   <array>
    <dimension dim="1">band</dimension>
    <dimension dim="2">kpoint</dimension>
    <dimension dim="3">spin</dimension>
    <field>eigene</field>
    <field>occ</field>
    <set>
     <set comment="spin 1">
      <set comment="kpoint 1">
       <r>   -6.2055    1.0000 </r>
       <r>   -5.1238    1.0000 </r>
       <r>   -5.1225    1.0000 </r>
       <r>   -5.1217    1.0000 </r>
       <r>   -5.1208    1.0000 </r>
       <r>   -5.1207    1.0000 </r>
       <r>   -5.1182    1.0000 </r>
       <r>   -4.1596    1.0000 </r>
       <r>   -4.1582    1.0000 </r>
       <r>   -4.1564    1.0000 </r>
       <r>   -4.1563    1.0000 </r>
       <r>   -4.1552    1.0000 </r>
       <r>   -4.1551    1.0000 </r>
       <r>   -4.1550    1.0000 </r>
       <r>   -4.1548    1.0000 </r>
       <r>   -4.1547    1.0000 </r>
       <r>   -4.1534    1.0000 </r>
       <r>   -4.1532    1.0000 </r>
       <r>   -4.1485    1.0000 </r>
       <r>   -3.8625    1.0000 </r>
       <r>   -3.8606    1.0000 </r>
       <r>   -3.8606    1.0000 </r>
       <r>   -3.8588    1.0000 </r>
       <r>   -2.0542    1.0000 </r>
       <r>   -2.0542    1.0000 </r>
       <r>   -2.0520    1.0000 </r>
       <r>   -2.0519    1.0000 </r>
       <r>   -2.0498    1.0000 </r>
       <r>   -2.0497    1.0000 </r>
       <r>   -1.8866    1.0000 </r>
       <r>   -1.8860    1.0000 </r>
       <r>   -1.8857    1.0000 </r>
       <r>   -1.8837    1.0000 </r>
       <r>   -1.8830    1.0000 </r>
       <r>   -1.8828    1.0000 </r>
       <r>   -1.8827    1.0000 </r>
       <r>   -1.8825    1.0000 </r>
       <r>   -1.8823    1.0000 </r>
       <r>   -1.8811    1.0000 </r>
       <r>   -1.8782    1.0000 </r>
       <r>   -1.8776    1.0000 </r>
       <r>   -1.2366    1.0000 </r>
       <r>   -1.2347    1.0000 </r>
       <r>   -1.2347    1.0000 </r>
       <r>   -1.2328    1.0000 </r>
       <r>    0.2779    1.0000 </r>
       <r>    0.2791    1.0000 </r>
       <r>    0.2798    1.0000 </r>
       <r>    0.2813    1.0000 </r>
       <r>    0.2817    1.0000 </r>
       <r>    0.2818    1.0000 </r>
       <r>    0.2820    1.0000 </r>
       <r>    0.2820    1.0000 </r>
       <r>    0.2823    1.0000 </r>
       <r>    0.2846    1.0000 </r>
       <r>    0.2853    1.0000 </r>
       <r>    0.2856    1.0000 </r>
       <r>    1.8685    1.0000 </r>
       <r>    1.8695    1.0000 </r>
       <r>    1.8702    1.0000 </r>
       <r>    1.8704    1.0000 </r>
       <r>    1.8707    1.0000 </r>
       <r>    1.8710    1.0000 </r>
       <r>    1.8712    1.0000 </r>
       <r>    1.8714    1.0000 </r>
       <r>    1.8719    1.0000 </r>
       <r>    1.8720    1.0000 </r>
       <r>    1.8722    1.0000 </r>
       <r>    1.8750    1.0000 </r>
       <r>    1.9711    1.0000 </r>
       <r>    1.9711    1.0000 </r>
       <r>    1.9723    1.0000 </r>
       <r>    1.9723    1.0000 </r>
       <r>    1.9727    1.0000 </r>
       <r>    1.9731    1.0000 </r>
       <r>    1.9733    1.0000 </r>
       <r>    1.9737    1.0000 </r>
       <r>    1.9739    1.0000 </r>
       <r>    1.9751    1.0000 </r>
       <r>    1.9752    1.0000 </r>
       <r>    1.9761    1.0000 </r>
       <r>    2.2487    1.0000 </r>
       <r>    2.2498    1.0000 </r>
       <r>    2.2513    1.0000 </r>
       <r>    2.2519    1.0000 </r>
       <r>    2.2528    1.0000 </r>
       <r>    2.2542    1.0000 </r>
       <r>    2.9005    1.0000 </r>
       <r>    2.9016    1.0000 </r>
       <r>    2.9017    1.0000 </r>
       <r>    2.9017    1.0000 </r>
       <r>    2.9019    1.0000 </r>
       <r>    2.9030    1.0000 </r>
       <r>    3.8629    1.0000 </r>
       <r>    3.8634    1.0000 </r>
       <r>    3.8659    1.0000 </r>
       <r>    3.8662    1.0000 </r>
       <r>    3.8666    1.0000 </r>
       <r>    3.8666    1.0000 </r>
       <r>    3.8667    1.0000 </r>
       <r>    3.8668    1.0000 </r>
       <r>    3.8672    1.0000 </r>
       <r>    3.8675    1.0000 </r>
       <r>    3.8699    1.0000 </r>
       <r>    3.8704    1.0000 </r>
       <r>    4.4325    1.0000 </r>
       <r>    4.4344    1.0000 </r>
       <r>    4.4353    1.0000 </r>
       <r>    4.4363    1.0000 </r>
       <r>    4.4364    1.0000 </r>
       <r>    4.4368    1.0000 </r>
       <r>    4.4372    1.0000 </r>
       <r>    4.4373    1.0000 </r>
       <r>    4.4377    1.0000 </r>
       <r>    4.4389    1.0000 </r>
       <r>    4.4401    1.0000 </r>
       <r>    4.4410    1.0000 </r>
       <r>    4.5670    1.0000 </r>
       <r>    4.5675    1.0000 </r>
       <r>    4.5690    1.0000 </r>
       <r>    4.5697    1.0000 </r>
       <r>    4.5700    1.0000 </r>
       <r>    4.5707    1.0000 </r>
       <r>    4.5722    1.0000 </r>
       <r>    4.5729    1.0000 </r>
       <r>    5.7698    1.0000 </r>
       <r>    5.7720    1.0000 </r>
       <r>    5.7741    1.0000 </r>
       <r>    6.3634    0.0000 </r>
       <r>    6.3654    0.0000 </r>
       <r>    6.3657    0.0000 </r>
       <r>    6.3658    0.0000 </r>
       <r>    6.3662    0.0000 </r>
       <r>    6.3681    0.0000 </r>
       <r>    6.8061    0.0000 </r>
       <r>    6.8065    0.0000 </r>
       <r>    6.8076    0.0000 </r>
       <r>    6.8082    0.0000 </r>
       <r>    6.8097    0.0000 </r>
       <r>    6.8104    0.0000 </r>
       <r>    7.2316    0.0000 </r>
       <r>    7.2320    0.0000 </r>
       <r>    7.2320    0.0000 </r>
       <r>    7.2324    0.0000 </r>
       <r>    8.1350    0.0000 </r>
       <r>    8.1354    0.0000 </r>
       <r>    8.1358    0.0000 </r>
       <r>    8.1361    0.0000 </r>
       <r>    8.1378    0.0000 </r>
       <r>    8.1378    0.0000 </r>
       <r>    8.1380    0.0000 </r>
       <r>    8.1383    0.0000 </r>
       <r>    8.1387    0.0000 </r>
       <r>    8.1400    0.0000 </r>
       <r>    8.1407    0.0000 </r>
       <r>    8.1415    0.0000 </r>
       <r>    8.2877    0.0000 </r>
       <r>    8.2889    0.0000 </r>
       <r>    8.2902    0.0000 </r>
       <r>    8.7963    0.0000 </r>
       <r>    8.7975    0.0000 </r>
       <r>    8.7979    0.0000 </r>
       <r>    8.7980    0.0000 </r>
       <r>    8.7984    0.0000 </r>
       <r>    8.7996    0.0000 </r>
       <r>    9.0490    0.0000 </r>
       <r>    9.0499    0.0000 </r>
       <r>    9.0528    0.0000 </r>
      </set>
      <set comment="kpoint 2">
       <r>   -5.9327    1.0000 </r>
       <r>   -5.9314    1.0000 </r>
       <r>   -4.8758    1.0000 </r>
       <r>   -4.8748    1.0000 </r>
       <r>   -4.8742    1.0000 </r>
       <r>   -4.8732    1.0000 </r>
       <r>   -4.8726    1.0000 </r>
       <r>   -4.8720    1.0000 </r>
       <r>   -4.8711    1.0000 </r>
       <r>   -4.8682    1.0000 </r>
       <r>   -4.0250    1.0000 </r>
       <r>   -4.0246    1.0000 </r>
       <r>   -4.0237    1.0000 </r>
       <r>   -4.0229    1.0000 </r>
       <r>   -4.0227    1.0000 </r>
       <r>   -4.0225    1.0000 </r>
       <r>   -4.0214    1.0000 </r>
       <r>   -4.0188    1.0000 </r>
       <r>   -3.8068    1.0000 </r>
       <r>   -3.8045    1.0000 </r>
       <r>   -3.0794    1.0000 </r>
       <r>   -3.0787    1.0000 </r>
       <r>   -3.0776    1.0000 </r>
       <r>   -3.0769    1.0000 </r>
       <r>   -3.0761    1.0000 </r>
       <r>   -3.0759    1.0000 </r>
       <r>   -3.0745    1.0000 </r>
       <r>   -3.0719    1.0000 </r>
       <r>   -1.9740    1.0000 </r>
       <r>   -1.9736    1.0000 </r>
       <r>   -1.9717    1.0000 </r>
       <r>   -1.9717    1.0000 </r>
       <r>   -1.9715    1.0000 </r>
       <r>   -1.9713    1.0000 </r>
       <r>   -1.9705    1.0000 </r>
       <r>   -1.9675    1.0000 </r>
       <r>   -0.8054    1.0000 </r>
       <r>   -0.8049    1.0000 </r>
       <r>   -0.8043    1.0000 </r>
       <r>   -0.8036    1.0000 </r>
       <r>   -0.8027    1.0000 </r>
       <r>   -0.8018    1.0000 </r>
       <r>   -0.8013    1.0000 </r>
       <r>   -0.8001    1.0000 </r>
       <r>   -0.6374    1.0000 </r>
       <r>   -0.6355    1.0000 </r>
       <r>   -0.6346    1.0000 </r>
       <r>   -0.6343    1.0000 </r>
       <r>   -0.6340    1.0000 </r>
       <r>   -0.6331    1.0000 </r>
       <r>   -0.6317    1.0000 </r>
       <r>   -0.6311    1.0000 </r>
       <r>    0.0225    1.0000 </r>
       <r>    0.0240    1.0000 </r>
       <r>    1.4704    1.0000 </r>
       <r>    1.4717    1.0000 </r>
       <r>    1.4734    1.0000 </r>
       <r>    1.4741    1.0000 </r>
       <r>    1.4747    1.0000 </r>
       <r>    1.4753    1.0000 </r>
       <r>    1.4756    1.0000 </r>
       <r>    1.4779    1.0000 </r>
       <r>    1.4915    1.0000 </r>
       <r>    1.4917    1.0000 </r>
       <r>    1.4926    1.0000 </r>
       <r>    1.4932    1.0000 </r>
       <r>    1.4935    1.0000 </r>
       <r>    1.4940    1.0000 </r>
       <r>    1.4946    1.0000 </r>
       <r>    1.4967    1.0000 </r>
       <r>    2.3169    1.0000 </r>
       <r>    2.3170    1.0000 </r>
       <r>    2.3176    1.0000 </r>
       <r>    2.3177    1.0000 </r>
       <r>    2.3181    1.0000 </r>
       <r>    2.3185    1.0000 </r>
       <r>    2.3191    1.0000 </r>
       <r>    2.3194    1.0000 </r>
       <r>    3.0220    1.0000 </r>
       <r>    3.0240    1.0000 </r>
       <r>    3.0244    1.0000 </r>
       <r>    3.0246    1.0000 </r>
       <r>    3.0247    1.0000 </r>
       <r>    3.0254    1.0000 </r>
       <r>    3.0256    1.0000 </r>
       <r>    3.0276    1.0000 </r>
       <r>    3.1464    1.0000 </r>
       <r>    3.1477    1.0000 </r>
       <r>    3.1484    1.0000 </r>
       <r>    3.1494    1.0000 </r>
       <r>    3.1573    1.0000 </r>
       <r>    3.1580    1.0000 </r>
       <r>    3.1583    1.0000 </r>
       <r>    3.1587    1.0000 </r>
       <r>    3.1591    1.0000 </r>
       <r>    3.1598    1.0000 </r>
       <r>    3.1608    1.0000 </r>
       <r>    3.1620    1.0000 </r>
       <r>    3.2835    1.0000 </r>
       <r>    3.2845    1.0000 </r>
       <r>    3.2850    1.0000 </r>
       <r>    3.2854    1.0000 </r>
       <r>    3.2859    1.0000 </r>
       <r>    3.2864    1.0000 </r>
       <r>    3.2872    1.0000 </r>
       <r>    3.2883    1.0000 </r>
       <r>    4.3291    1.0000 </r>
       <r>    4.3311    1.0000 </r>
       <r>    4.3313    1.0000 </r>
       <r>    4.3316    1.0000 </r>
       <r>    4.3320    1.0000 </r>
       <r>    4.3325    1.0000 </r>
       <r>    4.3326    1.0000 </r>
       <r>    4.3343    1.0000 </r>
       <r>    4.4329    1.0000 </r>
       <r>    4.4330    1.0000 </r>
       <r>    4.4966    1.0000 </r>
       <r>    4.4999    1.0000 </r>
       <r>    4.5002    1.0000 </r>
       <r>    4.5008    1.0000 </r>
       <r>    4.5009    1.0000 </r>
       <r>    4.5014    1.0000 </r>
       <r>    4.5021    1.0000 </r>
       <r>    4.5055    1.0000 </r>
       <r>    4.9528    1.0000 </r>
       <r>    4.9547    1.0000 </r>
       <r>    4.9557    1.0000 </r>
       <r>    4.9577    1.0000 </r>
       <r>    6.2790    0.0000 </r>
       <r>    6.2804    0.0000 </r>
       <r>    7.1933    0.0000 </r>
       <r>    7.1946    0.0000 </r>
       <r>    7.6431    0.0000 </r>
       <r>    7.6444    0.0000 </r>
       <r>    7.6449    0.0000 </r>
       <r>    7.6461    0.0000 </r>
       <r>    7.6463    0.0000 </r>
       <r>    7.6467    0.0000 </r>
       <r>    7.6468    0.0000 </r>
       <r>    7.6483    0.0000 </r>
       <r>    7.7138    0.0000 </r>
       <r>    7.7144    0.0000 </r>
       <r>    8.0572    0.0000 </r>
       <r>    8.0590    0.0000 </r>
       <r>    8.0593    0.0000 </r>
       <r>    8.0596    0.0000 </r>
       <r>    8.0597    0.0000 </r>
       <r>    8.0602    0.0000 </r>
       <r>    8.0603    0.0000 </r>
       <r>    8.0623    0.0000 </r>
       <r>    8.1435    0.0000 </r>
       <r>    8.1448    0.0000 </r>
       <r>    8.1452    0.0000 </r>
       <r>    8.1453    0.0000 </r>
       <r>    8.1460    0.0000 </r>
       <r>    8.1463    0.0000 </r>
       <r>    8.1464    0.0000 </r>
       <r>    8.1478    0.0000 </r>
       <r>    8.5504    0.0000 </r>
       <r>    8.5514    0.0000 </r>
       <r>    8.5517    0.0000 </r>
       <r>    8.5520    0.0000 </r>
       <r>    8.5535    0.0000 </r>
       <r>    8.5539    0.0000 </r>
       <r>    8.5542    0.0000 </r>
       <r>    8.5554    0.0000 </r>
       <r>    9.3199    0.0000 </r>
       <r>    9.3245    0.0000 </r>
      </set>
      <set comment="kpoint 3">
       <r>   -5.9320    1.0000 </r>
       <r>   -5.9320    1.0000 </r>
       <r>   -4.8778    1.0000 </r>
       <r>   -4.8743    1.0000 </r>
       <r>   -4.8735    1.0000 </r>
       <r>   -4.8729    1.0000 </r>
       <r>   -4.8726    1.0000 </r>
       <r>   -4.8720    1.0000 </r>
       <r>   -4.8712    1.0000 </r>
       <r>   -4.8677    1.0000 </r>
       <r>   -4.0267    1.0000 </r>
       <r>   -4.0230    1.0000 </r>
       <r>   -4.0227    1.0000 </r>
       <r>   -4.0227    1.0000 </r>
       <r>   -4.0227    1.0000 </r>
       <r>   -4.0227    1.0000 </r>
       <r>   -4.0224    1.0000 </r>
       <r>   -4.0187    1.0000 </r>
       <r>   -3.8057    1.0000 </r>
       <r>   -3.8057    1.0000 </r>
       <r>   -3.0796    1.0000 </r>
       <r>   -3.0781    1.0000 </r>
       <r>   -3.0778    1.0000 </r>
       <r>   -3.0767    1.0000 </r>
       <r>   -3.0761    1.0000 </r>
       <r>   -3.0750    1.0000 </r>
       <r>   -3.0747    1.0000 </r>
       <r>   -3.0732    1.0000 </r>
       <r>   -1.9758    1.0000 </r>
       <r>   -1.9718    1.0000 </r>
       <r>   -1.9715    1.0000 </r>
       <r>   -1.9715    1.0000 </r>
       <r>   -1.9715    1.0000 </r>
       <r>   -1.9714    1.0000 </r>
       <r>   -1.9711    1.0000 </r>
       <r>   -1.9672    1.0000 </r>
       <r>   -0.8062    1.0000 </r>
       <r>   -0.8059    1.0000 </r>
       <r>   -0.8044    1.0000 </r>
       <r>   -0.8032    1.0000 </r>
       <r>   -0.8028    1.0000 </r>
       <r>   -0.8016    1.0000 </r>
       <r>   -0.8002    1.0000 </r>
       <r>   -0.7999    1.0000 </r>
       <r>   -0.6374    1.0000 </r>
       <r>   -0.6350    1.0000 </r>
       <r>   -0.6340    1.0000 </r>
       <r>   -0.6340    1.0000 </r>
       <r>   -0.6340    1.0000 </r>
       <r>   -0.6340    1.0000 </r>
       <r>   -0.6329    1.0000 </r>
       <r>   -0.6304    1.0000 </r>
       <r>    0.0232    1.0000 </r>
       <r>    0.0232    1.0000 </r>
       <r>    1.4719    1.0000 </r>
       <r>    1.4720    1.0000 </r>
       <r>    1.4731    1.0000 </r>
       <r>    1.4740    1.0000 </r>
       <r>    1.4745    1.0000 </r>
       <r>    1.4751    1.0000 </r>
       <r>    1.4763    1.0000 </r>
       <r>    1.4764    1.0000 </r>
       <r>    1.4910    1.0000 </r>
       <r>    1.4926    1.0000 </r>
       <r>    1.4931    1.0000 </r>
       <r>    1.4934    1.0000 </r>
       <r>    1.4936    1.0000 </r>
       <r>    1.4936    1.0000 </r>
       <r>    1.4941    1.0000 </r>
       <r>    1.4960    1.0000 </r>
       <r>    2.3165    1.0000 </r>
       <r>    2.3168    1.0000 </r>
       <r>    2.3177    1.0000 </r>
       <r>    2.3179    1.0000 </r>
       <r>    2.3182    1.0000 </r>
       <r>    2.3184    1.0000 </r>
       <r>    2.3193    1.0000 </r>
       <r>    2.3196    1.0000 </r>
       <r>    3.0239    1.0000 </r>
       <r>    3.0240    1.0000 </r>
       <r>    3.0244    1.0000 </r>
       <r>    3.0245    1.0000 </r>
       <r>    3.0251    1.0000 </r>
       <r>    3.0252    1.0000 </r>
       <r>    3.0256    1.0000 </r>
       <r>    3.0257    1.0000 </r>
       <r>    3.1480    1.0000 </r>
       <r>    3.1480    1.0000 </r>
       <r>    3.1481    1.0000 </r>
       <r>    3.1481    1.0000 </r>
       <r>    3.1571    1.0000 </r>
       <r>    3.1576    1.0000 </r>
       <r>    3.1581    1.0000 </r>
       <r>    3.1591    1.0000 </r>
       <r>    3.1593    1.0000 </r>
       <r>    3.1603    1.0000 </r>
       <r>    3.1609    1.0000 </r>
       <r>    3.1613    1.0000 </r>
       <r>    3.2826    1.0000 </r>
       <r>    3.2845    1.0000 </r>
       <r>    3.2857    1.0000 </r>
       <r>    3.2857    1.0000 </r>
       <r>    3.2858    1.0000 </r>
       <r>    3.2858    1.0000 </r>
       <r>    3.2870    1.0000 </r>
       <r>    3.2890    1.0000 </r>
       <r>    4.3281    1.0000 </r>
       <r>    4.3286    1.0000 </r>
       <r>    4.3312    1.0000 </r>
       <r>    4.3314    1.0000 </r>
       <r>    4.3322    1.0000 </r>
       <r>    4.3325    1.0000 </r>
       <r>    4.3350    1.0000 </r>
       <r>    4.3354    1.0000 </r>
       <r>    4.4330    1.0000 </r>
       <r>    4.4331    1.0000 </r>
       <r>    4.4986    1.0000 </r>
       <r>    4.5008    1.0000 </r>
       <r>    4.5009    1.0000 </r>
       <r>    4.5009    1.0000 </r>
       <r>    4.5009    1.0000 </r>
       <r>    4.5009    1.0000 </r>
       <r>    4.5012    1.0000 </r>
       <r>    4.5032    1.0000 </r>
       <r>    4.9552    1.0000 </r>
       <r>    4.9552    1.0000 </r>
       <r>    4.9552    1.0000 </r>
       <r>    4.9553    1.0000 </r>
       <r>    6.2797    0.0000 </r>
       <r>    6.2797    0.0000 </r>
       <r>    7.1939    0.0000 </r>
       <r>    7.1939    0.0000 </r>
       <r>    7.6439    0.0000 </r>
       <r>    7.6440    0.0000 </r>
       <r>    7.6452    0.0000 </r>
       <r>    7.6454    0.0000 </r>
       <r>    7.6463    0.0000 </r>
       <r>    7.6465    0.0000 </r>
       <r>    7.6477    0.0000 </r>
       <r>    7.6477    0.0000 </r>
       <r>    7.7141    0.0000 </r>
       <r>    7.7142    0.0000 </r>
       <r>    8.0587    0.0000 </r>
       <r>    8.0591    0.0000 </r>
       <r>    8.0596    0.0000 </r>
       <r>    8.0597    0.0000 </r>
       <r>    8.0597    0.0000 </r>
       <r>    8.0597    0.0000 </r>
       <r>    8.0603    0.0000 </r>
       <r>    8.0606    0.0000 </r>
       <r>    8.1432    0.0000 </r>
       <r>    8.1445    0.0000 </r>
       <r>    8.1451    0.0000 </r>
       <r>    8.1454    0.0000 </r>
       <r>    8.1459    0.0000 </r>
       <r>    8.1463    0.0000 </r>
       <r>    8.1468    0.0000 </r>
       <r>    8.1480    0.0000 </r>
       <r>    8.5511    0.0000 </r>
       <r>    8.5512    0.0000 </r>
       <r>    8.5520    0.0000 </r>
       <r>    8.5525    0.0000 </r>
       <r>    8.5531    0.0000 </r>
       <r>    8.5537    0.0000 </r>
       <r>    8.5544    0.0000 </r>
       <r>    8.5545    0.0000 </r>
       <r>    9.3209    0.0000 </r>
       <r>    9.3233    0.0000 </r>
      </set>
      <set comment="kpoint 4">
       <r>   -5.6651    1.0000 </r>
       <r>   -5.6642    1.0000 </r>
       <r>   -5.6637    1.0000 </r>
       <r>   -5.6627    1.0000 </r>
       <r>   -4.6467    1.0000 </r>
       <r>   -4.6460    1.0000 </r>
       <r>   -4.6449    1.0000 </r>
       <r>   -4.6444    1.0000 </r>
       <r>   -4.6441    1.0000 </r>
       <r>   -4.6441    1.0000 </r>
       <r>   -4.6435    1.0000 </r>
       <r>   -4.6394    1.0000 </r>
       <r>   -3.6087    1.0000 </r>
       <r>   -3.6064    1.0000 </r>
       <r>   -3.6060    1.0000 </r>
       <r>   -3.6056    1.0000 </r>
       <r>   -3.6052    1.0000 </r>
       <r>   -3.6050    1.0000 </r>
       <r>   -3.6043    1.0000 </r>
       <r>   -3.6018    1.0000 </r>
       <r>   -3.3246    1.0000 </r>
       <r>   -3.3230    1.0000 </r>
       <r>   -3.3224    1.0000 </r>
       <r>   -3.3219    1.0000 </r>
       <r>   -3.3215    1.0000 </r>
       <r>   -3.3214    1.0000 </r>
       <r>   -3.3201    1.0000 </r>
       <r>   -3.3181    1.0000 </r>
       <r>   -2.4620    1.0000 </r>
       <r>   -2.4604    1.0000 </r>
       <r>   -2.4588    1.0000 </r>
       <r>   -2.4578    1.0000 </r>
       <r>   -1.4638    1.0000 </r>
       <r>   -1.4635    1.0000 </r>
       <r>   -1.4630    1.0000 </r>
       <r>   -1.4604    1.0000 </r>
       <r>   -1.0418    1.0000 </r>
       <r>   -1.0402    1.0000 </r>
       <r>   -1.0391    1.0000 </r>
       <r>   -1.0386    1.0000 </r>
       <r>   -1.0383    1.0000 </r>
       <r>   -1.0373    1.0000 </r>
       <r>   -1.0367    1.0000 </r>
       <r>   -1.0348    1.0000 </r>
       <r>   -0.1988    1.0000 </r>
       <r>   -0.1973    1.0000 </r>
       <r>   -0.1961    1.0000 </r>
       <r>   -0.1954    1.0000 </r>
       <r>   -0.1952    1.0000 </r>
       <r>   -0.1942    1.0000 </r>
       <r>   -0.1927    1.0000 </r>
       <r>   -0.1924    1.0000 </r>
       <r>    0.4619    1.0000 </r>
       <r>    0.4628    1.0000 </r>
       <r>    0.4648    1.0000 </r>
       <r>    0.4650    1.0000 </r>
       <r>    0.4651    1.0000 </r>
       <r>    0.4659    1.0000 </r>
       <r>    0.4670    1.0000 </r>
       <r>    0.4672    1.0000 </r>
       <r>    1.4164    1.0000 </r>
       <r>    1.4165    1.0000 </r>
       <r>    1.4169    1.0000 </r>
       <r>    1.4182    1.0000 </r>
       <r>    2.2850    1.0000 </r>
       <r>    2.2857    1.0000 </r>
       <r>    2.2864    1.0000 </r>
       <r>    2.2871    1.0000 </r>
       <r>    2.2876    1.0000 </r>
       <r>    2.2880    1.0000 </r>
       <r>    2.2890    1.0000 </r>
       <r>    2.2895    1.0000 </r>
       <r>    2.3709    1.0000 </r>
       <r>    2.3713    1.0000 </r>
       <r>    2.3716    1.0000 </r>
       <r>    2.3718    1.0000 </r>
       <r>    2.3720    1.0000 </r>
       <r>    2.3728    1.0000 </r>
       <r>    2.3733    1.0000 </r>
       <r>    2.3738    1.0000 </r>
       <r>    2.9810    1.0000 </r>
       <r>    2.9818    1.0000 </r>
       <r>    2.9825    1.0000 </r>
       <r>    2.9831    1.0000 </r>
       <r>    2.9837    1.0000 </r>
       <r>    2.9838    1.0000 </r>
       <r>    2.9845    1.0000 </r>
       <r>    2.9851    1.0000 </r>
       <r>    3.0756    1.0000 </r>
       <r>    3.0758    1.0000 </r>
       <r>    3.0769    1.0000 </r>
       <r>    3.0788    1.0000 </r>
       <r>    3.3303    1.0000 </r>
       <r>    3.3306    1.0000 </r>
       <r>    3.3314    1.0000 </r>
       <r>    3.3332    1.0000 </r>
       <r>    3.5889    1.0000 </r>
       <r>    3.5900    1.0000 </r>
       <r>    3.5906    1.0000 </r>
       <r>    3.5909    1.0000 </r>
       <r>    3.5914    1.0000 </r>
       <r>    3.5918    1.0000 </r>
       <r>    3.5922    1.0000 </r>
       <r>    3.5932    1.0000 </r>
       <r>    3.9157    1.0000 </r>
       <r>    3.9172    1.0000 </r>
       <r>    3.9173    1.0000 </r>
       <r>    3.9179    1.0000 </r>
       <r>    3.9185    1.0000 </r>
       <r>    3.9189    1.0000 </r>
       <r>    3.9192    1.0000 </r>
       <r>    3.9211    1.0000 </r>
       <r>    4.1179    1.0000 </r>
       <r>    4.1182    1.0000 </r>
       <r>    4.1187    1.0000 </r>
       <r>    4.1189    1.0000 </r>
       <r>    4.1702    1.0000 </r>
       <r>    4.1731    1.0000 </r>
       <r>    4.1736    1.0000 </r>
       <r>    4.1737    1.0000 </r>
       <r>    4.1742    1.0000 </r>
       <r>    4.1744    1.0000 </r>
       <r>    4.1752    1.0000 </r>
       <r>    4.1788    1.0000 </r>
       <r>    5.4772    1.0000 </r>
       <r>    5.4800    1.0000 </r>
       <r>    5.4808    1.0000 </r>
       <r>    5.4830    1.0000 </r>
       <r>    6.8645    0.0000 </r>
       <r>    6.8652    0.0000 </r>
       <r>    6.8657    0.0000 </r>
       <r>    6.8678    0.0000 </r>
       <r>    7.6287    0.0000 </r>
       <r>    7.6307    0.0000 </r>
       <r>    7.6311    0.0000 </r>
       <r>    7.6313    0.0000 </r>
       <r>    7.6317    0.0000 </r>
       <r>    7.6324    0.0000 </r>
       <r>    7.6333    0.0000 </r>
       <r>    7.6337    0.0000 </r>
       <r>    7.9368    0.0000 </r>
       <r>    7.9390    0.0000 </r>
       <r>    7.9396    0.0000 </r>
       <r>    7.9397    0.0000 </r>
       <r>    7.9405    0.0000 </r>
       <r>    7.9406    0.0000 </r>
       <r>    7.9406    0.0000 </r>
       <r>    7.9432    0.0000 </r>
       <r>    8.3134    0.0000 </r>
       <r>    8.3134    0.0000 </r>
       <r>    8.3146    0.0000 </r>
       <r>    8.3149    0.0000 </r>
       <r>    8.3154    0.0000 </r>
       <r>    8.3157    0.0000 </r>
       <r>    8.3163    0.0000 </r>
       <r>    8.3178    0.0000 </r>
       <r>    8.7651    0.0000 </r>
       <r>    8.7670    0.0000 </r>
       <r>    8.7684    0.0000 </r>
       <r>    8.7704    0.0000 </r>
       <r>    8.7711    0.0000 </r>
       <r>    8.7734    0.0000 </r>
       <r>    8.7746    0.0000 </r>
       <r>    8.7781    0.0000 </r>
       <r>    8.7859    0.0000 </r>
       <r>    8.7901    0.0000 </r>
       <r>    8.8032    0.0000 </r>
       <r>    8.8104    0.0000 </r>
      </set>
      <set comment="kpoint 5">
       <r>   -5.6649    1.0000 </r>
       <r>   -5.6649    1.0000 </r>
       <r>   -5.6642    1.0000 </r>
       <r>   -5.6616    1.0000 </r>
       <r>   -4.6460    1.0000 </r>
       <r>   -4.6458    1.0000 </r>
       <r>   -4.6448    1.0000 </r>
       <r>   -4.6444    1.0000 </r>
       <r>   -4.6443    1.0000 </r>
       <r>   -4.6443    1.0000 </r>
       <r>   -4.6430    1.0000 </r>
       <r>   -4.6407    1.0000 </r>
       <r>   -3.6098    1.0000 </r>
       <r>   -3.6071    1.0000 </r>
       <r>   -3.6063    1.0000 </r>
       <r>   -3.6055    1.0000 </r>
       <r>   -3.6054    1.0000 </r>
       <r>   -3.6052    1.0000 </r>
       <r>   -3.6023    1.0000 </r>
       <r>   -3.6015    1.0000 </r>
       <r>   -3.3256    1.0000 </r>
       <r>   -3.3230    1.0000 </r>
       <r>   -3.3227    1.0000 </r>
       <r>   -3.3218    1.0000 </r>
       <r>   -3.3216    1.0000 </r>
       <r>   -3.3215    1.0000 </r>
       <r>   -3.3186    1.0000 </r>
       <r>   -3.3181    1.0000 </r>
       <r>   -2.4616    1.0000 </r>
       <r>   -2.4594    1.0000 </r>
       <r>   -2.4594    1.0000 </r>
       <r>   -2.4586    1.0000 </r>
       <r>   -1.4642    1.0000 </r>
       <r>   -1.4642    1.0000 </r>
       <r>   -1.4613    1.0000 </r>
       <r>   -1.4611    1.0000 </r>
       <r>   -1.0404    1.0000 </r>
       <r>   -1.0402    1.0000 </r>
       <r>   -1.0394    1.0000 </r>
       <r>   -1.0385    1.0000 </r>
       <r>   -1.0382    1.0000 </r>
       <r>   -1.0381    1.0000 </r>
       <r>   -1.0360    1.0000 </r>
       <r>   -1.0359    1.0000 </r>
       <r>   -0.1974    1.0000 </r>
       <r>   -0.1970    1.0000 </r>
       <r>   -0.1959    1.0000 </r>
       <r>   -0.1954    1.0000 </r>
       <r>   -0.1953    1.0000 </r>
       <r>   -0.1951    1.0000 </r>
       <r>   -0.1939    1.0000 </r>
       <r>   -0.1919    1.0000 </r>
       <r>    0.4614    1.0000 </r>
       <r>    0.4632    1.0000 </r>
       <r>    0.4642    1.0000 </r>
       <r>    0.4646    1.0000 </r>
       <r>    0.4653    1.0000 </r>
       <r>    0.4663    1.0000 </r>
       <r>    0.4668    1.0000 </r>
       <r>    0.4680    1.0000 </r>
       <r>    1.4164    1.0000 </r>
       <r>    1.4164    1.0000 </r>
       <r>    1.4172    1.0000 </r>
       <r>    1.4180    1.0000 </r>
       <r>    2.2861    1.0000 </r>
       <r>    2.2862    1.0000 </r>
       <r>    2.2868    1.0000 </r>
       <r>    2.2870    1.0000 </r>
       <r>    2.2874    1.0000 </r>
       <r>    2.2876    1.0000 </r>
       <r>    2.2885    1.0000 </r>
       <r>    2.2888    1.0000 </r>
       <r>    2.3705    1.0000 </r>
       <r>    2.3707    1.0000 </r>
       <r>    2.3713    1.0000 </r>
       <r>    2.3720    1.0000 </r>
       <r>    2.3725    1.0000 </r>
       <r>    2.3727    1.0000 </r>
       <r>    2.3737    1.0000 </r>
       <r>    2.3741    1.0000 </r>
       <r>    2.9815    1.0000 </r>
       <r>    2.9822    1.0000 </r>
       <r>    2.9829    1.0000 </r>
       <r>    2.9831    1.0000 </r>
       <r>    2.9837    1.0000 </r>
       <r>    2.9837    1.0000 </r>
       <r>    2.9840    1.0000 </r>
       <r>    2.9845    1.0000 </r>
       <r>    3.0759    1.0000 </r>
       <r>    3.0760    1.0000 </r>
       <r>    3.0775    1.0000 </r>
       <r>    3.0775    1.0000 </r>
       <r>    3.3299    1.0000 </r>
       <r>    3.3314    1.0000 </r>
       <r>    3.3322    1.0000 </r>
       <r>    3.3322    1.0000 </r>
       <r>    3.5894    1.0000 </r>
       <r>    3.5895    1.0000 </r>
       <r>    3.5899    1.0000 </r>
       <r>    3.5907    1.0000 </r>
       <r>    3.5911    1.0000 </r>
       <r>    3.5914    1.0000 </r>
       <r>    3.5934    1.0000 </r>
       <r>    3.5935    1.0000 </r>
       <r>    3.9150    1.0000 </r>
       <r>    3.9165    1.0000 </r>
       <r>    3.9172    1.0000 </r>
       <r>    3.9181    1.0000 </r>
       <r>    3.9182    1.0000 </r>
       <r>    3.9188    1.0000 </r>
       <r>    3.9201    1.0000 </r>
       <r>    3.9220    1.0000 </r>
       <r>    4.1181    1.0000 </r>
       <r>    4.1184    1.0000 </r>
       <r>    4.1185    1.0000 </r>
       <r>    4.1189    1.0000 </r>
       <r>    4.1722    1.0000 </r>
       <r>    4.1735    1.0000 </r>
       <r>    4.1741    1.0000 </r>
       <r>    4.1741    1.0000 </r>
       <r>    4.1744    1.0000 </r>
       <r>    4.1745    1.0000 </r>
       <r>    4.1751    1.0000 </r>
       <r>    4.1753    1.0000 </r>
       <r>    5.4798    1.0000 </r>
       <r>    5.4800    1.0000 </r>
       <r>    5.4800    1.0000 </r>
       <r>    5.4812    1.0000 </r>
       <r>    6.8651    0.0000 </r>
       <r>    6.8651    0.0000 </r>
       <r>    6.8661    0.0000 </r>
       <r>    6.8669    0.0000 </r>
       <r>    7.6298    0.0000 </r>
       <r>    7.6299    0.0000 </r>
       <r>    7.6310    0.0000 </r>
       <r>    7.6315    0.0000 </r>
       <r>    7.6317    0.0000 </r>
       <r>    7.6320    0.0000 </r>
       <r>    7.6331    0.0000 </r>
       <r>    7.6337    0.0000 </r>
       <r>    7.9391    0.0000 </r>
       <r>    7.9395    0.0000 </r>
       <r>    7.9397    0.0000 </r>
       <r>    7.9398    0.0000 </r>
       <r>    7.9400    0.0000 </r>
       <r>    7.9401    0.0000 </r>
       <r>    7.9406    0.0000 </r>
       <r>    7.9411    0.0000 </r>
       <r>    8.3137    0.0000 </r>
       <r>    8.3144    0.0000 </r>
       <r>    8.3146    0.0000 </r>
       <r>    8.3148    0.0000 </r>
       <r>    8.3150    0.0000 </r>
       <r>    8.3158    0.0000 </r>
       <r>    8.3165    0.0000 </r>
       <r>    8.3166    0.0000 </r>
       <r>    8.7650    0.0000 </r>
       <r>    8.7660    0.0000 </r>
       <r>    8.7678    0.0000 </r>
       <r>    8.7700    0.0000 </r>
       <r>    8.7711    0.0000 </r>
       <r>    8.7730    0.0000 </r>
       <r>    8.7749    0.0000 </r>
       <r>    8.7797    0.0000 </r>
       <r>    8.7826    0.0000 </r>
       <r>    8.7943    0.0000 </r>
       <r>    8.8079    0.0000 </r>
       <r>    8.8136    0.0000 </r>
      </set>
      <set comment="kpoint 6">
       <r>   -5.4061    1.0000 </r>
       <r>   -5.4060    1.0000 </r>
       <r>   -5.4044    1.0000 </r>
       <r>   -5.4041    1.0000 </r>
       <r>   -5.4036    1.0000 </r>
       <r>   -5.4035    1.0000 </r>
       <r>   -5.4030    1.0000 </r>
       <r>   -5.3992    1.0000 </r>
       <r>   -3.4875    1.0000 </r>
       <r>   -3.4838    1.0000 </r>
       <r>   -3.4811    1.0000 </r>
       <r>   -3.4809    1.0000 </r>
       <r>   -3.4790    1.0000 </r>
       <r>   -3.4786    1.0000 </r>
       <r>   -3.4783    1.0000 </r>
       <r>   -3.4783    1.0000 </r>
       <r>   -3.4782    1.0000 </r>
       <r>   -3.4781    1.0000 </r>
       <r>   -3.4780    1.0000 </r>
       <r>   -3.4778    1.0000 </r>
       <r>   -3.4777    1.0000 </r>
       <r>   -3.4776    1.0000 </r>
       <r>   -3.4776    1.0000 </r>
       <r>   -3.4775    1.0000 </r>
       <r>   -3.4774    1.0000 </r>
       <r>   -3.4774    1.0000 </r>
       <r>   -3.4771    1.0000 </r>
       <r>   -3.4770    1.0000 </r>
       <r>   -3.4767    1.0000 </r>
       <r>   -3.4740    1.0000 </r>
       <r>   -3.4704    1.0000 </r>
       <r>   -3.4664    1.0000 </r>
       <r>   -0.6334    1.0000 </r>
       <r>   -0.6295    1.0000 </r>
       <r>   -0.6293    1.0000 </r>
       <r>   -0.6277    1.0000 </r>
       <r>   -0.6255    1.0000 </r>
       <r>   -0.6254    1.0000 </r>
       <r>   -0.6253    1.0000 </r>
       <r>   -0.6252    1.0000 </r>
       <r>   -0.6250    1.0000 </r>
       <r>   -0.6249    1.0000 </r>
       <r>   -0.6248    1.0000 </r>
       <r>   -0.6247    1.0000 </r>
       <r>   -0.6246    1.0000 </r>
       <r>   -0.6244    1.0000 </r>
       <r>   -0.6244    1.0000 </r>
       <r>   -0.6242    1.0000 </r>
       <r>   -0.6242    1.0000 </r>
       <r>   -0.6241    1.0000 </r>
       <r>   -0.6239    1.0000 </r>
       <r>   -0.6234    1.0000 </r>
       <r>   -0.6234    1.0000 </r>
       <r>   -0.6181    1.0000 </r>
       <r>   -0.6174    1.0000 </r>
       <r>   -0.6171    1.0000 </r>
       <r>    1.8198    1.0000 </r>
       <r>    1.8201    1.0000 </r>
       <r>    1.8222    1.0000 </r>
       <r>    1.8225    1.0000 </r>
       <r>    1.8231    1.0000 </r>
       <r>    1.8238    1.0000 </r>
       <r>    1.8241    1.0000 </r>
       <r>    1.8257    1.0000 </r>
       <r>    2.1934    1.0000 </r>
       <r>    2.1936    1.0000 </r>
       <r>    2.1947    1.0000 </r>
       <r>    2.1957    1.0000 </r>
       <r>    2.1970    1.0000 </r>
       <r>    2.1974    1.0000 </r>
       <r>    2.1976    1.0000 </r>
       <r>    2.1976    1.0000 </r>
       <r>    2.1978    1.0000 </r>
       <r>    2.1979    1.0000 </r>
       <r>    2.1982    1.0000 </r>
       <r>    2.1982    1.0000 </r>
       <r>    2.1984    1.0000 </r>
       <r>    2.1985    1.0000 </r>
       <r>    2.1988    1.0000 </r>
       <r>    2.1989    1.0000 </r>
       <r>    2.1989    1.0000 </r>
       <r>    2.1992    1.0000 </r>
       <r>    2.1995    1.0000 </r>
       <r>    2.1996    1.0000 </r>
       <r>    2.2010    1.0000 </r>
       <r>    2.2017    1.0000 </r>
       <r>    2.2022    1.0000 </r>
       <r>    2.2053    1.0000 </r>
       <r>    3.5454    1.0000 </r>
       <r>    3.5487    1.0000 </r>
       <r>    3.5490    1.0000 </r>
       <r>    3.5512    1.0000 </r>
       <r>    3.5512    1.0000 </r>
       <r>    3.5514    1.0000 </r>
       <r>    3.5517    1.0000 </r>
       <r>    3.5517    1.0000 </r>
       <r>    3.5521    1.0000 </r>
       <r>    3.5522    1.0000 </r>
       <r>    3.5523    1.0000 </r>
       <r>    3.5523    1.0000 </r>
       <r>    3.5524    1.0000 </r>
       <r>    3.5525    1.0000 </r>
       <r>    3.5527    1.0000 </r>
       <r>    3.5528    1.0000 </r>
       <r>    3.5529    1.0000 </r>
       <r>    3.5530    1.0000 </r>
       <r>    3.5535    1.0000 </r>
       <r>    3.5536    1.0000 </r>
       <r>    3.5549    1.0000 </r>
       <r>    3.5554    1.0000 </r>
       <r>    3.5571    1.0000 </r>
       <r>    3.5596    1.0000 </r>
       <r>    5.0008    1.0000 </r>
       <r>    5.0024    1.0000 </r>
       <r>    5.0066    1.0000 </r>
       <r>    5.0067    1.0000 </r>
       <r>    5.0071    1.0000 </r>
       <r>    5.0074    1.0000 </r>
[...]
      </set>
     </set>
    </set>
   </array>
  </eigenvalues>
  <separator name="orbital magnetization" >
   <v name="MAGDIPOLOUT">      0.00000000      0.00000000      0.00000000</v>
  </separator>
  <dos>
   <i name="efermi">      5.89431487 </i>
   <total>
    <array>
     <dimension dim="1">gridpoints</dimension>
     <dimension dim="2">spin</dimension>
     <field>energy</field>
     <field>total</field>
     <field>integrated</field>
     <set>
      <set comment="spin 1">
       <r>    -6.9820     0.0000     0.0000 </r>
       <r>    -6.9251     0.0000     0.0000 </r>
       <r>    -6.8681     0.0000     0.0000 </r>
       <r>    -6.8112     0.0000     0.0000 </r>
       <r>    -6.7542     0.0000     0.0000 </r>
       <r>    -6.6973     0.0000     0.0000 </r>
       <r>    -6.6404     0.0000     0.0000 </r>
       <r>    -6.5834     0.0000     0.0000 </r>
       <r>    -6.5265     0.0000     0.0000 </r>
       <r>    -6.4695     0.0000     0.0000 </r>
       <r>    -6.4126     0.0000     0.0000 </r>
       <r>    -6.3556     0.0000     0.0000 </r>
       <r>    -6.2987     0.0000     0.0000 </r>
       <r>    -6.2418     0.0228     0.0013 </r>
       <r>    -6.1848     4.0533     0.2321 </r>
       <r>    -6.1279     0.3142     0.2500 </r>
       <r>    -6.0709     0.0000     0.2500 </r>
       <r>    -6.0140     0.0000     0.2500 </r>
       <r>    -5.9570     1.0169     0.3079 </r>
       <r>    -5.9001    25.0083     1.7320 </r>
       <r>    -5.8432     0.3168     1.7500 </r>
       <r>    -5.7862     0.0000     1.7500 </r>
       <r>    -5.7293     0.0001     1.7500 </r>
       <r>    -5.6723    14.5866     2.5806 </r>
       <r>    -5.6154    38.0808     4.7491 </r>
       <r>    -5.5584     0.0164     4.7500 </r>
       <r>    -5.5015     0.0000     4.7500 </r>
       <r>    -5.4445     0.0744     4.7542 </r>
       <r>    -5.3876    30.5067     6.4914 </r>
       <r>    -5.3307     4.5415     6.7500 </r>
       <r>    -5.2737     0.0000     6.7500 </r>
       <r>    -5.2168     0.0000     6.7500 </r>
       <r>    -5.1598     0.0896     6.7551 </r>
       <r>    -5.1029    23.6579     8.1023 </r>
       <r>    -5.0459     2.5944     8.2500 </r>
       <r>    -4.9890     0.0000     8.2500 </r>
       <r>    -4.9321     0.0018     8.2501 </r>
       <r>    -4.8751    45.7648    10.8561 </r>
       <r>    -4.8182    59.5935    14.2496 </r>
       <r>    -4.7612     0.0076    14.2500 </r>
       <r>    -4.7043     0.0013    14.2501 </r>
       <r>    -4.6473    43.3555    16.7189 </r>
       <r>    -4.5904    62.0020    20.2495 </r>
       <r>    -4.5335     0.0089    20.2500 </r>
       <r>    -4.4765     0.0000    20.2500 </r>
       <r>    -4.4196     0.0000    20.2500 </r>
       <r>    -4.3626     0.0000    20.2500 </r>
       <r>    -4.3057     0.0000    20.2500 </r>
       <r>    -4.2487     0.0000    20.2500 </r>
       <r>    -4.1918     0.2771    20.2658 </r>
       <r>    -4.1348    48.1789    23.0093 </r>
       <r>    -4.0779     4.2336    23.2503 </r>
       <r>    -4.0210    57.8330    26.5435 </r>
       <r>    -3.9640    47.5269    29.2499 </r>
       <r>    -3.9071     0.0115    29.2505 </r>
       <r>    -3.8501    13.5403    30.0216 </r>
       <r>    -3.7932    25.3539    31.4653 </r>
       <r>    -3.7362     4.9996    31.7500 </r>
       <r>    -3.6793     0.0000    31.7500 </r>
       <r>    -3.6224    12.3620    32.4539 </r>
       <r>    -3.5654    92.7336    37.7345 </r>
       <r>    -3.5085     2.1638    37.8577 </r>
       <r>    -3.4515    99.5819    43.5283 </r>
       <r>    -3.3946     3.8942    43.7500 </r>
       <r>    -3.3376    13.7898    44.5352 </r>
       <r>    -3.2807    91.3585    49.7375 </r>
       <r>    -3.2238     0.2194    49.7500 </r>
       <r>    -3.1668     0.0000    49.7500 </r>
       <r>    -3.1099     1.0117    49.8076 </r>
       <r>    -3.0529    99.0382    55.4472 </r>
       <r>    -2.9960     5.3179    55.7500 </r>
       <r>    -2.9390     0.0000    55.7500 </r>
       <r>    -2.8821     0.0000    55.7500 </r>
       <r>    -2.8251     0.0000    55.7500 </r>
       <r>    -2.7682     0.0000    55.7500 </r>
       <r>    -2.7113     0.0000    55.7500 </r>
       <r>    -2.6543     0.0000    55.7500 </r>
       <r>    -2.5974     0.0000    55.7500 </r>
       <r>    -2.5404     0.0000    55.7500 </r>
       <r>    -2.4835     2.5044    55.8926 </r>
       <r>    -2.4265    49.6670    58.7208 </r>
       <r>    -2.3696     0.5125    58.7500 </r>
       <r>    -2.3127     0.0000    58.7500 </r>
       <r>    -2.2557     0.0000    58.7500 </r>
       <r>    -2.1988     0.0000    58.7500 </r>
       <r>    -2.1418     0.0000    58.7500 </r>
       <r>    -2.0849     0.2758    58.7657 </r>
       <r>    -2.0279    24.8586    60.1812 </r>
       <r>    -1.9710    55.2819    63.3292 </r>
       <r>    -1.9141    52.0592    66.2936 </r>
       <r>    -1.8571    49.9265    69.1366 </r>
       <r>    -1.8002     1.9915    69.2500 </r>
       <r>    -1.7432     0.0000    69.2500 </r>
       <r>    -1.6863     0.0000    69.2500 </r>
       <r>    -1.6293     0.0000    69.2500 </r>
       <r>    -1.5724     0.0000    69.2500 </r>
       <r>    -1.5155     0.0053    69.2503 </r>
       <r>    -1.4585    32.4109    71.0959 </r>
       <r>    -1.4016    20.2672    72.2500 </r>
       <r>    -1.3446     0.0005    72.2500 </r>
       <r>    -1.2877     0.0017    72.2501 </r>
       <r>    -1.2307    10.7082    72.8599 </r>
       <r>    -1.1738     6.8512    73.2500 </r>
       <r>    -1.1168     0.0002    73.2500 </r>
       <r>    -1.0599     6.8866    73.6421 </r>
       <r>    -1.0030    97.7885    79.2106 </r>
       <r>    -0.9460     0.6926    79.2500 </r>
       <r>    -0.8891     0.0000    79.2500 </r>
       <r>    -0.8321     2.1772    79.3740 </r>
       <r>    -0.7752   100.4947    85.0965 </r>
       <r>    -0.7182     2.6958    85.2500 </r>
       <r>    -0.6613     3.5283    85.4509 </r>
       <r>    -0.6044   196.5297    96.6420 </r>
       <r>    -0.5474    10.6774    97.2500 </r>
       <r>    -0.4905     0.0000    97.2500 </r>
       <r>    -0.4335     0.0000    97.2500 </r>
       <r>    -0.3766     0.0000    97.2500 </r>
       <r>    -0.3196     0.0000    97.2500 </r>
       <r>    -0.2627     0.0001    97.2500 </r>
       <r>    -0.2058    24.3331    98.6356 </r>
       <r>    -0.1488    80.9747   103.2466 </r>
       <r>    -0.0919     0.0598   103.2500 </r>
       <r>    -0.0349     0.0005   103.2500 </r>
       <r>     0.0220    12.2662   103.9485 </r>
       <r>     0.0790    14.0741   104.7499 </r>
       <r>     0.1359     0.0011   104.7500 </r>
       <r>     0.1929     0.0000   104.7500 </r>
       <r>     0.2498     0.6523   104.7871 </r>
       <r>     0.3067    49.8343   107.6249 </r>
       <r>     0.3637     2.1972   107.7500 </r>
       <r>     0.4206     0.0985   107.7556 </r>
       <r>     0.4776    85.3914   112.6181 </r>
       <r>     0.5345    19.8777   113.7500 </r>
       <r>     0.5915     0.0001   113.7500 </r>
       <r>     0.6484     0.0000   113.7500 </r>
       <r>     0.7053     0.0000   113.7500 </r>
       <r>     0.7623     0.0000   113.7500 </r>
       <r>     0.8192     0.0000   113.7500 </r>
       <r>     0.8762     0.0000   113.7500 </r>
       <r>     0.9331     0.0000   113.7500 </r>
       <r>     0.9901     0.0000   113.7500 </r>
       <r>     1.0470     0.0000   113.7500 </r>
       <r>     1.1039     0.0000   113.7500 </r>
       <r>     1.1609     0.0000   113.7500 </r>
       <r>     1.2178     0.0000   113.7500 </r>
       <r>     1.2748     0.0000   113.7500 </r>
       <r>     1.3317     0.0000   113.7500 </r>
       <r>     1.3887     1.1927   113.8179 </r>
       <r>     1.4456    52.8046   116.8248 </r>
       <r>     1.5026   179.4429   127.0429 </r>
       <r>     1.5595    29.9789   128.7500 </r>
       <r>     1.6164     0.0002   128.7500 </r>
       <r>     1.6734     0.0000   128.7500 </r>
       <r>     1.7303     0.0000   128.7500 </r>
       <r>     1.7873     0.2299   128.7631 </r>
       <r>     1.8442    34.1248   130.7063 </r>
       <r>     1.9012    52.5281   133.6974 </r>
       <r>     1.9581     8.4213   134.1769 </r>
       <r>     2.0150    45.0977   136.7450 </r>
       <r>     2.0720     0.0884   136.7500 </r>
       <r>     2.1289     0.0001   136.7500 </r>
       <r>     2.1859    20.2388   137.9025 </r>
       <r>     2.2428    92.3044   143.1586 </r>
       <r>     2.2998   114.8914   149.7009 </r>
       <r>     2.3567   129.1461   157.0549 </r>
       <r>     2.4136    91.0492   162.2396 </r>
       <r>     2.4706     0.1827   162.2500 </r>
       <r>     2.5275     0.0000   162.2500 </r>
       <r>     2.5845     0.0000   162.2500 </r>
       <r>     2.6414     0.0000   162.2500 </r>
       <r>     2.6984     0.0000   162.2500 </r>
       <r>     2.7553     0.0000   162.2500 </r>
       <r>     2.8123     0.0000   162.2500 </r>
       <r>     2.8692     0.2850   162.2662 </r>
       <r>     2.9261    24.9456   163.6867 </r>
       <r>     2.9831    53.6407   166.7412 </r>
       <r>     3.0400   143.5288   174.9142 </r>
       <r>     3.0970    63.3145   178.5196 </r>
       <r>     3.1539    76.1986   182.8586 </r>
       <r>     3.2109    85.8843   187.7491 </r>
       <r>     3.2678    10.8875   188.3691 </r>
       <r>     3.3247   110.9990   194.6898 </r>
       <r>     3.3817    36.1700   196.7494 </r>
       <r>     3.4386     0.0103   196.7500 </r>
       <r>     3.4956     0.0041   196.7502 </r>
       <r>     3.5525    53.1749   199.7782 </r>
       <r>     3.6095   147.2072   208.1607 </r>
       <r>     3.6664    10.3492   208.7500 </r>
       <r>     3.7233     0.0000   208.7500 </r>
       <r>     3.7803     0.0000   208.7500 </r>
       <r>     3.8372     1.0402   208.8092 </r>
       <r>     3.8942    55.0235   211.9425 </r>
       <r>     3.9511   100.8834   217.6871 </r>
       <r>     4.0081     1.1044   217.7500 </r>
       <r>     4.0650     0.0042   217.7502 </r>
       <r>     4.1220    31.5141   219.5448 </r>
       <r>     4.1789    87.5864   224.5322 </r>
       <r>     4.2358    38.9461   226.7500 </r>
       <r>     4.2928     0.3277   226.7686 </r>
       <r>     4.3497    94.0350   232.1233 </r>
       <r>     4.4067    12.7330   232.8484 </r>
       <r>     4.4636    75.7105   237.1596 </r>
       <r>     4.5206    98.0553   242.7432 </r>
       <r>     4.5775    33.6144   244.6573 </r>
       <r>     4.6344    10.4086   245.2500 </r>
       <r>     4.6914     0.0001   245.2500 </r>
       <r>     4.7483     0.0000   245.2500 </r>
       <r>     4.8053     0.0000   245.2500 </r>
       <r>     4.8622     0.0000   245.2500 </r>
       <r>     4.9192     0.2940   245.2667 </r>
       <r>     4.9761    49.6861   248.0960 </r>
       <r>     5.0330    70.1561   252.0910 </r>
       <r>     5.0900     2.7927   252.2500 </r>
       <r>     5.1469     0.0000   252.2500 </r>
       <r>     5.2039     0.0000   252.2500 </r>
       <r>     5.2608     0.0000   252.2500 </r>
       <r>     5.3178     0.0000   252.2500 </r>
       <r>     5.3747     0.0000   252.2500 </r>
       <r>     5.4316     0.0171   252.2510 </r>
       <r>     5.4886    37.9748   254.4134 </r>
       <r>     5.5455    14.6918   255.2500 </r>
       <r>     5.6025     0.0001   255.2500 </r>
       <r>     5.6594     0.0000   255.2500 </r>
       <r>     5.7164     0.0006   255.2500 </r>
       <r>     5.7733     7.0818   255.6533 </r>
       <r>     5.8303     6.0883   256.0000 </r>
       <r>     5.8872     0.0003   256.0000 </r>
       <r>     5.9441     0.0000   256.0000 </r>
       <r>     6.0011     0.0000   256.0000 </r>
       <r>     6.0580     0.0000   256.0000 </r>
       <r>     6.1150     0.0000   256.0000 </r>
       <r>     6.1719     0.0000   256.0000 </r>
       <r>     6.2289     0.0043   256.0002 </r>
       <r>     6.2858    17.5475   256.9995 </r>
       <r>     6.3427    10.1760   257.5789 </r>
       <r>     6.3997    24.7328   258.9873 </r>
       <r>     6.4566     0.2233   259.0000 </r>
       <r>     6.5136     0.0000   259.0000 </r>
       <r>     6.5705     0.0000   259.0000 </r>
       <r>     6.6275     0.0000   259.0000 </r>
       <r>     6.6844     0.0000   259.0000 </r>
       <r>     6.7413     0.0000   259.0000 </r>
       <r>     6.7983     6.4850   259.3693 </r>
       <r>     6.8552    31.8688   261.1840 </r>
       <r>     6.9122    40.6436   263.4984 </r>
       <r>     6.9691     0.0284   263.5000 </r>
       <r>     7.0261     0.0000   263.5000 </r>
       <r>     7.0830     0.0000   263.5000 </r>
       <r>     7.1400     0.0409   263.5023 </r>
       <r>     7.1969    90.6261   268.6629 </r>
       <r>     7.2538    57.5290   271.9388 </r>
       <r>     7.3108     1.0749   272.0000 </r>
       <r>     7.3677     0.0000   272.0000 </r>
       <r>     7.4247     0.0000   272.0000 </r>
       <r>     7.4816     0.0000   272.0000 </r>
       <r>     7.5386     0.0000   272.0000 </r>
       <r>     7.5955     0.6059   272.0345 </r>
       <r>     7.6524   168.7506   281.6437 </r>
       <r>     7.7094    55.2286   284.7887 </r>
       <r>     7.7663    47.5278   287.4950 </r>
       <r>     7.8233     0.0870   287.5000 </r>
       <r>     7.8802     0.0014   287.5001 </r>
       <r>     7.9372    44.3572   290.0259 </r>
       <r>     7.9941    61.0019   293.4996 </r>
       <r>     8.0510    28.5892   295.1276 </r>
       <r>     8.1080    78.1231   299.5762 </r>
       <r>     8.1649   145.9715   307.8883 </r>
       <r>     8.2219    10.7427   308.5000 </r>
       <r>     8.2788     3.6838   308.7098 </r>
       <r>     8.3358   107.1054   314.8087 </r>
       <r>     8.3927     7.7494   315.2500 </r>
       <r>     8.4497     0.0000   315.2500 </r>
       <r>     8.5066     0.0609   315.2535 </r>
       <r>     8.5635    81.6009   319.9001 </r>
       <r>     8.6205    23.7057   321.2500 </r>
       <r>     8.6774     0.0001   321.2500 </r>
       <r>     8.7344     0.6740   321.2884 </r>
       <r>     8.7913   122.9913   328.2919 </r>
       <r>     8.8483    60.6434   331.7452 </r>
       <r>     8.9052     0.0848   331.7500 </r>
       <r>     8.9621     0.0000   331.7500 </r>
       <r>     9.0191     0.1778   331.7601 </r>
       <r>     9.0760    12.5083   332.4724 </r>
       <r>     9.1330     0.4849   332.5000 </r>
       <r>     9.1899     0.0751   332.5043 </r>
       <r>     9.2469    30.6259   334.2482 </r>
       <r>     9.3038     7.0347   334.6488 </r>
       <r>     9.3607    23.6376   335.9948 </r>
       <r>     9.4177     0.0911   336.0000 </r>
       <r>     9.4746     0.0000   336.0000 </r>
       <r>     9.5316     0.0000   336.0000 </r>
       <r>     9.5885     0.0000   336.0000 </r>
       <r>     9.6455     0.0000   336.0000 </r>
       <r>     9.7024     0.0000   336.0000 </r>
       <r>     9.7594     0.0000   336.0000 </r>
       <r>     9.8163     0.0000   336.0000 </r>
       <r>     9.8732     0.0000   336.0000 </r>
       <r>     9.9302     0.0000   336.0000 </r>
       <r>     9.9871     0.0000   336.0000 </r>
       <r>    10.0441     0.0000   336.0000 </r>
       <r>    10.1010     0.0000   336.0000 </r>
      </set>
     </set>
    </array>
   </total>
  </dos>
 </calculation>
 <structure name="finalpos" >
  <crystal>
   <varray name="basis" >
    <v>      10.86914512      -0.00000000      -0.00000000 </v>
    <v>      -0.00000000      10.86914512       0.00000000 </v>
    <v>       0.00000000       0.00000000      10.86914512 </v>
   </varray>
   <i name="volume">   1284.06249692 </i>
   <varray name="rec_basis" >
    <v>       0.09200356       0.00000000      -0.00000000 </v>
    <v>       0.00000000       0.09200356      -0.00000000 </v>
    <v>       0.00000000      -0.00000000       0.09200356 </v>
   </varray>
  </crystal>
  <varray name="positions" >
   <v>       0.25092004       0.25000000       0.25000000 </v>
   <v>       0.75000000       0.25000000       0.25000000 </v>
   <v>       0.25000000       0.75000000       0.25000000 </v>
   <v>       0.75000000       0.75000000       0.25000000 </v>
   <v>       0.25000000       0.25000000       0.75000000 </v>
   <v>       0.75000000       0.25000000       0.75000000 </v>
   <v>       0.25000000       0.75000000       0.75000000 </v>
   <v>       0.75000000       0.75000000       0.75000000 </v>
   <v>       0.25000000       0.00000000       0.00000000 </v>
   <v>       0.75000000       0.00000000       0.00000000 </v>
   <v>       0.25000000       0.50000000       0.00000000 </v>
   <v>       0.75000000       0.50000000       0.00000000 </v>
   <v>       0.25000000       0.00000000       0.50000000 </v>
   <v>       0.75000000       0.00000000       0.50000000 </v>
   <v>       0.25000000       0.50000000       0.50000000 </v>
   <v>       0.75000000       0.50000000       0.50000000 </v>
   <v>       0.00000000       0.25000000       0.99907996 </v>
   <v>       0.50000000       0.25000000       0.00000000 </v>
   <v>       0.00000000       0.75000000       0.00000000 </v>
   <v>       0.50000000       0.75000000       0.00000000 </v>
   <v>       0.00000000       0.25000000       0.50000000 </v>
   <v>       0.50000000       0.25000000       0.50000000 </v>
   <v>       0.00000000       0.75000000       0.50000000 </v>
   <v>       0.50000000       0.75000000       0.50000000 </v>
   <v>       0.00000000       0.00000000       0.25000000 </v>
   <v>       0.50000000       0.00000000       0.25000000 </v>
   <v>       0.00000000       0.50000000       0.25000000 </v>
   <v>       0.50000000       0.50000000       0.25000000 </v>
   <v>       0.00000000       0.00000000       0.75000000 </v>
   <v>       0.50000000       0.00000000       0.75000000 </v>
   <v>       0.00000000       0.50000000       0.75000000 </v>
   <v>       0.50000000       0.50000000       0.75000000 </v>
   <v>       0.37500000       0.37500000       0.37500000 </v>
   <v>       0.87500000       0.37500000       0.37500000 </v>
   <v>       0.37500000       0.87500000       0.37500000 </v>
   <v>       0.87500000       0.87500000       0.37500000 </v>
   <v>       0.37500000       0.37500000       0.87500000 </v>
   <v>       0.87500000       0.37500000       0.87500000 </v>
   <v>       0.37500000       0.87500000       0.87500000 </v>
   <v>       0.87500000       0.87500000       0.87500000 </v>
   <v>       0.37500000       0.12500000       0.12500000 </v>
   <v>       0.87500000       0.12500000       0.12500000 </v>
   <v>       0.37500000       0.62500000       0.12500000 </v>
   <v>       0.87500000       0.62500000       0.12500000 </v>
   <v>       0.37500000       0.12500000       0.62500000 </v>
   <v>       0.87500000       0.12500000       0.62500000 </v>
   <v>       0.37500000       0.62500000       0.62500000 </v>
   <v>       0.87500000       0.62500000       0.62500000 </v>
   <v>       0.12500000       0.37500000       0.12500000 </v>
   <v>       0.62500000       0.37500000       0.12500000 </v>
   <v>       0.12500000       0.87500000       0.12500000 </v>
   <v>       0.62500000       0.87500000       0.12500000 </v>
   <v>       0.12500000       0.37500000       0.62500000 </v>
   <v>       0.62500000       0.37500000       0.62500000 </v>
   <v>       0.12500000       0.87500000       0.62500000 </v>
   <v>       0.62500000       0.87500000       0.62500000 </v>
   <v>       0.12500000       0.12500000       0.37500000 </v>
   <v>       0.62500000       0.12500000       0.37500000 </v>
   <v>       0.12500000       0.62500000       0.37500000 </v>
   <v>       0.62500000       0.62500000       0.37500000 </v>
   <v>       0.12500000       0.12500000       0.87500000 </v>
   <v>       0.62500000       0.12500000       0.87500000 </v>
   <v>       0.12500000       0.62500000       0.87500000 </v>
   <v>       0.62500000       0.62500000       0.87500000 </v>
  </varray>
 </structure>
</modeling>
