    2    2  500    1
  0.2197554E+02  0.3961213E-09  0.3961213E-09  0.3961213E-09  0.5000000E-15
  1.000000000000000E-004
  CAR 
 unknown system                          
     14      8     16
 
  0.0000000E+00  0.0000000E+00  0.0000000E+00  0.1562500E-01
      1        -21.270340   1.000000
      2        -21.270340   1.000000
      3        -21.270340   1.000000
      4        -13.354733   1.000000
      5         -0.662150   1.000000
      6         -0.662150   1.000000
      7         -0.662149   1.000000
      8          4.341854   0.000000
      9         10.355703   0.000000
     10         10.355703   0.000000
     11         10.355704   0.000000
     12         12.607244   0.000000
     13         12.607244   0.000000
     14         14.003971   0.000000
     15         16.507160   0.000000
     16         16.507173   0.000000
 
  0.2500000E+00  0.2675460E-18 -0.4539842E-17  0.1250000E+00
      1        -21.287508   1.000000
      2        -21.271564   1.000000
      3        -21.271563   1.000000
      4        -13.176466   1.000000
      5         -1.826272   1.000000
      6         -0.807155   1.000000
      7         -0.807155   1.000000
      8          5.833174   0.000000
      9          9.240241   0.000000
     10         10.664937   0.000000
     11         10.664952   0.000000
     12         12.548683   0.000000
     13         12.548693   0.000000
     14         14.960375   0.000000
     15         18.239825   0.000000
     16         19.187070   0.000000
 
  0.5000000E+00  0.5350921E-18 -0.9079683E-17  0.6250000E-01
      1        -21.304489   1.000000
      2        -21.272777   1.000000
      3        -21.272777   1.000000
      4        -12.986762   1.000000
      5         -2.697689   1.000000
      6         -0.943082   1.000000
      7         -0.943082   1.000000
      8          6.446102   0.000000
      9          9.997449   0.000000
     10         10.249333   0.000000
     11         10.249349   0.000000
     12         14.294541   0.000000
     13         15.589188   0.000000
     14         15.589192   0.000000
     15         16.542562   0.000000
     16         16.542586   0.000000
 
  0.2500000E+00  0.2500000E+00 -0.4272296E-16  0.9375000E-01
      1        -21.284682   1.000000
      2        -21.275134   1.000000
      3        -21.275133   1.000000
      4        -13.134070   1.000000
      5         -1.794155   1.000000
      6         -0.997966   1.000000
      7         -0.997965   1.000000
      8          6.369924   0.000000
      9          8.280984   0.000000
     10         10.142728   0.000000
     11         11.747385   0.000000
     12         11.747387   0.000000
     13         13.442261   0.000000
     14         18.104837   0.000000
     15         18.104846   0.000000
     16         18.324478   0.000000
 
  0.5000000E+00  0.2500000E+00 -0.5471780E-16  0.3750000E+00
      1        -21.295133   1.000000
      2        -21.280186   1.000000
      3        -21.276224   1.000000
      4        -12.963008   1.000000
      5         -2.325165   1.000000
      6         -1.476169   1.000000
      7         -1.124750   1.000000
      8          7.400563   0.000000
      9          8.559147   0.000000
     10          9.400941   0.000000
     11         11.537278   0.000000
     12         13.365545   0.000000
     13         15.672295   0.000000
     14         16.502198   0.000000
     15         16.817276   0.000000
     16         17.857094   0.000000
 
 -0.2500000E+00  0.2500000E+00  0.5350921E-18  0.1875000E+00
      1        -21.293909   1.000000
      2        -21.280862   1.000000
      3        -21.272795   1.000000
      4        -13.007895   1.000000
      5         -2.201851   1.000000
      6         -1.502692   1.000000
      7         -0.945109   1.000000
      8          7.465961   0.000000
      9          8.902864   0.000000
     10          9.301229   0.000000
     11         11.150222   0.000000
     12         12.497208   0.000000
     13         15.102186   0.000000
     14         16.066286   0.000000
     15         17.700788   0.000000
     16         18.082667   0.000000
 
  0.5000000E+00  0.5000000E+00 -0.8544591E-16  0.4687500E-01
      1        -21.293687   1.000000
      2        -21.279718   1.000000
      3        -21.279718   1.000000
      4        -12.937494   1.000000
      5         -2.421586   1.000000
      6         -1.292078   1.000000
      7         -1.292078   1.000000
      8          6.828841   0.000000
      9          7.208314   0.000000
     10         10.607600   0.000000
     11         14.133547   0.000000
     12         14.133552   0.000000
     13         14.683665   0.000000
     14         16.467403   0.000000
     15         16.467404   0.000000
     16         16.570522   0.000000
 
 -0.2500000E+00  0.5000000E+00  0.2500000E+00  0.9375000E-01
      1        -21.286555   1.000000
      2        -21.286554   1.000000
      3        -21.282169   1.000000
      4        -12.918197   1.000000
      5         -1.922184   1.000000
      6         -1.922180   1.000000
      7         -1.460318   1.000000
      8          8.169478   0.000000
      9          8.918543   0.000000
     10          8.918544   0.000000
     11         10.659551   0.000000
     12         15.067526   0.000000
     13         15.067553   0.000000
     14         15.713287   0.000000
     15         16.540733   0.000000
     16         19.088170   0.000000
