 vasp.6.3.2 27Jun22 (build Oct 14 2022 12:38:20) complex                        
  
 executed on             LinuxIFC date 2022.11.28  01:29:16
 running on   32 total cores
 distrk:  each k-point on   32 cores,    1 groups
 distr:  one band on NCORE=   4 cores,    8 groups


--------------------------------------------------------------------------------------------------------


 INCAR:
   ADDGRID = True
   EDIFF = 1e-08
   EDIFFG = -1e-06
   ENCUT = 341
   GGA = Ps
   IALGO = 38
   IBRION = 2
   ISIF = 2
   ISMEAR = 0
   LCHARG = False
   LREAL = False
   LWAVE = False
   NELMIN = 5
   NPAR = 8
   NSW = 500
   PREC = Accurate
   SIGMA = 0.02

 POTCAR:    PAW_PBE Na_pv 19Sep2006               
 POTCAR:    PAW_PBE Cl 06Sep2000                  
 POTCAR:    PAW_PBE Na_pv 19Sep2006               
   SHA256 =  6a2f546d9e11350984debacf3dc457d8cffc0868e817d445faca461816a32b94 Na_pv/POTCAR          
   COPYR  = (c) Copyright 19Sep2006 Georg Kresse                                                    
   COPYR  = This file is part of the software VASP. Any use, copying, and all other rights are regul
   COPYR  = If you do not have a valid VASP license, you may not use, copy or distribute this file. 
   VRHFIN =Na: p6s1                                                                                 
   LEXCH  = PE                                                                                      
   EATOM  =   766.0439 eV,   56.3026 Ry                                                             
                                                                                                    
   TITEL  = PAW_PBE Na_pv 19Sep2006                                                                 
   LULTRA =        F    use ultrasoft PP ?                                                          
   IUNSCR =        1    unscreen: 0-lin 1-nonlin 2-no                                               
   RPACOR =    1.800    partial core radius                                                         
   POMASS =   22.990; ZVAL   =    7.000    mass and valenz                                          
   RCORE  =    2.200    outmost cutoff radius                                                       
   RWIGS  =    2.200; RWIGS  =    1.164    wigner-seitz radius (au A)                               
   ENMAX  =  259.561; ENMIN  =  194.671 eV                                                          
   ICORE  =        2    local potential                                                             
   LCOR   =        T    correct aug charges                                                         
   LPAW   =        T    paw PP                                                                      
   EAUG   =  368.056                                                                                
   DEXC   =    0.000                                                                                
   RMAX   =    2.245    core radius for proj-oper                                                   
   RAUG   =    1.300    factor for augmentation sphere                                              
   RDEP   =    2.259    radius for radial grids                                                     
   RDEPT  =    1.738    core radius for aug-charge                                                  
                                                                                                    
   Atomic configuration                                                                             
    5 entries                                                                                       
     n  l   j            E        occ.                                                              
     1  0  0.50     -1033.6933   2.0000                                                             
     2  0  0.50       -56.7526   2.0000                                                             
     2  1  1.50       -28.6721   6.0000                                                             
     3  0  0.50        -2.7440   1.0000                                                             
     3  2  1.50        -1.3606   0.0000                                                             
   Description                                                                                      
     l       E           TYP  RCUT    TYP  RCUT                                                     
     1    -28.6720912     23  2.000                                                                 
     1      6.8029130     23  2.000                                                                 
     0     -2.7439560     23  2.200                                                                 
     0     34.0145650     23  2.200                                                                 
     2     -1.3605826     23  2.200                                                                 
  local pseudopotential read in
  partial core-charges read in
  partial kinetic energy density read in
  atomic valenz-charges read in
  non local Contribution for L=           1  read in
    real space projection operators read in
  non local Contribution for L=           1  read in
    real space projection operators read in
  non local Contribution for L=           0  read in
    real space projection operators read in
  non local Contribution for L=           0  read in
    real space projection operators read in
    PAW grid and wavefunctions read in
 
   number of l-projection  operators is LMAX  =           4
   number of lm-projection operators is LMMAX =           8
 
 POTCAR:    PAW_PBE Cl 06Sep2000                  
   SHA256 =  9f1b6e6ed4247ac726a768b330d26d7667cc3c95a39ff49c1d064c2d9dcce931 Cl/POTCAR             
   COPYR  = (c) Copyright 06Sep2000 Georg Kresse                                                    
   COPYR  = This file is part of the software VASP. Any use, copying, and all other rights are regul
   COPYR  = If you do not have a valid VASP license, you may not use, copy or distribute this file. 
   VRHFIN =Cl: s2p5                                                                                 
   LEXCH  = PE                                                                                      
   EATOM  =   409.7259 eV,   30.1140 Ry                                                             
                                                                                                    
   TITEL  = PAW_PBE Cl 06Sep2000                                                                    
   LULTRA =        F    use ultrasoft PP ?                                                          
   IUNSCR =        1    unscreen: 0-lin 1-nonlin 2-no                                               
   RPACOR =    1.500    partial core radius                                                         
   POMASS =   35.453; ZVAL   =    7.000    mass and valenz                                          
   RCORE  =    1.900    outmost cutoff radius                                                       
   RWIGS  =    2.100; RWIGS  =    1.111    wigner-seitz radius (au A)                               
   ENMAX  =  262.472; ENMIN  =  196.854 eV                                                          
   ICORE  =        2    local potential                                                             
   LCOR   =        T    correct aug charges                                                         
   LPAW   =        T    paw PP                                                                      
   EAUG   =  356.192                                                                                
   DEXC   =    0.000                                                                                
   RMAX   =    1.945    core radius for proj-oper                                                   
   RAUG   =    1.300    factor for augmentation sphere                                              
   RDEP   =    2.020    radius for radial grids                                                     
   RDEPT  =    1.678    core radius for aug-charge                                                  
                                                                                                    
   Atomic configuration                                                                             
    6 entries                                                                                       
     n  l   j            E        occ.                                                              
     1  0  0.50     -2751.1850   2.0000                                                             
     2  0  0.50      -252.6861   2.0000                                                             
     2  1  1.50      -191.6157   6.0000                                                             
     3  0  0.50       -20.6916   2.0000                                                             
     3  1  0.50        -8.5949   5.0000                                                             
     3  2  1.50        -8.1635   0.0000                                                             
   Description                                                                                      
     l       E           TYP  RCUT    TYP  RCUT                                                     
     0    -20.6915656     23  1.900                                                                 
     0    -22.0521482     23  1.900                                                                 
     1     -8.5948577     23  1.900                                                                 
     1     -5.3847331     23  1.900                                                                 
     2     -8.1634956     23  1.900                                                                 
  local pseudopotential read in
  partial core-charges read in
  partial kinetic energy density read in
  atomic valenz-charges read in
  non local Contribution for L=           0  read in
    real space projection operators read in
  non local Contribution for L=           0  read in
    real space projection operators read in
  non local Contribution for L=           1  read in
    real space projection operators read in
  non local Contribution for L=           1  read in
    real space projection operators read in
    PAW grid and wavefunctions read in
 
   number of l-projection  operators is LMAX  =           4
   number of lm-projection operators is LMMAX =           8
 
 -----------------------------------------------------------------------------
|                                                                             |
|               ----> ADVICE to this user running VASP <----                  |
|                                                                             |
|     You enforced a specific xc type in the INCAR file but a different       |
|     type was found in the POTCAR file.                                      |
|     I HOPE YOU KNOW WHAT YOU ARE DOING!                                     |
|                                                                             |
 -----------------------------------------------------------------------------

  PAW_PBE Na_pv 19Sep2006               :
 energy of atom  1       EATOM= -766.0439
 kinetic energy error for atom=    0.0189 (will be added to EATOM!!)
  PAW_PBE Cl 06Sep2000                  :
 energy of atom  2       EATOM= -409.7259
 kinetic energy error for atom=    0.0106 (will be added to EATOM!!)
 
 
 POSCAR: Na Cl
  positions in cartesian coordinates
  No initial velocities read in
 exchange correlation table for  LEXCH =       14
   RHO(1)=    0.500       N(1)  =     2000
   RHO(2)=  100.500       N(2)  =     4000
 


--------------------------------------------------------------------------------------------------------


 ion  position               nearest neighbor table
   1  0.000  0.000  0.000-
   2  0.500  0.500  0.500-
 
  LATTYP: Found a face centered cubic cell.
 ALAT       =     5.6020011858
  
  Lattice vectors:
  
 A1 = (   0.0000000000,   2.8010005929,   2.8010005929)
 A2 = (   2.8010005929,   0.0000000000,   2.8010005929)
 A3 = (   2.8010005929,   2.8010005929,   0.0000000000)


Analysis of symmetry for initial positions (statically):
=====================================================================
 Subroutine PRICEL returns:
 Original cell was already a primitive cell.
 

 Routine SETGRP: Setting up the symmetry group for a 
 face centered cubic supercell.


 Subroutine GETGRP returns: Found 48 space group operations
 (whereof 48 operations were pure point group operations)
 out of a pool of 48 trial point group operations.


The static configuration has the point symmetry O_h .


Analysis of symmetry for dynamics (positions and initial velocities):
=====================================================================
 Subroutine PRICEL returns:
 Original cell was already a primitive cell.
 

 Routine SETGRP: Setting up the symmetry group for a 
 face centered cubic supercell.


 Subroutine GETGRP returns: Found 48 space group operations
 (whereof 48 operations were pure point group operations)
 out of a pool of 48 trial point group operations.


The dynamic configuration has the point symmetry O_h .


 Subroutine INISYM returns: Found 48 space group operations
 (whereof 48 operations are pure point group operations),
 and found     1 'primitive' translations


----------------------------------------------------------------------------------------

                                     Primitive cell                                     

  volume of cell :      43.9511

  direct lattice vectors                    reciprocal lattice vectors
     0.000000000  2.801000593  2.801000593    -0.178507638  0.178507638  0.178507638
     2.801000593  0.000000000  2.801000593     0.178507638 -0.178507638  0.178507638
     2.801000593  2.801000593  0.000000000     0.178507638  0.178507638 -0.178507638

  length of vectors
     3.961213027  3.961213027  3.961213027     0.309184299  0.309184299  0.309184299

  position of ions in fractional coordinates (direct lattice)
     0.000000000  0.000000000  0.000000000
     0.500000000  0.500000000  0.500000000

  ion indices of the primitive-cell ions
   primitive index   ion index
                 1           1
                 2           2

----------------------------------------------------------------------------------------

 
 
 KPOINTS: KPOINTS created by Atomic Simulation Env

Automatic generation of k-mesh.
 Grid dimensions read from file:
 generate k-points for:    4    4    4

 Generating k-lattice:

  Cartesian coordinates                     Fractional coordinates (reciprocal lattice)
    -0.044626910  0.044626910  0.044626910     0.250000000  0.000000000 -0.000000000
     0.044626910 -0.044626910  0.044626910     0.000000000  0.250000000  0.000000000
     0.044626910  0.044626910 -0.044626910    -0.000000000 -0.000000000  0.250000000

  Length of vectors
     0.077296075  0.077296075  0.077296075

  Shift w.r.t. Gamma in fractional coordinates (k-lattice)
     0.000000000  0.000000000  0.000000000

 
 Subroutine IBZKPT returns following result:
 ===========================================
 
 Found      8 irreducible k-points:
 
 Following reciprocal coordinates:
            Coordinates               Weight
  0.000000  0.000000  0.000000      1.000000
  0.250000  0.000000 -0.000000      8.000000
  0.500000  0.000000 -0.000000      4.000000
  0.250000  0.250000 -0.000000      6.000000
  0.500000  0.250000 -0.000000     24.000000
 -0.250000  0.250000  0.000000     12.000000
  0.500000  0.500000 -0.000000      3.000000
 -0.250000  0.500000  0.250000      6.000000
 
 Following cartesian coordinates:
            Coordinates               Weight
  0.000000  0.000000  0.000000      1.000000
 -0.044627  0.044627  0.044627      8.000000
 -0.089254  0.089254  0.089254      4.000000
 -0.000000 -0.000000  0.089254      6.000000
 -0.044627  0.044627  0.133881     24.000000
  0.089254 -0.089254 -0.000000     12.000000
 -0.000000 -0.000000  0.178508      3.000000
  0.178508 -0.089254 -0.000000      6.000000
 


--------------------------------------------------------------------------------------------------------




 Dimension of arrays:
   k-points           NKPTS =      8   k-points in BZ     NKDIM =      8   number of bands    NBANDS=     16
   number of dos      NEDOS =    301   number of ions     NIONS =      2
   non local maximal  LDIM  =      4   non local SUM 2l+1 LMDIM =      8
   total plane-waves  NPLWV =  13824
   max r-space proj   IRMAX =      1   max aug-charges    IRDMAX=  72527
   dimension x,y,z NGX =    24 NGY =   24 NGZ =   24
   dimension x,y,z NGXF=    48 NGYF=   48 NGZF=   48
   support grid    NGXF=    96 NGYF=   96 NGZF=   96
   ions per type =               1   1
   NGX,Y,Z   is equivalent  to a cutoff of  10.07, 10.07, 10.07 a.u.
   NGXF,Y,Z  is equivalent  to a cutoff of  20.14, 20.14, 20.14 a.u.

 SYSTEM =  unknown system                          
 POSCAR =  Na Cl                                   

 Startparameter for this run:
   NWRITE =      2    write-flag & timer
   PREC   = accura    normal or accurate (medium, high low for compatibility)
   ISTART =      0    job   : 0-new  1-cont  2-samecut
   ICHARG =      2    charge: 1-file 2-atom 10-const
   ISPIN  =      1    spin polarized calculation?
   LNONCOLLINEAR =      F non collinear calculations
   LSORBIT =      F    spin-orbit coupling
   INIWAV =      1    electr: 0-lowe 1-rand  2-diag
   LASPH  =      F    aspherical Exc in radial PAW
 Electronic Relaxation 1
   ENCUT  =  341.0 eV  25.06 Ry    5.01 a.u.   5.96  5.96  5.96*2*pi/ulx,y,z
   ENINI  =  341.0     initial cutoff
   ENAUG  =  368.1 eV  augmentation charge cutoff
   NELM   =     60;   NELMIN=  5; NELMDL= -5     # of ELM steps 
   EDIFF  = 0.1E-07   stopping-criterion for ELM
   LREAL  =      F    real-space projection
   NLSPLINE    = F    spline interpolate recip. space projectors
   LCOMPAT=      F    compatible to vasp.4.4
   GGA_COMPAT  = T    GGA compatible to vasp.4.4-vasp.4.6
   LMAXPAW     = -100 max onsite density
   LMAXMIX     =    2 max onsite mixed and CHGCAR
   VOSKOWN=      0    Vosko Wilk Nusair interpolation
   ROPT   =    0.00000   0.00000
 Ionic relaxation
   EDIFFG = -.1E-05   stopping-criterion for IOM
   NSW    =    500    number of steps for IOM
   NBLOCK =      1;   KBLOCK =    500    inner block; outer block 
   IBRION =      2    ionic relax: 0-MD 1-quasi-New 2-CG
   NFREE  =      1    steps in history (QN), initial steepest desc. (CG)
   ISIF   =      2    stress and relaxation
   IWAVPR =     11    prediction:  0-non 1-charg 2-wave 3-comb
   ISYM   =      2    0-nonsym 1-usesym 2-fastsym
   LCORR  =      T    Harris-Foulkes like correction to forces

   POTIM  = 0.5000    time-step for ionic-motion
   TEIN   =    0.0    initial temperature
   TEBEG  =    0.0;   TEEND  =   0.0 temperature during run
   SMASS  =  -3.00    Nose mass-parameter (am)
   estimated Nose-frequenzy (Omega)   =  0.10E-29 period in steps = 0.13E+47 mass=  -0.359E-27a.u.
   SCALEE = 1.0000    scale energy and forces
   NPACO  =    256;   APACO  = 10.0  distance and # of slots for P.C.
   PSTRESS=    0.0 pullay stress

  Mass of Ions in am
   POMASS =  22.99 35.45
  Ionic Valenz
   ZVAL   =   7.00  7.00
  Atomic Wigner-Seitz radii
   RWIGS  =  -1.00 -1.00
  virtual crystal weights 
   VCA    =   1.00  1.00
   NELECT =      14.0000    total number of electrons
   NUPDOWN=      -1.0000    fix difference up-down

 DOS related values:
   EMIN   =  10.00;   EMAX   =-10.00  energy-range for DOS
   EFERMI =   0.00
   ISMEAR =     0;   SIGMA  =   0.02  broadening in eV -4-tet -1-fermi 0-gaus

 Electronic relaxation 2 (details)
   IALGO  =     38    algorithm
   LDIAG  =      T    sub-space diagonalisation (order eigenvalues)
   LSUBROT=      F    optimize rotation matrix (better conditioning)
   TURBO    =      0    0=normal 1=particle mesh
   IRESTART =      0    0=no restart 2=restart with 2 vectors
   NREBOOT  =      0    no. of reboots
   NMIN     =      0    reboot dimension
   EREF     =   0.00    reference energy to select bands
   IMIX   =      4    mixing-type and parameters
     AMIX     =   0.40;   BMIX     =  1.00
     AMIX_MAG =   1.60;   BMIX_MAG =  1.00
     AMIN     =   0.10
     WC   =   100.;   INIMIX=   1;  MIXPRE=   1;  MAXMIX= -45

 Intra band minimization:
   WEIMIN = 0.0010     energy-eigenvalue tresh-hold
   EBREAK =  0.16E-09  absolut break condition
   DEPER  =   0.30     relativ break condition  

   TIME   =   0.40     timestep for ELM

  volume/ion in A,a.u.               =      21.98       148.30
  Fermi-wavevector in a.u.,A,eV,Ry     =   1.118049  2.112807 17.007750  1.250034
  Thomas-Fermi vector in A             =   2.254677
 
 Write flags
   LWAVE        =      F    write WAVECAR
   LDOWNSAMPLE  =      F    k-point downsampling of WAVECAR
   LCHARG       =      F    write CHGCAR
   LVTOT        =      F    write LOCPOT, total local potential
   LVHAR        =      F    write LOCPOT, Hartree potential only
   LELF         =      F    write electronic localiz. function (ELF)
   LORBIT       =      0    0 simple, 1 ext, 2 COOP (PROOUT), +10 PAW based schemes


 Dipole corrections
   LMONO  =      F    monopole corrections only (constant potential shift)
   LDIPOL =      F    correct potential (dipole corrections)
   IDIPOL =      0    1-x, 2-y, 3-z, 4-all directions 
   EPSILON=  1.0000000 bulk dielectric constant

 Exchange correlation treatment:
   GGA     =    PS    GGA type
   LEXCH   =    14    internal setting for exchange type
   LIBXC   =     F    Libxc                    
   VOSKOWN =     0    Vosko Wilk Nusair interpolation
   LHFCALC =     F    Hartree Fock is set to
   LHFONE  =     F    Hartree Fock one center treatment
   AEXX    =    0.0000 exact exchange contribution

 Linear response parameters
   LEPSILON=     F    determine dielectric tensor
   LRPA    =     F    only Hartree local field effects (RPA)
   LNABLA  =     F    use nabla operator in PAW spheres
   LVEL    =     F    velocity operator in full k-point grid
   CSHIFT  =0.1000    complex shift for real part using Kramers Kronig
   OMEGAMAX=  -1.0    maximum frequency
   DEG_THRESHOLD= 0.2000000E-02 threshold for treating states as degnerate
   RTIME   =   -0.100 relaxation time in fs
  (WPLASMAI=    0.000 imaginary part of plasma frequency in eV, 0.658/RTIME)
   DFIELD  = 0.0000000 0.0000000 0.0000000 field for delta impulse in time
 
  Optional k-point grid parameters
   LKPOINTS_OPT  =     F    use optional k-point grid
   KPOINTS_OPT_MODE=     1    mode for optional k-point grid
 
 Orbital magnetization related:
   ORBITALMAG=     F  switch on orbital magnetization
   LCHIMAG   =     F  perturbation theory with respect to B field
   DQ        =  0.001000  dq finite difference perturbation B field
   LLRAUG    =     F  two centre corrections for induced B field



--------------------------------------------------------------------------------------------------------


 conjugate gradient relaxation of ions
 charge density and potential will be updated during run
 non-spin polarized calculation
 Variant of blocked Davidson
 Davidson routine will perform the subspace rotation
 perform sub-space diagonalisation
    after iterative eigenvector-optimisation
 modified Broyden-mixing scheme, WC =      100.0
 initial mixing is a Kerker type mixing with AMIX =  0.4000 and BMIX =      1.0000
 Hartree-type preconditioning will be used
 using additional bands            9
 reciprocal scheme for non local part
 use partial core corrections
 calculate Harris-corrections to forces 
   (improved forces if not selfconsistent)
 use gradient corrections 
 use of overlap-Matrix (Vanderbilt PP)
 Gauss-broadening in eV      SIGMA  =   0.02


--------------------------------------------------------------------------------------------------------


  energy-cutoff  :      341.00
  volume of cell :       43.95
      direct lattice vectors                 reciprocal lattice vectors
     0.000000000  2.801000593  2.801000593    -0.178507638  0.178507638  0.178507638
     2.801000593  0.000000000  2.801000593     0.178507638 -0.178507638  0.178507638
     2.801000593  2.801000593  0.000000000     0.178507638  0.178507638 -0.178507638

  length of vectors
     3.961213027  3.961213027  3.961213027     0.309184299  0.309184299  0.309184299


 
 k-points in units of 2pi/SCALE and weight: KPOINTS created by Atomic Simulation Env
   0.00000000  0.00000000  0.00000000       0.016
  -0.04462691  0.04462691  0.04462691       0.125
  -0.08925382  0.08925382  0.08925382       0.062
  -0.00000000 -0.00000000  0.08925382       0.094
  -0.04462691  0.04462691  0.13388073       0.375
   0.08925382 -0.08925382 -0.00000000       0.188
  -0.00000000 -0.00000000  0.17850764       0.047
   0.17850764 -0.08925382 -0.00000000       0.094
 
 k-points in reciprocal lattice and weights: KPOINTS created by Atomic Simulation Env
   0.00000000  0.00000000  0.00000000       0.016
   0.25000000  0.00000000 -0.00000000       0.125
   0.50000000  0.00000000 -0.00000000       0.062
   0.25000000  0.25000000 -0.00000000       0.094
   0.50000000  0.25000000 -0.00000000       0.375
  -0.25000000  0.25000000  0.00000000       0.188
   0.50000000  0.50000000 -0.00000000       0.047
  -0.25000000  0.50000000  0.25000000       0.094
 
 position of ions in fractional coordinates (direct lattice) 
   0.00000000  0.00000000  0.00000000
   0.50000000  0.50000000  0.50000000
 
 position of ions in cartesian coordinates  (Angst):
   0.00000000  0.00000000  0.00000000
   2.80100059  2.80100059  2.80100059
 


--------------------------------------------------------------------------------------------------------


 k-point   1 :   0.0000 0.0000 0.0000  plane waves:     609
 k-point   2 :   0.2500 0.0000-0.0000  plane waves:     616
 k-point   3 :   0.5000 0.0000-0.0000  plane waves:     628
 k-point   4 :   0.2500 0.2500-0.0000  plane waves:     632
 k-point   5 :   0.5000 0.2500-0.0000  plane waves:     626
 k-point   6 :  -0.2500 0.2500 0.0000  plane waves:     624
 k-point   7 :   0.5000 0.5000-0.0000  plane waves:     636
 k-point   8 :  -0.2500 0.5000 0.2500  plane waves:     616

 maximum and minimum number of plane-waves per node :       164      149

 maximum number of plane-waves:       636
 maximum index in each direction: 
   IXMAX=    6   IYMAX=    5   IZMAX=    5
   IXMIN=   -6   IYMIN=   -6   IZMIN=   -6


 parallel 3D FFT for wavefunctions:
    minimum data exchange during FFTs selected (reduces bandwidth)
 parallel 3D FFT for charge:
    minimum data exchange during FFTs selected (reduces bandwidth)


 total amount of memory used by VASP MPI-rank0    31248. kBytes
=======================================================================

   base      :      30000. kBytes
   nonl-proj :        168. kBytes
   fftplans  :        628. kBytes
   grid      :        406. kBytes
   one-center:          3. kBytes
   wavefun   :         43. kBytes
 
     INWAV:  cpu time      0.0000: real time      0.0000
 Broyden mixing: mesh for mixing (old mesh)
   NGX = 11   NGY = 11   NGZ = 11
  (NGX  = 48   NGY  = 48   NGZ  = 48)
  gives a total of   1331 points

 initial charge density was supplied:
 charge density of overlapping atoms calculated
 number of electron      14.0000000 magnetization 
 keeping initial charge density in first step


--------------------------------------------------------------------------------------------------------


 Maximum index for augmentation-charges         2532 (set IRDMAX)


--------------------------------------------------------------------------------------------------------


 First call to EWALD:  gamma=   0.502
 Maximum number of real-space cells 3x 3x 3
 Maximum number of reciprocal cells 3x 3x 3

    FEWALD:  cpu time      0.0016: real time      0.0016


--------------------------------------- Iteration      1(   1)  ---------------------------------------


    POTLOK:  cpu time      0.0049: real time      0.0056
    SETDIJ:  cpu time      0.0044: real time      0.0044
     EDDAV:  cpu time      0.0360: real time      0.0364
       DOS:  cpu time      0.0005: real time      0.0005
    --------------------------------------------
      LOOP:  cpu time      0.0459: real time      0.0470

 eigenvalue-minimisations  :   256
 total energy-change (2. order) : 0.8006674E+02  (-0.5607485E+03)
 number of electron      14.0000000 magnetization 
 augmentation part       14.0000000 magnetization 

 Free energy of the ion-electron system (eV)
  ---------------------------------------------------
  alpha Z        PSCENC =        23.48521004
  Ewald energy   TEWEN  =      -714.73298991
  -Hartree energ DENC   =      -281.00432570
  -exchange      EXHF   =         0.00000000
  -V(xc)+E(xc)   XCENC  =        45.51667119
  PAW double counting   =       827.07617940     -915.19001755
  entropy T*S    EENTRO =        -0.00000000
  eigenvalues    EBANDS =       -77.96456970
  atomic energy  EATOM  =      1172.88058597
  Solvation  Ediel_sol  =         0.00000000
  ---------------------------------------------------
  free energy    TOTEN  =        80.06674374 eV

  energy without entropy =       80.06674374  energy(sigma->0) =       80.06674374


--------------------------------------------------------------------------------------------------------




--------------------------------------- Iteration      1(   2)  ---------------------------------------


     EDDAV:  cpu time      0.0317: real time      0.0341
       DOS:  cpu time      0.0001: real time      0.0001
    --------------------------------------------
      LOOP:  cpu time      0.0318: real time      0.0342

 eigenvalue-minimisations  :   304
 total energy-change (2. order) :-0.8215028E+02  (-0.7727104E+02)
 number of electron      14.0000000 magnetization 
 augmentation part       14.0000000 magnetization 

 Free energy of the ion-electron system (eV)
  ---------------------------------------------------
  alpha Z        PSCENC =        23.48521004
  Ewald energy   TEWEN  =      -714.73298991
  -Hartree energ DENC   =      -281.00432570
  -exchange      EXHF   =         0.00000000
  -V(xc)+E(xc)   XCENC  =        45.51667119
  PAW double counting   =       827.07617940     -915.19001755
  entropy T*S    EENTRO =        -0.00000000
  eigenvalues    EBANDS =      -160.11484797
  atomic energy  EATOM  =      1172.88058597
  Solvation  Ediel_sol  =         0.00000000
  ---------------------------------------------------
  free energy    TOTEN  =        -2.08353452 eV

  energy without entropy =       -2.08353452  energy(sigma->0) =       -2.08353452


--------------------------------------------------------------------------------------------------------




--------------------------------------- Iteration      1(   3)  ---------------------------------------


     EDDAV:  cpu time      0.0253: real time      0.0311
       DOS:  cpu time      0.0001: real time      0.0001
    --------------------------------------------
      LOOP:  cpu time      0.0253: real time      0.0312

 eigenvalue-minimisations  :   296
 total energy-change (2. order) :-0.5012542E+01  (-0.4998462E+01)
 number of electron      14.0000000 magnetization 
 augmentation part       14.0000000 magnetization 

 Free energy of the ion-electron system (eV)
  ---------------------------------------------------
  alpha Z        PSCENC =        23.48521004
  Ewald energy   TEWEN  =      -714.73298991
  -Hartree energ DENC   =      -281.00432570
  -exchange      EXHF   =         0.00000000
  -V(xc)+E(xc)   XCENC  =        45.51667119
  PAW double counting   =       827.07617940     -915.19001755
  entropy T*S    EENTRO =        -0.00000000
  eigenvalues    EBANDS =      -165.12739023
  atomic energy  EATOM  =      1172.88058597
  Solvation  Ediel_sol  =         0.00000000
  ---------------------------------------------------
  free energy    TOTEN  =        -7.09607679 eV

  energy without entropy =       -7.09607679  energy(sigma->0) =       -7.09607679


--------------------------------------------------------------------------------------------------------




--------------------------------------- Iteration      1(   4)  ---------------------------------------


     EDDAV:  cpu time      0.0256: real time      0.0311
       DOS:  cpu time      0.0001: real time      0.0001
    --------------------------------------------
      LOOP:  cpu time      0.0257: real time      0.0312

 eigenvalue-minimisations  :   328
 total energy-change (2. order) :-0.5881929E-01  (-0.5880570E-01)
 number of electron      14.0000000 magnetization 
 augmentation part       14.0000000 magnetization 

 Free energy of the ion-electron system (eV)
  ---------------------------------------------------
  alpha Z        PSCENC =        23.48521004
  Ewald energy   TEWEN  =      -714.73298991
  -Hartree energ DENC   =      -281.00432570
  -exchange      EXHF   =         0.00000000
  -V(xc)+E(xc)   XCENC  =        45.51667119
  PAW double counting   =       827.07617940     -915.19001755
  entropy T*S    EENTRO =        -0.00000000
  eigenvalues    EBANDS =      -165.18620952
  atomic energy  EATOM  =      1172.88058597
  Solvation  Ediel_sol  =         0.00000000
  ---------------------------------------------------
  free energy    TOTEN  =        -7.15489608 eV

  energy without entropy =       -7.15489608  energy(sigma->0) =       -7.15489608


--------------------------------------------------------------------------------------------------------




--------------------------------------- Iteration      1(   5)  ---------------------------------------


     EDDAV:  cpu time      0.0295: real time      0.0297
       DOS:  cpu time      0.0001: real time      0.0001
    CHARGE:  cpu time      0.0073: real time      0.0073
    MIXING:  cpu time      0.0013: real time      0.0013
    --------------------------------------------
      LOOP:  cpu time      0.0382: real time      0.0384

 eigenvalue-minimisations  :   304
 total energy-change (2. order) :-0.1234620E-02  (-0.1234616E-02)
 number of electron      14.0000000 magnetization 
 augmentation part        3.4874751 magnetization 

 Broyden mixing:
  rms(total) = 0.18789E+00    rms(broyden)= 0.18780E+00
  rms(prec ) = 0.67677E+00
  weight for this iteration     100.00

 Free energy of the ion-electron system (eV)
  ---------------------------------------------------
  alpha Z        PSCENC =        23.48521004
  Ewald energy   TEWEN  =      -714.73298991
  -Hartree energ DENC   =      -281.00432570
  -exchange      EXHF   =         0.00000000
  -V(xc)+E(xc)   XCENC  =        45.51667119
  PAW double counting   =       827.07617940     -915.19001755
  entropy T*S    EENTRO =        -0.00000000
  eigenvalues    EBANDS =      -165.18744414
  atomic energy  EATOM  =      1172.88058597
  Solvation  Ediel_sol  =         0.00000000
  ---------------------------------------------------
  free energy    TOTEN  =        -7.15613070 eV

  energy without entropy =       -7.15613070  energy(sigma->0) =       -7.15613070


--------------------------------------------------------------------------------------------------------




--------------------------------------- Iteration      1(   6)  ---------------------------------------


    POTLOK:  cpu time      0.0039: real time      0.0093
    SETDIJ:  cpu time      0.0027: real time      0.0027
     EDDAV:  cpu time      0.0248: real time      0.0248
       DOS:  cpu time      0.0001: real time      0.0001
    CHARGE:  cpu time      0.0034: real time      0.0034
    MIXING:  cpu time      0.0005: real time      0.0005
    --------------------------------------------
      LOOP:  cpu time      0.0353: real time      0.0408

 eigenvalue-minimisations  :   320
 total energy-change (2. order) : 0.1546543E+00  (-0.2174951E-01)
 number of electron      14.0000000 magnetization 
 augmentation part        3.5146767 magnetization 

 Broyden mixing:
  rms(total) = 0.13412E+00    rms(broyden)= 0.13410E+00
  rms(prec ) = 0.29871E+00
  weight for this iteration     100.00

 eigenvalues of (default mixing * dielectric matrix)
  average eigenvalue GAMMA=   1.0791
  1.0791

 Free energy of the ion-electron system (eV)
  ---------------------------------------------------
  alpha Z        PSCENC =        23.48521004
  Ewald energy   TEWEN  =      -714.73298991
  -Hartree energ DENC   =      -283.20389760
  -exchange      EXHF   =         0.00000000
  -V(xc)+E(xc)   XCENC  =        45.79601314
  PAW double counting   =       853.19344677     -941.06010776
  entropy T*S    EENTRO =        -0.00000000
  eigenvalues    EBANDS =      -163.35973710
  atomic energy  EATOM  =      1172.88058597
  Solvation  Ediel_sol  =         0.00000000
  ---------------------------------------------------
  free energy    TOTEN  =        -7.00147645 eV

  energy without entropy =       -7.00147645  energy(sigma->0) =       -7.00147645


--------------------------------------------------------------------------------------------------------




--------------------------------------- Iteration      1(   7)  ---------------------------------------


    POTLOK:  cpu time      0.0030: real time      0.0094
    SETDIJ:  cpu time      0.0023: real time      0.0023
     EDDAV:  cpu time      0.0261: real time      0.0261
       DOS:  cpu time      0.0001: real time      0.0001
    CHARGE:  cpu time      0.0034: real time      0.0034
    MIXING:  cpu time      0.0002: real time      0.0002
    --------------------------------------------
      LOOP:  cpu time      0.0352: real time      0.0416

 eigenvalue-minimisations  :   352
 total energy-change (2. order) : 0.1036917E-01  (-0.5576583E-02)
 number of electron      14.0000000 magnetization 
 augmentation part        3.5271512 magnetization 

 Broyden mixing:
  rms(total) = 0.92208E-01    rms(broyden)= 0.92193E-01
  rms(prec ) = 0.13739E+00
  weight for this iteration     100.00

 eigenvalues of (default mixing * dielectric matrix)
  average eigenvalue GAMMA=   2.2890
  1.3980  3.1800

 Free energy of the ion-electron system (eV)
  ---------------------------------------------------
  alpha Z        PSCENC =        23.48521004
  Ewald energy   TEWEN  =      -714.73298991
  -Hartree energ DENC   =      -284.02585779
  -exchange      EXHF   =         0.00000000
  -V(xc)+E(xc)   XCENC  =        45.95764585
  PAW double counting   =       887.83584902     -975.73721912
  entropy T*S    EENTRO =        -0.00000000
  eigenvalues    EBANDS =      -162.65433134
  atomic energy  EATOM  =      1172.88058597
  Solvation  Ediel_sol  =         0.00000000
  ---------------------------------------------------
  free energy    TOTEN  =        -6.99110728 eV

  energy without entropy =       -6.99110728  energy(sigma->0) =       -6.99110728


--------------------------------------------------------------------------------------------------------




--------------------------------------- Iteration      1(   8)  ---------------------------------------


    POTLOK:  cpu time      0.0030: real time      0.0096
    SETDIJ:  cpu time      0.0023: real time      0.0023
     EDDAV:  cpu time      0.0210: real time      0.0210
       DOS:  cpu time      0.0001: real time      0.0001
    CHARGE:  cpu time      0.0034: real time      0.0034
    MIXING:  cpu time      0.0003: real time      0.0003
    --------------------------------------------
      LOOP:  cpu time      0.0301: real time      0.0367

 eigenvalue-minimisations  :   264
 total energy-change (2. order) :-0.3474184E-02  (-0.7163189E-03)
 number of electron      14.0000000 magnetization 
 augmentation part        3.5256571 magnetization 

 Broyden mixing:
  rms(total) = 0.27584E-01    rms(broyden)= 0.27584E-01
  rms(prec ) = 0.32072E-01
  weight for this iteration     100.00

 eigenvalues of (default mixing * dielectric matrix)
  average eigenvalue GAMMA=   1.5924
  2.5802  0.8415  1.3557

 Free energy of the ion-electron system (eV)
  ---------------------------------------------------
  alpha Z        PSCENC =        23.48521004
  Ewald energy   TEWEN  =      -714.73298991
  -Hartree energ DENC   =      -283.61506942
  -exchange      EXHF   =         0.00000000
  -V(xc)+E(xc)   XCENC  =        46.01795822
  PAW double counting   =       933.02818423    -1021.16187484
  entropy T*S    EENTRO =        -0.00000000
  eigenvalues    EBANDS =      -162.89658577
  atomic energy  EATOM  =      1172.88058597
  Solvation  Ediel_sol  =         0.00000000
  ---------------------------------------------------
  free energy    TOTEN  =        -6.99458147 eV

  energy without entropy =       -6.99458147  energy(sigma->0) =       -6.99458147


--------------------------------------------------------------------------------------------------------




--------------------------------------- Iteration      1(   9)  ---------------------------------------


    POTLOK:  cpu time      0.0029: real time      0.0095
    SETDIJ:  cpu time      0.0024: real time      0.0024
     EDDAV:  cpu time      0.0237: real time      0.0237
       DOS:  cpu time      0.0001: real time      0.0001
    CHARGE:  cpu time      0.0034: real time      0.0034
    MIXING:  cpu time      0.0002: real time      0.0002
    --------------------------------------------
      LOOP:  cpu time      0.0327: real time      0.0393

 eigenvalue-minimisations  :   312
 total energy-change (2. order) : 0.1116372E-03  (-0.2004168E-04)
 number of electron      14.0000000 magnetization 
 augmentation part        3.5261674 magnetization 

 Broyden mixing:
  rms(total) = 0.14426E-01    rms(broyden)= 0.14426E-01
  rms(prec ) = 0.15920E-01
  weight for this iteration     100.00

 eigenvalues of (default mixing * dielectric matrix)
  average eigenvalue GAMMA=   1.9856
  2.7830  2.7830  1.0309  1.3454

 Free energy of the ion-electron system (eV)
  ---------------------------------------------------
  alpha Z        PSCENC =        23.48521004
  Ewald energy   TEWEN  =      -714.73298991
  -Hartree energ DENC   =      -283.68599234
  -exchange      EXHF   =         0.00000000
  -V(xc)+E(xc)   XCENC  =        46.01721351
  PAW double counting   =       927.79424155    -1015.90492170
  entropy T*S    EENTRO =        -0.00000000
  eigenvalues    EBANDS =      -162.84781696
  atomic energy  EATOM  =      1172.88058597
  Solvation  Ediel_sol  =         0.00000000
  ---------------------------------------------------
  free energy    TOTEN  =        -6.99446983 eV

  energy without entropy =       -6.99446983  energy(sigma->0) =       -6.99446983


--------------------------------------------------------------------------------------------------------




--------------------------------------- Iteration      1(  10)  ---------------------------------------


    POTLOK:  cpu time      0.0029: real time      0.0096
    SETDIJ:  cpu time      0.0023: real time      0.0023
     EDDAV:  cpu time      0.0227: real time      0.0228
       DOS:  cpu time      0.0001: real time      0.0001
    CHARGE:  cpu time      0.0034: real time      0.0034
    MIXING:  cpu time      0.0003: real time      0.0003
    --------------------------------------------
      LOOP:  cpu time      0.0317: real time      0.0385

 eigenvalue-minimisations  :   296
 total energy-change (2. order) :-0.4658737E-04  (-0.1633592E-04)
 number of electron      14.0000000 magnetization 
 augmentation part        3.5268403 magnetization 

 Broyden mixing:
  rms(total) = 0.42957E-02    rms(broyden)= 0.42945E-02
  rms(prec ) = 0.53639E-02
  weight for this iteration     100.00

 eigenvalues of (default mixing * dielectric matrix)
  average eigenvalue GAMMA=   1.7045
  2.8943  2.4629  1.2831  1.0630  0.8193

 Free energy of the ion-electron system (eV)
  ---------------------------------------------------
  alpha Z        PSCENC =        23.48521004
  Ewald energy   TEWEN  =      -714.73298991
  -Hartree energ DENC   =      -283.71718663
  -exchange      EXHF   =         0.00000000
  -V(xc)+E(xc)   XCENC  =        46.01769757
  PAW double counting   =       920.33900462    -1008.43788613
  entropy T*S    EENTRO =        -0.00000000
  eigenvalues    EBANDS =      -162.82895194
  atomic energy  EATOM  =      1172.88058597
  Solvation  Ediel_sol  =         0.00000000
  ---------------------------------------------------
  free energy    TOTEN  =        -6.99451642 eV

  energy without entropy =       -6.99451642  energy(sigma->0) =       -6.99451642


--------------------------------------------------------------------------------------------------------




--------------------------------------- Iteration      1(  11)  ---------------------------------------


    POTLOK:  cpu time      0.0029: real time      0.0096
    SETDIJ:  cpu time      0.0023: real time      0.0023
     EDDAV:  cpu time      0.0257: real time      0.0258
       DOS:  cpu time      0.0002: real time      0.0002
    CHARGE:  cpu time      0.0034: real time      0.0035
    MIXING:  cpu time      0.0003: real time      0.0003
    --------------------------------------------
      LOOP:  cpu time      0.0348: real time      0.0416

 eigenvalue-minimisations  :   344
 total energy-change (2. order) : 0.5138086E-05  (-0.8591563E-06)
 number of electron      14.0000000 magnetization 
 augmentation part        3.5266772 magnetization 

 Broyden mixing:
  rms(total) = 0.11943E-02    rms(broyden)= 0.11925E-02
  rms(prec ) = 0.14216E-02
  weight for this iteration     100.00

 eigenvalues of (default mixing * dielectric matrix)
  average eigenvalue GAMMA=   1.6157
  2.9192  2.2814  1.2696  1.0940  1.0651  1.0651

 Free energy of the ion-electron system (eV)
  ---------------------------------------------------
  alpha Z        PSCENC =        23.48521004
  Ewald energy   TEWEN  =      -714.73298991
  -Hartree energ DENC   =      -283.70447825
  -exchange      EXHF   =         0.00000000
  -V(xc)+E(xc)   XCENC  =        46.01758906
  PAW double counting   =       921.50439337    -1009.60905191
  entropy T*S    EENTRO =        -0.00000000
  eigenvalues    EBANDS =      -162.83576964
  atomic energy  EATOM  =      1172.88058597
  Solvation  Ediel_sol  =         0.00000000
  ---------------------------------------------------
  free energy    TOTEN  =        -6.99451128 eV

  energy without entropy =       -6.99451128  energy(sigma->0) =       -6.99451128


--------------------------------------------------------------------------------------------------------




--------------------------------------- Iteration      1(  12)  ---------------------------------------


    POTLOK:  cpu time      0.0029: real time      0.0095
    SETDIJ:  cpu time      0.0023: real time      0.0023
     EDDAV:  cpu time      0.0230: real time      0.0231
       DOS:  cpu time      0.0001: real time      0.0001
    CHARGE:  cpu time      0.0034: real time      0.0034
    MIXING:  cpu time      0.0003: real time      0.0003
    --------------------------------------------
      LOOP:  cpu time      0.0320: real time      0.0387

 eigenvalue-minimisations  :   304
 total energy-change (2. order) : 0.1664048E-06  (-0.1430047E-06)
 number of electron      14.0000000 magnetization 
 augmentation part        3.5266047 magnetization 

 Broyden mixing:
  rms(total) = 0.27485E-03    rms(broyden)= 0.26686E-03
  rms(prec ) = 0.33623E-03
  weight for this iteration     100.00

 eigenvalues of (default mixing * dielectric matrix)
  average eigenvalue GAMMA=   1.7517
  3.0226  2.7563  2.1834  1.1997  1.1997  1.0003  0.8998

 Free energy of the ion-electron system (eV)
  ---------------------------------------------------
  alpha Z        PSCENC =        23.48521004
  Ewald energy   TEWEN  =      -714.73298991
  -Hartree energ DENC   =      -283.70316204
  -exchange      EXHF   =         0.00000000
  -V(xc)+E(xc)   XCENC  =        46.01776312
  PAW double counting   =       921.98525799    -1010.09186337
  entropy T*S    EENTRO =        -0.00000000
  eigenvalues    EBANDS =      -162.83531291
  atomic energy  EATOM  =      1172.88058597
  Solvation  Ediel_sol  =         0.00000000
  ---------------------------------------------------
  free energy    TOTEN  =        -6.99451111 eV

  energy without entropy =       -6.99451111  energy(sigma->0) =       -6.99451111


--------------------------------------------------------------------------------------------------------




--------------------------------------- Iteration      1(  13)  ---------------------------------------


    POTLOK:  cpu time      0.0028: real time      0.0097
    SETDIJ:  cpu time      0.0023: real time      0.0023
     EDDAV:  cpu time      0.0205: real time      0.0205
       DOS:  cpu time      0.0001: real time      0.0001
    CHARGE:  cpu time      0.0034: real time      0.0034
    MIXING:  cpu time      0.0003: real time      0.0003
    --------------------------------------------
      LOOP:  cpu time      0.0294: real time      0.0364

 eigenvalue-minimisations  :   264
 total energy-change (2. order) :-0.3620366E-06  (-0.1264041E-07)
 number of electron      14.0000000 magnetization 
 augmentation part        3.5266087 magnetization 

 Broyden mixing:
  rms(total) = 0.99779E-04    rms(broyden)= 0.75480E-04
  rms(prec ) = 0.85396E-04
  weight for this iteration     100.00
  WARNING: grid for Broyden might be to small

 eigenvalues of (default mixing * dielectric matrix)
  average eigenvalue GAMMA=   1.8100
  3.0275  2.5599  2.5599  1.9758  1.2091  1.2091  0.9209  1.0178

 Free energy of the ion-electron system (eV)
  ---------------------------------------------------
  alpha Z        PSCENC =        23.48521004
  Ewald energy   TEWEN  =      -714.73298991
  -Hartree energ DENC   =      -283.70563944
  -exchange      EXHF   =         0.00000000
  -V(xc)+E(xc)   XCENC  =        46.01780896
  PAW double counting   =       921.84400689    -1009.95050442
  entropy T*S    EENTRO =        -0.00000000
  eigenvalues    EBANDS =      -162.83298956
  atomic energy  EATOM  =      1172.88058597
  Solvation  Ediel_sol  =         0.00000000
  ---------------------------------------------------
  free energy    TOTEN  =        -6.99451147 eV

  energy without entropy =       -6.99451147  energy(sigma->0) =       -6.99451147


--------------------------------------------------------------------------------------------------------




--------------------------------------- Iteration      1(  14)  ---------------------------------------


    POTLOK:  cpu time      0.0030: real time      0.0094
    SETDIJ:  cpu time      0.0023: real time      0.0023
     EDDAV:  cpu time      0.0227: real time      0.0228
       DOS:  cpu time      0.0001: real time      0.0001
    CHARGE:  cpu time      0.0034: real time      0.0034
    MIXING:  cpu time      0.0003: real time      0.0003
    --------------------------------------------
      LOOP:  cpu time      0.0318: real time      0.0382

 eigenvalue-minimisations  :   280
 total energy-change (2. order) : 0.4935805E-07  (-0.3524697E-09)
 number of electron      14.0000000 magnetization 
 augmentation part        3.5266077 magnetization 

 Broyden mixing:
  rms(total) = 0.71650E-04    rms(broyden)= 0.29581E-04
  rms(prec ) = 0.35944E-04
  weight for this iteration     100.00
  WARNING: grid for Broyden might be to small

 eigenvalues of (default mixing * dielectric matrix)
  average eigenvalue GAMMA=   1.7226
  3.0815  2.7380  2.4816  1.7173  1.2700  1.2700  1.0171  1.0171  0.9105

 Free energy of the ion-electron system (eV)
  ---------------------------------------------------
  alpha Z        PSCENC =        23.48521004
  Ewald energy   TEWEN  =      -714.73298991
  -Hartree energ DENC   =      -283.70535660
  -exchange      EXHF   =         0.00000000
  -V(xc)+E(xc)   XCENC  =        46.01780528
  PAW double counting   =       921.88804159    -1009.99449284
  entropy T*S    EENTRO =        -0.00000000
  eigenvalues    EBANDS =      -162.83331496
  atomic energy  EATOM  =      1172.88058597
  Solvation  Ediel_sol  =         0.00000000
  ---------------------------------------------------
  free energy    TOTEN  =        -6.99451142 eV

  energy without entropy =       -6.99451142  energy(sigma->0) =       -6.99451142


--------------------------------------------------------------------------------------------------------




--------------------------------------- Iteration      1(  15)  ---------------------------------------


    POTLOK:  cpu time      0.0053: real time      0.0098
    SETDIJ:  cpu time      0.0023: real time      0.0023
     EDDAV:  cpu time      0.0142: real time      0.0143
       DOS:  cpu time      0.0001: real time      0.0001
    --------------------------------------------
      LOOP:  cpu time      0.0220: real time      0.0265

 eigenvalue-minimisations  :   136
 total energy-change (2. order) : 0.8230927E-09  (-0.2298783E-10)
 number of electron      14.0000000 magnetization 
 augmentation part        3.5266077 magnetization 

 Free energy of the ion-electron system (eV)
  ---------------------------------------------------
  alpha Z        PSCENC =        23.48521004
  Ewald energy   TEWEN  =      -714.73298991
  -Hartree energ DENC   =      -283.70544218
  -exchange      EXHF   =         0.00000000
  -V(xc)+E(xc)   XCENC  =        46.01780058
  PAW double counting   =       921.88353799    -1009.98991559
  entropy T*S    EENTRO =        -0.00000000
  eigenvalues    EBANDS =      -162.83329832
  atomic energy  EATOM  =      1172.88058597
  Solvation  Ediel_sol  =         0.00000000
  ---------------------------------------------------
  free energy    TOTEN  =        -6.99451142 eV

  energy without entropy =       -6.99451142  energy(sigma->0) =       -6.99451142


--------------------------------------------------------------------------------------------------------




 average (electrostatic) potential at core
  the test charge radii are     0.9254  0.9406
  (the norm of the test charge is              1.0000)
       1 -46.9506       2 -93.5834
 
 
 
 E-fermi :  -0.5762     XC(G=0):  -8.4216     alpha+bet : -8.2520

 Fermi energy:        -0.5761853331

 k-point     1 :       0.0000    0.0000    0.0000
  band No.  band energies     occupation 
      1     -21.2703      2.00000
      2     -21.2703      2.00000
      3     -21.2703      2.00000
      4     -13.3547      2.00000
      5      -0.6621      2.00000
      6      -0.6621      2.00000
      7      -0.6621      2.00000
      8       4.3419      0.00000
      9      10.3557      0.00000
     10      10.3557      0.00000
     11      10.3557      0.00000
     12      12.6072      0.00000
     13      12.6072      0.00000
     14      14.0040      0.00000
     15      16.5072      0.00000
     16      16.5072      0.00000

 k-point     2 :       0.2500    0.0000   -0.0000
  band No.  band energies     occupation 
      1     -21.2875      2.00000
      2     -21.2716      2.00000
      3     -21.2716      2.00000
      4     -13.1765      2.00000
      5      -1.8263      2.00000
      6      -0.8072      2.00000
      7      -0.8072      2.00000
      8       5.8332      0.00000
      9       9.2402      0.00000
     10      10.6649      0.00000
     11      10.6650      0.00000
     12      12.5487      0.00000
     13      12.5487      0.00000
     14      14.9604      0.00000
     15      18.2398      0.00000
     16      19.1871      0.00000

 k-point     3 :       0.5000    0.0000   -0.0000
  band No.  band energies     occupation 
      1     -21.3045      2.00000
      2     -21.2728      2.00000
      3     -21.2728      2.00000
      4     -12.9868      2.00000
      5      -2.6977      2.00000
      6      -0.9431      2.00000
      7      -0.9431      2.00000
      8       6.4461      0.00000
      9       9.9974      0.00000
     10      10.2493      0.00000
     11      10.2493      0.00000
     12      14.2945      0.00000
     13      15.5892      0.00000
     14      15.5892      0.00000
     15      16.5426      0.00000
     16      16.5426      0.00000

 k-point     4 :       0.2500    0.2500   -0.0000
  band No.  band energies     occupation 
      1     -21.2847      2.00000
      2     -21.2751      2.00000
      3     -21.2751      2.00000
      4     -13.1341      2.00000
      5      -1.7942      2.00000
      6      -0.9980      2.00000
      7      -0.9980      2.00000
      8       6.3699      0.00000
      9       8.2810      0.00000
     10      10.1427      0.00000
     11      11.7474      0.00000
     12      11.7474      0.00000
     13      13.4423      0.00000
     14      18.1048      0.00000
     15      18.1048      0.00000
     16      18.3245      0.00000

 k-point     5 :       0.5000    0.2500   -0.0000
  band No.  band energies     occupation 
      1     -21.2951      2.00000
      2     -21.2802      2.00000
      3     -21.2762      2.00000
      4     -12.9630      2.00000
      5      -2.3252      2.00000
      6      -1.4762      2.00000
      7      -1.1247      2.00000
      8       7.4006      0.00000
      9       8.5591      0.00000
     10       9.4009      0.00000
     11      11.5373      0.00000
     12      13.3655      0.00000
     13      15.6723      0.00000
     14      16.5022      0.00000
     15      16.8173      0.00000
     16      17.8571      0.00000

 k-point     6 :      -0.2500    0.2500    0.0000
  band No.  band energies     occupation 
      1     -21.2939      2.00000
      2     -21.2809      2.00000
      3     -21.2728      2.00000
      4     -13.0079      2.00000
      5      -2.2019      2.00000
      6      -1.5027      2.00000
      7      -0.9451      2.00000
      8       7.4660      0.00000
      9       8.9029      0.00000
     10       9.3012      0.00000
     11      11.1502      0.00000
     12      12.4972      0.00000
     13      15.1022      0.00000
     14      16.0663      0.00000
     15      17.7008      0.00000
     16      18.0827      0.00000

 k-point     7 :       0.5000    0.5000   -0.0000
  band No.  band energies     occupation 
      1     -21.2937      2.00000
      2     -21.2797      2.00000
      3     -21.2797      2.00000
      4     -12.9375      2.00000
      5      -2.4216      2.00000
      6      -1.2921      2.00000
      7      -1.2921      2.00000
      8       6.8288      0.00000
      9       7.2083      0.00000
     10      10.6076      0.00000
     11      14.1335      0.00000
     12      14.1336      0.00000
     13      14.6837      0.00000
     14      16.4674      0.00000
     15      16.4674      0.00000
     16      16.5705      0.00000

 k-point     8 :      -0.2500    0.5000    0.2500
  band No.  band energies     occupation 
      1     -21.2866      2.00000
      2     -21.2866      2.00000
      3     -21.2822      2.00000
      4     -12.9182      2.00000
      5      -1.9222      2.00000
      6      -1.9222      2.00000
      7      -1.4603      2.00000
      8       8.1695      0.00000
      9       8.9185      0.00000
     10       8.9185      0.00000
     11      10.6596      0.00000
     12      15.0675      0.00000
     13      15.0676      0.00000
     14      15.7133      0.00000
     15      16.5407      0.00000
     16      19.0882      0.00000


--------------------------------------------------------------------------------------------------------


 soft charge-density along one line, spin component           1
         0         1         2         3         4         5         6         7         8         9
 total charge-density along one line
 
 pseudopotential strength for first ion, spin component:           1
-25.388  -0.000  -0.000   2.510   0.000   0.000   0.000   0.000
 -0.000 -25.388  -0.000   0.000   2.510   0.000   0.000   0.000
 -0.000  -0.000 -25.388   0.000   0.000   2.510  -0.000  -0.000
  2.510   0.000   0.000   6.528   0.000   0.000  -0.000   0.000
  0.000   2.510   0.000   0.000   6.528   0.000  -0.000   0.000
  0.000   0.000   2.510   0.000   0.000   6.528   0.000  -0.000
  0.000   0.000  -0.000  -0.000  -0.000   0.000   1.428   6.993
  0.000   0.000  -0.000   0.000   0.000  -0.000   6.993  33.989
 total augmentation occupancy for first ion, spin component:           1
  2.002  -0.000   0.000   0.002   0.000   0.000   0.000   0.000
 -0.000   2.002   0.000   0.000   0.002   0.000   0.000   0.000
  0.000   0.000   2.002   0.000   0.000   0.002   0.000   0.000
  0.002   0.000   0.000   0.017   0.000   0.000   0.000   0.000
  0.000   0.002   0.000   0.000   0.017   0.000   0.000   0.000
  0.000  -0.000   0.002   0.000  -0.000   0.017   0.000   0.000
  0.000   0.000   0.000   0.000   0.000   0.000   0.402  -0.001
  0.000   0.000   0.000   0.000   0.000   0.000  -0.001   0.000


------------------------ aborting loop because EDIFF is reached ----------------------------------------


    CHARGE:  cpu time      0.0037: real time      0.0037
    FORLOC:  cpu time      0.0002: real time      0.0002
    FORNL :  cpu time      0.0100: real time      0.0101
    STRESS:  cpu time      0.0324: real time      0.0324
    FORCOR:  cpu time      0.0032: real time      0.0032
    FORHAR:  cpu time      0.0010: real time      0.0010
    MIXING:  cpu time      0.0005: real time      0.0005
    OFIELD:  cpu time      0.0001: real time      0.0001

  FORCE on cell =-STRESS in cart. coord.  units (eV):
  Direction    XX          YY          ZZ          XY          YZ          ZX
  --------------------------------------------------------------------------------------
  Alpha Z    23.48521    23.48521    23.48521
  Ewald    -238.24441  -238.24441  -238.24441    -0.00000    -0.00000    -0.00000
  Hartree    94.56853    94.56853    94.56853     0.00000     0.00000     0.00000
  E(xc)     -62.95050   -62.95050   -62.95050     0.00000     0.00000     0.00000
  Local     -63.28658   -63.28658   -63.28658    -0.00004    -0.00004    -0.00004
  n-local    59.31587    59.45273    58.20680     1.25119    -0.66509     0.66511
  augment    21.47099    21.47099    21.47099    -0.00000     0.00001     0.00001
  Kinetic   166.95297   167.12568   163.81650     3.32808    -1.70690     1.70685
  Fock        0.00000     0.00000     0.00000     0.00000     0.00000     0.00000
  -------------------------------------------------------------------------------------
  Total       0.00009     0.00009     0.00009    -0.00000     0.00000     0.00000
  in kB       0.00322     0.00322     0.00322    -0.00000     0.00000     0.00000
  external pressure =        0.00 kB  Pullay stress =        0.00 kB


 VOLUME and BASIS-vectors are now :
 -----------------------------------------------------------------------------
  energy-cutoff  :      341.00
  volume of cell :       43.95
      direct lattice vectors                 reciprocal lattice vectors
     0.000000000  2.801000593  2.801000593    -0.178507638  0.178507638  0.178507638
     2.801000593  0.000000000  2.801000593     0.178507638 -0.178507638  0.178507638
     2.801000593  2.801000593  0.000000000     0.178507638  0.178507638 -0.178507638

  length of vectors
     3.961213027  3.961213027  3.961213027     0.309184299  0.309184299  0.309184299


 FORCES acting on ions
    electron-ion (+dipol)            ewald-force                    non-local-force                 convergence-correction
 -----------------------------------------------------------------------------------------------
   -.190E-14 0.988E-14 0.143E-13   -.670E-15 -.160E-14 -.244E-14   -.116E-24 0.909E-25 -.103E-24   0.189E-13 0.838E-14 0.881E-14
   0.200E-12 -.865E-12 -.121E-12   0.102E-15 0.311E-14 0.325E-14   -.162E-24 -.971E-25 -.261E-24   -.500E-15 -.211E-14 0.407E-15
 -----------------------------------------------------------------------------------------------
   0.198E-12 -.856E-12 -.107E-12   -.569E-15 0.151E-14 0.816E-15   -.278E-24 -.621E-26 -.363E-24   0.184E-13 0.627E-14 0.922E-14
 
 
 POSITION                                       TOTAL-FORCE (eV/Angst)
 -----------------------------------------------------------------------------------
      0.00000      0.00000      0.00000        -0.000000     -0.000000     -0.000000
      2.80100      2.80100      2.80100         0.000000      0.000000      0.000000
 -----------------------------------------------------------------------------------
    total drift:                                0.000000     -0.000000     -0.000000


--------------------------------------------------------------------------------------------------------



  FREE ENERGIE OF THE ION-ELECTRON SYSTEM (eV)
  ---------------------------------------------------
  free  energy   TOTEN  =        -6.99451142 eV

  energy  without entropy=       -6.99451142  energy(sigma->0) =       -6.99451142
 


--------------------------------------------------------------------------------------------------------


    POTLOK:  cpu time      0.0053: real time      0.0053


--------------------------------------------------------------------------------------------------------




--------------------------------------------------------------------------------------------------------


  
 reached required accuracy - stopping structural energy minimisation
     LOOP+:  cpu time      0.5446: real time      0.6307
    4ORBIT:  cpu time      0.0000: real time      0.0000

 total amount of memory used by VASP MPI-rank0    31248. kBytes
=======================================================================

   base      :      30000. kBytes
   nonl-proj :        168. kBytes
   fftplans  :        628. kBytes
   grid      :        406. kBytes
   one-center:          3. kBytes
   wavefun   :         43. kBytes
 
  
  
 General timing and accounting informations for this job:
 ========================================================
  
                  Total CPU time used (sec):        1.651
                            User time (sec):        0.749
                          System time (sec):        0.902
                         Elapsed time (sec):        6.899
  
                   Maximum memory used (kb):      144080.
                   Average memory used (kb):          N/A
  
                          Minor page faults:        20479
                          Major page faults:            0
                 Voluntary context switches:         1714
