 running on   32 total cores
 distrk:  each k-point on   32 cores,    1 groups
 distr:  one band on    4 cores,    8 groups
 vasp.6.3.2 27Jun22 (build Oct 14 2022 12:38:20) complex                        
  
 POSCAR found type information on POSCAR NaCl
 POSCAR found :  2 types and       2 ions
 scaLAPACK will be used
 -----------------------------------------------------------------------------
|                                                                             |
|               ----> ADVICE to this user running VASP <----                  |
|                                                                             |
|     You enforced a specific xc type in the INCAR file but a different       |
|     type was found in the POTCAR file.                                      |
|     I HOPE YOU KNOW WHAT YOU ARE DOING!                                     |
|                                                                             |
 -----------------------------------------------------------------------------

 LDA part: xc-table for Pade appr. of Perdew
 POSCAR, INCAR and KPOINTS ok, starting setup
 FFT: planning ... GRIDC
 FFT: planning ... GRID_SOFT
 FFT: planning ... GRID
 WAVECAR not read
 entering main loop
       N       E                     dE             d eps       ncg     rms          rms(c)
DAV:   1     0.800667437435E+02    0.80067E+02   -0.56075E+03   256   0.665E+02
DAV:   2    -0.208353452410E+01   -0.82150E+02   -0.77271E+02   304   0.211E+02
DAV:   3    -0.709607679015E+01   -0.50125E+01   -0.49985E+01   296   0.511E+01
DAV:   4    -0.715489607930E+01   -0.58819E-01   -0.58806E-01   328   0.596E+00
DAV:   5    -0.715613069927E+01   -0.12346E-02   -0.12346E-02   304   0.833E-01    0.188E+00
DAV:   6    -0.700147644832E+01    0.15465E+00   -0.21750E-01   320   0.301E+00    0.134E+00
DAV:   7    -0.699110728205E+01    0.10369E-01   -0.55766E-02   352   0.141E+00    0.922E-01
DAV:   8    -0.699458146577E+01   -0.34742E-02   -0.71632E-03   264   0.687E-01    0.276E-01
DAV:   9    -0.699446982858E+01    0.11164E-03   -0.20042E-04   312   0.918E-02    0.144E-01
DAV:  10    -0.699451641595E+01   -0.46587E-04   -0.16336E-04   296   0.777E-02    0.430E-02
DAV:  11    -0.699451127787E+01    0.51381E-05   -0.85916E-06   344   0.232E-02    0.119E-02
DAV:  12    -0.699451111146E+01    0.16640E-06   -0.14300E-06   304   0.817E-03    0.275E-03
DAV:  13    -0.699451147350E+01   -0.36204E-06   -0.12640E-07   264   0.193E-03    0.998E-04
DAV:  14    -0.699451142414E+01    0.49358E-07   -0.35247E-09   280   0.352E-04    0.717E-04
DAV:  15    -0.699451142332E+01    0.82309E-09   -0.22988E-10   136   0.154E-04
   1 F= -.69945114E+01 E0= -.69945114E+01  d E =-.699451E+01
 curvature:   0.00 expect dE= 0.000E+00 dE for cont linesearch  0.000E+00
 trial: gam= 0.00000 g(F)=  0.403E-60 g(S)=  0.000E+00 ort = 0.000E+00 (trialstep = 0.100E+01)
 search vector abs. value=  0.100E-09
 reached required accuracy - stopping structural energy minimisation
