   8   8   0   0
  0.2006309E+02  0.5434537E-09  0.5434537E-09  0.5434537E-09  0.5000000E-15
  1.000000000000000E-004
  CAR 
 unknown system                          
     11.35081639     -7.04145240  301      5.90210676      1.00000000
     -7.041  0.0000E+00  0.0000E+00
     -6.980  0.0000E+00  0.0000E+00
     -6.919  0.0000E+00  0.0000E+00
     -6.858  0.0000E+00  0.0000E+00
     -6.796  0.0000E+00  0.0000E+00
     -6.735  0.0000E+00  0.0000E+00
     -6.674  0.0000E+00  0.0000E+00
     -6.612  0.0000E+00  0.0000E+00
     -6.551  0.0000E+00  0.0000E+00
     -6.490  0.0000E+00  0.0000E+00
     -6.428  0.0000E+00  0.0000E+00
     -6.367  0.0000E+00  0.0000E+00
     -6.306  0.6651E-15  0.4078E-16
     -6.244  0.2958E-05  0.1813E-06
     -6.183  0.9579E-03  0.5891E-04
     -6.122  0.5858E-04  0.6250E-04
     -6.061  0.1728E-11  0.6250E-04
     -5.999  0.5997E-08  0.6250E-04
     -5.938  0.2058E-02  0.1886E-03
     -5.877  0.4059E-02  0.4375E-03
     -5.815  0.2791E-06  0.4375E-03
     -5.754  0.1116E-11  0.4375E-03
     -5.693  0.2527E-03  0.4530E-03
     -5.631  0.1185E-01  0.1179E-02
     -5.570  0.1330E-03  0.1187E-02
     -5.509  0.2059E-12  0.1188E-02
     -5.447  0.7955E-05  0.1188E-02
     -5.386  0.7267E-02  0.1634E-02
     -5.325  0.8804E-03  0.1687E-02
     -5.264  0.1024E-09  0.1687E-02
     -5.202  0.3047E-10  0.1688E-02
     -5.141  0.4974E-03  0.1718E-02
     -5.080  0.5609E-02  0.2062E-02
     -5.018  0.1008E-04  0.2062E-02
     -4.957  0.2990E-10  0.2063E-02
     -4.896  0.1261E-02  0.2140E-02
     -4.834  0.2312E-01  0.3557E-02
     -4.773  0.8354E-04  0.3562E-02
     -4.712  0.2047E-07  0.3563E-02
     -4.650  0.7948E-02  0.4050E-02
     -4.589  0.1652E-01  0.5062E-02
     -4.528  0.1273E-05  0.5063E-02
     -4.467  0.0000E+00  0.5063E-02
     -4.405  0.0000E+00  0.5063E-02
     -4.344  0.0000E+00  0.5063E-02
     -4.283  0.0000E+00  0.5063E-02
     -4.221  0.1645E-07  0.5063E-02
     -4.160  0.4405E-02  0.5333E-02
     -4.099  0.7827E-02  0.5812E-02
     -4.037  0.3616E-02  0.6034E-02
     -3.976  0.2084E-01  0.7312E-02
     -3.915  0.1255E-04  0.7313E-02
     -3.853  0.2822E-02  0.7486E-02
     -3.792  0.6324E-02  0.7873E-02
     -3.731  0.1049E-02  0.7937E-02
     -3.670  0.6722E-07  0.7938E-02
     -3.608  0.1019E-01  0.8562E-02
     -3.547  0.1428E-01  0.9437E-02
     -3.486  0.7016E-02  0.9868E-02
     -3.424  0.1745E-01  0.1094E-01
     -3.363  0.4292E-04  0.1094E-01
     -3.302  0.2245E-01  0.1232E-01
     -3.240  0.1972E-02  0.1244E-01
     -3.179  0.1184E-09  0.1244E-01
     -3.118  0.4084E-04  0.1244E-01
     -3.056  0.2245E-01  0.1382E-01
     -2.995  0.1974E-02  0.1394E-01
     -2.934  0.1189E-09  0.1394E-01
     -2.873  0.0000E+00  0.1394E-01
     -2.811  0.0000E+00  0.1394E-01
     -2.750  0.0000E+00  0.1394E-01
     -2.689  0.0000E+00  0.1394E-01
     -2.627  0.0000E+00  0.1394E-01
     -2.566  0.3300E-15  0.1394E-01
     -2.505  0.8795E-05  0.1394E-01
     -2.443  0.1069E-01  0.1459E-01
     -2.382  0.1535E-02  0.1469E-01
     -2.321  0.2554E-09  0.1469E-01
     -2.259  0.0000E+00  0.1469E-01
     -2.198  0.0000E+00  0.1469E-01
     -2.137  0.5517E-11  0.1469E-01
     -2.076  0.2846E-03  0.1470E-01
     -2.014  0.5837E-02  0.1506E-01
     -1.953  0.2210E-01  0.1642E-01
     -1.892  0.5558E-02  0.1676E-01
     -1.830  0.9038E-02  0.1731E-01
     -1.769  0.1344E-05  0.1731E-01
     -1.708  0.0000E+00  0.1731E-01
     -1.646  0.0000E+00  0.1731E-01
     -1.585  0.0000E+00  0.1731E-01
     -1.524  0.9077E-07  0.1731E-01
     -1.462  0.6136E-02  0.1769E-01
     -1.401  0.6097E-02  0.1806E-01
     -1.340  0.8749E-07  0.1806E-01
     -1.279  0.3851E-05  0.1806E-01
     -1.217  0.3626E-02  0.1829E-01
     -1.156  0.4475E-03  0.1831E-01
     -1.095  0.8142E-06  0.1831E-01
     -1.033  0.1555E-01  0.1927E-01
     -0.972  0.8915E-02  0.1981E-01
     -0.911  0.3477E-07  0.1981E-01
     -0.849  0.1220E-04  0.1981E-01
     -0.788  0.2083E-01  0.2109E-01
     -0.727  0.3628E-02  0.2131E-01
     -0.665  0.3560E-03  0.2133E-01
     -0.604  0.4629E-01  0.2417E-01
     -0.543  0.2290E-02  0.2431E-01
     -0.482  0.9874E-10  0.2431E-01
     -0.420  0.0000E+00  0.2431E-01
     -0.359  0.0000E+00  0.2431E-01
     -0.298  0.5081E-14  0.2431E-01
     -0.236  0.4346E-04  0.2432E-01
     -0.175  0.2252E-01  0.2570E-01
     -0.114  0.1905E-02  0.2581E-01
     -0.052  0.3615E-09  0.2581E-01
      0.009  0.9349E-03  0.2587E-01
      0.070  0.5179E-02  0.2619E-01
      0.132  0.2845E-05  0.2619E-01
      0.193  0.1681E-11  0.2619E-01
      0.254  0.2937E-03  0.2621E-01
      0.315  0.1183E-01  0.2693E-01
      0.377  0.1124E-03  0.2694E-01
      0.438  0.6822E-03  0.2698E-01
      0.499  0.2360E-01  0.2843E-01
      0.561  0.1887E-03  0.2844E-01
      0.622  0.1720E-12  0.2844E-01
      0.683  0.0000E+00  0.2844E-01
      0.745  0.0000E+00  0.2844E-01
      0.806  0.0000E+00  0.2844E-01
      0.867  0.0000E+00  0.2844E-01
      0.929  0.0000E+00  0.2844E-01
      0.990  0.0000E+00  0.2844E-01
      1.051  0.0000E+00  0.2844E-01
      1.112  0.0000E+00  0.2844E-01
      1.174  0.0000E+00  0.2844E-01
      1.235  0.0000E+00  0.2844E-01
      1.296  0.0000E+00  0.2844E-01
      1.358  0.1613E-06  0.2844E-01
      1.419  0.6762E-02  0.2885E-01
      1.480  0.2594E-01  0.3044E-01
      1.542  0.2846E-01  0.3219E-01
      1.603  0.7971E-05  0.3219E-01
      1.664  0.0000E+00  0.3219E-01
      1.726  0.2409E-13  0.3219E-01
      1.787  0.4434E-04  0.3219E-01
      1.848  0.8430E-02  0.3271E-01
      1.909  0.1187E-01  0.3343E-01
      1.971  0.5247E-02  0.3376E-01
      2.032  0.7029E-02  0.3419E-01
      2.093  0.2061E-06  0.3419E-01
      2.155  0.2375E-04  0.3419E-01
      2.216  0.2183E-01  0.3553E-01
      2.277  0.1434E-01  0.3641E-01
      2.339  0.4171E-01  0.3896E-01
      2.400  0.2546E-01  0.4052E-01
      2.461  0.6231E-03  0.4056E-01
      2.523  0.3956E-11  0.4056E-01
      2.584  0.0000E+00  0.4056E-01
      2.645  0.0000E+00  0.4056E-01
      2.706  0.0000E+00  0.4056E-01
      2.768  0.0000E+00  0.4056E-01
      2.829  0.8076E-09  0.4056E-01
      2.890  0.1274E-02  0.4064E-01
      2.952  0.5149E-02  0.4096E-01
      3.013  0.2857E-01  0.4271E-01
      3.074  0.2527E-01  0.4426E-01
      3.136  0.1043E-01  0.4490E-01
      3.197  0.3319E-01  0.4693E-01
      3.258  0.7155E-03  0.4698E-01
      3.320  0.2605E-01  0.4857E-01
      3.381  0.1003E-01  0.4919E-01
      3.442  0.3017E-05  0.4919E-01
      3.503  0.6201E-05  0.4919E-01
      3.565  0.2042E-01  0.5044E-01
      3.626  0.2833E-01  0.5218E-01
      3.687  0.1695E-03  0.5219E-01
      3.749  0.1315E-12  0.5219E-01
      3.810  0.3563E-06  0.5219E-01
      3.871  0.7641E-02  0.5266E-01
      3.933  0.2520E-01  0.5420E-01
      3.994  0.3859E-02  0.5444E-01
      4.055  0.4602E-07  0.5444E-01
      4.117  0.5395E-02  0.5477E-01
      4.178  0.2151E-01  0.5609E-01
      4.239  0.9796E-02  0.5669E-01
      4.300  0.3142E-03  0.5671E-01
      4.362  0.2372E-01  0.5816E-01
      4.423  0.3827E-02  0.5840E-01
      4.484  0.1786E-01  0.5949E-01
      4.546  0.2189E-01  0.6083E-01
      4.607  0.7790E-02  0.6131E-01
      4.668  0.3630E-04  0.6131E-01
      4.730  0.1480E-13  0.6131E-01
      4.791  0.0000E+00  0.6131E-01
      4.852  0.1838E-14  0.6131E-01
      4.914  0.1887E-04  0.6131E-01
      4.975  0.1134E-01  0.6201E-01
      5.036  0.1681E-01  0.6304E-01
      5.097  0.3687E-03  0.6306E-01
      5.159  0.1901E-11  0.6306E-01
      5.220  0.0000E+00  0.6306E-01
      5.281  0.0000E+00  0.6306E-01
      5.343  0.0000E+00  0.6306E-01
      5.404  0.3973E-09  0.6306E-01
      5.465  0.1742E-02  0.6317E-01
      5.527  0.1048E-01  0.6381E-01
      5.588  0.6682E-05  0.6381E-01
      5.649  0.0000E+00  0.6381E-01
      5.711  0.2017E-07  0.6381E-01
      5.772  0.1503E-02  0.6390E-01
      5.833  0.1556E-02  0.6400E-01
      5.894  0.2460E-07  0.6400E-01
      5.956  0.0000E+00  0.6400E-01
      6.017  0.0000E+00  0.6400E-01
      6.078  0.0000E+00  0.6400E-01
      6.140  0.0000E+00  0.6400E-01
      6.201  0.7343E-10  0.6400E-01
      6.262  0.6516E-03  0.6404E-01
      6.324  0.5467E-02  0.6438E-01
      6.385  0.5564E-02  0.6472E-01
      6.446  0.5501E-03  0.6475E-01
      6.508  0.4212E-10  0.6475E-01
      6.569  0.0000E+00  0.6475E-01
      6.630  0.0000E+00  0.6475E-01
      6.691  0.3395E-18  0.6475E-01
      6.753  0.2657E-06  0.6475E-01
      6.814  0.4034E-02  0.6500E-01
      6.875  0.1121E-01  0.6568E-01
      6.937  0.3103E-02  0.6587E-01
      6.998  0.3541E-08  0.6588E-01
      7.059  0.0000E+00  0.6588E-01
      7.121  0.1713E-07  0.6588E-01
      7.182  0.8760E-02  0.6641E-01
      7.243  0.2500E-01  0.6794E-01
      7.305  0.8974E-03  0.6800E-01
      7.366  0.6582E-09  0.6800E-01
      7.427  0.0000E+00  0.6800E-01
      7.488  0.0000E+00  0.6800E-01
      7.550  0.7992E-10  0.6800E-01
      7.611  0.1902E-02  0.6812E-01
      7.672  0.4622E-01  0.7095E-01
      7.734  0.1207E-01  0.7169E-01
      7.795  0.3018E-02  0.7187E-01
      7.856  0.5287E-08  0.7188E-01
      7.918  0.1340E-02  0.7196E-01
      7.979  0.2305E-01  0.7337E-01
      8.040  0.2062E-02  0.7350E-01
      8.102  0.2252E-01  0.7488E-01
      8.163  0.3335E-01  0.7692E-01
      8.224  0.3307E-02  0.7713E-01
      8.285  0.1229E-02  0.7720E-01
      8.347  0.2495E-01  0.7873E-01
      8.408  0.3250E-03  0.7875E-01
      8.469  0.4153E-10  0.7875E-01
      8.531  0.1399E-02  0.7884E-01
      8.592  0.2300E-01  0.8025E-01
      8.653  0.7155E-04  0.8025E-01
      8.715  0.3891E-05  0.8025E-01
      8.776  0.2626E-01  0.8186E-01
      8.837  0.4241E-01  0.8446E-01
      8.899  0.1085E-01  0.8512E-01
      8.960  0.3192E-05  0.8513E-01
      9.021  0.8494E-04  0.8513E-01
      9.082  0.1383E-01  0.8598E-01
      9.144  0.2396E-02  0.8612E-01
      9.205  0.5490E-03  0.8616E-01
      9.266  0.1566E-01  0.8712E-01
      9.328  0.1793E-01  0.8822E-01
      9.389  0.3088E-01  0.9011E-01
      9.450  0.5036E-02  0.9042E-01
      9.512  0.1305E-02  0.9050E-01
      9.573  0.1833E-03  0.9051E-01
      9.634  0.2358E-01  0.9196E-01
      9.696  0.6989E-03  0.9200E-01
      9.757  0.5443E-11  0.9200E-01
      9.818  0.1899E-06  0.9200E-01
      9.879  0.1237E-01  0.9276E-01
      9.941  0.1588E-01  0.9373E-01
     10.002  0.8446E-02  0.9425E-01
     10.063  0.7707E-06  0.9425E-01
     10.125  0.5098E-02  0.9456E-01
     10.186  0.1121E-01  0.9525E-01
     10.247  0.9773E-06  0.9525E-01
     10.309  0.0000E+00  0.9525E-01
     10.370  0.0000E+00  0.9525E-01
     10.431  0.2232E-10  0.9525E-01
     10.493  0.7201E-03  0.9529E-01
     10.554  0.1148E-01  0.9600E-01
     10.615  0.3423E-04  0.9600E-01
     10.676  0.0000E+00  0.9600E-01
     10.738  0.0000E+00  0.9600E-01
     10.799  0.0000E+00  0.9600E-01
     10.860  0.0000E+00  0.9600E-01
     10.922  0.0000E+00  0.9600E-01
     10.983  0.0000E+00  0.9600E-01
     11.044  0.0000E+00  0.9600E-01
     11.106  0.0000E+00  0.9600E-01
     11.167  0.0000E+00  0.9600E-01
     11.228  0.0000E+00  0.9600E-01
     11.290  0.0000E+00  0.9600E-01
     11.351  0.0000E+00  0.9600E-01
