       N       E                     dE             d eps       ncg     rms          rms(c)
DAV:   1     0.427394513772E+02    0.42739E+02   -0.89545E+03   480   0.741E+02
DAV:   2    -0.432090528705E+02   -0.85949E+02   -0.79958E+02   680   0.131E+02
DAV:   3    -0.467761889027E+02   -0.35671E+01   -0.35376E+01   640   0.255E+01
DAV:   4    -0.468291490551E+02   -0.52960E-01   -0.52926E-01   576   0.406E+00
DAV:   5    -0.468303630727E+02   -0.12140E-02   -0.12138E-02   632   0.510E-01    0.101E+01
DAV:   6    -0.462152281244E+02    0.61513E+00   -0.29211E-01   536   0.211E+00    0.606E+00
DAV:   7    -0.459351424845E+02    0.28009E+00   -0.56806E-01   536   0.301E+00    0.356E-01
DAV:   8    -0.459372236577E+02   -0.20812E-02   -0.32138E-02   560   0.824E-01    0.127E-01
DAV:   9    -0.459374330890E+02   -0.20943E-03   -0.86329E-04   600   0.143E-01    0.112E-01
DAV:  10    -0.459375290503E+02   -0.95961E-04   -0.22914E-04   544   0.672E-02    0.574E-02
DAV:  11    -0.459375302872E+02   -0.12369E-05   -0.51720E-06   600   0.111E-02    0.320E-03
DAV:  12    -0.459375304503E+02   -0.16306E-06   -0.32724E-07   616   0.281E-03    0.205E-03
DAV:  13    -0.459375301875E+02    0.26277E-06   -0.10183E-07   568   0.150E-03    0.159E-04
DAV:  14    -0.459375301985E+02   -0.11005E-07   -0.11373E-09   400   0.174E-04    0.112E-04
DAV:  15    -0.459375302118E+02   -0.13287E-07   -0.13355E-10   328   0.647E-05    0.307E-05
DAV:  16    -0.459375302091E+02    0.27076E-08   -0.24972E-11   312   0.262E-05
   1 F= -.45937530E+02 E0= -.45937530E+02  d E =-.459375E+02
