<?xml version="1.0" encoding="ISO-8859-1"?>
<modeling>
 <generator>
  <i name="program" type="string">vasp </i>
  <i name="version" type="string">6.3.2  </i>
  <i name="subversion" type="string">27Jun22 (build Oct 14 2022 12:13:54) complex                          parallel </i>
  <i name="platform" type="string">LinuxIFC </i>
  <i name="date" type="string">2023 04 03 </i>
  <i name="time" type="string">14:22:16 </i>
 </generator>
 <incar>
  <i type="string" name="PREC">Accurate</i>
  <i type="int" name="IALGO">    38</i>
  <i type="logical" name="ADDGRID"> T  </i>
  <i type="int" name="NELMIN">     5</i>
  <i type="int" name="IBRION">     2</i>
  <i name="EDIFF">      0.00000001</i>
  <i name="EDIFFG">     -0.00000100</i>
  <i type="int" name="NSW">   500</i>
  <i type="int" name="ISIF">     2</i>
  <i name="ENCUT">    318.00000000</i>
  <i type="logical" name="LREAL"> F  </i>
  <i type="int" name="ISMEAR">     0</i>
  <i name="SIGMA">      0.02000000</i>
  <i type="logical" name="LWAVE"> F  </i>
  <i type="logical" name="LCHARG"> F  </i>
  <i type="string" name="GGA">Ps</i>
 </incar>
 <primitive_cell>
  <structure name="primitive_cell" >
   <crystal>
    <varray name="basis" >
     <v>       2.71726871      -2.71726871       0.00000000 </v>
     <v>       2.71726871       0.00000000       2.71726871 </v>
     <v>       0.00000000      -2.71726871       2.71726871 </v>
    </varray>
    <i name="volume">     40.12617465 </i>
    <varray name="rec_basis" >
     <v>       0.18400830      -0.18400830      -0.18400830 </v>
     <v>       0.18400830       0.18400830       0.18400830 </v>
     <v>      -0.18400830      -0.18400830       0.18400830 </v>
    </varray>
   </crystal>
   <varray name="positions" >
    <v>       0.50000000       0.50000000       0.50000000 </v>
    <v>       0.25000000       0.25000000       0.25000000 </v>
   </varray>
  </structure>
  <varray name="primitive_index" >
   <v type="int" >        1 </v>
   <v type="int" >        2 </v>
  </varray>
 </primitive_cell>
 <kpoints>
  <generation param="Gamma">
   <v type="int" name="divisions">       4        4        4 </v>
   <v name="usershift">      0.00000000       0.00000000       0.00000000 </v>
   <v name="genvec1">      0.25000000       0.00000000       0.00000000 </v>
   <v name="genvec2">      0.00000000       0.25000000       0.00000000 </v>
   <v name="genvec3">      0.00000000       0.00000000       0.25000000 </v>
   <v name="shift">      0.00000000       0.00000000       0.00000000 </v>
  </generation>
  <varray name="kpointlist" >
   <v>       0.00000000       0.00000000       0.00000000 </v>
   <v>       0.25000000       0.00000000       0.00000000 </v>
   <v>       0.50000000       0.00000000       0.00000000 </v>
   <v>       0.25000000       0.25000000       0.00000000 </v>
   <v>       0.50000000       0.25000000       0.00000000 </v>
   <v>       0.50000000       0.50000000       0.00000000 </v>
   <v>       0.25000000       0.25000000       0.25000000 </v>
   <v>       0.50000000       0.25000000       0.25000000 </v>
   <v>       0.50000000       0.50000000       0.25000000 </v>
   <v>       0.50000000       0.50000000       0.50000000 </v>
  </varray>
  <varray name="weights" >
   <v>       0.01562500 </v>
   <v>       0.09375000 </v>
   <v>       0.04687500 </v>
   <v>       0.18750000 </v>
   <v>       0.18750000 </v>
   <v>       0.04687500 </v>
   <v>       0.12500000 </v>
   <v>       0.18750000 </v>
   <v>       0.09375000 </v>
   <v>       0.01562500 </v>
  </varray>
 </kpoints>
 <parameters>
  <separator name="general" >
   <i type="string" name="SYSTEM">unknown system</i>
   <i type="logical" name="LCOMPAT"> F  </i>
  </separator>
  <separator name="electronic" >
   <i type="string" name="PREC">accura</i>
   <i name="ENMAX">    318.00000000</i>
   <i name="ENAUG">    322.06900000</i>
   <i name="EDIFF">      0.00000001</i>
   <i type="int" name="IALGO">    38</i>
   <i type="int" name="IWAVPR">    11</i>
   <i type="int" name="NBANDS">    24</i>
   <i type="int" name="NBANDSLOW">    -1</i>
   <i type="int" name="NBANDSHIGH">    -1</i>
   <i name="NELECT">     32.00000000</i>
   <i type="int" name="TURBO">     0</i>
   <i type="int" name="IRESTART">     0</i>
   <i type="int" name="NREBOOT">     0</i>
   <i type="int" name="NMIN">     0</i>
   <i name="EREF">      0.00000000</i>
   <separator name="electronic smearing" >
    <i type="int" name="ISMEAR">     0</i>
    <i name="SIGMA">      0.02000000</i>
    <i name="KSPACING">      0.50000000</i>
    <i type="logical" name="KGAMMA"> T  </i>
    <i type="logical" name="KBLOWUP"> T  </i>
   </separator>
   <separator name="electronic projectors" >
    <i type="logical" name="LREAL"> F  </i>
    <v name="ROPT">      0.00000000</v>
    <i type="int" name="LMAXPAW">  -100</i>
    <i type="int" name="LMAXMIX">     2</i>
    <i type="logical" name="NLSPLINE"> F  </i>
   </separator>
   <separator name="electronic startup" >
    <i type="int" name="ISTART">     0</i>
    <i type="int" name="ICHARG">     2</i>
    <i type="int" name="INIWAV">     1</i>
   </separator>
   <separator name="electronic spin" >
    <i type="int" name="ISPIN">     1</i>
    <i type="logical" name="LNONCOLLINEAR"> F  </i>
    <v name="MAGMOM">      1.00000000      1.00000000      1.00000000      1.00000000      1.00000000      1.00000000      1.00000000      1.00000000</v>
    <i name="NUPDOWN">     -1.00000000</i>
    <i type="logical" name="LSORBIT"> F  </i>
    <v name="SAXIS">      0.00000000      0.00000000      1.00000000</v>
    <i type="logical" name="LSPIRAL"> F  </i>
    <v name="QSPIRAL">      0.00000000      0.00000000      0.00000000</v>
    <i type="logical" name="LZEROZ"> F  </i>
   </separator>
   <separator name="electronic exchange-correlation" >
    <i type="logical" name="LASPH"> F  </i>
    <i type="logical" name="LMETAGGA"> F  </i>
   </separator>
   <separator name="electronic convergence" >
    <i type="int" name="NELM">    60</i>
    <i type="int" name="NELMDL">    -5</i>
    <i type="int" name="NELMIN">     5</i>
    <i name="ENINI">    318.00000000</i>
    <separator name="electronic convergence detail" >
     <i type="logical" name="LDIAG"> T  </i>
     <i type="logical" name="LSUBROT"> F  </i>
     <i name="WEIMIN">      0.00100000</i>
     <i name="EBREAK">      0.00000000</i>
     <i name="DEPER">      0.30000000</i>
     <i type="int" name="NRMM">     4</i>
     <i name="TIME">      0.40000000</i>
    </separator>
   </separator>
   <separator name="electronic mixer" >
    <i name="AMIX">      0.40000000</i>
    <i name="BMIX">      1.00000000</i>
    <i name="AMIN">      0.10000000</i>
    <i name="AMIX_MAG">      1.60000000</i>
    <i name="BMIX_MAG">      1.00000000</i>
    <separator name="electronic mixer details" >
     <i type="int" name="IMIX">     4</i>
     <i type="logical" name="MIXFIRST"> F  </i>
     <i type="int" name="MAXMIX">   -45</i>
     <i name="WC">    100.00000000</i>
     <i type="int" name="INIMIX">     1</i>
     <i type="int" name="MIXPRE">     1</i>
     <i type="int" name="MREMOVE">     5</i>
    </separator>
   </separator>
   <separator name="electronic dipolcorrection" >
    <i type="logical" name="LDIPOL"> F  </i>
    <i type="logical" name="LMONO"> F  </i>
    <i type="int" name="IDIPOL">     0</i>
    <i name="EPSILON">      1.00000000</i>
    <v name="DIPOL">   -100.00000000   -100.00000000   -100.00000000</v>
    <i name="EFIELD">      0.00000000</i>
   </separator>
  </separator>
  <separator name="grids" >
   <i type="int" name="NGX">    32</i>
   <i type="int" name="NGY">    32</i>
   <i type="int" name="NGZ">    32</i>
   <i type="int" name="NGXF">    64</i>
   <i type="int" name="NGYF">    64</i>
   <i type="int" name="NGZF">    64</i>
   <i type="logical" name="ADDGRID"> T  </i>
  </separator>
  <separator name="ionic" >
   <i type="int" name="NSW">   500</i>
   <i type="int" name="IBRION">     2</i>
   <i type="int" name="MDALGO">     0</i>
   <i type="int" name="ISIF">     2</i>
   <i name="PSTRESS">      0.00000000</i>
   <i name="EDIFFG">     -0.00000100</i>
   <i type="int" name="NFREE">     1</i>
   <i name="POTIM">      0.50000000</i>
   <i name="SMASS">     -3.00000000</i>
   <i name="SCALEE">      1.00000000</i>
  </separator>
  <separator name="ionic md" >
   <i name="TEBEG">      0.00010000</i>
   <i name="TEEND">      0.00010000</i>
   <i type="int" name="NBLOCK">     1</i>
   <i type="int" name="KBLOCK">   500</i>
   <i type="int" name="NPACO">   256</i>
   <i name="APACO">     10.00000000</i>
  </separator>
  <separator name="symmetry" >
   <i type="int" name="ISYM">     2</i>
   <i name="SYMPREC">      0.00001000</i>
  </separator>
  <separator name="dos" >
   <i type="int" name="LORBIT">     0</i>
   <v name="RWIGS">     -1.00000000</v>
   <i type="int" name="NEDOS">   301</i>
   <i name="EMIN">     10.00000000</i>
   <i name="EMAX">    -10.00000000</i>
   <i name="EFERMI">      0.00000000</i>
  </separator>
  <separator name="writing" >
   <i type="int" name="NWRITE">     2</i>
   <i type="logical" name="LWAVE"> F  </i>
   <i type="logical" name="LDOWNSAMPLE"> F  </i>
   <i type="logical" name="LCHARG"> F  </i>
   <i type="logical" name="LPARD"> F  </i>
   <i type="logical" name="LVTOT"> F  </i>
   <i type="logical" name="LVHAR"> F  </i>
   <i type="logical" name="LELF"> F  </i>
   <i type="logical" name="LOPTICS"> F  </i>
   <v name="STM">      0.00000000      0.00000000      0.00000000      0.00000000      0.00000000      0.00000000      0.00000000</v>
  </separator>
  <separator name="performance" >
   <i type="int" name="NPAR">     8</i>
   <i type="int" name="NSIM">     4</i>
   <i type="int" name="NBLK">    -1</i>
   <i type="logical" name="LPLANE"> T  </i>
   <i type="logical" name="LSCALAPACK"> T  </i>
   <i type="logical" name="LSCAAWARE"> F  </i>
   <i type="logical" name="LSCALU"> F  </i>
   <i type="logical" name="LASYNC"> F  </i>
   <i type="logical" name="LORBITALREAL"> F  </i>
  </separator>
  <separator name="miscellaneous" >
   <i type="int" name="IDIOT">     3</i>
   <i type="int" name="PHON_NSTRUCT">    -1</i>
   <i type="logical" name="LMUSIC"> F  </i>
   <v name="POMASS">     28.08500000</v>
   <v name="DARWINR">      0.00000000</v>
   <v name="DARWINV">      1.00000000</v>
   <i type="logical" name="LCORR"> T  </i>
  </separator>
  <i type="logical" name="GGA_COMPAT"> T  </i>
  <i type="logical" name="LBERRY"> F  </i>
  <i type="int" name="ICORELEVEL">     0</i>
  <i type="logical" name="LDAU"> F  </i>
  <i type="int" name="I_CONSTRAINED_M">     0</i>
  <separator name="electronic exchange-correlation" >
   <i type="string" name="GGA">PS</i>
   <i type="int" name="VOSKOWN">     0</i>
   <i type="logical" name="LHFCALC"> F  </i>
   <i type="string" name="PRECFOCK"></i>
   <i type="logical" name="LSYMGRAD"> F  </i>
   <i type="logical" name="LHFONE"> F  </i>
   <i type="logical" name="LRHFCALC"> F  </i>
   <i type="logical" name="LTHOMAS"> F  </i>
   <i type="logical" name="LMODELHF"> F  </i>
   <i type="logical" name="LFOCKACE"> F  </i>
   <i name="ENCUT4O">     -1.00000000</i>
   <i type="int" name="EXXOEP">     0</i>
   <i type="int" name="FOURORBIT">     0</i>
   <i name="AEXX">      0.00000000</i>
   <i name="HFALPHA">      0.00000000</i>
   <i name="MCALPHA">      0.00000000</i>
   <i name="ALDAX">      1.00000000</i>
   <i name="AGGAX">      1.00000000</i>
   <i name="ALDAC">      1.00000000</i>
   <i name="AGGAC">      1.00000000</i>
   <i type="int" name="NKREDX">     1</i>
   <i type="int" name="NKREDY">     1</i>
   <i type="int" name="NKREDZ">     1</i>
   <i type="logical" name="SHIFTRED"> F  </i>
   <i type="logical" name="ODDONLY"> F  </i>
   <i type="logical" name="EVENONLY"> F  </i>
   <i type="int" name="LMAXFOCK">     0</i>
   <i type="int" name="NMAXFOCKAE">     0</i>
   <i type="logical" name="LFOCKAEDFT"> F  </i>
   <i name="HFSCREEN">      0.00000000</i>
   <i name="HFSCREENC">      0.00000000</i>
   <i type="int" name="NBANDSGWLOW">     0</i>
  </separator>
  <separator name="vdW DFT" >
   <i type="logical" name="LUSE_VDW"> F  </i>
   <i name="Zab_VDW">     -0.84910000</i>
   <i name="PARAM1">      0.12340000</i>
   <i name="PARAM2">      1.00000000</i>
   <i name="PARAM3">      0.00000000</i>
  </separator>
  <separator name="model GW" >
   <i type="int" name="MODEL_GW">     0</i>
   <i name="MODEL_EPS0">     12.03785239</i>
   <i name="MODEL_ALPHA">      1.00000000</i>
  </separator>
  <separator name="linear response parameters" >
   <i type="logical" name="LEPSILON"> F  </i>
   <i type="logical" name="LRPA"> F  </i>
   <i type="logical" name="LNABLA"> F  </i>
   <i type="logical" name="LVEL"> F  </i>
   <i name="CSHIFT">      0.10000000</i>
   <i name="OMEGAMAX">     -1.00000000</i>
   <i name="DEG_THRESHOLD">      0.00200000</i>
   <i name="RTIME">     -0.10000000</i>
   <i name="WPLASMAI">      0.00000000</i>
   <v name="DFIELD">      0.00000000      0.00000000      0.00000000</v>
   <v name="WPLASMA">      0.00000000      0.00000000      0.00000000      0.00000000      0.00000000      0.00000000      0.00000000      0.00000000      0.00000000</v>
  </separator>
  <separator name="orbital magnetization" >
   <i type="logical" name="NUCIND"> F  </i>
   <v name="MAGPOS">      0.00000000      0.00000000      0.00000000</v>
   <i type="logical" name="LNICSALL"> T  </i>
   <i type="logical" name="ORBITALMAG"> F  </i>
   <i type="logical" name="LMAGBLOCH"> F  </i>
   <i type="logical" name="LCHIMAG"> F  </i>
   <i type="logical" name="LGAUGE"> T  </i>
   <i type="int" name="MAGATOM">     0</i>
   <v name="MAGDIPOL">      0.00000000      0.00000000      0.00000000</v>
   <v name="AVECCONST">      0.00000000      0.00000000      0.00000000</v>
  </separator>
  <separator name="response functions" >
   <i type="logical" name="LFINITE_TEMPERATURE"> F  </i>
   <i type="logical" name="LADDER"> F  </i>
   <i type="logical" name="LRPAFORCE"> F  </i>
   <i type="logical" name="LFXC"> F  </i>
   <i type="logical" name="LHARTREE"> T  </i>
   <i type="int" name="IBSE">     0</i>
   <v type="int" name="KPOINT">    -1     0     0     0</v>
   <i type="logical" name="LTCTC"> F  </i>
   <i type="logical" name="LTCTE"> F  </i>
   <i type="logical" name="LTETE"> F  </i>
   <i type="logical" name="LTRIPLET"> F  </i>
   <i type="logical" name="LFXCEPS"> F  </i>
   <i type="logical" name="LFXHEG"> F  </i>
   <i type="int" name="NATURALO">     2</i>
   <i type="logical" name="LHOLEGF"> F  </i>
   <i type="logical" name="L2ORDER"> F  </i>
   <i type="logical" name="LDMP1"> F  </i>
   <i type="logical" name="LMP2LT"> F  </i>
   <i type="logical" name="LSMP2LT"> F  </i>
   <i type="logical" name="LGWLF"> F  </i>
   <i name="ENCUTGW">     -2.00000000</i>
   <i name="ENCUTGWSOFT">     -2.00000000</i>
   <i name="ENCUTLF">     -1.00000000</i>
   <i type="logical" name="LESF_SPLINES"> F  </i>
   <i type="int" name="LMAXMP2">    -1</i>
   <i name="SCISSOR">      0.00000000</i>
   <i type="int" name="NOMEGA">     0</i>
   <i type="int" name="NOMEGAR">     0</i>
   <i type="int" name="NBANDSGW">    -1</i>
   <i type="int" name="NBANDSO">    -1</i>
   <i type="int" name="NBANDSV">    -1</i>
   <i type="int" name="NELMGW">     1</i>
   <i type="int" name="NELMHF">     1</i>
   <i type="int" name="DIM">     3</i>
   <i type="int" name="IESPILON">     4</i>
   <i type="int" name="ANTIRES">     0</i>
   <i name="OMEGAMAX">    -30.00000000</i>
   <i name="OMEGAMIN">    -30.00000000</i>
   <i name="OMEGATL">   -200.00000000</i>
   <i type="int" name="OMEGAGRID">     0</i>
   <i name="CSHIFT">     -0.10000000</i>
   <i type="logical" name="LSELFENERGY"> F  </i>
   <i type="logical" name="LSPECTRAL"> F  </i>
   <i type="logical" name="LSPECTRALGW"> F  </i>
   <i type="logical" name="LSINGLES"> F  </i>
   <i type="logical" name="LFERMIGW"> F  </i>
   <i type="logical" name="ODDONLYGW"> F  </i>
   <i type="logical" name="EVENONLYGW"> F  </i>
   <i type="int" name="NKREDLFX">     1</i>
   <i type="int" name="NKREDLFY">     1</i>
   <i type="int" name="NKREDLFZ">     1</i>
   <i type="int" name="MAXMEM">  2800</i>
   <i type="int" name="TELESCOPE">     0</i>
   <i type="int" name="NTAUPAR">    -1</i>
   <i type="int" name="NOMEGAPAR">    -1</i>
   <i name="DAMP_NEWTON">      0.80000001</i>
   <i name="LAMBDA">      1.00000000</i>
  </separator>
  <separator name="External order field" >
   <i name="OFIELD_KAPPA">      0.00000000</i>
   <v name="OFIELD_K">      0.00000000      0.00000000      0.00000000</v>
   <i name="OFIELD_Q6_NEAR">      0.00000000</i>
   <i name="OFIELD_Q6_FAR">      0.00000000</i>
   <i name="OFIELD_A">      0.00000000</i>
  </separator>
  <separator name="optional k-points parameters" >
   <i type="int" name="KPOINTS_OPT_MODE">     1</i>
   <i type="logical" name="LKPOINTS_OPT"> F  </i>
  </separator>
 </parameters>
 <atominfo>
  <atoms>       8 </atoms>
  <types>       1 </types>
  <array name="atoms" >
   <dimension dim="1">ion</dimension>
   <field type="string">element</field>
   <field type="int">atomtype</field>
   <set>
    <rc><c>Si</c><c>   1</c></rc>
    <rc><c>Si</c><c>   1</c></rc>
    <rc><c>Si</c><c>   1</c></rc>
    <rc><c>Si</c><c>   1</c></rc>
    <rc><c>Si</c><c>   1</c></rc>
    <rc><c>Si</c><c>   1</c></rc>
    <rc><c>Si</c><c>   1</c></rc>
    <rc><c>Si</c><c>   1</c></rc>
   </set>
  </array>
  <array name="atomtypes" >
   <dimension dim="1">type</dimension>
   <field type="int">atomspertype</field>
   <field type="string">element</field>
   <field>mass</field>
   <field>valence</field>
   <field type="string">pseudopotential</field>
   <set>
    <rc><c>   8</c><c>Si</c><c>     28.08500000</c><c>      4.00000000</c><c>  PAW_PBE Si 05Jan2001                  </c></rc>
   </set>
  </array>
 </atominfo>
 <structure name="initialpos" >
  <crystal>
   <varray name="basis" >
    <v>       5.43453742       0.00000000       0.00000000 </v>
    <v>       0.00000000       5.43453742       0.00000000 </v>
    <v>       0.00000000       0.00000000       5.43453742 </v>
   </varray>
   <i name="volume">    160.50469860 </i>
   <varray name="rec_basis" >
    <v>       0.18400830       0.00000000       0.00000000 </v>
    <v>       0.00000000       0.18400830       0.00000000 </v>
    <v>       0.00000000       0.00000000       0.18400830 </v>
   </varray>
  </crystal>
  <varray name="positions" >
   <v>       0.50000000       0.00000000       0.00000000 </v>
   <v>       0.25000000       0.25000000       0.75000000 </v>
   <v>       0.50000000       0.50000000       0.50000000 </v>
   <v>       0.25000000       0.75000000       0.25000000 </v>
   <v>       0.00000000       0.00000000       0.50000000 </v>
   <v>       0.75000000       0.25000000       0.25000000 </v>
   <v>       0.00000000       0.50000000       0.00000000 </v>
   <v>       0.75000000       0.75000000       0.75000000 </v>
  </varray>
 </structure>
 <calculation>
  <scstep>
   <time name="dav">    0.05    0.05</time>
   <time name="total">    0.06    0.06</time>
   <energy>
    <i name="alphaZ">     13.42291154 </i>
    <i name="ewald">   -913.49080079 </i>
    <i name="hartreedc">    -44.15488202 </i>
    <i name="XCdc">    -69.85643568 </i>
    <i name="pawpsdc">    699.82828177 </i>
    <i name="pawaedc">   -561.52230517 </i>
    <i name="eentropy">     -0.00236851 </i>
    <i name="bandstr">     97.91917222 </i>
    <i name="atom">    820.59587802 </i>
    <i name="e_fr_energy">     42.73945138 </i>
    <i name="e_wo_entrp">     42.74181989 </i>
    <i name="e_0_energy">     42.74063563 </i>
   </energy>
  </scstep>
  <scstep>
   <time name="dav">    0.08    0.08</time>
   <time name="total">    0.08    0.08</time>
   <energy>
    <i name="e_fr_energy">    -43.20905287 </i>
    <i name="e_wo_entrp">    -43.20905287 </i>
    <i name="e_0_energy">    -43.20905287 </i>
   </energy>
  </scstep>
  <scstep>
   <time name="dav">    0.09    0.16</time>
   <time name="total">    0.09    0.16</time>
   <energy>
    <i name="e_fr_energy">    -46.77618890 </i>
    <i name="e_wo_entrp">    -46.77618890 </i>
    <i name="e_0_energy">    -46.77618890 </i>
   </energy>
  </scstep>
  <scstep>
   <time name="dav">    0.05    0.15</time>
   <time name="total">    0.05    0.15</time>
   <energy>
    <i name="e_fr_energy">    -46.82914906 </i>
    <i name="e_wo_entrp">    -46.82914906 </i>
    <i name="e_0_energy">    -46.82914906 </i>
   </energy>
  </scstep>
  <scstep>
   <time name="dav">    0.09    0.09</time>
   <time name="total">    0.11    0.11</time>
   <energy>
    <i name="e_fr_energy">    -46.83036307 </i>
    <i name="e_wo_entrp">    -46.83036307 </i>
    <i name="e_0_energy">    -46.83036307 </i>
   </energy>
  </scstep>
  <scstep>
   <time name="dav">    0.06    0.06</time>
   <time name="total">    0.10    0.10</time>
   <energy>
    <i name="e_fr_energy">    -46.21522812 </i>
    <i name="e_wo_entrp">    -46.21522812 </i>
    <i name="e_0_energy">    -46.21522812 </i>
   </energy>
  </scstep>
  <scstep>
   <time name="dav">    0.09    0.10</time>
   <time name="total">    0.11    0.11</time>
   <energy>
    <i name="e_fr_energy">    -45.93514248 </i>
    <i name="e_wo_entrp">    -45.93514248 </i>
    <i name="e_0_energy">    -45.93514248 </i>
   </energy>
  </scstep>
  <scstep>
   <time name="dav">    0.07    0.07</time>
   <time name="total">    0.08    0.09</time>
   <energy>
    <i name="e_fr_energy">    -45.93722366 </i>
    <i name="e_wo_entrp">    -45.93722366 </i>
    <i name="e_0_energy">    -45.93722366 </i>
   </energy>
  </scstep>
  <scstep>
   <time name="dav">    0.07    0.07</time>
   <time name="total">    0.10    0.10</time>
   <energy>
    <i name="e_fr_energy">    -45.93743309 </i>
    <i name="e_wo_entrp">    -45.93743309 </i>
    <i name="e_0_energy">    -45.93743309 </i>
   </energy>
  </scstep>
  <scstep>
   <time name="dav">    0.05    0.05</time>
   <time name="total">    0.10    0.10</time>
   <energy>
    <i name="e_fr_energy">    -45.93752905 </i>
    <i name="e_wo_entrp">    -45.93752905 </i>
    <i name="e_0_energy">    -45.93752905 </i>
   </energy>
  </scstep>
  <scstep>
   <time name="dav">    0.08    0.08</time>
   <time name="total">    0.12    0.12</time>
   <energy>
    <i name="e_fr_energy">    -45.93753029 </i>
    <i name="e_wo_entrp">    -45.93753029 </i>
    <i name="e_0_energy">    -45.93753029 </i>
   </energy>
  </scstep>
  <scstep>
   <time name="dav">    0.06    0.06</time>
   <time name="total">    0.09    0.09</time>
   <energy>
    <i name="e_fr_energy">    -45.93753045 </i>
    <i name="e_wo_entrp">    -45.93753045 </i>
    <i name="e_0_energy">    -45.93753045 </i>
   </energy>
  </scstep>
  <scstep>
   <time name="dav">    0.04    0.04</time>
   <time name="total">    0.05    0.06</time>
   <energy>
    <i name="e_fr_energy">    -45.93753019 </i>
    <i name="e_wo_entrp">    -45.93753019 </i>
    <i name="e_0_energy">    -45.93753019 </i>
   </energy>
  </scstep>
  <scstep>
   <time name="dav">    0.05    0.05</time>
   <time name="total">    0.06    0.06</time>
   <energy>
    <i name="e_fr_energy">    -45.93753020 </i>
    <i name="e_wo_entrp">    -45.93753020 </i>
    <i name="e_0_energy">    -45.93753020 </i>
   </energy>
  </scstep>
  <scstep>
   <time name="dav">    0.04    0.05</time>
   <time name="total">    0.06    0.06</time>
   <energy>
    <i name="e_fr_energy">    -45.93753021 </i>
    <i name="e_wo_entrp">    -45.93753021 </i>
    <i name="e_0_energy">    -45.93753021 </i>
   </energy>
  </scstep>
  <scstep>
   <time name="dav">    0.03    0.03</time>
   <time name="total">    0.04    0.04</time>
   <energy>
    <i name="alphaZ">     13.42291154 </i>
    <i name="ewald">   -913.49080079 </i>
    <i name="hartreedc">    -58.59699529 </i>
    <i name="XCdc">    -67.41890010 </i>
    <i name="pawpsdc">   3559.48178085 </i>
    <i name="pawaedc">  -3422.03517739 </i>
    <i name="eentropy">     -0.00000000 </i>
    <i name="bandstr">     22.10377295 </i>
    <i name="atom">    820.59587802 </i>
    <i name="e_fr_energy">    -45.93753021 </i>
    <i name="e_wo_entrp">    -45.93753021 </i>
    <i name="e_0_energy">    -45.93753021 </i>
   </energy>
  </scstep>
  <structure>
   <crystal>
    <varray name="basis" >
     <v>       5.43453742       0.00000000       0.00000000 </v>
     <v>       0.00000000       5.43453742       0.00000000 </v>
     <v>       0.00000000       0.00000000       5.43453742 </v>
    </varray>
    <i name="volume">    160.50469860 </i>
    <varray name="rec_basis" >
     <v>       0.18400830       0.00000000       0.00000000 </v>
     <v>       0.00000000       0.18400830       0.00000000 </v>
     <v>       0.00000000       0.00000000       0.18400830 </v>
    </varray>
   </crystal>
   <varray name="positions" >
    <v>       0.50000000       0.00000000       0.00000000 </v>
    <v>       0.25000000       0.25000000       0.75000000 </v>
    <v>       0.50000000       0.50000000       0.50000000 </v>
    <v>       0.25000000       0.75000000       0.25000000 </v>
    <v>       0.00000000       0.00000000       0.50000000 </v>
    <v>       0.75000000       0.25000000       0.25000000 </v>
    <v>       0.00000000       0.50000000       0.00000000 </v>
    <v>       0.75000000       0.75000000       0.75000000 </v>
   </varray>
  </structure>
  <varray name="forces" >
   <v>      -0.00000000       0.00000000      -0.00000000 </v>
   <v>       0.00000000      -0.00000000       0.00000000 </v>
   <v>      -0.00000000      -0.00000000      -0.00000000 </v>
   <v>       0.00000000       0.00000000       0.00000000 </v>
   <v>      -0.00000000      -0.00000000      -0.00000000 </v>
   <v>       0.00000000       0.00000000       0.00000000 </v>
   <v>      -0.00000000       0.00000000       0.00000000 </v>
   <v>       0.00000000      -0.00000000      -0.00000000 </v>
  </varray>
  <varray name="stress" >
   <v>       0.00005309       0.00000000       0.00000000 </v>
   <v>      -0.00000000       0.00005309       0.00000000 </v>
   <v>      -0.00000000      -0.00000000       0.00005309 </v>
  </varray>
  <energy>
   <i name="e_fr_energy">    -45.93753021 </i>
   <i name="e_wo_entrp">    -45.93753021 </i>
   <i name="e_0_energy">    -45.93753021 </i>
  </energy>
  <time name="totalsc">    1.42    1.61</time>
  <eigenvalues>
   <array>
    <dimension dim="1">band</dimension>
    <dimension dim="2">kpoint</dimension>
    <dimension dim="3">spin</dimension>
    <field>eigene</field>
    <field>occ</field>
    <set>
     <set comment="spin 1">
      <set comment="kpoint 1">
       <r>   -6.2054    1.0000 </r>
       <r>   -2.0518    1.0000 </r>
       <r>   -2.0518    1.0000 </r>
       <r>   -2.0518    1.0000 </r>
       <r>   -2.0518    1.0000 </r>
       <r>   -2.0518    1.0000 </r>
       <r>   -2.0518    1.0000 </r>
       <r>    2.9019    1.0000 </r>
       <r>    2.9019    1.0000 </r>
       <r>    2.9019    1.0000 </r>
       <r>    2.9019    1.0000 </r>
       <r>    2.9019    1.0000 </r>
       <r>    2.9019    1.0000 </r>
       <r>    5.7721    1.0000 </r>
       <r>    5.7721    1.0000 </r>
       <r>    5.7721    1.0000 </r>
       <r>    6.3659    0.0000 </r>
       <r>    6.3659    0.0000 </r>
       <r>    6.3659    0.0000 </r>
       <r>    6.3659    0.0000 </r>
       <r>    6.3659    0.0000 </r>
       <r>    6.3659    0.0000 </r>
       <r>    8.2891    0.0000 </r>
       <r>    8.2891    0.0000 </r>
      </set>
      <set comment="kpoint 2">
       <r>   -5.9319    1.0000 </r>
       <r>   -3.8056    1.0000 </r>
       <r>   -1.9713    1.0000 </r>
       <r>   -1.9713    1.0000 </r>
       <r>   -1.9713    1.0000 </r>
       <r>   -1.9713    1.0000 </r>
       <r>    0.0234    1.0000 </r>
       <r>    2.3182    1.0000 </r>
       <r>    2.3182    1.0000 </r>
       <r>    2.3182    1.0000 </r>
       <r>    2.3182    1.0000 </r>
       <r>    3.1483    1.0000 </r>
       <r>    3.1483    1.0000 </r>
       <r>    4.4332    1.0000 </r>
       <r>    4.9554    1.0000 </r>
       <r>    4.9554    1.0000 </r>
       <r>    6.2799    0.0000 </r>
       <r>    7.1941    0.0000 </r>
       <r>    7.6461    0.0000 </r>
       <r>    7.6461    0.0000 </r>
       <r>    7.6461    0.0000 </r>
       <r>    7.6461    0.0000 </r>
       <r>    7.7143    0.0000 </r>
       <r>    9.4390    0.0000 </r>
      </set>
      <set comment="kpoint 3">
       <r>   -5.1212    1.0000 </r>
       <r>   -5.1212    1.0000 </r>
       <r>   -1.8826    1.0000 </r>
       <r>   -1.8826    1.0000 </r>
       <r>   -1.8826    1.0000 </r>
       <r>   -1.8826    1.0000 </r>
       <r>    1.8713    1.0000 </r>
       <r>    1.8713    1.0000 </r>
       <r>    1.8713    1.0000 </r>
       <r>    1.8713    1.0000 </r>
       <r>    2.2516    1.0000 </r>
       <r>    2.2516    1.0000 </r>
       <r>    3.8668    1.0000 </r>
       <r>    3.8668    1.0000 </r>
       <r>    3.8668    1.0000 </r>
       <r>    3.8668    1.0000 </r>
       <r>    6.8083    0.0000 </r>
       <r>    6.8083    0.0000 </r>
       <r>    8.7981    0.0000 </r>
       <r>    8.7981    0.0000 </r>
       <r>    9.9478    0.0000 </r>
       <r>    9.9478    0.0000 </r>
       <r>    9.9478    0.0000 </r>
       <r>    9.9478    0.0000 </r>
      </set>
      <set comment="kpoint 4">
       <r>   -5.6638    1.0000 </r>
       <r>   -3.6052    1.0000 </r>
       <r>   -3.6052    1.0000 </r>
       <r>   -2.4596    1.0000 </r>
       <r>   -1.4625    1.0000 </r>
       <r>   -0.1951    1.0000 </r>
       <r>   -0.1951    1.0000 </r>
       <r>    1.4171    1.0000 </r>
       <r>    2.3723    1.0000 </r>
       <r>    2.3723    1.0000 </r>
       <r>    2.9834    1.0000 </r>
       <r>    2.9834    1.0000 </r>
       <r>    3.0769    1.0000 </r>
       <r>    3.3316    1.0000 </r>
       <r>    4.1186    1.0000 </r>
       <r>    5.4804    1.0000 </r>
       <r>    6.8660    0.0000 </r>
       <r>    7.6318    0.0000 </r>
       <r>    7.6318    0.0000 </r>
       <r>    8.3154    0.0000 </r>
       <r>    8.3154    0.0000 </r>
       <r>    8.7640    0.0000 </r>
       <r>    8.8495    0.0000 </r>
       <r>    9.0701    0.0000 </r>
      </set>
      <set comment="kpoint 5">
       <r>   -4.8726    1.0000 </r>
       <r>   -4.8726    1.0000 </r>
       <r>   -3.0763    1.0000 </r>
       <r>   -3.0763    1.0000 </r>
       <r>   -0.8028    1.0000 </r>
       <r>   -0.8028    1.0000 </r>
       <r>    1.4745    1.0000 </r>
       <r>    1.4745    1.0000 </r>
       <r>    1.4934    1.0000 </r>
       <r>    1.4934    1.0000 </r>
       <r>    3.0250    1.0000 </r>
       <r>    3.0250    1.0000 </r>
       <r>    3.1593    1.0000 </r>
       <r>    3.1593    1.0000 </r>
       <r>    4.3320    1.0000 </r>
       <r>    4.3320    1.0000 </r>
       <r>    8.1458    0.0000 </r>
       <r>    8.1458    0.0000 </r>
       <r>    8.5530    0.0000 </r>
       <r>    8.5530    0.0000 </r>
       <r>    9.6073    0.0000 </r>
       <r>    9.6073    0.0000 </r>
       <r>    9.8792    0.0000 </r>
       <r>    9.8792    0.0000 </r>
      </set>
      <set comment="kpoint 6">
       <r>   -4.1549    1.0000 </r>
       <r>   -4.1549    1.0000 </r>
       <r>   -4.1549    1.0000 </r>
       <r>   -4.1549    1.0000 </r>
       <r>    0.2821    1.0000 </r>
       <r>    0.2821    1.0000 </r>
       <r>    0.2821    1.0000 </r>
       <r>    0.2821    1.0000 </r>
       <r>    1.9734    1.0000 </r>
       <r>    1.9734    1.0000 </r>
       <r>    1.9734    1.0000 </r>
       <r>    1.9734    1.0000 </r>
       <r>    4.4372    1.0000 </r>
       <r>    4.4372    1.0000 </r>
       <r>    4.4372    1.0000 </r>
       <r>    4.4372    1.0000 </r>
       <r>    8.1381    0.0000 </r>
       <r>    8.1381    0.0000 </r>
       <r>    8.1381    0.0000 </r>
       <r>    8.1381    0.0000 </r>
       <r>   10.5146    0.0000 </r>
       <r>   10.5146    0.0000 </r>
       <r>   10.5146    0.0000 </r>
       <r>   10.5148    0.0000 </r>
      </set>
      <set comment="kpoint 7">
       <r>   -5.4036    1.0000 </r>
       <r>   -3.4777    1.0000 </r>
       <r>   -3.4777    1.0000 </r>
       <r>   -3.4777    1.0000 </r>
       <r>   -0.6244    1.0000 </r>
       <r>   -0.6244    1.0000 </r>
       <r>   -0.6244    1.0000 </r>
       <r>    1.8229    1.0000 </r>
       <r>    2.1985    1.0000 </r>
       <r>    2.1985    1.0000 </r>
       <r>    2.1985    1.0000 </r>
       <r>    3.5526    1.0000 </r>
       <r>    3.5526    1.0000 </r>
       <r>    3.5526    1.0000 </r>
       <r>    5.0078    1.0000 </r>
       <r>    5.0078    1.0000 </r>
       <r>    7.1889    0.0000 </r>
       <r>    7.1889    0.0000 </r>
       <r>    7.1889    0.0000 </r>
       <r>    7.7265    0.0000 </r>
       <r>    9.2309    0.0000 </r>
       <r>    9.2309    0.0000 </r>
       <r>   10.1316    0.0000 </r>
       <r>   10.1316    0.0000 </r>
      </set>
      <set comment="kpoint 8">
       <r>   -4.6440    1.0000 </r>
       <r>   -4.6440    1.0000 </r>
       <r>   -3.3215    1.0000 </r>
       <r>   -3.3215    1.0000 </r>
       <r>   -1.0382    1.0000 </r>
       <r>   -1.0382    1.0000 </r>
       <r>    0.4651    1.0000 </r>
       <r>    0.4651    1.0000 </r>
       <r>    2.2875    1.0000 </r>
       <r>    2.2875    1.0000 </r>
       <r>    3.5913    1.0000 </r>
       <r>    3.5913    1.0000 </r>
       <r>    3.9184    1.0000 </r>
       <r>    3.9184    1.0000 </r>
       <r>    4.1743    1.0000 </r>
       <r>    4.1743    1.0000 </r>
       <r>    7.9402    0.0000 </r>
       <r>    7.9402    0.0000 </r>
       <r>    8.7703    0.0000 </r>
       <r>    8.7703    0.0000 </r>
       <r>    8.8123    0.0000 </r>
       <r>    8.8123    0.0000 </r>
       <r>    9.3556    0.0000 </r>
       <r>    9.3556    0.0000 </r>
      </set>
      <set comment="kpoint 9">
       <r>   -4.0226    1.0000 </r>
       <r>   -4.0226    1.0000 </r>
       <r>   -4.0226    1.0000 </r>
       <r>   -4.0226    1.0000 </r>
       <r>   -0.6338    1.0000 </r>
       <r>   -0.6338    1.0000 </r>
       <r>   -0.6338    1.0000 </r>
       <r>   -0.6338    1.0000 </r>
       <r>    3.2859    1.0000 </r>
       <r>    3.2859    1.0000 </r>
       <r>    3.2859    1.0000 </r>
       <r>    3.2859    1.0000 </r>
       <r>    4.5011    1.0000 </r>
       <r>    4.5011    1.0000 </r>
       <r>    4.5011    1.0000 </r>
       <r>    4.5011    1.0000 </r>
       <r>    8.0600    0.0000 </r>
       <r>    8.0600    0.0000 </r>
       <r>    8.0600    0.0000 </r>
       <r>    8.0600    0.0000 </r>
       <r>    9.3201    0.0000 </r>
       <r>    9.3201    0.0000 </r>
       <r>    9.3201    0.0000 </r>
       <r>    9.3201    0.0000 </r>
      </set>
      <set comment="kpoint 10">
       <r>   -3.8605    1.0000 </r>
       <r>   -3.8605    1.0000 </r>
       <r>   -3.8605    1.0000 </r>
       <r>   -3.8605    1.0000 </r>
       <r>   -1.2346    1.0000 </r>
       <r>   -1.2346    1.0000 </r>
       <r>   -1.2346    1.0000 </r>
       <r>   -1.2346    1.0000 </r>
       <r>    4.5700    1.0000 </r>
       <r>    4.5700    1.0000 </r>
       <r>    4.5700    1.0000 </r>
       <r>    4.5700    1.0000 </r>
       <r>    4.5700    1.0000 </r>
       <r>    4.5700    1.0000 </r>
       <r>    4.5700    1.0000 </r>
       <r>    4.5700    1.0000 </r>
       <r>    7.2323    0.0000 </r>
       <r>    7.2323    0.0000 </r>
       <r>    7.2323    0.0000 </r>
       <r>    7.2323    0.0000 </r>
       <r>    9.0502    0.0000 </r>
       <r>    9.0502    0.0000 </r>
       <r>    9.0502    0.0000 </r>
       <r>    9.0502    0.0000 </r>
      </set>
     </set>
    </set>
   </array>
  </eigenvalues>
  <separator name="orbital magnetization" >
   <v name="MAGDIPOLOUT">      0.00000000      0.00000000      0.00000000</v>
  </separator>
  <dos>
   <i name="efermi">      5.90210676 </i>
   <total>
    <array>
     <dimension dim="1">gridpoints</dimension>
     <dimension dim="2">spin</dimension>
     <field>energy</field>
     <field>total</field>
     <field>integrated</field>
     <set>
      <set comment="spin 1">
       <r>    -7.0415     0.0000     0.0000 </r>
       <r>    -6.9801     0.0000     0.0000 </r>
       <r>    -6.9188     0.0000     0.0000 </r>
       <r>    -6.8575     0.0000     0.0000 </r>
       <r>    -6.7962     0.0000     0.0000 </r>
       <r>    -6.7349     0.0000     0.0000 </r>
       <r>    -6.6736     0.0000     0.0000 </r>
       <r>    -6.6123     0.0000     0.0000 </r>
       <r>    -6.5510     0.0000     0.0000 </r>
       <r>    -6.4897     0.0000     0.0000 </r>
       <r>    -6.4284     0.0000     0.0000 </r>
       <r>    -6.3671     0.0000     0.0000 </r>
       <r>    -6.3058     0.0000     0.0000 </r>
       <r>    -6.2445     0.0015     0.0001 </r>
       <r>    -6.1831     0.4790     0.0295 </r>
       <r>    -6.1218     0.0293     0.0312 </r>
       <r>    -6.0605     0.0000     0.0312 </r>
       <r>    -5.9992     0.0000     0.0313 </r>
       <r>    -5.9379     1.0288     0.0943 </r>
       <r>    -5.8766     2.0294     0.2187 </r>
       <r>    -5.8153     0.0001     0.2188 </r>
       <r>    -5.7540     0.0000     0.2188 </r>
       <r>    -5.6927     0.1264     0.2265 </r>
       <r>    -5.6314     5.9238     0.5897 </r>
       <r>    -5.5701     0.0665     0.5937 </r>
       <r>    -5.5088     0.0000     0.5938 </r>
       <r>    -5.4475     0.0040     0.5940 </r>
       <r>    -5.3861     3.6336     0.8168 </r>
       <r>    -5.3248     0.4402     0.8437 </r>
       <r>    -5.2635     0.0000     0.8438 </r>
       <r>    -5.2022     0.0000     0.8438 </r>
       <r>    -5.1409     0.2487     0.8590 </r>
       <r>    -5.0796     2.8046     1.0309 </r>
       <r>    -5.0183     0.0050     1.0312 </r>
       <r>    -4.9570     0.0000     1.0313 </r>
       <r>    -4.8957     0.6306     1.0699 </r>
       <r>    -4.8344    11.5610     1.7787 </r>
       <r>    -4.7731     0.0418     1.7812 </r>
       <r>    -4.7118     0.0000     1.7813 </r>
       <r>    -4.6505     3.9738     2.0249 </r>
       <r>    -4.5891     8.2589     2.5312 </r>
       <r>    -4.5278     0.0006     2.5312 </r>
       <r>    -4.4665     0.0000     2.5312 </r>
       <r>    -4.4052     0.0000     2.5312 </r>
       <r>    -4.3439     0.0000     2.5312 </r>
       <r>    -4.2826     0.0000     2.5312 </r>
       <r>    -4.2213     0.0000     2.5313 </r>
       <r>    -4.1600     2.2027     2.6663 </r>
       <r>    -4.0987     3.9137     2.9062 </r>
       <r>    -4.0374     1.8079     3.0171 </r>
       <r>    -3.9761    10.4196     3.6559 </r>
       <r>    -3.9148     0.0063     3.6563 </r>
       <r>    -3.8535     1.4108     3.7428 </r>
       <r>    -3.7922     3.1619     3.9366 </r>
       <r>    -3.7308     0.5244     3.9687 </r>
       <r>    -3.6695     0.0000     3.9688 </r>
       <r>    -3.6082     5.0942     4.2811 </r>
       <r>    -3.5469     7.1389     4.7187 </r>
       <r>    -3.4856     3.5081     4.9338 </r>
       <r>    -3.4243     8.7246     5.4687 </r>
       <r>    -3.3630     0.0215     5.4700 </r>
       <r>    -3.3017    11.2271     6.1583 </r>
       <r>    -3.2404     0.9859     6.2187 </r>
       <r>    -3.1791     0.0000     6.2188 </r>
       <r>    -3.1178     0.0204     6.2200 </r>
       <r>    -3.0565    11.2258     6.9082 </r>
       <r>    -2.9952     0.9872     6.9687 </r>
       <r>    -2.9338     0.0000     6.9688 </r>
       <r>    -2.8725     0.0000     6.9688 </r>
       <r>    -2.8112     0.0000     6.9688 </r>
       <r>    -2.7499     0.0000     6.9688 </r>
       <r>    -2.6886     0.0000     6.9688 </r>
       <r>    -2.6273     0.0000     6.9688 </r>
       <r>    -2.5660     0.0000     6.9688 </r>
       <r>    -2.5047     0.0044     6.9690 </r>
       <r>    -2.4434     5.3450     7.2967 </r>
       <r>    -2.3821     0.7673     7.3437 </r>
       <r>    -2.3208     0.0000     7.3438 </r>
       <r>    -2.2595     0.0000     7.3438 </r>
       <r>    -2.1982     0.0000     7.3438 </r>
       <r>    -2.1368     0.0000     7.3438 </r>
       <r>    -2.0755     0.1423     7.3525 </r>
       <r>    -2.0142     2.9187     7.5314 </r>
       <r>    -1.9529    11.0490     8.2088 </r>
       <r>    -1.8916     2.7788     8.3792 </r>
       <r>    -1.8303     4.5189     8.6562 </r>
       <r>    -1.7690     0.0007     8.6562 </r>
       <r>    -1.7077     0.0000     8.6562 </r>
       <r>    -1.6464     0.0000     8.6562 </r>
       <r>    -1.5851     0.0000     8.6562 </r>
       <r>    -1.5238     0.0000     8.6563 </r>
       <r>    -1.4625     3.0682     8.8444 </r>
       <r>    -1.4012     3.0484     9.0312 </r>
       <r>    -1.3398     0.0000     9.0313 </r>
       <r>    -1.2785     0.0019     9.0314 </r>
       <r>    -1.2172     1.8132     9.1425 </r>
       <r>    -1.1559     0.2238     9.1562 </r>
       <r>    -1.0946     0.0004     9.1563 </r>
       <r>    -1.0333     7.7756     9.6330 </r>
       <r>    -0.9720     4.4574     9.9062 </r>
       <r>    -0.9107     0.0000     9.9063 </r>
       <r>    -0.8494     0.0061     9.9066 </r>
       <r>    -0.7881    10.4133    10.5450 </r>
       <r>    -0.7268     1.8140    10.6562 </r>
       <r>    -0.6655     0.1780    10.6672 </r>
       <r>    -0.6042    23.1437    12.0860 </r>
       <r>    -0.5429     1.1451    12.1562 </r>
       <r>    -0.4815     0.0000    12.1562 </r>
       <r>    -0.4202     0.0000    12.1562 </r>
       <r>    -0.3589     0.0000    12.1562 </r>
       <r>    -0.2976     0.0000    12.1563 </r>
       <r>    -0.2363     0.0217    12.1576 </r>
       <r>    -0.1750    11.2594    12.8479 </r>
       <r>    -0.1137     0.9523    12.9062 </r>
       <r>    -0.0524     0.0000    12.9063 </r>
       <r>     0.0089     0.4675    12.9349 </r>
       <r>     0.0702     2.5895    13.0937 </r>
       <r>     0.1315     0.0014    13.0937 </r>
       <r>     0.1928     0.0000    13.0938 </r>
       <r>     0.2541     0.1469    13.1028 </r>
       <r>     0.3155     5.9136    13.4653 </r>
       <r>     0.3768     0.0562    13.4688 </r>
       <r>     0.4381     0.3411    13.4897 </r>
       <r>     0.4994    11.7980    14.2130 </r>
       <r>     0.5607     0.0944    14.2187 </r>
       <r>     0.6220     0.0000    14.2188 </r>
       <r>     0.6833     0.0000    14.2188 </r>
       <r>     0.7446     0.0000    14.2188 </r>
       <r>     0.8059     0.0000    14.2188 </r>
       <r>     0.8672     0.0000    14.2188 </r>
       <r>     0.9285     0.0000    14.2188 </r>
       <r>     0.9898     0.0000    14.2188 </r>
       <r>     1.0511     0.0000    14.2188 </r>
       <r>     1.1125     0.0000    14.2188 </r>
       <r>     1.1738     0.0000    14.2188 </r>
       <r>     1.2351     0.0000    14.2188 </r>
       <r>     1.2964     0.0000    14.2188 </r>
       <r>     1.3577     0.0001    14.2188 </r>
       <r>     1.4190     3.3809    14.4260 </r>
       <r>     1.4803    12.9676    15.2210 </r>
       <r>     1.5416    14.2310    16.0935 </r>
       <r>     1.6029     0.0040    16.0937 </r>
       <r>     1.6642     0.0000    16.0938 </r>
       <r>     1.7255     0.0000    16.0938 </r>
       <r>     1.7868     0.0222    16.0951 </r>
       <r>     1.8481     4.2150    16.3535 </r>
       <r>     1.9095     5.9359    16.7174 </r>
       <r>     1.9708     2.6235    16.8783 </r>
       <r>     2.0321     3.5146    17.0937 </r>
       <r>     2.0934     0.0001    17.0938 </r>
       <r>     2.1547     0.0119    17.0945 </r>
       <r>     2.2160    10.9157    17.7637 </r>
       <r>     2.2773     7.1701    18.2033 </r>
       <r>     2.3386    20.8553    19.4819 </r>
       <r>     2.3999    12.7275    20.2622 </r>
       <r>     2.4612     0.3115    20.2812 </r>
       <r>     2.5225     0.0000    20.2812 </r>
       <r>     2.5838     0.0000    20.2812 </r>
       <r>     2.6451     0.0000    20.2812 </r>
       <r>     2.7065     0.0000    20.2812 </r>
       <r>     2.7678     0.0000    20.2812 </r>
       <r>     2.8291     0.0000    20.2813 </r>
       <r>     2.8904     0.6371    20.3203 </r>
       <r>     2.9517     2.5743    20.4781 </r>
       <r>     3.0130    14.2855    21.3539 </r>
       <r>     3.0743    12.6354    22.1286 </r>
       <r>     3.1356     5.2144    22.4483 </r>
       <r>     3.1969    16.5953    23.4657 </r>
       <r>     3.2582     0.3578    23.4876 </r>
       <r>     3.3195    13.0269    24.2863 </r>
       <r>     3.3808     5.0139    24.5937 </r>
       <r>     3.4421     0.0015    24.5938 </r>
       <r>     3.5034     0.0031    24.5939 </r>
       <r>     3.5648    10.2120    25.2200 </r>
       <r>     3.6261    14.1670    26.0886 </r>
       <r>     3.6874     0.0848    26.0937 </r>
       <r>     3.7487     0.0000    26.0938 </r>
       <r>     3.8100     0.0002    26.0938 </r>
       <r>     3.8713     3.8203    26.3280 </r>
       <r>     3.9326    12.6003    27.1005 </r>
       <r>     3.9939     1.9294    27.2187 </r>
       <r>     4.0552     0.0000    27.2188 </r>
       <r>     4.1165     2.6974    27.3841 </r>
       <r>     4.1778    10.7547    28.0435 </r>
       <r>     4.2391     4.8979    28.3437 </r>
       <r>     4.3004     0.1571    28.3534 </r>
       <r>     4.3618    11.8600    29.0805 </r>
       <r>     4.4231     1.9137    29.1978 </r>
       <r>     4.4844     8.9303    29.7453 </r>
       <r>     4.5457    10.9454    30.4163 </r>
       <r>     4.6070     3.8950    30.6551 </r>
       <r>     4.6683     0.0182    30.6562 </r>
       <r>     4.7296     0.0000    30.6562 </r>
       <r>     4.7909     0.0000    30.6562 </r>
       <r>     4.8522     0.0000    30.6563 </r>
       <r>     4.9135     0.0094    30.6568 </r>
       <r>     4.9748     5.6712    31.0045 </r>
       <r>     5.0361     8.4073    31.5199 </r>
       <r>     5.0974     0.1843    31.5312 </r>
       <r>     5.1588     0.0000    31.5312 </r>
       <r>     5.2201     0.0000    31.5312 </r>
       <r>     5.2814     0.0000    31.5312 </r>
       <r>     5.3427     0.0000    31.5312 </r>
       <r>     5.4040     0.0000    31.5313 </r>
       <r>     5.4653     0.8711    31.5847 </r>
       <r>     5.5266     5.2422    31.9060 </r>
       <r>     5.5879     0.0033    31.9062 </r>
       <r>     5.6492     0.0000    31.9062 </r>
       <r>     5.7105     0.0000    31.9063 </r>
       <r>     5.7718     0.7513    31.9523 </r>
       <r>     5.8331     0.7779    32.0000 </r>
       <r>     5.8944     0.0000    32.0000 </r>
       <r>     5.9558     0.0000    32.0000 </r>
       <r>     6.0171     0.0000    32.0000 </r>
       <r>     6.0784     0.0000    32.0000 </r>
       <r>     6.1397     0.0000    32.0000 </r>
       <r>     6.2010     0.0000    32.0000 </r>
       <r>     6.2623     0.3258    32.0200 </r>
       <r>     6.3236     2.7337    32.1876 </r>
       <r>     6.3849     2.7821    32.3581 </r>
       <r>     6.4462     0.2751    32.3750 </r>
       <r>     6.5075     0.0000    32.3750 </r>
       <r>     6.5688     0.0000    32.3750 </r>
       <r>     6.6301     0.0000    32.3750 </r>
       <r>     6.6914     0.0000    32.3750 </r>
       <r>     6.7527     0.0001    32.3750 </r>
       <r>     6.8141     2.0170    32.4987 </r>
       <r>     6.8754     5.6064    32.8424 </r>
       <r>     6.9367     1.5515    32.9375 </r>
       <r>     6.9980     0.0000    32.9375 </r>
       <r>     7.0593     0.0000    32.9375 </r>
       <r>     7.1206     0.0000    32.9375 </r>
       <r>     7.1819     4.3801    33.2060 </r>
       <r>     7.2432    12.5018    33.9725 </r>
       <r>     7.3045     0.4487    34.0000 </r>
       <r>     7.3658     0.0000    34.0000 </r>
       <r>     7.4271     0.0000    34.0000 </r>
       <r>     7.4884     0.0000    34.0000 </r>
       <r>     7.5497     0.0000    34.0000 </r>
       <r>     7.6111     0.9511    34.0583 </r>
       <r>     7.6724    23.1099    35.4751 </r>
       <r>     7.7337     6.0332    35.8450 </r>
       <r>     7.7950     1.5088    35.9375 </r>
       <r>     7.8563     0.0000    35.9375 </r>
       <r>     7.9176     0.6701    35.9786 </r>
       <r>     7.9789    11.5251    36.6852 </r>
       <r>     8.0402     1.0310    36.7484 </r>
       <r>     8.1015    11.2602    37.4387 </r>
       <r>     8.1628    16.6767    38.4611 </r>
       <r>     8.2241     1.6537    38.5625 </r>
       <r>     8.2854     0.6144    38.6002 </r>
       <r>     8.3467    12.4760    39.3650 </r>
       <r>     8.4081     0.1625    39.3750 </r>
       <r>     8.4694     0.0000    39.3750 </r>
       <r>     8.5307     0.6994    39.4179 </r>
       <r>     8.5920    11.4982    40.1228 </r>
       <r>     8.6533     0.0358    40.1250 </r>
       <r>     8.7146     0.0019    40.1251 </r>
       <r>     8.7759    13.1282    40.9300 </r>
       <r>     8.8372    21.2032    42.2299 </r>
       <r>     8.8985     5.4236    42.5624 </r>
       <r>     8.9598     0.0016    42.5625 </r>
       <r>     9.0211     0.0425    42.5651 </r>
       <r>     9.0824     6.9150    42.9890 </r>
       <r>     9.1437     1.1982    43.0625 </r>
       <r>     9.2051     0.2745    43.0793 </r>
       <r>     9.2664     7.8321    43.5595 </r>
       <r>     9.3277     8.9630    44.1090 </r>
       <r>     9.3890    15.4405    45.0556 </r>
       <r>     9.4503     2.5179    45.2100 </r>
       <r>     9.5116     0.6526    45.2500 </r>
       <r>     9.5729     0.0916    45.2556 </r>
       <r>     9.6342    11.7923    45.9786 </r>
       <r>     9.6955     0.3495    46.0000 </r>
       <r>     9.7568     0.0000    46.0000 </r>
       <r>     9.8181     0.0001    46.0000 </r>
       <r>     9.8794     6.1845    46.3792 </r>
       <r>     9.9407     7.9419    46.8661 </r>
       <r>    10.0021     4.2232    47.1250 </r>
       <r>    10.0634     0.0004    47.1250 </r>
       <r>    10.1247     2.5490    47.2813 </r>
       <r>    10.1860     5.6061    47.6250 </r>
       <r>    10.2473     0.0005    47.6250 </r>
       <r>    10.3086     0.0000    47.6250 </r>
       <r>    10.3699     0.0000    47.6250 </r>
       <r>    10.4312     0.0000    47.6250 </r>
       <r>    10.4925     0.3600    47.6471 </r>
       <r>    10.5538     5.7396    47.9990 </r>
       <r>    10.6151     0.0171    48.0000 </r>
       <r>    10.6764     0.0000    48.0000 </r>
       <r>    10.7377     0.0000    48.0000 </r>
       <r>    10.7990     0.0000    48.0000 </r>
       <r>    10.8604     0.0000    48.0000 </r>
       <r>    10.9217     0.0000    48.0000 </r>
       <r>    10.9830     0.0000    48.0000 </r>
       <r>    11.0443     0.0000    48.0000 </r>
       <r>    11.1056     0.0000    48.0000 </r>
       <r>    11.1669     0.0000    48.0000 </r>
       <r>    11.2282     0.0000    48.0000 </r>
       <r>    11.2895     0.0000    48.0000 </r>
       <r>    11.3508     0.0000    48.0000 </r>
      </set>
     </set>
    </array>
   </total>
  </dos>
 </calculation>
 <structure name="finalpos" >
  <crystal>
   <varray name="basis" >
    <v>       5.43453742       0.00000000       0.00000000 </v>
    <v>       0.00000000       5.43453742       0.00000000 </v>
    <v>       0.00000000       0.00000000       5.43453742 </v>
   </varray>
   <i name="volume">    160.50469860 </i>
   <varray name="rec_basis" >
    <v>       0.18400830       0.00000000       0.00000000 </v>
    <v>       0.00000000       0.18400830       0.00000000 </v>
    <v>       0.00000000       0.00000000       0.18400830 </v>
   </varray>
  </crystal>
  <varray name="positions" >
   <v>       0.50000000       0.00000000       0.00000000 </v>
   <v>       0.25000000       0.25000000       0.75000000 </v>
   <v>       0.50000000       0.50000000       0.50000000 </v>
   <v>       0.25000000       0.75000000       0.25000000 </v>
   <v>       0.00000000       0.00000000       0.50000000 </v>
   <v>       0.75000000       0.25000000       0.25000000 </v>
   <v>       0.00000000       0.50000000       0.00000000 </v>
   <v>       0.75000000       0.75000000       0.75000000 </v>
  </varray>
 </structure>
</modeling>
