  64  64   0   0
  0.2197554E+02  0.1120400E-08  0.1120400E-08  0.1120400E-08  0.5000000E-15
  1.000000000000000E-004
  CAR 
 unknown system                          
     11.04259494    -22.84711790  301     -0.56463171      1.00000000
    -22.847  0.0000E+00  0.0000E+00
    -22.734  0.0000E+00  0.0000E+00
    -22.621  0.0000E+00  0.0000E+00
    -22.508  0.0000E+00  0.0000E+00
    -22.395  0.0000E+00  0.0000E+00
    -22.282  0.0000E+00  0.0000E+00
    -22.169  0.0000E+00  0.0000E+00
    -22.056  0.0000E+00  0.0000E+00
    -21.943  0.0000E+00  0.0000E+00
    -21.830  0.0000E+00  0.0000E+00
    -21.717  0.0000E+00  0.0000E+00
    -21.604  0.0000E+00  0.0000E+00
    -21.492  0.0000E+00  0.0000E+00
    -21.379  0.5320E-05  0.6010E-06
    -21.266  0.1379E+04  0.1558E+03
    -21.153  0.3207E+03  0.1920E+03
    -21.040  0.0000E+00  0.1920E+03
    -20.927  0.0000E+00  0.1920E+03
    -20.814  0.0000E+00  0.1920E+03
    -20.701  0.0000E+00  0.1920E+03
    -20.588  0.0000E+00  0.1920E+03
    -20.475  0.0000E+00  0.1920E+03
    -20.362  0.0000E+00  0.1920E+03
    -20.249  0.0000E+00  0.1920E+03
    -20.136  0.0000E+00  0.1920E+03
    -20.023  0.0000E+00  0.1920E+03
    -19.910  0.0000E+00  0.1920E+03
    -19.797  0.0000E+00  0.1920E+03
    -19.684  0.0000E+00  0.1920E+03
    -19.571  0.0000E+00  0.1920E+03
    -19.458  0.0000E+00  0.1920E+03
    -19.345  0.0000E+00  0.1920E+03
    -19.232  0.0000E+00  0.1920E+03
    -19.119  0.0000E+00  0.1920E+03
    -19.006  0.0000E+00  0.1920E+03
    -18.893  0.0000E+00  0.1920E+03
    -18.780  0.0000E+00  0.1920E+03
    -18.667  0.0000E+00  0.1920E+03
    -18.554  0.0000E+00  0.1920E+03
    -18.441  0.0000E+00  0.1920E+03
    -18.328  0.0000E+00  0.1920E+03
    -18.216  0.0000E+00  0.1920E+03
    -18.103  0.0000E+00  0.1920E+03
    -17.990  0.0000E+00  0.1920E+03
    -17.877  0.0000E+00  0.1920E+03
    -17.764  0.0000E+00  0.1920E+03
    -17.651  0.0000E+00  0.1920E+03
    -17.538  0.0000E+00  0.1920E+03
    -17.425  0.0000E+00  0.1920E+03
    -17.312  0.0000E+00  0.1920E+03
    -17.199  0.0000E+00  0.1920E+03
    -17.086  0.0000E+00  0.1920E+03
    -16.973  0.0000E+00  0.1920E+03
    -16.860  0.0000E+00  0.1920E+03
    -16.747  0.0000E+00  0.1920E+03
    -16.634  0.0000E+00  0.1920E+03
    -16.521  0.0000E+00  0.1920E+03
    -16.408  0.0000E+00  0.1920E+03
    -16.295  0.0000E+00  0.1920E+03
    -16.182  0.0000E+00  0.1920E+03
    -16.069  0.0000E+00  0.1920E+03
    -15.956  0.0000E+00  0.1920E+03
    -15.843  0.0000E+00  0.1920E+03
    -15.730  0.0000E+00  0.1920E+03
    -15.617  0.0000E+00  0.1920E+03
    -15.504  0.0000E+00  0.1920E+03
    -15.391  0.0000E+00  0.1920E+03
    -15.278  0.0000E+00  0.1920E+03
    -15.165  0.0000E+00  0.1920E+03
    -15.052  0.0000E+00  0.1920E+03
    -14.940  0.0000E+00  0.1920E+03
    -14.827  0.0000E+00  0.1920E+03
    -14.714  0.0000E+00  0.1920E+03
    -14.601  0.0000E+00  0.1920E+03
    -14.488  0.0000E+00  0.1920E+03
    -14.375  0.0000E+00  0.1920E+03
    -14.262  0.0000E+00  0.1920E+03
    -14.149  0.0000E+00  0.1920E+03
    -14.036  0.0000E+00  0.1920E+03
    -13.923  0.0000E+00  0.1920E+03
    -13.810  0.0000E+00  0.1920E+03
    -13.697  0.0000E+00  0.1920E+03
    -13.584  0.0000E+00  0.1920E+03
    -13.471  0.1597E-14  0.1920E+03
    -13.358  0.1111E+01  0.1921E+03
    -13.245  0.1914E+02  0.1943E+03
    -13.132  0.4856E+02  0.1998E+03
    -13.019  0.1251E+03  0.2139E+03
    -12.906  0.3677E+03  0.2554E+03
    -12.793  0.4931E+01  0.2560E+03
    -12.680  0.0000E+00  0.2560E+03
    -12.567  0.0000E+00  0.2560E+03
    -12.454  0.0000E+00  0.2560E+03
    -12.341  0.0000E+00  0.2560E+03
    -12.228  0.0000E+00  0.2560E+03
    -12.115  0.0000E+00  0.2560E+03
    -12.002  0.0000E+00  0.2560E+03
    -11.889  0.0000E+00  0.2560E+03
    -11.776  0.0000E+00  0.2560E+03
    -11.664  0.0000E+00  0.2560E+03
    -11.551  0.0000E+00  0.2560E+03
    -11.438  0.0000E+00  0.2560E+03
    -11.325  0.0000E+00  0.2560E+03
    -11.212  0.0000E+00  0.2560E+03
    -11.099  0.0000E+00  0.2560E+03
    -10.986  0.0000E+00  0.2560E+03
    -10.873  0.0000E+00  0.2560E+03
    -10.760  0.0000E+00  0.2560E+03
    -10.647  0.0000E+00  0.2560E+03
    -10.534  0.0000E+00  0.2560E+03
    -10.421  0.0000E+00  0.2560E+03
    -10.308  0.0000E+00  0.2560E+03
    -10.195  0.0000E+00  0.2560E+03
    -10.082  0.0000E+00  0.2560E+03
     -9.969  0.0000E+00  0.2560E+03
     -9.856  0.0000E+00  0.2560E+03
     -9.743  0.0000E+00  0.2560E+03
     -9.630  0.0000E+00  0.2560E+03
     -9.517  0.0000E+00  0.2560E+03
     -9.404  0.0000E+00  0.2560E+03
     -9.291  0.0000E+00  0.2560E+03
     -9.178  0.0000E+00  0.2560E+03
     -9.065  0.0000E+00  0.2560E+03
     -8.952  0.0000E+00  0.2560E+03
     -8.839  0.0000E+00  0.2560E+03
     -8.726  0.0000E+00  0.2560E+03
     -8.613  0.0000E+00  0.2560E+03
     -8.500  0.0000E+00  0.2560E+03
     -8.388  0.0000E+00  0.2560E+03
     -8.275  0.0000E+00  0.2560E+03
     -8.162  0.0000E+00  0.2560E+03
     -8.049  0.0000E+00  0.2560E+03
     -7.936  0.0000E+00  0.2560E+03
     -7.823  0.0000E+00  0.2560E+03
     -7.710  0.0000E+00  0.2560E+03
     -7.597  0.0000E+00  0.2560E+03
     -7.484  0.0000E+00  0.2560E+03
     -7.371  0.0000E+00  0.2560E+03
     -7.258  0.0000E+00  0.2560E+03
     -7.145  0.0000E+00  0.2560E+03
     -7.032  0.0000E+00  0.2560E+03
     -6.919  0.0000E+00  0.2560E+03
     -6.806  0.0000E+00  0.2560E+03
     -6.693  0.0000E+00  0.2560E+03
     -6.580  0.0000E+00  0.2560E+03
     -6.467  0.0000E+00  0.2560E+03
     -6.354  0.0000E+00  0.2560E+03
     -6.241  0.0000E+00  0.2560E+03
     -6.128  0.0000E+00  0.2560E+03
     -6.015  0.0000E+00  0.2560E+03
     -5.902  0.0000E+00  0.2560E+03
     -5.789  0.0000E+00  0.2560E+03
     -5.676  0.0000E+00  0.2560E+03
     -5.563  0.0000E+00  0.2560E+03
     -5.450  0.0000E+00  0.2560E+03
     -5.337  0.0000E+00  0.2560E+03
     -5.224  0.0000E+00  0.2560E+03
     -5.112  0.0000E+00  0.2560E+03
     -4.999  0.0000E+00  0.2560E+03
     -4.886  0.0000E+00  0.2560E+03
     -4.773  0.0000E+00  0.2560E+03
     -4.660  0.0000E+00  0.2560E+03
     -4.547  0.0000E+00  0.2560E+03
     -4.434  0.0000E+00  0.2560E+03
     -4.321  0.0000E+00  0.2560E+03
     -4.208  0.0000E+00  0.2560E+03
     -4.095  0.0000E+00  0.2560E+03
     -3.982  0.0000E+00  0.2560E+03
     -3.869  0.0000E+00  0.2560E+03
     -3.756  0.0000E+00  0.2560E+03
     -3.643  0.0000E+00  0.2560E+03
     -3.530  0.0000E+00  0.2560E+03
     -3.417  0.0000E+00  0.2560E+03
     -3.304  0.0000E+00  0.2560E+03
     -3.191  0.0000E+00  0.2560E+03
     -3.078  0.0000E+00  0.2560E+03
     -2.965  0.0000E+00  0.2560E+03
     -2.852  0.0000E+00  0.2560E+03
     -2.739  0.2458E-01  0.2560E+03
     -2.626  0.8828E+01  0.2570E+03
     -2.513  0.1415E+02  0.2586E+03
     -2.400  0.8847E+02  0.2686E+03
     -2.287  0.7939E+02  0.2776E+03
     -2.174  0.1591E+03  0.2955E+03
     -2.061  0.7716E+02  0.3042E+03
     -1.948  0.5415E+02  0.3104E+03
     -1.835  0.5388E+02  0.3165E+03
     -1.723  0.8230E+02  0.3257E+03
     -1.610  0.4021E-11  0.3258E+03
     -1.497  0.4511E+02  0.3308E+03
     -1.384  0.2135E+03  0.3550E+03
     -1.271  0.3303E+02  0.3587E+03
     -1.158  0.2352E+03  0.3853E+03
     -1.045  0.1521E+03  0.4024E+03
     -0.932  0.2412E+03  0.4297E+03
     -0.819  0.7654E+02  0.4383E+03
     -0.706  0.7869E+02  0.4472E+03
     -0.593  0.6890E+01  0.4480E+03
     -0.480  0.0000E+00  0.4480E+03
     -0.367  0.0000E+00  0.4480E+03
     -0.254  0.0000E+00  0.4480E+03
     -0.141  0.0000E+00  0.4480E+03
     -0.028  0.0000E+00  0.4480E+03
      0.085  0.0000E+00  0.4480E+03
      0.198  0.0000E+00  0.4480E+03
      0.311  0.0000E+00  0.4480E+03
      0.424  0.0000E+00  0.4480E+03
      0.537  0.0000E+00  0.4480E+03
      0.650  0.0000E+00  0.4480E+03
      0.763  0.0000E+00  0.4480E+03
      0.876  0.0000E+00  0.4480E+03
      0.989  0.0000E+00  0.4480E+03
      1.102  0.0000E+00  0.4480E+03
      1.215  0.0000E+00  0.4480E+03
      1.328  0.0000E+00  0.4480E+03
      1.441  0.0000E+00  0.4480E+03
      1.553  0.0000E+00  0.4480E+03
      1.666  0.0000E+00  0.4480E+03
      1.779  0.0000E+00  0.4480E+03
      1.892  0.0000E+00  0.4480E+03
      2.005  0.0000E+00  0.4480E+03
      2.118  0.0000E+00  0.4480E+03
      2.231  0.0000E+00  0.4480E+03
      2.344  0.0000E+00  0.4480E+03
      2.457  0.0000E+00  0.4480E+03
      2.570  0.0000E+00  0.4480E+03
      2.683  0.0000E+00  0.4480E+03
      2.796  0.0000E+00  0.4480E+03
      2.909  0.0000E+00  0.4480E+03
      3.022  0.0000E+00  0.4480E+03
      3.135  0.0000E+00  0.4480E+03
      3.248  0.0000E+00  0.4480E+03
      3.361  0.0000E+00  0.4480E+03
      3.474  0.0000E+00  0.4480E+03
      3.587  0.0000E+00  0.4480E+03
      3.700  0.0000E+00  0.4480E+03
      3.813  0.0000E+00  0.4480E+03
      3.926  0.0000E+00  0.4480E+03
      4.039  0.0000E+00  0.4480E+03
      4.152  0.0000E+00  0.4480E+03
      4.265  0.9857E-07  0.4480E+03
      4.378  0.2204E+01  0.4482E+03
      4.491  0.9169E-02  0.4482E+03
      4.604  0.0000E+00  0.4482E+03
      4.717  0.0000E+00  0.4482E+03
      4.829  0.0000E+00  0.4482E+03
      4.942  0.1608E-06  0.4483E+03
      5.055  0.1314E+02  0.4497E+03
      5.168  0.1390E+00  0.4498E+03
      5.281  0.0000E+00  0.4498E+03
      5.394  0.0000E+00  0.4498E+03
      5.507  0.3679E+00  0.4498E+03
      5.620  0.2619E+02  0.4527E+03
      5.733  0.2212E-09  0.4528E+03
      5.846  0.1483E+02  0.4544E+03
      5.959  0.2872E+01  0.4548E+03
      6.072  0.0000E+00  0.4548E+03
      6.185  0.0000E+00  0.4548E+03
      6.298  0.1023E-04  0.4548E+03
      6.411  0.1333E+02  0.4563E+03
      6.524  0.8797E+01  0.4572E+03
      6.637  0.2349E+02  0.4599E+03
      6.750  0.8188E+02  0.4692E+03
      6.863  0.5584E+02  0.4755E+03
      6.976  0.1313E+02  0.4769E+03
      7.089  0.4934E+01  0.4775E+03
      7.202  0.2388E+01  0.4778E+03
      7.315  0.4264E+01  0.4783E+03
      7.428  0.7834E+02  0.4871E+03
      7.541  0.1598E+03  0.5052E+03
      7.654  0.1415E+02  0.5068E+03
      7.767  0.2655E+02  0.5097E+03
      7.880  0.5830E-02  0.5098E+03
      7.993  0.5311E+02  0.5157E+03
      8.105  0.8665E-04  0.5158E+03
      8.218  0.1331E+02  0.5173E+03
      8.331  0.9265E+02  0.5277E+03
      8.444  0.2611E+00  0.5278E+03
      8.557  0.1215E+03  0.5415E+03
      8.670  0.3785E+02  0.5457E+03
      8.783  0.1536E-08  0.5458E+03
      8.896  0.6030E+02  0.5526E+03
      9.009  0.1313E+03  0.5674E+03
      9.122  0.1861E+02  0.5695E+03
      9.235  0.9650E+01  0.5706E+03
      9.348  0.3461E+02  0.5745E+03
      9.461  0.2333E+00  0.5745E+03
      9.574  0.1305E+02  0.5760E+03
      9.687  0.0000E+00  0.5760E+03
      9.800  0.0000E+00  0.5760E+03
      9.913  0.0000E+00  0.5760E+03
     10.026  0.0000E+00  0.5760E+03
     10.139  0.0000E+00  0.5760E+03
     10.252  0.0000E+00  0.5760E+03
     10.365  0.0000E+00  0.5760E+03
     10.478  0.0000E+00  0.5760E+03
     10.591  0.0000E+00  0.5760E+03
     10.704  0.0000E+00  0.5760E+03
     10.817  0.0000E+00  0.5760E+03
     10.930  0.0000E+00  0.5760E+03
     11.043  0.0000E+00  0.5760E+03
