       N       E                     dE             d eps       ncg     rms          rms(c)
DAV:   1     0.432377486754E+04    0.43238E+04   -0.17163E+05  4608   0.125E+03
DAV:   2     0.363952165155E+03   -0.39598E+04   -0.37659E+04  5120   0.368E+02
DAV:   3    -0.206180845919E+03   -0.57013E+03   -0.56588E+03  5632   0.156E+02
DAV:   4    -0.228191092033E+03   -0.22010E+02   -0.21912E+02  5536   0.331E+01
DAV:   5    -0.229004552617E+03   -0.81346E+00   -0.81209E+00  5664   0.616E+00    0.106E+01
DAV:   6    -0.224138532101E+03    0.48660E+01   -0.94793E+00  5728   0.528E+00    0.776E+00
DAV:   7    -0.223777368977E+03    0.36116E+00   -0.20678E+00  6272   0.235E+00    0.533E+00
DAV:   8    -0.223902617378E+03   -0.12525E+00   -0.26599E-01  5344   0.123E+00    0.141E+00
DAV:   9    -0.223897102925E+03    0.55145E-02   -0.11479E-02  5696   0.261E-01    0.598E-01
DAV:  10    -0.223901396139E+03   -0.42932E-02   -0.17986E-02  5312   0.228E-01    0.285E-01
DAV:  11    -0.223900696401E+03    0.69974E-03   -0.15287E-03  5952   0.807E-02    0.865E-02
DAV:  12    -0.223900660423E+03    0.35978E-04   -0.13633E-04  5856   0.225E-02    0.183E-02
DAV:  13    -0.223900659097E+03    0.13259E-05   -0.26620E-05  5568   0.857E-03    0.381E-03
DAV:  14    -0.223900660616E+03   -0.15189E-05   -0.20543E-06  5472   0.354E-03    0.816E-03
DAV:  15    -0.223900661626E+03   -0.10101E-05   -0.30831E-07  5344   0.161E-03    0.419E-03
DAV:  16    -0.223900662227E+03   -0.60028E-06   -0.15583E-07  5600   0.881E-04    0.890E-04
DAV:  17    -0.223900662350E+03   -0.12352E-06   -0.13784E-08  4032   0.665E-04    0.195E-04
DAV:  18    -0.223900662403E+03   -0.52722E-07   -0.86882E-09  3648   0.382E-04    0.436E-04
DAV:  19    -0.223900662364E+03    0.39123E-07   -0.36516E-09  3136   0.248E-04    0.329E-04
DAV:  20    -0.223900662315E+03    0.49142E-07   -0.24935E-09  3328   0.262E-04    0.151E-04
DAV:  21    -0.223900662298E+03    0.16225E-07   -0.17294E-09  3072   0.138E-04    0.873E-05
DAV:  22    -0.223900662298E+03    0.64028E-09   -0.37397E-10  3072   0.798E-05
   1 F= -.22390066E+03 E0= -.22390066E+03  d E =-.527351E-13
