 vasp.6.3.2 27Jun22 (build Oct 14 2022 12:13:54) complex                        
  
 executed on             LinuxIFC date 2025.08.28  22:03:32
 running on   32 total cores
 distrk:  each k-point on   32 cores,    1 groups
 distr:  one band on NCORE=   1 cores,   32 groups


--------------------------------------------------------------------------------------------------------


 INCAR:
   ENCUT = 341.213600
   SIGMA = 0.020000
   EDIFF = 1.00e-08
   GGA = PS
   PREC = Accurate
   IALGO = 38
   IBRION = -1
   ISMEAR = 0
   NELMIN = 5
   ADDGRID = .TRUE.
   LCHARG = .FALSE.
   LWAVE = .FALSE.
   LREAL = .FALSE.

 POTCAR:    PAW_PBE Na_pv 19Sep2006               
 POTCAR:    PAW_PBE Cl 06Sep2000                  
 -----------------------------------------------------------------------------
|                                                                             |
|           W    W    AA    RRRRR   N    N  II  N    N   GGGG   !!!           |
|           W    W   A  A   R    R  NN   N  II  NN   N  G    G  !!!           |
|           W    W  A    A  R    R  N N  N  II  N N  N  G       !!!           |
|           W WW W  AAAAAA  RRRRR   N  N N  II  N  N N  G  GGG   !            |
|           WW  WW  A    A  R   R   N   NN  II  N   NN  G    G                |
|           W    W  A    A  R    R  N    N  II  N    N   GGGG   !!!           |
|                                                                             |
|     For optimal performance we recommend to set                             |
|       NCORE = 2 up to number-of-cores-per-socket                            |
|     NCORE specifies how many cores store one orbital (NPAR=cpu/NCORE).      |
|     This setting can greatly improve the performance of VASP for DFT.       |
|     The default, NCORE=1 might be grossly inefficient on modern             |
|     multi-core architectures or massively parallel machines. Do your        |
|     own testing! More info at https://www.vasp.at/wiki/index.php/NCORE      |
|     Unfortunately you need to use the default for GW and RPA                |
|     calculations (for HF NCORE is supported but not extensively tested      |
|     yet).                                                                   |
|                                                                             |
 -----------------------------------------------------------------------------

 POTCAR:    PAW_PBE Na_pv 19Sep2006               
   SHA256 =  6a2f546d9e11350984debacf3dc457d8cffc0868e817d445faca461816a32b94 Na_pv/POTCAR          
   COPYR  = (c) Copyright 19Sep2006 Georg Kresse                                                    
   COPYR  = This file is part of the software VASP. Any use, copying, and all other rights are regul
   COPYR  = If you do not have a valid VASP license, you may not use, copy or distribute this file. 
   VRHFIN =Na: p6s1                                                                                 
   LEXCH  = PE                                                                                      
   EATOM  =   766.0439 eV,   56.3026 Ry                                                             
                                                                                                    
   TITEL  = PAW_PBE Na_pv 19Sep2006                                                                 
   LULTRA =        F    use ultrasoft PP ?                                                          
   IUNSCR =        1    unscreen: 0-lin 1-nonlin 2-no                                               
   RPACOR =    1.800    partial core radius                                                         
   POMASS =   22.990; ZVAL   =    7.000    mass and valenz                                          
   RCORE  =    2.200    outmost cutoff radius                                                       
   RWIGS  =    2.200; RWIGS  =    1.164    wigner-seitz radius (au A)                               
   ENMAX  =  259.561; ENMIN  =  194.671 eV                                                          
   ICORE  =        2    local potential                                                             
   LCOR   =        T    correct aug charges                                                         
   LPAW   =        T    paw PP                                                                      
   EAUG   =  368.056                                                                                
   DEXC   =    0.000                                                                                
   RMAX   =    2.245    core radius for proj-oper                                                   
   RAUG   =    1.300    factor for augmentation sphere                                              
   RDEP   =    2.259    radius for radial grids                                                     
   RDEPT  =    1.738    core radius for aug-charge                                                  
                                                                                                    
   Atomic configuration                                                                             
    5 entries                                                                                       
     n  l   j            E        occ.                                                              
     1  0  0.50     -1033.6933   2.0000                                                             
     2  0  0.50       -56.7526   2.0000                                                             
     2  1  1.50       -28.6721   6.0000                                                             
     3  0  0.50        -2.7440   1.0000                                                             
     3  2  1.50        -1.3606   0.0000                                                             
   Description                                                                                      
     l       E           TYP  RCUT    TYP  RCUT                                                     
     1    -28.6720912     23  2.000                                                                 
     1      6.8029130     23  2.000                                                                 
     0     -2.7439560     23  2.200                                                                 
     0     34.0145650     23  2.200                                                                 
     2     -1.3605826     23  2.200                                                                 
  local pseudopotential read in
  partial core-charges read in
  partial kinetic energy density read in
  atomic valenz-charges read in
  non local Contribution for L=           1  read in
    real space projection operators read in
  non local Contribution for L=           1  read in
    real space projection operators read in
  non local Contribution for L=           0  read in
    real space projection operators read in
  non local Contribution for L=           0  read in
    real space projection operators read in
    PAW grid and wavefunctions read in
 
   number of l-projection  operators is LMAX  =           4
   number of lm-projection operators is LMMAX =           8
 
 POTCAR:    PAW_PBE Cl 06Sep2000                  
   SHA256 =  9f1b6e6ed4247ac726a768b330d26d7667cc3c95a39ff49c1d064c2d9dcce931 Cl/POTCAR             
   COPYR  = (c) Copyright 06Sep2000 Georg Kresse                                                    
   COPYR  = This file is part of the software VASP. Any use, copying, and all other rights are regul
   COPYR  = If you do not have a valid VASP license, you may not use, copy or distribute this file. 
   VRHFIN =Cl: s2p5                                                                                 
   LEXCH  = PE                                                                                      
   EATOM  =   409.7259 eV,   30.1140 Ry                                                             
                                                                                                    
   TITEL  = PAW_PBE Cl 06Sep2000                                                                    
   LULTRA =        F    use ultrasoft PP ?                                                          
   IUNSCR =        1    unscreen: 0-lin 1-nonlin 2-no                                               
   RPACOR =    1.500    partial core radius                                                         
   POMASS =   35.453; ZVAL   =    7.000    mass and valenz                                          
   RCORE  =    1.900    outmost cutoff radius                                                       
   RWIGS  =    2.100; RWIGS  =    1.111    wigner-seitz radius (au A)                               
   ENMAX  =  262.472; ENMIN  =  196.854 eV                                                          
   ICORE  =        2    local potential                                                             
   LCOR   =        T    correct aug charges                                                         
   LPAW   =        T    paw PP                                                                      
   EAUG   =  356.192                                                                                
   DEXC   =    0.000                                                                                
   RMAX   =    1.945    core radius for proj-oper                                                   
   RAUG   =    1.300    factor for augmentation sphere                                              
   RDEP   =    2.020    radius for radial grids                                                     
   RDEPT  =    1.678    core radius for aug-charge                                                  
                                                                                                    
   Atomic configuration                                                                             
    6 entries                                                                                       
     n  l   j            E        occ.                                                              
     1  0  0.50     -2751.1850   2.0000                                                             
     2  0  0.50      -252.6861   2.0000                                                             
     2  1  1.50      -191.6157   6.0000                                                             
     3  0  0.50       -20.6916   2.0000                                                             
     3  1  0.50        -8.5949   5.0000                                                             
     3  2  1.50        -8.1635   0.0000                                                             
   Description                                                                                      
     l       E           TYP  RCUT    TYP  RCUT                                                     
     0    -20.6915656     23  1.900                                                                 
     0    -22.0521482     23  1.900                                                                 
     1     -8.5948577     23  1.900                                                                 
     1     -5.3847331     23  1.900                                                                 
     2     -8.1634956     23  1.900                                                                 
  local pseudopotential read in
  partial core-charges read in
  partial kinetic energy density read in
  atomic valenz-charges read in
  non local Contribution for L=           0  read in
    real space projection operators read in
  non local Contribution for L=           0  read in
    real space projection operators read in
  non local Contribution for L=           1  read in
    real space projection operators read in
  non local Contribution for L=           1  read in
    real space projection operators read in
    PAW grid and wavefunctions read in
 
   number of l-projection  operators is LMAX  =           4
   number of lm-projection operators is LMMAX =           8
 
 -----------------------------------------------------------------------------
|                                                                             |
|               ----> ADVICE to this user running VASP <----                  |
|                                                                             |
|     You have a (more or less) 'large supercell' and for larger cells it     |
|     might be more efficient to use real-space projection operators.         |
|     Therefore, try LREAL= Auto in the INCAR file.                           |
|     Mind: For very accurate calculation, you might also keep the            |
|     reciprocal projection scheme (i.e. LREAL=.FALSE.).                      |
|                                                                             |
 -----------------------------------------------------------------------------

 -----------------------------------------------------------------------------
|                                                                             |
|               ----> ADVICE to this user running VASP <----                  |
|                                                                             |
|     You enforced a specific xc type in the INCAR file but a different       |
|     type was found in the POTCAR file.                                      |
|     I HOPE YOU KNOW WHAT YOU ARE DOING!                                     |
|                                                                             |
 -----------------------------------------------------------------------------

  PAW_PBE Na_pv 19Sep2006               :
 energy of atom  1       EATOM= -766.0439
 kinetic energy error for atom=    0.0189 (will be added to EATOM!!)
  PAW_PBE Cl 06Sep2000                  :
 energy of atom  2       EATOM= -409.7259
 kinetic energy error for atom=    0.0106 (will be added to EATOM!!)
 
 
 POSCAR: Na Cl
  positions in cartesian coordinates
  No initial velocities read in
 exchange correlation table for  LEXCH =       14
   RHO(1)=    0.500       N(1)  =     2000
   RHO(2)=  100.500       N(2)  =     4000
 


--------------------------------------------------------------------------------------------------------


 ion  position               nearest neighbor table
   1  0.997  0.000  0.000-
   2  0.250  0.250  0.000-
   3  0.250  0.000  0.250-
   4  0.000  0.250  0.250-
   5  0.000  0.000  0.500-
   6  0.250  0.250  0.500-
   7  0.250  0.000  0.750-
   8  0.000  0.250  0.750-
   9  0.000  0.500  0.000-
  10  0.250  0.750  0.000-
  11  0.250  0.500  0.250-
  12  0.000  0.750  0.250-
  13  0.000  0.500  0.500-
  14  0.250  0.750  0.500-
  15  0.250  0.500  0.750-
  16  0.000  0.750  0.750-
  17  0.500  0.000  0.000-
  18  0.750  0.250  0.000-
  19  0.750  0.000  0.250-
  20  0.500  0.250  0.250-
  21  0.500  0.000  0.500-
  22  0.750  0.250  0.500-
  23  0.750  0.000  0.750-
  24  0.500  0.250  0.750-
  25  0.500  0.500  0.000-
  26  0.750  0.750  0.000-
  27  0.750  0.500  0.250-
  28  0.500  0.750  0.250-
  29  0.500  0.500  0.500-
  30  0.750  0.750  0.500-
  31  0.750  0.500  0.750-
  32  0.500  0.750  0.750-
  33  0.250  0.253  0.250-
  34  0.000  0.000  0.250-
  35  0.000  0.250  0.000-
  36  0.250  0.000  0.000-
  37  0.250  0.250  0.750-
  38  0.000  0.000  0.750-
  39  0.000  0.250  0.500-
  40  0.250  0.000  0.500-
  41  0.250  0.750  0.250-
  42  0.000  0.500  0.250-
  43  0.000  0.750  0.000-
  44  0.250  0.500  0.000-
  45  0.250  0.750  0.750-
  46  0.000  0.500  0.750-
  47  0.000  0.750  0.500-
  48  0.250  0.500  0.500-
  49  0.750  0.250  0.250-
  50  0.500  0.000  0.250-
  51  0.500  0.250  0.000-
  52  0.750  0.000  0.000-
  53  0.750  0.250  0.750-
  54  0.500  0.000  0.750-
  55  0.500  0.250  0.500-
  56  0.750  0.000  0.500-
  57  0.750  0.750  0.250-
  58  0.500  0.500  0.250-
  59  0.500  0.750  0.000-
  60  0.750  0.500  0.000-
  61  0.750  0.750  0.750-
  62  0.500  0.500  0.750-
  63  0.500  0.750  0.500-
  64  0.750  0.500  0.500-
 
  LATTYP: Found a simple cubic cell.
 ALAT       =    11.2040023600
  
  Lattice vectors:
  
 A1 = (  11.2040023600,   0.0000000000,   0.0000000000)
 A2 = (   0.0000000000,  11.2040023600,   0.0000000000)
 A3 = (   0.0000000000,   0.0000000000,  11.2040023600)


Analysis of symmetry for initial positions (statically):
=====================================================================
 Subroutine PRICEL returns:
 Original cell was already a primitive cell.
 

 Routine SETGRP: Setting up the symmetry group for a 
 simple cubic supercell.


 Subroutine GETGRP returns: Found  1 space group operations
 (whereof  1 operations were pure point group operations)
 out of a pool of 48 trial point group operations.


The static configuration has the point symmetry C_1 .


Analysis of symmetry for dynamics (positions and initial velocities):
=====================================================================
 Subroutine PRICEL returns:
 Original cell was already a primitive cell.
 

 Routine SETGRP: Setting up the symmetry group for a 
 simple cubic supercell.


 Subroutine GETGRP returns: Found  1 space group operations
 (whereof  1 operations were pure point group operations)
 out of a pool of 48 trial point group operations.


The dynamic configuration has the point symmetry C_1 .


 Subroutine INISYM returns: Found  1 space group operations
 (whereof  1 operations are pure point group operations),
 and found     1 'primitive' translations


----------------------------------------------------------------------------------------

                                     Primitive cell                                     

  volume of cell :    1406.4347

  direct lattice vectors                    reciprocal lattice vectors
    11.204002360  0.000000000  0.000000000     0.089253819  0.000000000  0.000000000
     0.000000000 11.204002360  0.000000000     0.000000000  0.089253819  0.000000000
     0.000000000  0.000000000 11.204002360     0.000000000  0.000000000  0.089253819

  length of vectors
    11.204002360 11.204002360 11.204002360     0.089253819  0.089253819  0.089253819

  position of ions in fractional coordinates (direct lattice)
     0.997322385  0.000000000  0.000000000
     0.250000000  0.250000000  0.000000000
     0.250000000  0.000000000  0.250000000
     0.000000000  0.250000000  0.250000000
     0.000000000  0.000000000  0.500000000
     0.250000000  0.250000000  0.500000000
     0.250000000  0.000000000  0.750000000
     0.000000000  0.250000000  0.750000000
     0.000000000  0.500000000  0.000000000
     0.250000000  0.750000000  0.000000000
     0.250000000  0.500000000  0.250000000
     0.000000000  0.750000000  0.250000000
     0.000000000  0.500000000  0.500000000
     0.250000000  0.750000000  0.500000000
     0.250000000  0.500000000  0.750000000
     0.000000000  0.750000000  0.750000000
     0.500000000  0.000000000  0.000000000
     0.750000000  0.250000000  0.000000000
     0.750000000  0.000000000  0.250000000
     0.500000000  0.250000000  0.250000000
     0.500000000  0.000000000  0.500000000
     0.750000000  0.250000000  0.500000000
     0.750000000  0.000000000  0.750000000
     0.500000000  0.250000000  0.750000000
     0.500000000  0.500000000  0.000000000
     0.750000000  0.750000000  0.000000000
     0.750000000  0.500000000  0.250000000
     0.500000000  0.750000000  0.250000000
     0.500000000  0.500000000  0.500000000
     0.750000000  0.750000000  0.500000000
     0.750000000  0.500000000  0.750000000
     0.500000000  0.750000000  0.750000000
     0.250000000  0.252677615  0.250000000
     0.000000000  0.000000000  0.250000000
     0.000000000  0.250000000  0.000000000
     0.250000000  0.000000000  0.000000000
     0.250000000  0.250000000  0.750000000
     0.000000000  0.000000000  0.750000000
     0.000000000  0.250000000  0.500000000
     0.250000000  0.000000000  0.500000000
     0.250000000  0.750000000  0.250000000
     0.000000000  0.500000000  0.250000000
     0.000000000  0.750000000  0.000000000
     0.250000000  0.500000000  0.000000000
     0.250000000  0.750000000  0.750000000
     0.000000000  0.500000000  0.750000000
     0.000000000  0.750000000  0.500000000
     0.250000000  0.500000000  0.500000000
     0.750000000  0.250000000  0.250000000
     0.500000000  0.000000000  0.250000000
     0.500000000  0.250000000  0.000000000
     0.750000000  0.000000000  0.000000000
     0.750000000  0.250000000  0.750000000
     0.500000000  0.000000000  0.750000000
     0.500000000  0.250000000  0.500000000
     0.750000000  0.000000000  0.500000000
     0.750000000  0.750000000  0.250000000
     0.500000000  0.500000000  0.250000000
     0.500000000  0.750000000  0.000000000
     0.750000000  0.500000000  0.000000000
     0.750000000  0.750000000  0.750000000
     0.500000000  0.500000000  0.750000000
     0.500000000  0.750000000  0.500000000
     0.750000000  0.500000000  0.500000000

  ion indices of the primitive-cell ions
   primitive index   ion index
                 1           1
                 2           2
                 3           3
                 4           4
                 5           5
                 6           6
                 7           7
                 8           8
                 9           9
                10          10
                11          11
                12          12
                13          13
                14          14
                15          15
                16          16
                17          17
                18          18
                19          19
                20          20
                21          21
                22          22
                23          23
                24          24
                25          25
                26          26
                27          27
                28          28
                29          29
                30          30
                31          31
                32          32
                33          33
                34          34
                35          35
                36          36
                37          37
                38          38
                39          39
                40          40
                41          41
                42          42
                43          43
                44          44
                45          45
                46          46
                47          47
                48          48
                49          49
                50          50
                51          51
                52          52
                53          53
                54          54
                55          55
                56          56
                57          57
                58          58
                59          59
                60          60
                61          61
                62          62
                63          63
                64          64

----------------------------------------------------------------------------------------

 
 
 KPOINTS: KPOINTS created by Atomic Simulation Env

Automatic generation of k-mesh.
 Grid dimensions read from file:
 generate k-points for:    2    2    2

 Generating k-lattice:

  Cartesian coordinates                     Fractional coordinates (reciprocal lattice)
     0.044626910  0.000000000  0.000000000     0.500000000  0.000000000  0.000000000
     0.000000000  0.044626910  0.000000000     0.000000000  0.500000000  0.000000000
     0.000000000  0.000000000  0.044626910     0.000000000  0.000000000  0.500000000

  Length of vectors
     0.044626910  0.044626910  0.044626910

  Shift w.r.t. Gamma in fractional coordinates (k-lattice)
     0.000000000  0.000000000  0.000000000

 
 Subroutine IBZKPT returns following result:
 ===========================================
 
 Found      8 irreducible k-points:
 
 Following reciprocal coordinates:
            Coordinates               Weight
  0.000000  0.000000  0.000000      1.000000
  0.500000  0.000000  0.000000      1.000000
  0.000000  0.500000  0.000000      1.000000
  0.000000  0.000000  0.500000      1.000000
  0.500000  0.500000  0.000000      1.000000
  0.000000  0.500000  0.500000      1.000000
  0.500000  0.000000  0.500000      1.000000
  0.500000  0.500000  0.500000      1.000000
 
 Following cartesian coordinates:
            Coordinates               Weight
  0.000000  0.000000  0.000000      1.000000
  0.044627  0.000000  0.000000      1.000000
  0.000000  0.044627  0.000000      1.000000
  0.000000  0.000000  0.044627      1.000000
  0.044627  0.044627  0.000000      1.000000
  0.000000  0.044627  0.044627      1.000000
  0.044627  0.000000  0.044627      1.000000
  0.044627  0.044627  0.044627      1.000000
 


--------------------------------------------------------------------------------------------------------




 Dimension of arrays:
   k-points           NKPTS =      8   k-points in BZ     NKDIM =      8   number of bands    NBANDS=    288
   number of dos      NEDOS =    301   number of ions     NIONS =     64
   non local maximal  LDIM  =      4   non local SUM 2l+1 LMDIM =      8
   total plane-waves  NPLWV = 343000
   max r-space proj   IRMAX =      1   max aug-charges    IRDMAX=  56280
   dimension x,y,z NGX =    70 NGY =   70 NGZ =   70
   dimension x,y,z NGXF=   140 NGYF=  140 NGZF=  140
   support grid    NGXF=   280 NGYF=  280 NGZF=  280
   ions per type =              32  32
   NGX,Y,Z   is equivalent  to a cutoff of  10.39, 10.39, 10.39 a.u.
   NGXF,Y,Z  is equivalent  to a cutoff of  20.77, 20.77, 20.77 a.u.

 SYSTEM =  unknown system                          
 POSCAR =  Na Cl                                   

 Startparameter for this run:
   NWRITE =      2    write-flag & timer
   PREC   = accura    normal or accurate (medium, high low for compatibility)
   ISTART =      0    job   : 0-new  1-cont  2-samecut
   ICHARG =      2    charge: 1-file 2-atom 10-const
   ISPIN  =      1    spin polarized calculation?
   LNONCOLLINEAR =      F non collinear calculations
   LSORBIT =      F    spin-orbit coupling
   INIWAV =      1    electr: 0-lowe 1-rand  2-diag
   LASPH  =      F    aspherical Exc in radial PAW
 Electronic Relaxation 1
   ENCUT  =  341.2 eV  25.08 Ry    5.01 a.u.  16.87 16.87 16.87*2*pi/ulx,y,z
   ENINI  =  341.2     initial cutoff
   ENAUG  =  368.1 eV  augmentation charge cutoff
   NELM   =     60;   NELMIN=  5; NELMDL= -5     # of ELM steps 
   EDIFF  = 0.1E-07   stopping-criterion for ELM
   LREAL  =      F    real-space projection
   NLSPLINE    = F    spline interpolate recip. space projectors
   LCOMPAT=      F    compatible to vasp.4.4
   GGA_COMPAT  = T    GGA compatible to vasp.4.4-vasp.4.6
   LMAXPAW     = -100 max onsite density
   LMAXMIX     =    2 max onsite mixed and CHGCAR
   VOSKOWN=      0    Vosko Wilk Nusair interpolation
   ROPT   =    0.00000   0.00000
 Ionic relaxation
   EDIFFG = 0.1E-06   stopping-criterion for IOM
   NSW    =      0    number of steps for IOM
   NBLOCK =      1;   KBLOCK =      1    inner block; outer block 
   IBRION =     -1    ionic relax: 0-MD 1-quasi-New 2-CG
   NFREE  =      0    steps in history (QN), initial steepest desc. (CG)
   ISIF   =      2    stress and relaxation
   IWAVPR =     10    prediction:  0-non 1-charg 2-wave 3-comb
   ISYM   =      2    0-nonsym 1-usesym 2-fastsym
   LCORR  =      T    Harris-Foulkes like correction to forces

   POTIM  = 0.5000    time-step for ionic-motion
   TEIN   =    0.0    initial temperature
   TEBEG  =    0.0;   TEEND  =   0.0 temperature during run
   SMASS  =  -3.00    Nose mass-parameter (am)
   estimated Nose-frequenzy (Omega)   =  0.10E-29 period in steps = 0.13E+47 mass=  -0.287E-26a.u.
   SCALEE = 1.0000    scale energy and forces
   NPACO  =    256;   APACO  = 10.0  distance and # of slots for P.C.
   PSTRESS=    0.0 pullay stress

  Mass of Ions in am
   POMASS =  22.99 35.45
  Ionic Valenz
   ZVAL   =   7.00  7.00
  Atomic Wigner-Seitz radii
   RWIGS  =  -1.00 -1.00
  virtual crystal weights 
   VCA    =   1.00  1.00
   NELECT =     448.0000    total number of electrons
   NUPDOWN=      -1.0000    fix difference up-down

 DOS related values:
   EMIN   =  10.00;   EMAX   =-10.00  energy-range for DOS
   EFERMI =   0.00
   ISMEAR =     0;   SIGMA  =   0.02  broadening in eV -4-tet -1-fermi 0-gaus

 Electronic relaxation 2 (details)
   IALGO  =     38    algorithm
   LDIAG  =      T    sub-space diagonalisation (order eigenvalues)
   LSUBROT=      F    optimize rotation matrix (better conditioning)
   TURBO    =      0    0=normal 1=particle mesh
   IRESTART =      0    0=no restart 2=restart with 2 vectors
   NREBOOT  =      0    no. of reboots
   NMIN     =      0    reboot dimension
   EREF     =   0.00    reference energy to select bands
   IMIX   =      4    mixing-type and parameters
     AMIX     =   0.40;   BMIX     =  1.00
     AMIX_MAG =   1.60;   BMIX_MAG =  1.00
     AMIN     =   0.10
     WC   =   100.;   INIMIX=   1;  MIXPRE=   1;  MAXMIX= -45

 Intra band minimization:
   WEIMIN = 0.0000     energy-eigenvalue tresh-hold
   EBREAK =  0.87E-11  absolut break condition
   DEPER  =   0.30     relativ break condition  

   TIME   =   0.40     timestep for ELM

  volume/ion in A,a.u.               =      21.98       148.30
  Fermi-wavevector in a.u.,A,eV,Ry     =   1.118049  2.112807 17.007750  1.250034
  Thomas-Fermi vector in A             =   2.254677
 
 Write flags
   LWAVE        =      F    write WAVECAR
   LDOWNSAMPLE  =      F    k-point downsampling of WAVECAR
   LCHARG       =      F    write CHGCAR
   LVTOT        =      F    write LOCPOT, total local potential
   LVHAR        =      F    write LOCPOT, Hartree potential only
   LELF         =      F    write electronic localiz. function (ELF)
   LORBIT       =      0    0 simple, 1 ext, 2 COOP (PROOUT), +10 PAW based schemes


 Dipole corrections
   LMONO  =      F    monopole corrections only (constant potential shift)
   LDIPOL =      F    correct potential (dipole corrections)
   IDIPOL =      0    1-x, 2-y, 3-z, 4-all directions 
   EPSILON=  1.0000000 bulk dielectric constant

 Exchange correlation treatment:
   GGA     =    PS    GGA type
   LEXCH   =    14    internal setting for exchange type
   LIBXC   =     F    Libxc                    
   VOSKOWN =     0    Vosko Wilk Nusair interpolation
   LHFCALC =     F    Hartree Fock is set to
   LHFONE  =     F    Hartree Fock one center treatment
   AEXX    =    0.0000 exact exchange contribution

 Linear response parameters
   LEPSILON=     F    determine dielectric tensor
   LRPA    =     F    only Hartree local field effects (RPA)
   LNABLA  =     F    use nabla operator in PAW spheres
   LVEL    =     F    velocity operator in full k-point grid
   CSHIFT  =0.1000    complex shift for real part using Kramers Kronig
   OMEGAMAX=  -1.0    maximum frequency
   DEG_THRESHOLD= 0.2000000E-02 threshold for treating states as degnerate
   RTIME   =   -0.100 relaxation time in fs
  (WPLASMAI=    0.000 imaginary part of plasma frequency in eV, 0.658/RTIME)
   DFIELD  = 0.0000000 0.0000000 0.0000000 field for delta impulse in time
 
  Optional k-point grid parameters
   LKPOINTS_OPT  =     F    use optional k-point grid
   KPOINTS_OPT_MODE=     1    mode for optional k-point grid
 
 Orbital magnetization related:
   ORBITALMAG=     F  switch on orbital magnetization
   LCHIMAG   =     F  perturbation theory with respect to B field
   DQ        =  0.001000  dq finite difference perturbation B field
   LLRAUG    =     F  two centre corrections for induced B field



--------------------------------------------------------------------------------------------------------


 Static calculation
 charge density and potential will be updated during run
 non-spin polarized calculation
 Variant of blocked Davidson
 Davidson routine will perform the subspace rotation
 perform sub-space diagonalisation
    after iterative eigenvector-optimisation
 modified Broyden-mixing scheme, WC =      100.0
 initial mixing is a Kerker type mixing with AMIX =  0.4000 and BMIX =      1.0000
 Hartree-type preconditioning will be used
 using additional bands           64
 reciprocal scheme for non local part
 use partial core corrections
 calculate Harris-corrections to forces 
   (improved forces if not selfconsistent)
 use gradient corrections 
 use of overlap-Matrix (Vanderbilt PP)
 Gauss-broadening in eV      SIGMA  =   0.02


--------------------------------------------------------------------------------------------------------


  energy-cutoff  :      341.21
  volume of cell :     1406.43
      direct lattice vectors                 reciprocal lattice vectors
    11.204002360  0.000000000  0.000000000     0.089253819  0.000000000  0.000000000
     0.000000000 11.204002360  0.000000000     0.000000000  0.089253819  0.000000000
     0.000000000  0.000000000 11.204002360     0.000000000  0.000000000  0.089253819

  length of vectors
    11.204002360 11.204002360 11.204002360     0.089253819  0.089253819  0.089253819


 
 k-points in units of 2pi/SCALE and weight: KPOINTS created by Atomic Simulation Env
   0.00000000  0.00000000  0.00000000       0.125
   0.04462691  0.00000000  0.00000000       0.125
   0.00000000  0.04462691  0.00000000       0.125
   0.00000000  0.00000000  0.04462691       0.125
   0.04462691  0.04462691  0.00000000       0.125
   0.00000000  0.04462691  0.04462691       0.125
   0.04462691  0.00000000  0.04462691       0.125
   0.04462691  0.04462691  0.04462691       0.125
 
 k-points in reciprocal lattice and weights: KPOINTS created by Atomic Simulation Env
   0.00000000  0.00000000  0.00000000       0.125
   0.50000000  0.00000000  0.00000000       0.125
   0.00000000  0.50000000  0.00000000       0.125
   0.00000000  0.00000000  0.50000000       0.125
   0.50000000  0.50000000  0.00000000       0.125
   0.00000000  0.50000000  0.50000000       0.125
   0.50000000  0.00000000  0.50000000       0.125
   0.50000000  0.50000000  0.50000000       0.125
 
 position of ions in fractional coordinates (direct lattice) 
   0.99732239  0.00000000  0.00000000
   0.25000000  0.25000000  0.00000000
   0.25000000  0.00000000  0.25000000
   0.00000000  0.25000000  0.25000000
   0.00000000  0.00000000  0.50000000
   0.25000000  0.25000000  0.50000000
   0.25000000  0.00000000  0.75000000
   0.00000000  0.25000000  0.75000000
   0.00000000  0.50000000  0.00000000
   0.25000000  0.75000000  0.00000000
   0.25000000  0.50000000  0.25000000
   0.00000000  0.75000000  0.25000000
   0.00000000  0.50000000  0.50000000
   0.25000000  0.75000000  0.50000000
   0.25000000  0.50000000  0.75000000
   0.00000000  0.75000000  0.75000000
   0.50000000  0.00000000  0.00000000
   0.75000000  0.25000000  0.00000000
   0.75000000  0.00000000  0.25000000
   0.50000000  0.25000000  0.25000000
   0.50000000  0.00000000  0.50000000
   0.75000000  0.25000000  0.50000000
   0.75000000  0.00000000  0.75000000
   0.50000000  0.25000000  0.75000000
   0.50000000  0.50000000  0.00000000
   0.75000000  0.75000000  0.00000000
   0.75000000  0.50000000  0.25000000
   0.50000000  0.75000000  0.25000000
   0.50000000  0.50000000  0.50000000
   0.75000000  0.75000000  0.50000000
   0.75000000  0.50000000  0.75000000
   0.50000000  0.75000000  0.75000000
   0.25000000  0.25267761  0.25000000
   0.00000000  0.00000000  0.25000000
   0.00000000  0.25000000  0.00000000
   0.25000000  0.00000000  0.00000000
   0.25000000  0.25000000  0.75000000
   0.00000000  0.00000000  0.75000000
   0.00000000  0.25000000  0.50000000
   0.25000000  0.00000000  0.50000000
   0.25000000  0.75000000  0.25000000
   0.00000000  0.50000000  0.25000000
   0.00000000  0.75000000  0.00000000
   0.25000000  0.50000000  0.00000000
   0.25000000  0.75000000  0.75000000
   0.00000000  0.50000000  0.75000000
   0.00000000  0.75000000  0.50000000
   0.25000000  0.50000000  0.50000000
   0.75000000  0.25000000  0.25000000
   0.50000000  0.00000000  0.25000000
   0.50000000  0.25000000  0.00000000
   0.75000000  0.00000000  0.00000000
   0.75000000  0.25000000  0.75000000
   0.50000000  0.00000000  0.75000000
   0.50000000  0.25000000  0.50000000
   0.75000000  0.00000000  0.50000000
   0.75000000  0.75000000  0.25000000
   0.50000000  0.50000000  0.25000000
   0.50000000  0.75000000  0.00000000
   0.75000000  0.50000000  0.00000000
   0.75000000  0.75000000  0.75000000
   0.50000000  0.50000000  0.75000000
   0.50000000  0.75000000  0.50000000
   0.75000000  0.50000000  0.50000000
 
 position of ions in cartesian coordinates  (Angst):
  11.17400236  0.00000000  0.00000000
   2.80100059  2.80100059  0.00000000
   2.80100059  0.00000000  2.80100059
   0.00000000  2.80100059  2.80100059
   0.00000000  0.00000000  5.60200118
   2.80100059  2.80100059  5.60200118
   2.80100059  0.00000000  8.40300177
   0.00000000  2.80100059  8.40300177
   0.00000000  5.60200118  0.00000000
   2.80100059  8.40300177  0.00000000
   2.80100059  5.60200118  2.80100059
   0.00000000  8.40300177  2.80100059
   0.00000000  5.60200118  5.60200118
   2.80100059  8.40300177  5.60200118
   2.80100059  5.60200118  8.40300177
   0.00000000  8.40300177  8.40300177
   5.60200118  0.00000000  0.00000000
   8.40300177  2.80100059  0.00000000
   8.40300177  0.00000000  2.80100059
   5.60200118  2.80100059  2.80100059
   5.60200118  0.00000000  5.60200118
   8.40300177  2.80100059  5.60200118
   8.40300177  0.00000000  8.40300177
   5.60200118  2.80100059  8.40300177
   5.60200118  5.60200118  0.00000000
   8.40300177  8.40300177  0.00000000
   8.40300177  5.60200118  2.80100059
   5.60200118  8.40300177  2.80100059
   5.60200118  5.60200118  5.60200118
   8.40300177  8.40300177  5.60200118
   8.40300177  5.60200118  8.40300177
   5.60200118  8.40300177  8.40300177
   2.80100059  2.83100059  2.80100059
   0.00000000  0.00000000  2.80100059
   0.00000000  2.80100059  0.00000000
   2.80100059  0.00000000  0.00000000
   2.80100059  2.80100059  8.40300177
   0.00000000  0.00000000  8.40300177
   0.00000000  2.80100059  5.60200118
   2.80100059  0.00000000  5.60200118
   2.80100059  8.40300177  2.80100059
   0.00000000  5.60200118  2.80100059
   0.00000000  8.40300177  0.00000000
   2.80100059  5.60200118  0.00000000
   2.80100059  8.40300177  8.40300177
   0.00000000  5.60200118  8.40300177
   0.00000000  8.40300177  5.60200118
   2.80100059  5.60200118  5.60200118
   8.40300177  2.80100059  2.80100059
   5.60200118  0.00000000  2.80100059
   5.60200118  2.80100059  0.00000000
   8.40300177  0.00000000  0.00000000
   8.40300177  2.80100059  8.40300177
   5.60200118  0.00000000  8.40300177
   5.60200118  2.80100059  5.60200118
   8.40300177  0.00000000  5.60200118
   8.40300177  8.40300177  2.80100059
   5.60200118  5.60200118  2.80100059
   5.60200118  8.40300177  0.00000000
   8.40300177  5.60200118  0.00000000
   8.40300177  8.40300177  8.40300177
   5.60200118  5.60200118  8.40300177
   5.60200118  8.40300177  5.60200118
   8.40300177  5.60200118  5.60200118
 


--------------------------------------------------------------------------------------------------------


 k-point   1 :   0.0000 0.0000 0.0000  plane waves:   20005
 k-point   2 :   0.5000 0.0000 0.0000  plane waves:   20138
 k-point   3 :   0.0000 0.5000 0.0000  plane waves:   20138
 k-point   4 :   0.0000 0.0000 0.5000  plane waves:   20138
 k-point   5 :   0.5000 0.5000 0.0000  plane waves:   20160
 k-point   6 :   0.0000 0.5000 0.5000  plane waves:   20160
 k-point   7 :   0.5000 0.0000 0.5000  plane waves:   20160
 k-point   8 :   0.5000 0.5000 0.5000  plane waves:   20336

 maximum and minimum number of plane-waves per node :     20336    20005

 maximum number of plane-waves:     20336
 maximum index in each direction: 
   IXMAX=   16   IYMAX=   16   IZMAX=   16
   IXMIN=  -17   IYMIN=  -17   IZMIN=  -17


 serial   3D FFT for wavefunctions
 parallel 3D FFT for charge:
    minimum data exchange during FFTs selected (reduces bandwidth)


 total amount of memory used by VASP MPI-rank0   129658. kBytes
=======================================================================

   base      :      30000. kBytes
   nonl-proj :      41680. kBytes
   fftplans  :      14405. kBytes
   grid      :      19342. kBytes
   one-center:        196. kBytes
   wavefun   :      24035. kBytes
 
     INWAV:  cpu time      0.0000: real time      0.0000
 Broyden mixing: mesh for mixing (old mesh)
   NGX = 33   NGY = 33   NGZ = 33
  (NGX  =140   NGY  =140   NGZ  =140)
  gives a total of  35937 points

 initial charge density was supplied:
 charge density of overlapping atoms calculated
 number of electron     448.0000000 magnetization 
 keeping initial charge density in first step


--------------------------------------------------------------------------------------------------------


 Maximum index for augmentation-charges         1834 (set IRDMAX)


--------------------------------------------------------------------------------------------------------


 First call to EWALD:  gamma=   0.158
 Maximum number of real-space cells 3x 3x 3
 Maximum number of reciprocal cells 3x 3x 3

    FEWALD:  cpu time      0.0015: real time      0.0015


--------------------------------------- Iteration      1(   1)  ---------------------------------------


    POTLOK:  cpu time      0.0421: real time      0.0427
    SETDIJ:  cpu time      0.0322: real time      0.0324
     EDDAV:  cpu time      9.9160: real time      9.9670
       DOS:  cpu time      0.0010: real time      0.0010
    --------------------------------------------
      LOOP:  cpu time      9.9913: real time     10.0430

 eigenvalue-minimisations  :  4608
 total energy-change (2. order) : 0.4323775E+04  (-0.1716276E+05)
 number of electron     448.0000000 magnetization 
 augmentation part      448.0000000 magnetization 

 Free energy of the ion-electron system (eV)
  ---------------------------------------------------
  alpha Z        PSCENC =       751.52672365
  Ewald energy   TEWEN  =    -22871.33549161
  -Hartree energ DENC   =     -8992.25106534
  -exchange      EXHF   =         0.00000000
  -V(xc)+E(xc)   XCENC  =      1456.53426838
  PAW double counting   =     26466.43774078   -29286.08056155
  entropy T*S    EENTRO =        -0.00273325
  eigenvalues    EBANDS =      -733.23348344
  atomic energy  EATOM  =     37532.17946992
  Solvation  Ediel_sol  =         0.00000000
  ---------------------------------------------------
  free energy    TOTEN  =      4323.77486754 eV

  energy without entropy =     4323.77760079  energy(sigma->0) =     4323.77623416


--------------------------------------------------------------------------------------------------------




--------------------------------------- Iteration      1(   2)  ---------------------------------------


     EDDAV:  cpu time     10.7905: real time     10.8461
       DOS:  cpu time      0.0002: real time      0.0002
    --------------------------------------------
      LOOP:  cpu time     10.7906: real time     10.8463

 eigenvalue-minimisations  :  5120
 total energy-change (2. order) :-0.3959823E+04  (-0.3765901E+04)
 number of electron     448.0000000 magnetization 
 augmentation part      448.0000000 magnetization 

 Free energy of the ion-electron system (eV)
  ---------------------------------------------------
  alpha Z        PSCENC =       751.52672365
  Ewald energy   TEWEN  =    -22871.33549161
  -Hartree energ DENC   =     -8992.25106534
  -exchange      EXHF   =         0.00000000
  -V(xc)+E(xc)   XCENC  =      1456.53426838
  PAW double counting   =     26466.43774078   -29286.08056155
  entropy T*S    EENTRO =        -0.00000000
  eigenvalues    EBANDS =     -4693.05891907
  atomic energy  EATOM  =     37532.17946992
  Solvation  Ediel_sol  =         0.00000000
  ---------------------------------------------------
  free energy    TOTEN  =       363.95216515 eV

  energy without entropy =      363.95216515  energy(sigma->0) =      363.95216515


--------------------------------------------------------------------------------------------------------




--------------------------------------- Iteration      1(   3)  ---------------------------------------


     EDDAV:  cpu time     11.6436: real time     11.7048
       DOS:  cpu time      0.0002: real time      0.0002
    --------------------------------------------
      LOOP:  cpu time     11.6438: real time     11.7050

 eigenvalue-minimisations  :  5632
 total energy-change (2. order) :-0.5701330E+03  (-0.5658839E+03)
 number of electron     448.0000000 magnetization 
 augmentation part      448.0000000 magnetization 

 Free energy of the ion-electron system (eV)
  ---------------------------------------------------
  alpha Z        PSCENC =       751.52672365
  Ewald energy   TEWEN  =    -22871.33549161
  -Hartree energ DENC   =     -8992.25106534
  -exchange      EXHF   =         0.00000000
  -V(xc)+E(xc)   XCENC  =      1456.53426838
  PAW double counting   =     26466.43774078   -29286.08056155
  entropy T*S    EENTRO =        -0.00000000
  eigenvalues    EBANDS =     -5263.19193015
  atomic energy  EATOM  =     37532.17946992
  Solvation  Ediel_sol  =         0.00000000
  ---------------------------------------------------
  free energy    TOTEN  =      -206.18084592 eV

  energy without entropy =     -206.18084592  energy(sigma->0) =     -206.18084592


--------------------------------------------------------------------------------------------------------




--------------------------------------- Iteration      1(   4)  ---------------------------------------


     EDDAV:  cpu time     11.5091: real time     11.5738
       DOS:  cpu time      0.0002: real time      0.0002
    --------------------------------------------
      LOOP:  cpu time     11.5093: real time     11.5740

 eigenvalue-minimisations  :  5536
 total energy-change (2. order) :-0.2201025E+02  (-0.2191157E+02)
 number of electron     448.0000000 magnetization 
 augmentation part      448.0000000 magnetization 

 Free energy of the ion-electron system (eV)
  ---------------------------------------------------
  alpha Z        PSCENC =       751.52672365
  Ewald energy   TEWEN  =    -22871.33549161
  -Hartree energ DENC   =     -8992.25106534
  -exchange      EXHF   =         0.00000000
  -V(xc)+E(xc)   XCENC  =      1456.53426838
  PAW double counting   =     26466.43774078   -29286.08056155
  entropy T*S    EENTRO =        -0.00000000
  eigenvalues    EBANDS =     -5285.20217626
  atomic energy  EATOM  =     37532.17946992
  Solvation  Ediel_sol  =         0.00000000
  ---------------------------------------------------
  free energy    TOTEN  =      -228.19109203 eV

  energy without entropy =     -228.19109203  energy(sigma->0) =     -228.19109203


--------------------------------------------------------------------------------------------------------




--------------------------------------- Iteration      1(   5)  ---------------------------------------


     EDDAV:  cpu time     11.6923: real time     11.7554
       DOS:  cpu time      0.0002: real time      0.0002
    CHARGE:  cpu time      0.3259: real time      0.3279
    MIXING:  cpu time      0.0013: real time      0.0013
    --------------------------------------------
      LOOP:  cpu time     12.0197: real time     12.0848

 eigenvalue-minimisations  :  5664
 total energy-change (2. order) :-0.8134606E+00  (-0.8120872E+00)
 number of electron     448.0000022 magnetization 
 augmentation part      111.6486208 magnetization 

 Broyden mixing:
  rms(total) = 0.10608E+01    rms(broyden)= 0.10604E+01
  rms(prec ) = 0.14938E+01
  weight for this iteration     100.00

 Free energy of the ion-electron system (eV)
  ---------------------------------------------------
  alpha Z        PSCENC =       751.52672365
  Ewald energy   TEWEN  =    -22871.33549161
  -Hartree energ DENC   =     -8992.25106534
  -exchange      EXHF   =         0.00000000
  -V(xc)+E(xc)   XCENC  =      1456.53426838
  PAW double counting   =     26466.43774078   -29286.08056155
  entropy T*S    EENTRO =        -0.00000000
  eigenvalues    EBANDS =     -5286.01563685
  atomic energy  EATOM  =     37532.17946992
  Solvation  Ediel_sol  =         0.00000000
  ---------------------------------------------------
  free energy    TOTEN  =      -229.00455262 eV

  energy without entropy =     -229.00455262  energy(sigma->0) =     -229.00455262


--------------------------------------------------------------------------------------------------------




--------------------------------------- Iteration      1(   6)  ---------------------------------------


    POTLOK:  cpu time      0.0363: real time      0.0376
    SETDIJ:  cpu time      0.0295: real time      0.0296
     EDDAV:  cpu time     11.8201: real time     11.8812
       DOS:  cpu time      0.0006: real time      0.0006
    CHARGE:  cpu time      0.3250: real time      0.3267
    MIXING:  cpu time      0.0013: real time      0.0013
    --------------------------------------------
      LOOP:  cpu time     12.2128: real time     12.2769

 eigenvalue-minimisations  :  5728
 total energy-change (2. order) : 0.4866021E+01  (-0.9479342E+00)
 number of electron     448.0000022 magnetization 
 augmentation part      112.4561956 magnetization 

 Broyden mixing:
  rms(total) = 0.77598E+00    rms(broyden)= 0.77592E+00
  rms(prec ) = 0.89200E+00
  weight for this iteration     100.00

 eigenvalues of (default mixing * dielectric matrix)
  average eigenvalue GAMMA=   1.0743
  1.0743

 Free energy of the ion-electron system (eV)
  ---------------------------------------------------
  alpha Z        PSCENC =       751.52672365
  Ewald energy   TEWEN  =    -22871.33549161
  -Hartree energ DENC   =     -9061.90570782
  -exchange      EXHF   =         0.00000000
  -V(xc)+E(xc)   XCENC  =      1465.43964173
  PAW double counting   =     27290.91525280   -30102.99214145
  entropy T*S    EENTRO =        -0.00000000
  eigenvalues    EBANDS =     -5227.96627933
  atomic energy  EATOM  =     37532.17946992
  Solvation  Ediel_sol  =         0.00000000
  ---------------------------------------------------
  free energy    TOTEN  =      -224.13853210 eV

  energy without entropy =     -224.13853210  energy(sigma->0) =     -224.13853210


--------------------------------------------------------------------------------------------------------




--------------------------------------- Iteration      1(   7)  ---------------------------------------


    POTLOK:  cpu time      0.0360: real time      0.0364
    SETDIJ:  cpu time      0.0297: real time      0.0299
     EDDAV:  cpu time     12.7261: real time     12.7903
       DOS:  cpu time      0.0005: real time      0.0005
    CHARGE:  cpu time      0.3256: real time      0.3273
    MIXING:  cpu time      0.0013: real time      0.0013
    --------------------------------------------
      LOOP:  cpu time     13.1193: real time     13.1856

 eigenvalue-minimisations  :  6272
 total energy-change (2. order) : 0.3611631E+00  (-0.2067788E+00)
 number of electron     448.0000022 magnetization 
 augmentation part      112.8269197 magnetization 

 Broyden mixing:
  rms(total) = 0.53325E+00    rms(broyden)= 0.53322E+00
  rms(prec ) = 0.56325E+00
  weight for this iteration     100.00

 eigenvalues of (default mixing * dielectric matrix)
  average eigenvalue GAMMA=   2.1540
  1.4391  2.8688

 Free energy of the ion-electron system (eV)
  ---------------------------------------------------
  alpha Z        PSCENC =       751.52672365
  Ewald energy   TEWEN  =    -22871.33549161
  -Hartree energ DENC   =     -9085.86003947
  -exchange      EXHF   =         0.00000000
  -V(xc)+E(xc)   XCENC  =      1470.12631957
  PAW double counting   =     28329.38130327   -31142.10780006
  entropy T*S    EENTRO =        -0.00000000
  eigenvalues    EBANDS =     -5207.68785425
  atomic energy  EATOM  =     37532.17946992
  Solvation  Ediel_sol  =         0.00000000
  ---------------------------------------------------
  free energy    TOTEN  =      -223.77736898 eV

  energy without entropy =     -223.77736898  energy(sigma->0) =     -223.77736898


--------------------------------------------------------------------------------------------------------




--------------------------------------- Iteration      1(   8)  ---------------------------------------


    POTLOK:  cpu time      0.0362: real time      0.0375
    SETDIJ:  cpu time      0.0303: real time      0.0304
     EDDAV:  cpu time     11.1929: real time     11.2497
       DOS:  cpu time      0.0006: real time      0.0006
    CHARGE:  cpu time      0.3274: real time      0.3293
    MIXING:  cpu time      0.0012: real time      0.0012
    --------------------------------------------
      LOOP:  cpu time     11.5885: real time     11.6487

 eigenvalue-minimisations  :  5344
 total energy-change (2. order) :-0.1252484E+00  (-0.2659907E-01)
 number of electron     448.0000022 magnetization 
 augmentation part      112.8089941 magnetization 

 Broyden mixing:
  rms(total) = 0.14144E+00    rms(broyden)= 0.14144E+00
  rms(prec ) = 0.14434E+00
  weight for this iteration     100.00

 eigenvalues of (default mixing * dielectric matrix)
  average eigenvalue GAMMA=   1.5558
  2.5216  1.3854  0.7606

 Free energy of the ion-electron system (eV)
  ---------------------------------------------------
  alpha Z        PSCENC =       751.52672365
  Ewald energy   TEWEN  =    -22871.33549161
  -Hartree energ DENC   =     -9075.22688103
  -exchange      EXHF   =         0.00000000
  -V(xc)+E(xc)   XCENC  =      1472.33787313
  PAW double counting   =     29808.40683554   -32628.23151697
  entropy T*S    EENTRO =        -0.00000000
  eigenvalues    EBANDS =     -5213.55963002
  atomic energy  EATOM  =     37532.17946992
  Solvation  Ediel_sol  =         0.00000000
  ---------------------------------------------------
  free energy    TOTEN  =      -223.90261738 eV

  energy without entropy =     -223.90261738  energy(sigma->0) =     -223.90261738


--------------------------------------------------------------------------------------------------------




--------------------------------------- Iteration      1(   9)  ---------------------------------------


    POTLOK:  cpu time      0.0369: real time      0.0405
    SETDIJ:  cpu time      0.0297: real time      0.0299
     EDDAV:  cpu time     11.7820: real time     11.8420
       DOS:  cpu time      0.0006: real time      0.0006
    CHARGE:  cpu time      0.3234: real time      0.3251
    MIXING:  cpu time      0.0014: real time      0.0014
    --------------------------------------------
      LOOP:  cpu time     12.1741: real time     12.2394

 eigenvalue-minimisations  :  5696
 total energy-change (2. order) : 0.5514453E-02  (-0.1147923E-02)
 number of electron     448.0000022 magnetization 
 augmentation part      112.8316505 magnetization 

 Broyden mixing:
  rms(total) = 0.59826E-01    rms(broyden)= 0.59825E-01
  rms(prec ) = 0.61890E-01
  weight for this iteration     100.00

 eigenvalues of (default mixing * dielectric matrix)
  average eigenvalue GAMMA=   2.0026
  2.8106  2.8106  0.9970  1.3921

 Free energy of the ion-electron system (eV)
  ---------------------------------------------------
  alpha Z        PSCENC =       751.52672365
  Ewald energy   TEWEN  =    -22871.33549161
  -Hartree energ DENC   =     -9077.96067414
  -exchange      EXHF   =         0.00000000
  -V(xc)+E(xc)   XCENC  =      1472.35686955
  PAW double counting   =     29629.58681951   -32448.57160185
  entropy T*S    EENTRO =        -0.00000000
  eigenvalues    EBANDS =     -5211.67921796
  atomic energy  EATOM  =     37532.17946992
  Solvation  Ediel_sol  =         0.00000000
  ---------------------------------------------------
  free energy    TOTEN  =      -223.89710292 eV

  energy without entropy =     -223.89710292  energy(sigma->0) =     -223.89710292


--------------------------------------------------------------------------------------------------------




--------------------------------------- Iteration      1(  10)  ---------------------------------------


    POTLOK:  cpu time      0.0361: real time      0.0370
    SETDIJ:  cpu time      0.0304: real time      0.0305
     EDDAV:  cpu time     11.1280: real time     11.1848
       DOS:  cpu time      0.0005: real time      0.0005
    CHARGE:  cpu time      0.3270: real time      0.3289
    MIXING:  cpu time      0.0023: real time      0.0023
    --------------------------------------------
      LOOP:  cpu time     11.5243: real time     11.5840

 eigenvalue-minimisations  :  5312
 total energy-change (2. order) :-0.4293214E-02  (-0.1798642E-02)
 number of electron     448.0000022 magnetization 
 augmentation part      112.8604883 magnetization 

 Broyden mixing:
  rms(total) = 0.28458E-01    rms(broyden)= 0.28456E-01
  rms(prec ) = 0.30458E-01
  weight for this iteration     100.00

 eigenvalues of (default mixing * dielectric matrix)
  average eigenvalue GAMMA=   1.7100
  2.9349  2.5134  1.2969  1.0189  0.7857

 Free energy of the ion-electron system (eV)
  ---------------------------------------------------
  alpha Z        PSCENC =       751.52672365
  Ewald energy   TEWEN  =    -22871.33549161
  -Hartree energ DENC   =     -9079.42612359
  -exchange      EXHF   =         0.00000000
  -V(xc)+E(xc)   XCENC  =      1472.60429559
  PAW double counting   =     29455.44182951   -32274.68381076
  entropy T*S    EENTRO =        -0.00000000
  eigenvalues    EBANDS =     -5210.20828886
  atomic energy  EATOM  =     37532.17946992
  Solvation  Ediel_sol  =         0.00000000
  ---------------------------------------------------
  free energy    TOTEN  =      -223.90139614 eV

  energy without entropy =     -223.90139614  energy(sigma->0) =     -223.90139614


--------------------------------------------------------------------------------------------------------




--------------------------------------- Iteration      1(  11)  ---------------------------------------


    POTLOK:  cpu time      0.0362: real time      0.0376
    SETDIJ:  cpu time      0.0302: real time      0.0303
     EDDAV:  cpu time     12.1989: real time     12.2609
       DOS:  cpu time      0.0004: real time      0.0004
    CHARGE:  cpu time      0.3232: real time      0.3250
    MIXING:  cpu time      0.0016: real time      0.0016
    --------------------------------------------
      LOOP:  cpu time     12.5905: real time     12.6558

 eigenvalue-minimisations  :  5952
 total energy-change (2. order) : 0.6997373E-03  (-0.1528687E-03)
 number of electron     448.0000022 magnetization 
 augmentation part      112.8515285 magnetization 

 Broyden mixing:
  rms(total) = 0.86548E-02    rms(broyden)= 0.86547E-02
  rms(prec ) = 0.90804E-02
  weight for this iteration     100.00

 eigenvalues of (default mixing * dielectric matrix)
  average eigenvalue GAMMA=   1.5556
  2.9124  2.4558  1.3176  1.0101  0.8189  0.8189

 Free energy of the ion-electron system (eV)
  ---------------------------------------------------
  alpha Z        PSCENC =       751.52672365
  Ewald energy   TEWEN  =    -22871.33549161
  -Hartree energ DENC   =     -9078.34406216
  -exchange      EXHF   =         0.00000000
  -V(xc)+E(xc)   XCENC  =      1472.52956936
  PAW double counting   =     29487.10141440   -32306.48117140
  entropy T*S    EENTRO =        -0.00000000
  eigenvalues    EBANDS =     -5211.07714856
  atomic energy  EATOM  =     37532.17946992
  Solvation  Ediel_sol  =         0.00000000
  ---------------------------------------------------
  free energy    TOTEN  =      -223.90069640 eV

  energy without entropy =     -223.90069640  energy(sigma->0) =     -223.90069640


--------------------------------------------------------------------------------------------------------




--------------------------------------- Iteration      1(  12)  ---------------------------------------


    POTLOK:  cpu time      0.0361: real time      0.0363
    SETDIJ:  cpu time      0.0300: real time      0.0301
     EDDAV:  cpu time     12.0466: real time     12.1078
       DOS:  cpu time      0.0005: real time      0.0005
    CHARGE:  cpu time      0.3243: real time      0.3262
    MIXING:  cpu time      0.0020: real time      0.0020
    --------------------------------------------
      LOOP:  cpu time     12.4394: real time     12.5029

 eigenvalue-minimisations  :  5856
 total energy-change (2. order) : 0.3597810E-04  (-0.1363280E-04)
 number of electron     448.0000022 magnetization 
 augmentation part      112.8489786 magnetization 

 Broyden mixing:
  rms(total) = 0.18277E-02    rms(broyden)= 0.18271E-02
  rms(prec ) = 0.20959E-02
  weight for this iteration     100.00

 eigenvalues of (default mixing * dielectric matrix)
  average eigenvalue GAMMA=   1.5895
  2.8828  2.3985  1.6089  1.1595  1.1595  1.1067  0.8109

 Free energy of the ion-electron system (eV)
  ---------------------------------------------------
  alpha Z        PSCENC =       751.52672365
  Ewald energy   TEWEN  =    -22871.33549161
  -Hartree energ DENC   =     -9078.19990467
  -exchange      EXHF   =         0.00000000
  -V(xc)+E(xc)   XCENC  =      1472.51921672
  PAW double counting   =     29497.58511271   -32316.96173137
  entropy T*S    EENTRO =        -0.00000000
  eigenvalues    EBANDS =     -5211.21405578
  atomic energy  EATOM  =     37532.17946992
  Solvation  Ediel_sol  =         0.00000000
  ---------------------------------------------------
  free energy    TOTEN  =      -223.90066042 eV

  energy without entropy =     -223.90066042  energy(sigma->0) =     -223.90066042


--------------------------------------------------------------------------------------------------------




--------------------------------------- Iteration      1(  13)  ---------------------------------------


    POTLOK:  cpu time      0.0364: real time      0.0375
    SETDIJ:  cpu time      0.0304: real time      0.0305
     EDDAV:  cpu time     11.5714: real time     11.6305
       DOS:  cpu time      0.0004: real time      0.0004
    CHARGE:  cpu time      0.3281: real time      0.3300
    MIXING:  cpu time      0.0018: real time      0.0018
    --------------------------------------------
      LOOP:  cpu time     11.9685: real time     12.0307

 eigenvalue-minimisations  :  5568
 total energy-change (2. order) : 0.1325898E-05  (-0.2661965E-05)
 number of electron     448.0000022 magnetization 
 augmentation part      112.8477447 magnetization 

 Broyden mixing:
  rms(total) = 0.38057E-03    rms(broyden)= 0.37993E-03
  rms(prec ) = 0.44684E-03
  weight for this iteration     100.00

 eigenvalues of (default mixing * dielectric matrix)
  average eigenvalue GAMMA=   1.6071
  2.9790  2.2920  2.2920  1.1659  1.1224  0.9856  1.0100  1.0100

 Free energy of the ion-electron system (eV)
  ---------------------------------------------------
  alpha Z        PSCENC =       751.52672365
  Ewald energy   TEWEN  =    -22871.33549161
  -Hartree energ DENC   =     -9078.11285506
  -exchange      EXHF   =         0.00000000
  -V(xc)+E(xc)   XCENC  =      1472.51053862
  PAW double counting   =     29498.76427515   -32318.13912810
  entropy T*S    EENTRO =        -0.00000000
  eigenvalues    EBANDS =     -5211.29419167
  atomic energy  EATOM  =     37532.17946992
  Solvation  Ediel_sol  =         0.00000000
  ---------------------------------------------------
  free energy    TOTEN  =      -223.90065910 eV

  energy without entropy =     -223.90065910  energy(sigma->0) =     -223.90065910


--------------------------------------------------------------------------------------------------------




--------------------------------------- Iteration      1(  14)  ---------------------------------------


    POTLOK:  cpu time      0.0368: real time      0.0404
    SETDIJ:  cpu time      0.0302: real time      0.0303
     EDDAV:  cpu time     11.4053: real time     11.4636
       DOS:  cpu time      0.0003: real time      0.0003
    CHARGE:  cpu time      0.3236: real time      0.3255
    MIXING:  cpu time      0.0022: real time      0.0022
    --------------------------------------------
      LOOP:  cpu time     11.7984: real time     11.8623

 eigenvalue-minimisations  :  5472
 total energy-change (2. order) :-0.1518914E-05  (-0.2054317E-06)
 number of electron     448.0000022 magnetization 
 augmentation part      112.8477243 magnetization 

 Broyden mixing:
  rms(total) = 0.81585E-03    rms(broyden)= 0.81582E-03
  rms(prec ) = 0.83537E-03
  weight for this iteration     100.00

 eigenvalues of (default mixing * dielectric matrix)
  average eigenvalue GAMMA=   1.6404
  3.0160  2.6104  2.6104  1.3747  1.2175  1.2175  0.9594  0.9594  0.7979

 Free energy of the ion-electron system (eV)
  ---------------------------------------------------
  alpha Z        PSCENC =       751.52672365
  Ewald energy   TEWEN  =    -22871.33549161
  -Hartree energ DENC   =     -9078.13003752
  -exchange      EXHF   =         0.00000000
  -V(xc)+E(xc)   XCENC  =      1472.51247132
  PAW double counting   =     29499.98266297   -32319.35197831
  entropy T*S    EENTRO =        -0.00000000
  eigenvalues    EBANDS =     -5211.28448104
  atomic energy  EATOM  =     37532.17946992
  Solvation  Ediel_sol  =         0.00000000
  ---------------------------------------------------
  free energy    TOTEN  =      -223.90066062 eV

  energy without entropy =     -223.90066062  energy(sigma->0) =     -223.90066062


--------------------------------------------------------------------------------------------------------




--------------------------------------- Iteration      1(  15)  ---------------------------------------


    POTLOK:  cpu time      0.0363: real time      0.0371
    SETDIJ:  cpu time      0.0304: real time      0.0305
     EDDAV:  cpu time     11.1830: real time     11.2396
       DOS:  cpu time      0.0005: real time      0.0005
    CHARGE:  cpu time      0.3256: real time      0.3273
    MIXING:  cpu time      0.0015: real time      0.0015
    --------------------------------------------
      LOOP:  cpu time     11.5772: real time     11.6365

 eigenvalue-minimisations  :  5344
 total energy-change (2. order) :-0.1010143E-05  (-0.3083082E-07)
 number of electron     448.0000022 magnetization 
 augmentation part      112.8477598 magnetization 

 Broyden mixing:
  rms(total) = 0.41892E-03    rms(broyden)= 0.41889E-03
  rms(prec ) = 0.43030E-03
  weight for this iteration     100.00

 eigenvalues of (default mixing * dielectric matrix)
  average eigenvalue GAMMA=   1.6090
  3.0855  2.5964  2.5964  1.4167  1.3306  1.3306  0.9416  0.9416  0.9622  0.8879

 Free energy of the ion-electron system (eV)
  ---------------------------------------------------
  alpha Z        PSCENC =       751.52672365
  Ewald energy   TEWEN  =    -22871.33549161
  -Hartree energ DENC   =     -9078.15218440
  -exchange      EXHF   =         0.00000000
  -V(xc)+E(xc)   XCENC  =      1472.51287070
  PAW double counting   =     29499.15712721   -32318.52280009
  entropy T*S    EENTRO =        -0.00000000
  eigenvalues    EBANDS =     -5211.26637701
  atomic energy  EATOM  =     37532.17946992
  Solvation  Ediel_sol  =         0.00000000
  ---------------------------------------------------
  free energy    TOTEN  =      -223.90066163 eV

  energy without entropy =     -223.90066163  energy(sigma->0) =     -223.90066163


--------------------------------------------------------------------------------------------------------




--------------------------------------- Iteration      1(  16)  ---------------------------------------


    POTLOK:  cpu time      0.0369: real time      0.0378
    SETDIJ:  cpu time      0.0306: real time      0.0307
     EDDAV:  cpu time     11.6260: real time     11.6852
       DOS:  cpu time      0.0003: real time      0.0003
    CHARGE:  cpu time      0.3269: real time      0.3285
    MIXING:  cpu time      0.0021: real time      0.0021
    --------------------------------------------
      LOOP:  cpu time     12.0229: real time     12.0847

 eigenvalue-minimisations  :  5600
 total energy-change (2. order) :-0.6002811E-06  (-0.1558276E-07)
 number of electron     448.0000022 magnetization 
 augmentation part      112.8478374 magnetization 

 Broyden mixing:
  rms(total) = 0.88963E-04    rms(broyden)= 0.88848E-04
  rms(prec ) = 0.94434E-04
  weight for this iteration     100.00

 eigenvalues of (default mixing * dielectric matrix)
  average eigenvalue GAMMA=   1.6045
  3.1211  2.6635  2.4596  1.5507  1.5507  1.3642  1.1304  1.1304  0.9306  0.8744
  0.8744

 Free energy of the ion-electron system (eV)
  ---------------------------------------------------
  alpha Z        PSCENC =       751.52672365
  Ewald energy   TEWEN  =    -22871.33549161
  -Hartree energ DENC   =     -9078.16329632
  -exchange      EXHF   =         0.00000000
  -V(xc)+E(xc)   XCENC  =      1472.51332739
  PAW double counting   =     29498.47073109   -32317.83584976
  entropy T*S    EENTRO =        -0.00000000
  eigenvalues    EBANDS =     -5211.25627659
  atomic energy  EATOM  =     37532.17946992
  Solvation  Ediel_sol  =         0.00000000
  ---------------------------------------------------
  free energy    TOTEN  =      -223.90066223 eV

  energy without entropy =     -223.90066223  energy(sigma->0) =     -223.90066223


--------------------------------------------------------------------------------------------------------




--------------------------------------- Iteration      1(  17)  ---------------------------------------


    POTLOK:  cpu time      0.0364: real time      0.0367
    SETDIJ:  cpu time      0.0306: real time      0.0307
     EDDAV:  cpu time      9.0888: real time      9.1356
       DOS:  cpu time      0.0003: real time      0.0003
    CHARGE:  cpu time      0.3237: real time      0.3253
    MIXING:  cpu time      0.0018: real time      0.0018
    --------------------------------------------
      LOOP:  cpu time      9.4816: real time      9.5305

 eigenvalue-minimisations  :  4032
 total energy-change (2. order) :-0.1235239E-06  (-0.1378442E-08)
 number of electron     448.0000022 magnetization 
 augmentation part      112.8478560 magnetization 

 Broyden mixing:
  rms(total) = 0.19511E-04    rms(broyden)= 0.19014E-04
  rms(prec ) = 0.24889E-04
  weight for this iteration     100.00

 eigenvalues of (default mixing * dielectric matrix)
  average eigenvalue GAMMA=   1.6001
  3.1694  2.8724  2.2691  1.9666  1.3896  1.3896  1.2216  1.2216  0.9417  0.8835
  0.9383  0.9383

 Free energy of the ion-electron system (eV)
  ---------------------------------------------------
  alpha Z        PSCENC =       751.52672365
  Ewald energy   TEWEN  =    -22871.33549161
  -Hartree energ DENC   =     -9078.16625967
  -exchange      EXHF   =         0.00000000
  -V(xc)+E(xc)   XCENC  =      1472.51343361
  PAW double counting   =     29498.26142559   -32317.62627369
  entropy T*S    EENTRO =        -0.00000000
  eigenvalues    EBANDS =     -5211.25369016
  atomic energy  EATOM  =     37532.17946992
  Solvation  Ediel_sol  =         0.00000000
  ---------------------------------------------------
  free energy    TOTEN  =      -223.90066235 eV

  energy without entropy =     -223.90066235  energy(sigma->0) =     -223.90066235


--------------------------------------------------------------------------------------------------------




--------------------------------------- Iteration      1(  18)  ---------------------------------------


    POTLOK:  cpu time      0.0363: real time      0.0366
    SETDIJ:  cpu time      0.0307: real time      0.0309
     EDDAV:  cpu time      8.4682: real time      8.5114
       DOS:  cpu time      0.0004: real time      0.0004
    CHARGE:  cpu time      0.3263: real time      0.3281
    MIXING:  cpu time      0.0021: real time      0.0021
    --------------------------------------------
      LOOP:  cpu time      8.8640: real time      8.9095

 eigenvalue-minimisations  :  3648
 total energy-change (2. order) :-0.5272159E-07  (-0.8688203E-09)
 number of electron     448.0000022 magnetization 
 augmentation part      112.8478660 magnetization 

 Broyden mixing:
  rms(total) = 0.43599E-04    rms(broyden)= 0.43381E-04
  rms(prec ) = 0.45461E-04
  weight for this iteration     100.00

 eigenvalues of (default mixing * dielectric matrix)
  average eigenvalue GAMMA=   1.5577
  3.2228  2.8921  2.2722  2.2722  1.2299  1.2299  1.0418  1.0418  1.2071  1.2071
  0.9612  0.8363  0.8363

 Free energy of the ion-electron system (eV)
  ---------------------------------------------------
  alpha Z        PSCENC =       751.52672365
  Ewald energy   TEWEN  =    -22871.33549161
  -Hartree energ DENC   =     -9078.16855255
  -exchange      EXHF   =         0.00000000
  -V(xc)+E(xc)   XCENC  =      1472.51351002
  PAW double counting   =     29498.21060172   -32317.57525959
  entropy T*S    EENTRO =        -0.00000000
  eigenvalues    EBANDS =     -5211.25166397
  atomic energy  EATOM  =     37532.17946992
  Solvation  Ediel_sol  =         0.00000000
  ---------------------------------------------------
  free energy    TOTEN  =      -223.90066240 eV

  energy without entropy =     -223.90066240  energy(sigma->0) =     -223.90066240


--------------------------------------------------------------------------------------------------------




--------------------------------------- Iteration      1(  19)  ---------------------------------------


    POTLOK:  cpu time      0.0370: real time      0.0381
    SETDIJ:  cpu time      0.0305: real time      0.0307
     EDDAV:  cpu time      7.6164: real time      7.6552
       DOS:  cpu time      0.0004: real time      0.0004
    CHARGE:  cpu time      0.3256: real time      0.3276
    MIXING:  cpu time      0.0018: real time      0.0018
    --------------------------------------------
      LOOP:  cpu time      8.0119: real time      8.0538

 eigenvalue-minimisations  :  3136
 total energy-change (2. order) : 0.3912282E-07  (-0.3651619E-09)
 number of electron     448.0000022 magnetization 
 augmentation part      112.8478635 magnetization 

 Broyden mixing:
  rms(total) = 0.32854E-04    rms(broyden)= 0.32565E-04
  rms(prec ) = 0.33851E-04
  weight for this iteration     100.00

 eigenvalues of (default mixing * dielectric matrix)
  average eigenvalue GAMMA=   1.6495
  3.4462  2.9515  2.4830  2.4830  1.7126  1.7126  1.3133  1.1792  1.1792  0.8982
  0.8982  0.9932  0.9932  0.8494

 Free energy of the ion-electron system (eV)
  ---------------------------------------------------
  alpha Z        PSCENC =       751.52672365
  Ewald energy   TEWEN  =    -22871.33549161
  -Hartree energ DENC   =     -9078.16836380
  -exchange      EXHF   =         0.00000000
  -V(xc)+E(xc)   XCENC  =      1472.51351347
  PAW double counting   =     29498.23476597   -32317.59947301
  entropy T*S    EENTRO =        -0.00000000
  eigenvalues    EBANDS =     -5211.25180696
  atomic energy  EATOM  =     37532.17946992
  Solvation  Ediel_sol  =         0.00000000
  ---------------------------------------------------
  free energy    TOTEN  =      -223.90066236 eV

  energy without entropy =     -223.90066236  energy(sigma->0) =     -223.90066236


--------------------------------------------------------------------------------------------------------




--------------------------------------- Iteration      1(  20)  ---------------------------------------


    POTLOK:  cpu time      0.0370: real time      0.0408
    SETDIJ:  cpu time      0.0312: real time      0.0314
     EDDAV:  cpu time      7.9462: real time      7.9916
       DOS:  cpu time      0.0003: real time      0.0003
    CHARGE:  cpu time      0.3284: real time      0.3304
    MIXING:  cpu time      0.0021: real time      0.0022
    --------------------------------------------
      LOOP:  cpu time      8.3453: real time      8.3967

 eigenvalue-minimisations  :  3328
 total energy-change (2. order) : 0.4914182E-07  (-0.2493512E-09)
 number of electron     448.0000022 magnetization 
 augmentation part      112.8478602 magnetization 

 Broyden mixing:
  rms(total) = 0.15143E-04    rms(broyden)= 0.14505E-04
  rms(prec ) = 0.15144E-04
  weight for this iteration     100.00

 eigenvalues of (default mixing * dielectric matrix)
  average eigenvalue GAMMA=   1.6234
  3.7599  2.9876  2.5877  2.5319  1.4887  1.4887  1.2932  1.2932  1.3924  0.9710
  0.9710  0.9887  0.9887  0.8044  0.8044

 Free energy of the ion-electron system (eV)
  ---------------------------------------------------
  alpha Z        PSCENC =       751.52672365
  Ewald energy   TEWEN  =    -22871.33549161
  -Hartree energ DENC   =     -9078.16745352
  -exchange      EXHF   =         0.00000000
  -V(xc)+E(xc)   XCENC  =      1472.51346843
  PAW double counting   =     29498.27472066   -32317.63938148
  entropy T*S    EENTRO =        -0.00000000
  eigenvalues    EBANDS =     -5211.25271837
  atomic energy  EATOM  =     37532.17946992
  Solvation  Ediel_sol  =         0.00000000
  ---------------------------------------------------
  free energy    TOTEN  =      -223.90066231 eV

  energy without entropy =     -223.90066231  energy(sigma->0) =     -223.90066231


--------------------------------------------------------------------------------------------------------




--------------------------------------- Iteration      1(  21)  ---------------------------------------


    POTLOK:  cpu time      0.0363: real time      0.0367
    SETDIJ:  cpu time      0.0314: real time      0.0315
     EDDAV:  cpu time      7.5191: real time      7.5621
       DOS:  cpu time      0.0004: real time      0.0004
    CHARGE:  cpu time      0.3269: real time      0.3289
    MIXING:  cpu time      0.0019: real time      0.0020
    --------------------------------------------
      LOOP:  cpu time      7.9159: real time      7.9616

 eigenvalue-minimisations  :  3072
 total energy-change (2. order) : 0.1622539E-07  (-0.1729401E-09)
 number of electron     448.0000022 magnetization 
 augmentation part      112.8478588 magnetization 

 Broyden mixing:
  rms(total) = 0.87349E-05    rms(broyden)= 0.75758E-05
  rms(prec ) = 0.80569E-05
  weight for this iteration     100.00
  WARNING: grid for Broyden might be to small

 eigenvalues of (default mixing * dielectric matrix)
  average eigenvalue GAMMA=   1.5938
  4.0248  3.0075  2.7251  2.4280  1.6090  1.6090  1.2436  1.2436  1.2332  0.9944
  0.9944  0.9880  0.9880  0.7900  0.8111  0.8111

 Free energy of the ion-electron system (eV)
  ---------------------------------------------------
  alpha Z        PSCENC =       751.52672365
  Ewald energy   TEWEN  =    -22871.33549161
  -Hartree energ DENC   =     -9078.16708706
  -exchange      EXHF   =         0.00000000
  -V(xc)+E(xc)   XCENC  =      1472.51345324
  PAW double counting   =     29498.29001155   -32317.65469079
  entropy T*S    EENTRO =        -0.00000000
  eigenvalues    EBANDS =     -5211.25305119
  atomic energy  EATOM  =     37532.17946992
  Solvation  Ediel_sol  =         0.00000000
  ---------------------------------------------------
  free energy    TOTEN  =      -223.90066230 eV

  energy without entropy =     -223.90066230  energy(sigma->0) =     -223.90066230


--------------------------------------------------------------------------------------------------------




--------------------------------------- Iteration      1(  22)  ---------------------------------------


    POTLOK:  cpu time      0.0381: real time      0.0388
    SETDIJ:  cpu time      0.0321: real time      0.0323
     EDDAV:  cpu time      7.5277: real time      7.5661
       DOS:  cpu time      0.0003: real time      0.0003
[...]
         0         1         2         3         4         5         6         7         8         9
 total charge-density along one line
 
 pseudopotential strength for first ion, spin component:           1
-25.389  -0.000  -0.000   2.511   0.000   0.000   0.000   0.000
 -0.000 -25.389  -0.000   0.000   2.511   0.000   0.000   0.000
 -0.000  -0.000 -25.389   0.000   0.000   2.511   0.000   0.001
  2.511   0.000   0.000   6.528  -0.000  -0.000   0.000   0.000
  0.000   2.511   0.000  -0.000   6.528  -0.000  -0.000   0.000
  0.000   0.000   2.511  -0.000  -0.000   6.528  -0.000  -0.000
  0.000   0.000   0.000   0.000  -0.000  -0.000   1.428   6.993
  0.000   0.000   0.001   0.000   0.000  -0.000   6.993  33.989
 total augmentation occupancy for first ion, spin component:           1
  2.002   0.000   0.000   0.002   0.000   0.000  -0.000   0.000
  0.000   2.002   0.000   0.000   0.002   0.000  -0.000   0.000
  0.000   0.000   2.002   0.000   0.000   0.002  -0.001   0.000
  0.002   0.000   0.000   0.017   0.000   0.000   0.000  -0.000
  0.000   0.002   0.000   0.000   0.017   0.000  -0.000  -0.000
  0.000   0.000   0.002   0.000   0.000   0.017  -0.003   0.000
 -0.000  -0.000  -0.001   0.000  -0.000  -0.003   0.403  -0.001
  0.000   0.000   0.000  -0.000  -0.000   0.000  -0.001   0.000


------------------------ aborting loop because EDIFF is reached ----------------------------------------


    CHARGE:  cpu time      0.3246: real time      0.3266
    FORLOC:  cpu time      0.0112: real time      0.0112
    FORNL :  cpu time      2.2817: real time      2.2942
    STRESS:  cpu time     12.8103: real time     12.8757
    FORCOR:  cpu time      0.0433: real time      0.0435
    FORHAR:  cpu time      0.0173: real time      0.0173
    MIXING:  cpu time      0.0013: real time      0.0013
    OFIELD:  cpu time      0.0000: real time      0.0000

  FORCE on cell =-STRESS in cart. coord.  units (eV):
  Direction    XX          YY          ZZ          XY          YZ          ZX
  --------------------------------------------------------------------------------------
  Alpha Z   751.52672   751.52672   751.52672
  Ewald   -7623.77752 -7623.77752 -7623.91779     0.00266     0.00444     0.00444
  Hartree  3026.07441  3026.06688  3026.02567     0.00212     0.00339     0.00351
  E(xc)   -2014.34813 -2014.34813 -2014.34819     0.00000     0.00000     0.00000
  Local   -2024.95948 -2024.94963 -2024.77290    -0.00479    -0.00778    -0.00790
  n-local  1887.62616  1887.62586  1887.62050    -0.00000    -0.00001    -0.00002
  augment   687.00915   687.00936   687.00914     0.00000    -0.00010    -0.00010
  Kinetic  5310.52633  5310.52429  5310.52421    -0.00001    -0.00009    -0.00005
  Fock        0.00000     0.00000     0.00000     0.00000     0.00000     0.00000
  -------------------------------------------------------------------------------------
  Total      -0.32236    -0.32217    -0.33264    -0.00001    -0.00014    -0.00012
  in kB      -0.36723    -0.36701    -0.37894    -0.00001    -0.00016    -0.00013
  external pressure =       -0.37 kB  Pullay stress =        0.00 kB


 VOLUME and BASIS-vectors are now :
 -----------------------------------------------------------------------------
  energy-cutoff  :      341.21
  volume of cell :     1406.43
      direct lattice vectors                 reciprocal lattice vectors
    11.204002360  0.000000000  0.000000000     0.089253819  0.000000000  0.000000000
     0.000000000 11.204002360  0.000000000     0.000000000  0.089253819  0.000000000
     0.000000000  0.000000000 11.204002360     0.000000000  0.000000000  0.089253819

  length of vectors
    11.204002360 11.204002360 11.204002360     0.089253819  0.089253819  0.089253819


 FORCES acting on ions
    electron-ion (+dipol)            ewald-force                    non-local-force                 convergence-correction
 -----------------------------------------------------------------------------------------------
   -.419E+01 -.637E-01 -.163E+00   0.413E+01 0.630E-01 0.156E+00   0.121E+00 0.478E-03 0.600E-02   0.482E-05 0.400E-07 -.192E-05
   0.246E+00 0.140E+01 -.159E-01   -.250E+00 -.139E+01 0.153E-01   0.303E-02 -.108E-01 0.756E-03   0.194E-06 -.546E-06 -.236E-07
   0.246E+00 -.212E+01 0.437E+00   -.250E+00 0.200E+01 -.470E+00   0.303E-02 0.139E+00 0.269E-01   -.588E-07 0.655E-06 -.139E-05
   -.316E+00 0.964E+00 0.247E-02   0.323E+00 -.921E+00 -.259E-02   -.568E-02 -.375E-01 0.101E-03   -.901E-06 0.515E-06 0.288E-06
   -.330E+00 -.654E-01 0.166E+00   0.322E+00 0.646E-01 -.159E+00   0.633E-02 0.514E-03 -.603E-02   -.308E-05 -.811E-07 0.172E-05
   0.881E-02 0.100E+01 0.160E-01   -.877E-02 -.957E+00 -.153E-01   -.323E-04 -.381E-01 -.831E-03   -.821E-08 0.122E-05 0.125E-06
   0.246E+00 -.175E-01 -.438E+00   -.250E+00 0.185E-01 0.470E+00   0.303E-02 -.851E-03 -.268E-01   -.789E-07 -.386E-06 0.169E-05
   -.300E+00 0.115E+00 -.248E-02   0.308E+00 -.112E+00 0.259E-02   -.649E-02 -.264E-02 -.955E-04   -.307E-06 -.220E-05 -.251E-06
   0.444E-02 -.620E-01 0.168E+00   0.268E-02 0.614E-01 -.161E+00   -.578E-02 0.403E-03 -.608E-02   -.778E-07 -.228E-06 0.146E-05
   0.246E+00 -.737E+00 0.160E-02   -.250E+00 0.751E+00 -.158E-02   0.303E-02 -.112E-01 -.135E-04   0.519E-06 -.280E-06 -.342E-06
   0.881E-02 -.218E+01 0.395E-01   -.877E-02 0.206E+01 -.391E-01   -.353E-04 0.143E+00 -.410E-03   0.640E-07 0.132E-06 -.222E-06
   -.298E+00 -.302E+00 0.248E-02   0.306E+00 0.284E+00 -.259E-02   -.649E-02 0.155E-01 0.893E-04   -.125E-05 -.313E-06 0.335E-06
   0.103E+00 -.620E-01 -.168E+00   -.932E-01 0.614E-01 0.161E+00   -.811E-02 0.398E-03 0.608E-02   0.154E-05 -.650E-07 -.145E-05
   0.881E-02 -.339E+00 -.159E-02   -.877E-02 0.320E+00 0.158E-02   -.340E-04 0.160E-01 0.124E-04   -.191E-06 -.201E-06 0.437E-06
   0.881E-02 -.151E-01 -.395E-01   -.877E-02 0.162E-01 0.391E-01   -.345E-04 -.933E-03 0.406E-03   0.141E-06 0.615E-06 0.555E-07
   -.300E+00 -.996E-01 -.248E-02   0.308E+00 0.961E-01 0.259E-02   -.650E-02 0.286E-02 -.897E-04   -.292E-07 0.192E-05 -.343E-06
   0.617E+00 -.654E-01 -.166E+00   -.675E+00 0.646E-01 0.159E+00   0.498E-01 0.507E-03 0.603E-02   0.156E-06 -.166E-06 -.165E-05
   0.242E+00 -.333E+00 -.387E-03   -.247E+00 0.369E+00 0.398E-03   0.292E-02 -.301E-01 -.926E-05   -.191E-06 -.218E-05 -.416E-07
   0.242E+00 -.175E-01 -.445E+00   -.247E+00 0.185E-01 0.479E+00   0.292E-02 -.849E-03 -.273E-01   0.307E-07 -.162E-06 0.172E-05
   0.183E+00 0.960E+00 -.765E-03   -.189E+00 -.918E+00 0.777E-03   0.472E-02 -.377E-01 -.101E-04   0.774E-06 0.465E-06 0.625E-07
   0.293E+00 -.654E-01 0.166E+00   -.287E+00 0.646E-01 -.159E+00   -.482E-02 0.514E-03 -.603E-02   0.295E-05 0.105E-06 0.173E-05
   0.721E-02 0.731E-01 0.386E-03   -.709E-02 -.702E-01 -.398E-03   -.931E-04 -.230E-02 0.101E-04   -.313E-07 -.213E-05 -.150E-06
   0.242E+00 -.275E-02 0.445E+00   -.247E+00 0.273E-02 -.479E+00   0.293E-02 0.212E-04 0.273E-01   0.926E-07 -.137E-06 -.133E-05
   0.167E+00 0.112E+00 0.758E-03   -.174E+00 -.109E+00 -.777E-03   0.553E-02 -.275E-02 0.154E-04   0.156E-07 -.171E-05 0.348E-08
   -.413E-01 -.620E-01 0.168E+00   0.324E-01 0.614E-01 -.161E+00   0.729E-02 0.402E-03 -.608E-02   -.198E-05 0.488E-07 0.121E-05
   0.242E+00 0.348E+00 0.290E-03   -.247E+00 -.385E+00 -.274E-03   0.293E-02 0.303E-01 -.135E-04   -.566E-06 0.207E-05 0.764E-08
   0.721E-02 -.151E-01 -.397E-01   -.709E-02 0.162E-01 0.392E-01   -.929E-04 -.933E-03 0.428E-03   0.334E-06 0.193E-06 0.270E-06
   0.165E+00 -.299E+00 -.752E-03   -.172E+00 0.280E+00 0.777E-03   0.554E-02 0.156E-01 -.205E-04   0.967E-06 -.539E-06 -.243E-06
   -.107E+00 -.620E-01 -.168E+00   0.976E-01 0.614E-01 0.161E+00   0.811E-02 0.398E-03 0.608E-02   -.141E-05 -.439E-06 -.108E-05
   0.721E-02 -.574E-01 -.290E-03   -.709E-02 0.543E-01 0.274E-03   -.930E-04 0.252E-02 0.133E-04   0.168E-06 0.207E-05 0.125E-06
   0.721E-02 -.160E-02 0.397E-01   -.709E-02 0.163E-02 -.392E-01   -.927E-04 -.228E-04 -.428E-03   0.226E-07 0.226E-06 -.361E-06
   0.166E+00 -.963E-01 0.752E-03   -.173E+00 0.927E-01 -.777E-03   0.554E-02 0.297E-02 0.203E-04   0.344E-06 0.220E-05 0.460E-06
   0.627E-01 0.417E+01 0.154E+00   -.630E-01 -.413E+01 -.156E+00   0.583E-03 -.118E+00 0.317E-02   0.566E-06 0.461E-05 0.127E-06
   -.139E+01 -.256E+00 0.152E-01   0.139E+01 0.250E+00 -.153E-01   -.282E-02 0.921E-02 -.400E-04   0.639E-06 -.297E-06 0.137E-06
   -.910E+00 0.327E+00 -.263E-02   0.921E+00 -.323E+00 0.259E-02   -.165E-01 -.593E-02 0.659E-04   0.175E-05 0.312E-05 -.339E-07
   0.198E+01 -.256E+00 -.478E+00   -.200E+01 0.250E+00 0.470E+00   -.258E-02 0.923E-02 0.138E-01   -.385E-06 -.715E-06 -.145E-05
   0.643E-01 0.323E+00 -.157E+00   -.646E-01 -.322E+00 0.159E+00   0.597E-03 -.671E-03 -.325E-02   0.100E-06 0.210E-05 0.508E-06
   -.947E+00 -.872E-02 -.152E-01   0.957E+00 0.877E-02 0.153E-01   -.151E-01 -.853E-04 0.418E-04   0.772E-06 -.311E-08 -.617E-07
   -.111E+00 0.312E+00 0.264E-02   0.112E+00 -.308E+00 -.259E-02   -.145E-02 -.587E-02 -.765E-04   0.342E-06 0.203E-05 -.569E-07
   0.187E-01 -.256E+00 0.478E+00   -.185E-01 0.250E+00 -.470E+00   -.374E-03 0.922E-02 -.137E-01   -.277E-06 0.384E-06 0.138E-05
   0.643E-01 -.679E+00 0.157E+00   -.646E-01 0.675E+00 -.159E+00   0.598E-03 0.634E-02 0.325E-02   0.355E-06 -.477E-05 -.908E-06
   0.378E+00 -.252E+00 0.385E-03   -.369E+00 0.247E+00 -.398E-03   -.156E-01 0.930E-02 0.243E-04   0.155E-05 -.469E-06 -.590E-06
   -.906E+00 -.191E+00 0.782E-03   0.918E+00 0.189E+00 -.777E-03   -.165E-01 0.396E-02 -.845E-05   0.210E-05 -.231E-05 0.266E-07
   0.187E-01 -.252E+00 0.487E+00   -.185E-01 0.247E+00 -.479E+00   -.373E-03 0.930E-02 -.140E-01   0.368E-06 -.638E-06 0.113E-05
   0.643E-01 -.288E+00 -.157E+00   -.646E-01 0.287E+00 0.159E+00   0.596E-03 0.171E-02 -.325E-02   -.424E-06 -.180E-05 0.101E-05
   -.684E-01 -.701E-02 -.383E-03   0.702E-01 0.709E-02 0.398E-03   -.298E-02 -.125E-03 -.255E-04   0.219E-05 -.126E-06 0.107E-07
   -.108E+00 -.176E+00 -.781E-03   0.109E+00 0.174E+00 0.777E-03   -.153E-02 0.389E-02 0.802E-05   0.681E-06 -.237E-05 -.208E-06
   0.273E-02 -.252E+00 -.487E+00   -.273E-02 0.247E+00 0.479E+00   0.416E-05 0.930E-02 0.140E-01   0.635E-06 -.507E-06 -.624E-06
   0.611E-01 0.704E-02 -.159E+00   -.614E-01 -.268E-02 0.161E+00   0.543E-03 -.721E-02 -.330E-02   0.376E-06 0.357E-05 0.581E-06
   0.755E+00 -.256E+00 -.156E-02   -.751E+00 0.250E+00 0.158E-02   -.661E-02 0.921E-02 -.215E-04   -.803E-06 -.501E-06 -.909E-07
   0.280E+00 0.310E+00 -.263E-02   -.284E+00 -.306E+00 0.259E-02   0.704E-02 -.591E-02 0.707E-04   -.179E-05 0.291E-05 -.115E-06
   0.204E+01 -.871E-02 -.399E-01   -.206E+01 0.877E-02 0.391E-01   -.769E-02 -.863E-04 0.143E-02   -.270E-06 0.540E-07 -.117E-05
   0.611E-01 -.904E-01 0.159E+00   -.614E-01 0.932E-01 -.161E+00   0.542E-03 -.462E-02 0.330E-02   0.952E-07 0.178E-06 -.577E-06
   0.317E+00 -.872E-02 0.156E-02   -.320E+00 0.877E-02 -.158E-02   0.568E-02 -.838E-04 0.270E-04   -.703E-06 0.141E-06 0.128E-06
   0.951E-01 0.311E+00 0.264E-02   -.961E-01 -.308E+00 -.259E-02   0.159E-02 -.589E-02 -.776E-04   -.142E-05 0.323E-05 -.535E-08
   0.164E-01 -.872E-02 0.399E-01   -.162E-01 0.877E-02 -.391E-01   -.450E-03 -.840E-04 -.143E-02   0.257E-06 -.167E-06 0.128E-05
   0.611E-01 0.274E-01 -.159E+00   -.614E-01 -.324E-01 0.161E+00   0.542E-03 0.825E-02 -.330E-02   -.104E-06 -.322E-05 0.938E-06
   -.394E+00 -.252E+00 -.273E-03   0.385E+00 0.247E+00 0.274E-03   0.157E-01 0.930E-02 -.170E-05   -.224E-05 0.964E-06 0.241E-06
   0.276E+00 -.174E+00 0.781E-03   -.280E+00 0.172E+00 -.777E-03   0.712E-02 0.395E-02 -.823E-05   -.263E-05 -.257E-05 0.467E-06
   0.164E-01 -.701E-02 0.400E-01   -.162E-01 0.709E-02 -.392E-01   -.448E-03 -.126E-03 -.145E-02   0.677E-06 -.551E-06 0.222E-05
   0.611E-01 0.948E-01 0.159E+00   -.614E-01 -.976E-01 -.161E+00   0.543E-03 0.465E-02 0.330E-02   0.991E-07 -.289E-06 -.904E-06
   0.524E-01 -.701E-02 0.274E-03   -.543E-01 0.709E-02 -.274E-03   0.312E-02 -.125E-03 0.102E-05   -.229E-05 -.223E-06 -.380E-06
   0.917E-01 -.175E+00 -.781E-03   -.927E-01 0.173E+00 0.777E-03   0.168E-02 0.392E-02 0.809E-05   -.287E-06 -.313E-05 -.524E-06
   0.165E-02 -.701E-02 -.401E-01   -.163E-02 0.709E-02 0.392E-01   -.230E-04 -.127E-03 0.145E-02   -.270E-06 0.347E-07 -.198E-05
 -----------------------------------------------------------------------------------------------
   -.150E+00 -.150E+00 0.886E-04   0.115E-12 -.500E-13 0.131E-12   0.149E+00 0.150E+00 -.929E-04   0.263E-05 -.620E-06 0.141E-05
 
 
 POSITION                                       TOTAL-FORCE (eV/Angst)
 -----------------------------------------------------------------------------------
     11.17400      0.00000      0.00000         0.061548     -0.000223     -0.001267
      2.80100      2.80100      0.00000        -0.001509     -0.000793      0.000094
      2.80100      0.00000      2.80100        -0.001510      0.016205     -0.005806
      0.00000      2.80100      2.80100         0.001753      0.004990     -0.000022
      0.00000      0.00000      5.60200        -0.001241     -0.000237      0.001289
      2.80100      2.80100      5.60200         0.000020      0.005087     -0.000084
      2.80100      0.00000      8.40300        -0.001509      0.000151      0.005802
      0.00000      2.80100      8.40300         0.001666      0.000588      0.000021
      0.00000      5.60200      0.00000         0.001352     -0.000214      0.001299
      2.80100      8.40300      0.00000        -0.001509      0.002967      0.000004
      2.80100      5.60200      2.80100         0.000021      0.020280      0.000075
      0.00000      8.40300      2.80100         0.001667     -0.002813     -0.000020
      0.00000      5.60200      5.60200         0.001752     -0.000213     -0.001299
      2.80100      8.40300      5.60200         0.000021     -0.002908     -0.000003
      2.80100      5.60200      8.40300         0.000021      0.000168     -0.000073
      0.00000      8.40300      8.40300         0.001667     -0.000650      0.000020
      5.60200      0.00000      0.00000        -0.007625     -0.000235     -0.001295
      8.40300      2.80100      0.00000        -0.001513      0.006533      0.000002
      8.40300      0.00000      2.80100        -0.001512      0.000151      0.005926
      5.60200      2.80100      2.80100        -0.001251      0.005016      0.000002
      5.60200      0.00000      5.60200         0.000982     -0.000237      0.001290
      8.40300      2.80100      5.60200         0.000034      0.000529     -0.000002
      8.40300      0.00000      8.40300        -0.001513     -0.000004     -0.005926
      5.60200      2.80100      8.40300        -0.001165      0.000612     -0.000004
      5.60200      5.60200      0.00000        -0.001608     -0.000213      0.001299
      8.40300      8.40300      0.00000        -0.001513     -0.006595      0.000003
      8.40300      5.60200      2.80100         0.000034      0.000168     -0.000078
      5.60200      8.40300      2.80100        -0.001167     -0.002838      0.000005
      5.60200      5.60200      5.60200        -0.001740     -0.000213     -0.001298
      8.40300      8.40300      5.60200         0.000034     -0.000592     -0.000003
      8.40300      5.60200      8.40300         0.000034      0.000006      0.000078
      5.60200      8.40300      8.40300        -0.001166     -0.000674     -0.000004
      2.80100      2.83100      2.80100         0.000235     -0.074774      0.001249
      0.00000      0.00000      2.80100         0.000727      0.003852     -0.000112
      0.00000      2.80100      0.00000        -0.004977     -0.002456      0.000028
      2.80100      0.00000      0.00000        -0.016182      0.003867      0.005742
      2.80100      2.80100      8.40300         0.000241     -0.000266     -0.001285
      0.00000      0.00000      8.40300        -0.004435     -0.000037      0.000121
      0.00000      2.80100      5.60200        -0.000565     -0.002327     -0.000031
      2.80100      0.00000      5.60200        -0.000139      0.003863     -0.005735
      2.80100      8.40300      2.80100         0.000241      0.002559      0.001286
      0.00000      5.60200      2.80100        -0.006481      0.003917      0.000011
      0.00000      8.40300      0.00000        -0.005008      0.001669     -0.000004
      2.80100      5.60200      0.00000        -0.000140      0.003918     -0.005883
      2.80100      8.40300      8.40300         0.000242      0.000677     -0.001284
      0.00000      5.60200      8.40300        -0.001174     -0.000053     -0.000010
      0.00000      8.40300      5.60200        -0.000602      0.001537      0.000004
      2.80100      5.60200      5.60200         0.000012      0.003917      0.005884
      8.40300      2.80100      2.80100         0.000219     -0.002856     -0.001305
      5.60200      0.00000      2.80100        -0.002894      0.003859     -0.000008
      5.60200      2.80100      0.00000         0.002808     -0.002348      0.000030
      8.40300      0.00000      0.00000        -0.020226     -0.000037      0.000565
      8.40300      2.80100      8.40300         0.000219     -0.001826      0.001305
      5.60200      0.00000      8.40300         0.002268     -0.000038      0.000012
      5.60200      2.80100      5.60200         0.000640     -0.002339     -0.000032
      8.40300      0.00000      5.60200        -0.000171     -0.000037     -0.000568
      8.40300      8.40300      2.80100         0.000219      0.003266     -0.001307
      5.60200      5.60200      2.80100         0.006556      0.003916     -0.000000
      5.60200      8.40300      0.00000         0.002841      0.001559     -0.000004
      8.40300      5.60200      0.00000        -0.000171     -0.000053     -0.000576
      8.40300      8.40300      8.40300         0.000219      0.001834      0.001305
      5.60200      5.60200      8.40300         0.001248     -0.000053      0.000001
      5.60200      8.40300      5.60200         0.000676      0.001549      0.000004
      8.40300      5.60200      5.60200         0.000001     -0.000053      0.000576
 -----------------------------------------------------------------------------------
    total drift:                               -0.000584      0.000202     -0.000003


--------------------------------------------------------------------------------------------------------



  FREE ENERGIE OF THE ION-ELECTRON SYSTEM (eV)
  ---------------------------------------------------
  free  energy   TOTEN  =      -223.90066230 eV

  energy  without entropy=     -223.90066230  energy(sigma->0) =     -223.90066230
 


--------------------------------------------------------------------------------------------------------


    POTLOK:  cpu time      0.0692: real time      0.0696


--------------------------------------------------------------------------------------------------------


     LOOP+:  cpu time    254.7863: real time    256.1357
    4ORBIT:  cpu time      0.0000: real time      0.0000

 total amount of memory used by VASP MPI-rank0   129658. kBytes
=======================================================================

   base      :      30000. kBytes
   nonl-proj :      41680. kBytes
   fftplans  :      14405. kBytes
   grid      :      19342. kBytes
   one-center:        196. kBytes
   wavefun   :      24035. kBytes
 
  
  
 General timing and accounting informations for this job:
 ========================================================
  
                  Total CPU time used (sec):      259.165
                            User time (sec):      258.561
                          System time (sec):        0.604
                         Elapsed time (sec):      260.947
  
                   Maximum memory used (kb):      318488.
                   Average memory used (kb):          N/A
  
                          Minor page faults:       128285
                          Major page faults:            0
                 Voluntary context switches:          892
