<?xml version="1.0" encoding="ISO-8859-1"?>
<modeling>
 <generator>
  <i name="program" type="string">vasp </i>
  <i name="version" type="string">6.3.2  </i>
  <i name="subversion" type="string">27Jun22 (build Oct 14 2022 12:13:54) complex                          parallel </i>
  <i name="platform" type="string">LinuxIFC </i>
  <i name="date" type="string">2025 08 28 </i>
  <i name="time" type="string">22:03:32 </i>
 </generator>
 <incar>
  <i type="string" name="PREC">Accurate</i>
  <i type="int" name="IALGO">    38</i>
  <i type="logical" name="ADDGRID"> T  </i>
  <i type="int" name="NELMIN">     5</i>
  <i type="int" name="IBRION">    -1</i>
  <i name="EDIFF">      0.00000001</i>
  <i name="ENCUT">    341.21360000</i>
  <i type="logical" name="LREAL"> F  </i>
  <i type="int" name="ISMEAR">     0</i>
  <i name="SIGMA">      0.02000000</i>
  <i type="logical" name="LWAVE"> F  </i>
  <i type="logical" name="LCHARG"> F  </i>
  <i type="string" name="GGA">PS</i>
 </incar>
 <primitive_cell>
  <structure name="primitive_cell" >
   <crystal>
    <varray name="basis" >
     <v>      11.20400236       0.00000000       0.00000000 </v>
     <v>       0.00000000      11.20400236       0.00000000 </v>
     <v>       0.00000000       0.00000000      11.20400236 </v>
    </varray>
    <i name="volume">   1406.43470641 </i>
    <varray name="rec_basis" >
     <v>       0.08925382       0.00000000       0.00000000 </v>
     <v>       0.00000000       0.08925382       0.00000000 </v>
     <v>       0.00000000       0.00000000       0.08925382 </v>
    </varray>
   </crystal>
   <varray name="positions" >
    <v>       0.99732239       0.00000000       0.00000000 </v>
    <v>       0.25000000       0.25000000       0.00000000 </v>
    <v>       0.25000000       0.00000000       0.25000000 </v>
    <v>       0.00000000       0.25000000       0.25000000 </v>
    <v>       0.00000000       0.00000000       0.50000000 </v>
    <v>       0.25000000       0.25000000       0.50000000 </v>
    <v>       0.25000000       0.00000000       0.75000000 </v>
    <v>       0.00000000       0.25000000       0.75000000 </v>
    <v>       0.00000000       0.50000000       0.00000000 </v>
    <v>       0.25000000       0.75000000       0.00000000 </v>
    <v>       0.25000000       0.50000000       0.25000000 </v>
    <v>       0.00000000       0.75000000       0.25000000 </v>
    <v>       0.00000000       0.50000000       0.50000000 </v>
    <v>       0.25000000       0.75000000       0.50000000 </v>
    <v>       0.25000000       0.50000000       0.75000000 </v>
    <v>       0.00000000       0.75000000       0.75000000 </v>
    <v>       0.50000000       0.00000000       0.00000000 </v>
    <v>       0.75000000       0.25000000       0.00000000 </v>
    <v>       0.75000000       0.00000000       0.25000000 </v>
    <v>       0.50000000       0.25000000       0.25000000 </v>
    <v>       0.50000000       0.00000000       0.50000000 </v>
    <v>       0.75000000       0.25000000       0.50000000 </v>
    <v>       0.75000000       0.00000000       0.75000000 </v>
    <v>       0.50000000       0.25000000       0.75000000 </v>
    <v>       0.50000000       0.50000000       0.00000000 </v>
    <v>       0.75000000       0.75000000       0.00000000 </v>
    <v>       0.75000000       0.50000000       0.25000000 </v>
    <v>       0.50000000       0.75000000       0.25000000 </v>
    <v>       0.50000000       0.50000000       0.50000000 </v>
    <v>       0.75000000       0.75000000       0.50000000 </v>
    <v>       0.75000000       0.50000000       0.75000000 </v>
    <v>       0.50000000       0.75000000       0.75000000 </v>
    <v>       0.25000000       0.25267761       0.25000000 </v>
    <v>       0.00000000       0.00000000       0.25000000 </v>
    <v>       0.00000000       0.25000000       0.00000000 </v>
    <v>       0.25000000       0.00000000       0.00000000 </v>
    <v>       0.25000000       0.25000000       0.75000000 </v>
    <v>       0.00000000       0.00000000       0.75000000 </v>
    <v>       0.00000000       0.25000000       0.50000000 </v>
    <v>       0.25000000       0.00000000       0.50000000 </v>
    <v>       0.25000000       0.75000000       0.25000000 </v>
    <v>       0.00000000       0.50000000       0.25000000 </v>
    <v>       0.00000000       0.75000000       0.00000000 </v>
    <v>       0.25000000       0.50000000       0.00000000 </v>
    <v>       0.25000000       0.75000000       0.75000000 </v>
    <v>       0.00000000       0.50000000       0.75000000 </v>
    <v>       0.00000000       0.75000000       0.50000000 </v>
    <v>       0.25000000       0.50000000       0.50000000 </v>
    <v>       0.75000000       0.25000000       0.25000000 </v>
    <v>       0.50000000       0.00000000       0.25000000 </v>
    <v>       0.50000000       0.25000000       0.00000000 </v>
    <v>       0.75000000       0.00000000       0.00000000 </v>
    <v>       0.75000000       0.25000000       0.75000000 </v>
    <v>       0.50000000       0.00000000       0.75000000 </v>
    <v>       0.50000000       0.25000000       0.50000000 </v>
    <v>       0.75000000       0.00000000       0.50000000 </v>
    <v>       0.75000000       0.75000000       0.25000000 </v>
    <v>       0.50000000       0.50000000       0.25000000 </v>
    <v>       0.50000000       0.75000000       0.00000000 </v>
    <v>       0.75000000       0.50000000       0.00000000 </v>
    <v>       0.75000000       0.75000000       0.75000000 </v>
    <v>       0.50000000       0.50000000       0.75000000 </v>
    <v>       0.50000000       0.75000000       0.50000000 </v>
    <v>       0.75000000       0.50000000       0.50000000 </v>
   </varray>
  </structure>
  <varray name="primitive_index" >
   <v type="int" >        1 </v>
   <v type="int" >        2 </v>
   <v type="int" >        3 </v>
   <v type="int" >        4 </v>
   <v type="int" >        5 </v>
   <v type="int" >        6 </v>
   <v type="int" >        7 </v>
   <v type="int" >        8 </v>
   <v type="int" >        9 </v>
   <v type="int" >       10 </v>
   <v type="int" >       11 </v>
   <v type="int" >       12 </v>
   <v type="int" >       13 </v>
   <v type="int" >       14 </v>
   <v type="int" >       15 </v>
   <v type="int" >       16 </v>
   <v type="int" >       17 </v>
   <v type="int" >       18 </v>
   <v type="int" >       19 </v>
   <v type="int" >       20 </v>
   <v type="int" >       21 </v>
   <v type="int" >       22 </v>
   <v type="int" >       23 </v>
   <v type="int" >       24 </v>
   <v type="int" >       25 </v>
   <v type="int" >       26 </v>
   <v type="int" >       27 </v>
   <v type="int" >       28 </v>
   <v type="int" >       29 </v>
   <v type="int" >       30 </v>
   <v type="int" >       31 </v>
   <v type="int" >       32 </v>
   <v type="int" >       33 </v>
   <v type="int" >       34 </v>
   <v type="int" >       35 </v>
   <v type="int" >       36 </v>
   <v type="int" >       37 </v>
   <v type="int" >       38 </v>
   <v type="int" >       39 </v>
   <v type="int" >       40 </v>
   <v type="int" >       41 </v>
   <v type="int" >       42 </v>
   <v type="int" >       43 </v>
   <v type="int" >       44 </v>
   <v type="int" >       45 </v>
   <v type="int" >       46 </v>
   <v type="int" >       47 </v>
   <v type="int" >       48 </v>
   <v type="int" >       49 </v>
   <v type="int" >       50 </v>
   <v type="int" >       51 </v>
   <v type="int" >       52 </v>
   <v type="int" >       53 </v>
   <v type="int" >       54 </v>
   <v type="int" >       55 </v>
   <v type="int" >       56 </v>
   <v type="int" >       57 </v>
   <v type="int" >       58 </v>
   <v type="int" >       59 </v>
   <v type="int" >       60 </v>
   <v type="int" >       61 </v>
   <v type="int" >       62 </v>
   <v type="int" >       63 </v>
   <v type="int" >       64 </v>
  </varray>
 </primitive_cell>
 <kpoints>
  <generation param="Gamma">
   <v type="int" name="divisions">       2        2        2 </v>
   <v name="usershift">      0.00000000       0.00000000       0.00000000 </v>
   <v name="genvec1">      0.50000000       0.00000000       0.00000000 </v>
   <v name="genvec2">      0.00000000       0.50000000       0.00000000 </v>
   <v name="genvec3">      0.00000000       0.00000000       0.50000000 </v>
   <v name="shift">      0.00000000       0.00000000       0.00000000 </v>
  </generation>
  <varray name="kpointlist" >
   <v>       0.00000000       0.00000000       0.00000000 </v>
   <v>       0.50000000       0.00000000       0.00000000 </v>
   <v>       0.00000000       0.50000000       0.00000000 </v>
   <v>       0.00000000       0.00000000       0.50000000 </v>
   <v>       0.50000000       0.50000000       0.00000000 </v>
   <v>       0.00000000       0.50000000       0.50000000 </v>
   <v>       0.50000000       0.00000000       0.50000000 </v>
   <v>       0.50000000       0.50000000       0.50000000 </v>
  </varray>
  <varray name="weights" >
   <v>       0.12500000 </v>
   <v>       0.12500000 </v>
   <v>       0.12500000 </v>
   <v>       0.12500000 </v>
   <v>       0.12500000 </v>
   <v>       0.12500000 </v>
   <v>       0.12500000 </v>
   <v>       0.12500000 </v>
  </varray>
 </kpoints>
 <parameters>
  <separator name="general" >
   <i type="string" name="SYSTEM">unknown system</i>
   <i type="logical" name="LCOMPAT"> F  </i>
  </separator>
  <separator name="electronic" >
   <i type="string" name="PREC">accura</i>
   <i name="ENMAX">    341.21360000</i>
   <i name="ENAUG">    368.05600000</i>
   <i name="EDIFF">      0.00000001</i>
   <i type="int" name="IALGO">    38</i>
   <i type="int" name="IWAVPR">    10</i>
   <i type="int" name="NBANDS">   288</i>
   <i type="int" name="NBANDSLOW">    -1</i>
   <i type="int" name="NBANDSHIGH">    -1</i>
   <i name="NELECT">    448.00000000</i>
   <i type="int" name="TURBO">     0</i>
   <i type="int" name="IRESTART">     0</i>
   <i type="int" name="NREBOOT">     0</i>
   <i type="int" name="NMIN">     0</i>
   <i name="EREF">      0.00000000</i>
   <separator name="electronic smearing" >
    <i type="int" name="ISMEAR">     0</i>
    <i name="SIGMA">      0.02000000</i>
    <i name="KSPACING">      0.50000000</i>
    <i type="logical" name="KGAMMA"> T  </i>
    <i type="logical" name="KBLOWUP"> T  </i>
   </separator>
   <separator name="electronic projectors" >
    <i type="logical" name="LREAL"> F  </i>
    <v name="ROPT">      0.00000000      0.00000000</v>
    <i type="int" name="LMAXPAW">  -100</i>
    <i type="int" name="LMAXMIX">     2</i>
    <i type="logical" name="NLSPLINE"> F  </i>
   </separator>
   <separator name="electronic startup" >
    <i type="int" name="ISTART">     0</i>
    <i type="int" name="ICHARG">     2</i>
    <i type="int" name="INIWAV">     1</i>
   </separator>
   <separator name="electronic spin" >
    <i type="int" name="ISPIN">     1</i>
    <i type="logical" name="LNONCOLLINEAR"> F  </i>
    <v name="MAGMOM">      1.00000000      1.00000000      1.00000000      1.00000000      1.00000000      1.00000000      1.00000000      1.00000000      1.00000000      1.00000000      1.00000000      1.00000000      1.00000000      1.00000000      1.00000000      1.00000000      1.00000000      1.00000000      1.00000000      1.00000000
      1.00000000      1.00000000      1.00000000      1.00000000      1.00000000      1.00000000      1.00000000      1.00000000      1.00000000      1.00000000      1.00000000      1.00000000      1.00000000      1.00000000      1.00000000      1.00000000      1.00000000      1.00000000      1.00000000      1.00000000
      1.00000000      1.00000000      1.00000000      1.00000000      1.00000000      1.00000000      1.00000000      1.00000000      1.00000000      1.00000000      1.00000000      1.00000000      1.00000000      1.00000000      1.00000000      1.00000000      1.00000000      1.00000000      1.00000000      1.00000000
      1.00000000      1.00000000      1.00000000      1.00000000</v>
    <i name="NUPDOWN">     -1.00000000</i>
    <i type="logical" name="LSORBIT"> F  </i>
    <v name="SAXIS">      0.00000000      0.00000000      1.00000000</v>
    <i type="logical" name="LSPIRAL"> F  </i>
    <v name="QSPIRAL">      0.00000000      0.00000000      0.00000000</v>
    <i type="logical" name="LZEROZ"> F  </i>
   </separator>
   <separator name="electronic exchange-correlation" >
    <i type="logical" name="LASPH"> F  </i>
    <i type="logical" name="LMETAGGA"> F  </i>
   </separator>
   <separator name="electronic convergence" >
    <i type="int" name="NELM">    60</i>
    <i type="int" name="NELMDL">    -5</i>
    <i type="int" name="NELMIN">     5</i>
    <i name="ENINI">    341.21360000</i>
    <separator name="electronic convergence detail" >
     <i type="logical" name="LDIAG"> T  </i>
     <i type="logical" name="LSUBROT"> F  </i>
     <i name="WEIMIN">      0.00000000</i>
     <i name="EBREAK">      0.00000000</i>
     <i name="DEPER">      0.30000000</i>
     <i type="int" name="NRMM">     4</i>
     <i name="TIME">      0.40000000</i>
    </separator>
   </separator>
   <separator name="electronic mixer" >
    <i name="AMIX">      0.40000000</i>
    <i name="BMIX">      1.00000000</i>
    <i name="AMIN">      0.10000000</i>
    <i name="AMIX_MAG">      1.60000000</i>
    <i name="BMIX_MAG">      1.00000000</i>
    <separator name="electronic mixer details" >
     <i type="int" name="IMIX">     4</i>
     <i type="logical" name="MIXFIRST"> F  </i>
     <i type="int" name="MAXMIX">   -45</i>
     <i name="WC">    100.00000000</i>
     <i type="int" name="INIMIX">     1</i>
     <i type="int" name="MIXPRE">     1</i>
     <i type="int" name="MREMOVE">     5</i>
    </separator>
   </separator>
   <separator name="electronic dipolcorrection" >
    <i type="logical" name="LDIPOL"> F  </i>
    <i type="logical" name="LMONO"> F  </i>
    <i type="int" name="IDIPOL">     0</i>
    <i name="EPSILON">      1.00000000</i>
    <v name="DIPOL">   -100.00000000   -100.00000000   -100.00000000</v>
    <i name="EFIELD">      0.00000000</i>
   </separator>
  </separator>
  <separator name="grids" >
   <i type="int" name="NGX">    70</i>
   <i type="int" name="NGY">    70</i>
   <i type="int" name="NGZ">    70</i>
   <i type="int" name="NGXF">   140</i>
   <i type="int" name="NGYF">   140</i>
   <i type="int" name="NGZF">   140</i>
   <i type="logical" name="ADDGRID"> T  </i>
  </separator>
  <separator name="ionic" >
   <i type="int" name="NSW">     0</i>
   <i type="int" name="IBRION">    -1</i>
   <i type="int" name="MDALGO">     0</i>
   <i type="int" name="ISIF">     2</i>
   <i name="PSTRESS">      0.00000000</i>
   <i name="EDIFFG">      0.00000010</i>
   <i type="int" name="NFREE">     0</i>
   <i name="POTIM">      0.50000000</i>
   <i name="SMASS">     -3.00000000</i>
   <i name="SCALEE">      1.00000000</i>
  </separator>
  <separator name="ionic md" >
   <i name="TEBEG">      0.00010000</i>
   <i name="TEEND">      0.00010000</i>
   <i type="int" name="NBLOCK">     1</i>
   <i type="int" name="KBLOCK">     1</i>
   <i type="int" name="NPACO">   256</i>
   <i name="APACO">     10.00000000</i>
  </separator>
  <separator name="symmetry" >
   <i type="int" name="ISYM">     2</i>
   <i name="SYMPREC">      0.00001000</i>
  </separator>
  <separator name="dos" >
   <i type="int" name="LORBIT">     0</i>
   <v name="RWIGS">     -1.00000000     -1.00000000</v>
   <i type="int" name="NEDOS">   301</i>
   <i name="EMIN">     10.00000000</i>
   <i name="EMAX">    -10.00000000</i>
   <i name="EFERMI">      0.00000000</i>
  </separator>
  <separator name="writing" >
   <i type="int" name="NWRITE">     2</i>
   <i type="logical" name="LWAVE"> F  </i>
   <i type="logical" name="LDOWNSAMPLE"> F  </i>
   <i type="logical" name="LCHARG"> F  </i>
   <i type="logical" name="LPARD"> F  </i>
   <i type="logical" name="LVTOT"> F  </i>
   <i type="logical" name="LVHAR"> F  </i>
   <i type="logical" name="LELF"> F  </i>
   <i type="logical" name="LOPTICS"> F  </i>
   <v name="STM">      0.00000000      0.00000000      0.00000000      0.00000000      0.00000000      0.00000000      0.00000000</v>
  </separator>
  <separator name="performance" >
   <i type="int" name="NPAR">    32</i>
   <i type="int" name="NSIM">     4</i>
   <i type="int" name="NBLK">    -1</i>
   <i type="logical" name="LPLANE"> T  </i>
   <i type="logical" name="LSCALAPACK"> T  </i>
   <i type="logical" name="LSCAAWARE"> F  </i>
   <i type="logical" name="LSCALU"> F  </i>
   <i type="logical" name="LASYNC"> F  </i>
   <i type="logical" name="LORBITALREAL"> F  </i>
  </separator>
  <separator name="miscellaneous" >
   <i type="int" name="IDIOT">     3</i>
   <i type="int" name="PHON_NSTRUCT">    -1</i>
   <i type="logical" name="LMUSIC"> F  </i>
   <v name="POMASS">     22.99000000     35.45300000</v>
   <v name="DARWINR">      0.00000000      0.00000000</v>
   <v name="DARWINV">      1.00000000      1.00000000</v>
   <i type="logical" name="LCORR"> T  </i>
  </separator>
  <i type="logical" name="GGA_COMPAT"> T  </i>
  <i type="logical" name="LBERRY"> F  </i>
  <i type="int" name="ICORELEVEL">     0</i>
  <i type="logical" name="LDAU"> F  </i>
  <i type="int" name="I_CONSTRAINED_M">     0</i>
  <separator name="electronic exchange-correlation" >
   <i type="string" name="GGA">PS</i>
   <i type="int" name="VOSKOWN">     0</i>
   <i type="logical" name="LHFCALC"> F  </i>
   <i type="string" name="PRECFOCK"></i>
   <i type="logical" name="LSYMGRAD"> F  </i>
   <i type="logical" name="LHFONE"> F  </i>
   <i type="logical" name="LRHFCALC"> F  </i>
   <i type="logical" name="LTHOMAS"> F  </i>
   <i type="logical" name="LMODELHF"> F  </i>
   <i type="logical" name="LFOCKACE"> F  </i>
   <i name="ENCUT4O">     -1.00000000</i>
   <i type="int" name="EXXOEP">     0</i>
   <i type="int" name="FOURORBIT">     0</i>
   <i name="AEXX">      0.00000000</i>
   <i name="HFALPHA">      0.00000000</i>
   <i name="MCALPHA">      0.00000000</i>
   <i name="ALDAX">      1.00000000</i>
   <i name="AGGAX">      1.00000000</i>
   <i name="ALDAC">      1.00000000</i>
   <i name="AGGAC">      1.00000000</i>
   <i type="int" name="NKREDX">     1</i>
   <i type="int" name="NKREDY">     1</i>
   <i type="int" name="NKREDZ">     1</i>
   <i type="logical" name="SHIFTRED"> F  </i>
   <i type="logical" name="ODDONLY"> F  </i>
   <i type="logical" name="EVENONLY"> F  </i>
   <i type="int" name="LMAXFOCK">     0</i>
   <i type="int" name="NMAXFOCKAE">     0</i>
   <i type="logical" name="LFOCKAEDFT"> F  </i>
   <i name="HFSCREEN">      0.00000000</i>
   <i name="HFSCREENC">      0.00000000</i>
   <i type="int" name="NBANDSGWLOW">     0</i>
  </separator>
  <separator name="vdW DFT" >
   <i type="logical" name="LUSE_VDW"> F  </i>
   <i name="Zab_VDW">     -0.84910000</i>
   <i name="PARAM1">      0.12340000</i>
   <i name="PARAM2">      1.00000000</i>
   <i name="PARAM3">      0.00000000</i>
  </separator>
  <separator name="model GW" >
   <i type="int" name="MODEL_GW">     0</i>
   <i name="MODEL_EPS0">     13.18532537</i>
   <i name="MODEL_ALPHA">      1.00000000</i>
  </separator>
  <separator name="linear response parameters" >
   <i type="logical" name="LEPSILON"> F  </i>
   <i type="logical" name="LRPA"> F  </i>
   <i type="logical" name="LNABLA"> F  </i>
   <i type="logical" name="LVEL"> F  </i>
   <i name="CSHIFT">      0.10000000</i>
   <i name="OMEGAMAX">     -1.00000000</i>
   <i name="DEG_THRESHOLD">      0.00200000</i>
   <i name="RTIME">     -0.10000000</i>
   <i name="WPLASMAI">      0.00000000</i>
   <v name="DFIELD">      0.00000000      0.00000000      0.00000000</v>
   <v name="WPLASMA">      0.00000000      0.00000000      0.00000000      0.00000000      0.00000000      0.00000000      0.00000000      0.00000000      0.00000000</v>
  </separator>
  <separator name="orbital magnetization" >
   <i type="logical" name="NUCIND"> F  </i>
   <v name="MAGPOS">      0.00000000      0.00000000      0.00000000</v>
   <i type="logical" name="LNICSALL"> T  </i>
   <i type="logical" name="ORBITALMAG"> F  </i>
   <i type="logical" name="LMAGBLOCH"> F  </i>
   <i type="logical" name="LCHIMAG"> F  </i>
   <i type="logical" name="LGAUGE"> T  </i>
   <i type="int" name="MAGATOM">     0</i>
   <v name="MAGDIPOL">      0.00000000      0.00000000      0.00000000</v>
   <v name="AVECCONST">      0.00000000      0.00000000      0.00000000</v>
  </separator>
  <separator name="response functions" >
   <i type="logical" name="LFINITE_TEMPERATURE"> F  </i>
   <i type="logical" name="LADDER"> F  </i>
   <i type="logical" name="LRPAFORCE"> F  </i>
   <i type="logical" name="LFXC"> F  </i>
   <i type="logical" name="LHARTREE"> T  </i>
   <i type="int" name="IBSE">     0</i>
   <v type="int" name="KPOINT">    -1     0     0     0</v>
   <i type="logical" name="LTCTC"> F  </i>
   <i type="logical" name="LTCTE"> F  </i>
   <i type="logical" name="LTETE"> F  </i>
   <i type="logical" name="LTRIPLET"> F  </i>
   <i type="logical" name="LFXCEPS"> F  </i>
   <i type="logical" name="LFXHEG"> F  </i>
   <i type="int" name="NATURALO">     2</i>
   <i type="logical" name="LHOLEGF"> F  </i>
   <i type="logical" name="L2ORDER"> F  </i>
   <i type="logical" name="LDMP1"> F  </i>
   <i type="logical" name="LMP2LT"> F  </i>
   <i type="logical" name="LSMP2LT"> F  </i>
   <i type="logical" name="LGWLF"> F  </i>
   <i name="ENCUTGW">     -2.00000000</i>
   <i name="ENCUTGWSOFT">     -2.00000000</i>
   <i name="ENCUTLF">     -1.00000000</i>
   <i type="logical" name="LESF_SPLINES"> F  </i>
   <i type="int" name="LMAXMP2">    -1</i>
   <i name="SCISSOR">      0.00000000</i>
   <i type="int" name="NOMEGA">     0</i>
   <i type="int" name="NOMEGAR">     0</i>
   <i type="int" name="NBANDSGW">    -1</i>
   <i type="int" name="NBANDSO">    -1</i>
   <i type="int" name="NBANDSV">    -1</i>
   <i type="int" name="NELMGW">     1</i>
   <i type="int" name="NELMHF">     1</i>
   <i type="int" name="DIM">     3</i>
   <i type="int" name="IESPILON">     4</i>
   <i type="int" name="ANTIRES">     0</i>
   <i name="OMEGAMAX">    -30.00000000</i>
   <i name="OMEGAMIN">    -30.00000000</i>
   <i name="OMEGATL">   -200.00000000</i>
   <i type="int" name="OMEGAGRID">     0</i>
   <i name="CSHIFT">     -0.10000000</i>
   <i type="logical" name="LSELFENERGY"> F  </i>
   <i type="logical" name="LSPECTRAL"> F  </i>
   <i type="logical" name="LSPECTRALGW"> F  </i>
   <i type="logical" name="LSINGLES"> F  </i>
   <i type="logical" name="LFERMIGW"> F  </i>
   <i type="logical" name="ODDONLYGW"> F  </i>
   <i type="logical" name="EVENONLYGW"> F  </i>
   <i type="int" name="NKREDLFX">     1</i>
   <i type="int" name="NKREDLFY">     1</i>
   <i type="int" name="NKREDLFZ">     1</i>
   <i type="int" name="MAXMEM">  2800</i>
   <i type="int" name="TELESCOPE">     0</i>
   <i type="int" name="NTAUPAR">    -1</i>
   <i type="int" name="NOMEGAPAR">    -1</i>
   <i name="DAMP_NEWTON">      0.80000001</i>
   <i name="LAMBDA">      1.00000000</i>
  </separator>
  <separator name="External order field" >
   <i name="OFIELD_KAPPA">      0.00000000</i>
   <v name="OFIELD_K">      0.00000000      0.00000000      0.00000000</v>
   <i name="OFIELD_Q6_NEAR">      0.00000000</i>
   <i name="OFIELD_Q6_FAR">      0.00000000</i>
   <i name="OFIELD_A">      0.00000000</i>
  </separator>
  <separator name="optional k-points parameters" >
   <i type="int" name="KPOINTS_OPT_MODE">     1</i>
   <i type="logical" name="LKPOINTS_OPT"> F  </i>
  </separator>
 </parameters>
 <atominfo>
  <atoms>      64 </atoms>
  <types>       2 </types>
  <array name="atoms" >
   <dimension dim="1">ion</dimension>
   <field type="string">element</field>
   <field type="int">atomtype</field>
   <set>
    <rc><c>Na</c><c>   1</c></rc>
    <rc><c>Na</c><c>   1</c></rc>
    <rc><c>Na</c><c>   1</c></rc>
    <rc><c>Na</c><c>   1</c></rc>
    <rc><c>Na</c><c>   1</c></rc>
    <rc><c>Na</c><c>   1</c></rc>
    <rc><c>Na</c><c>   1</c></rc>
    <rc><c>Na</c><c>   1</c></rc>
    <rc><c>Na</c><c>   1</c></rc>
    <rc><c>Na</c><c>   1</c></rc>
    <rc><c>Na</c><c>   1</c></rc>
    <rc><c>Na</c><c>   1</c></rc>
    <rc><c>Na</c><c>   1</c></rc>
    <rc><c>Na</c><c>   1</c></rc>
    <rc><c>Na</c><c>   1</c></rc>
    <rc><c>Na</c><c>   1</c></rc>
    <rc><c>Na</c><c>   1</c></rc>
    <rc><c>Na</c><c>   1</c></rc>
    <rc><c>Na</c><c>   1</c></rc>
    <rc><c>Na</c><c>   1</c></rc>
    <rc><c>Na</c><c>   1</c></rc>
    <rc><c>Na</c><c>   1</c></rc>
    <rc><c>Na</c><c>   1</c></rc>
    <rc><c>Na</c><c>   1</c></rc>
    <rc><c>Na</c><c>   1</c></rc>
    <rc><c>Na</c><c>   1</c></rc>
    <rc><c>Na</c><c>   1</c></rc>
    <rc><c>Na</c><c>   1</c></rc>
    <rc><c>Na</c><c>   1</c></rc>
    <rc><c>Na</c><c>   1</c></rc>
    <rc><c>Na</c><c>   1</c></rc>
    <rc><c>Na</c><c>   1</c></rc>
    <rc><c>Cl</c><c>   2</c></rc>
    <rc><c>Cl</c><c>   2</c></rc>
    <rc><c>Cl</c><c>   2</c></rc>
    <rc><c>Cl</c><c>   2</c></rc>
    <rc><c>Cl</c><c>   2</c></rc>
    <rc><c>Cl</c><c>   2</c></rc>
    <rc><c>Cl</c><c>   2</c></rc>
    <rc><c>Cl</c><c>   2</c></rc>
    <rc><c>Cl</c><c>   2</c></rc>
    <rc><c>Cl</c><c>   2</c></rc>
    <rc><c>Cl</c><c>   2</c></rc>
    <rc><c>Cl</c><c>   2</c></rc>
    <rc><c>Cl</c><c>   2</c></rc>
    <rc><c>Cl</c><c>   2</c></rc>
    <rc><c>Cl</c><c>   2</c></rc>
    <rc><c>Cl</c><c>   2</c></rc>
    <rc><c>Cl</c><c>   2</c></rc>
    <rc><c>Cl</c><c>   2</c></rc>
    <rc><c>Cl</c><c>   2</c></rc>
    <rc><c>Cl</c><c>   2</c></rc>
    <rc><c>Cl</c><c>   2</c></rc>
    <rc><c>Cl</c><c>   2</c></rc>
    <rc><c>Cl</c><c>   2</c></rc>
    <rc><c>Cl</c><c>   2</c></rc>
    <rc><c>Cl</c><c>   2</c></rc>
    <rc><c>Cl</c><c>   2</c></rc>
    <rc><c>Cl</c><c>   2</c></rc>
    <rc><c>Cl</c><c>   2</c></rc>
    <rc><c>Cl</c><c>   2</c></rc>
    <rc><c>Cl</c><c>   2</c></rc>
    <rc><c>Cl</c><c>   2</c></rc>
    <rc><c>Cl</c><c>   2</c></rc>
   </set>
  </array>
  <array name="atomtypes" >
   <dimension dim="1">type</dimension>
   <field type="int">atomspertype</field>
   <field type="string">element</field>
   <field>mass</field>
   <field>valence</field>
   <field type="string">pseudopotential</field>
   <set>
    <rc><c>  32</c><c>Na</c><c>     22.99000000</c><c>      7.00000000</c><c>  PAW_PBE Na_pv 19Sep2006               </c></rc>
    <rc><c>  32</c><c>Cl</c><c>     35.45300000</c><c>      7.00000000</c><c>  PAW_PBE Cl 06Sep2000                  </c></rc>
   </set>
  </array>
 </atominfo>
 <structure name="initialpos" >
  <crystal>
   <varray name="basis" >
    <v>      11.20400236       0.00000000       0.00000000 </v>
    <v>       0.00000000      11.20400236       0.00000000 </v>
    <v>       0.00000000       0.00000000      11.20400236 </v>
   </varray>
   <i name="volume">   1406.43470641 </i>
   <varray name="rec_basis" >
    <v>       0.08925382       0.00000000       0.00000000 </v>
    <v>       0.00000000       0.08925382       0.00000000 </v>
    <v>       0.00000000       0.00000000       0.08925382 </v>
   </varray>
  </crystal>
  <varray name="positions" >
   <v>       0.99732239       0.00000000       0.00000000 </v>
   <v>       0.25000000       0.25000000       0.00000000 </v>
   <v>       0.25000000       0.00000000       0.25000000 </v>
   <v>       0.00000000       0.25000000       0.25000000 </v>
   <v>       0.00000000       0.00000000       0.50000000 </v>
   <v>       0.25000000       0.25000000       0.50000000 </v>
   <v>       0.25000000       0.00000000       0.75000000 </v>
   <v>       0.00000000       0.25000000       0.75000000 </v>
   <v>       0.00000000       0.50000000       0.00000000 </v>
   <v>       0.25000000       0.75000000       0.00000000 </v>
   <v>       0.25000000       0.50000000       0.25000000 </v>
   <v>       0.00000000       0.75000000       0.25000000 </v>
   <v>       0.00000000       0.50000000       0.50000000 </v>
   <v>       0.25000000       0.75000000       0.50000000 </v>
   <v>       0.25000000       0.50000000       0.75000000 </v>
   <v>       0.00000000       0.75000000       0.75000000 </v>
   <v>       0.50000000       0.00000000       0.00000000 </v>
   <v>       0.75000000       0.25000000       0.00000000 </v>
   <v>       0.75000000       0.00000000       0.25000000 </v>
   <v>       0.50000000       0.25000000       0.25000000 </v>
   <v>       0.50000000       0.00000000       0.50000000 </v>
   <v>       0.75000000       0.25000000       0.50000000 </v>
   <v>       0.75000000       0.00000000       0.75000000 </v>
   <v>       0.50000000       0.25000000       0.75000000 </v>
   <v>       0.50000000       0.50000000       0.00000000 </v>
   <v>       0.75000000       0.75000000       0.00000000 </v>
   <v>       0.75000000       0.50000000       0.25000000 </v>
   <v>       0.50000000       0.75000000       0.25000000 </v>
   <v>       0.50000000       0.50000000       0.50000000 </v>
   <v>       0.75000000       0.75000000       0.50000000 </v>
   <v>       0.75000000       0.50000000       0.75000000 </v>
   <v>       0.50000000       0.75000000       0.75000000 </v>
   <v>       0.25000000       0.25267761       0.25000000 </v>
   <v>       0.00000000       0.00000000       0.25000000 </v>
   <v>       0.00000000       0.25000000       0.00000000 </v>
   <v>       0.25000000       0.00000000       0.00000000 </v>
   <v>       0.25000000       0.25000000       0.75000000 </v>
   <v>       0.00000000       0.00000000       0.75000000 </v>
   <v>       0.00000000       0.25000000       0.50000000 </v>
   <v>       0.25000000       0.00000000       0.50000000 </v>
   <v>       0.25000000       0.75000000       0.25000000 </v>
   <v>       0.00000000       0.50000000       0.25000000 </v>
   <v>       0.00000000       0.75000000       0.00000000 </v>
   <v>       0.25000000       0.50000000       0.00000000 </v>
   <v>       0.25000000       0.75000000       0.75000000 </v>
   <v>       0.00000000       0.50000000       0.75000000 </v>
   <v>       0.00000000       0.75000000       0.50000000 </v>
   <v>       0.25000000       0.50000000       0.50000000 </v>
   <v>       0.75000000       0.25000000       0.25000000 </v>
   <v>       0.50000000       0.00000000       0.25000000 </v>
   <v>       0.50000000       0.25000000       0.00000000 </v>
   <v>       0.75000000       0.00000000       0.00000000 </v>
   <v>       0.75000000       0.25000000       0.75000000 </v>
   <v>       0.50000000       0.00000000       0.75000000 </v>
   <v>       0.50000000       0.25000000       0.50000000 </v>
   <v>       0.75000000       0.00000000       0.50000000 </v>
   <v>       0.75000000       0.75000000       0.25000000 </v>
   <v>       0.50000000       0.50000000       0.25000000 </v>
   <v>       0.50000000       0.75000000       0.00000000 </v>
   <v>       0.75000000       0.50000000       0.00000000 </v>
   <v>       0.75000000       0.75000000       0.75000000 </v>
   <v>       0.50000000       0.50000000       0.75000000 </v>
   <v>       0.50000000       0.75000000       0.50000000 </v>
   <v>       0.75000000       0.50000000       0.50000000 </v>
  </varray>
 </structure>
 <calculation>
  <scstep>
   <time name="dav">    9.92    9.97</time>
   <time name="total">    9.99   10.04</time>
   <energy>
    <i name="alphaZ">    751.52672365 </i>
    <i name="ewald"> -22871.33549161 </i>
    <i name="hartreedc">  -8992.25106534 </i>
    <i name="XCdc">   1456.53426838 </i>
    <i name="pawpsdc">  26466.43774078 </i>
    <i name="pawaedc"> -29286.08056155 </i>
    <i name="eentropy">     -0.00273325 </i>
    <i name="bandstr">   -733.23348344 </i>
    <i name="atom">  37532.17946992 </i>
    <i name="e_fr_energy">   4323.77486754 </i>
    <i name="e_wo_entrp">   4323.77760079 </i>
    <i name="e_0_energy">   4323.77623416 </i>
   </energy>
  </scstep>
  <scstep>
   <time name="dav">   10.79   10.85</time>
   <time name="total">   10.79   10.85</time>
   <energy>
    <i name="e_fr_energy">    363.95216515 </i>
    <i name="e_wo_entrp">    363.95216515 </i>
    <i name="e_0_energy">    363.95216515 </i>
   </energy>
  </scstep>
  <scstep>
   <time name="dav">   11.64   11.70</time>
   <time name="total">   11.64   11.70</time>
   <energy>
    <i name="e_fr_energy">   -206.18084592 </i>
    <i name="e_wo_entrp">   -206.18084592 </i>
    <i name="e_0_energy">   -206.18084592 </i>
   </energy>
  </scstep>
  <scstep>
   <time name="dav">   11.51   11.57</time>
   <time name="total">   11.51   11.57</time>
   <energy>
    <i name="e_fr_energy">   -228.19109203 </i>
    <i name="e_wo_entrp">   -228.19109203 </i>
    <i name="e_0_energy">   -228.19109203 </i>
   </energy>
  </scstep>
  <scstep>
   <time name="dav">   11.69   11.76</time>
   <time name="total">   12.02   12.08</time>
   <energy>
    <i name="e_fr_energy">   -229.00455262 </i>
    <i name="e_wo_entrp">   -229.00455262 </i>
    <i name="e_0_energy">   -229.00455262 </i>
   </energy>
  </scstep>
  <scstep>
   <time name="dav">   11.82   11.88</time>
   <time name="total">   12.21   12.28</time>
   <energy>
    <i name="e_fr_energy">   -224.13853210 </i>
    <i name="e_wo_entrp">   -224.13853210 </i>
    <i name="e_0_energy">   -224.13853210 </i>
   </energy>
  </scstep>
  <scstep>
   <time name="dav">   12.73   12.79</time>
   <time name="total">   13.12   13.19</time>
   <energy>
    <i name="e_fr_energy">   -223.77736898 </i>
    <i name="e_wo_entrp">   -223.77736898 </i>
    <i name="e_0_energy">   -223.77736898 </i>
   </energy>
  </scstep>
  <scstep>
   <time name="dav">   11.19   11.25</time>
   <time name="total">   11.59   11.65</time>
   <energy>
    <i name="e_fr_energy">   -223.90261738 </i>
    <i name="e_wo_entrp">   -223.90261738 </i>
    <i name="e_0_energy">   -223.90261738 </i>
   </energy>
  </scstep>
  <scstep>
   <time name="dav">   11.78   11.84</time>
   <time name="total">   12.17   12.24</time>
   <energy>
    <i name="e_fr_energy">   -223.89710292 </i>
    <i name="e_wo_entrp">   -223.89710292 </i>
    <i name="e_0_energy">   -223.89710292 </i>
   </energy>
  </scstep>
  <scstep>
   <time name="dav">   11.13   11.18</time>
   <time name="total">   11.52   11.58</time>
   <energy>
    <i name="e_fr_energy">   -223.90139614 </i>
    <i name="e_wo_entrp">   -223.90139614 </i>
    <i name="e_0_energy">   -223.90139614 </i>
   </energy>
  </scstep>
  <scstep>
   <time name="dav">   12.20   12.26</time>
   <time name="total">   12.59   12.66</time>
   <energy>
    <i name="e_fr_energy">   -223.90069640 </i>
    <i name="e_wo_entrp">   -223.90069640 </i>
    <i name="e_0_energy">   -223.90069640 </i>
   </energy>
  </scstep>
  <scstep>
   <time name="dav">   12.05   12.11</time>
   <time name="total">   12.44   12.50</time>
   <energy>
    <i name="e_fr_energy">   -223.90066042 </i>
    <i name="e_wo_entrp">   -223.90066042 </i>
    <i name="e_0_energy">   -223.90066042 </i>
   </energy>
  </scstep>
  <scstep>
   <time name="dav">   11.57   11.63</time>
   <time name="total">   11.97   12.03</time>
   <energy>
    <i name="e_fr_energy">   -223.90065910 </i>
    <i name="e_wo_entrp">   -223.90065910 </i>
    <i name="e_0_energy">   -223.90065910 </i>
   </energy>
  </scstep>
  <scstep>
   <time name="dav">   11.41   11.46</time>
   <time name="total">   11.80   11.86</time>
   <energy>
    <i name="e_fr_energy">   -223.90066062 </i>
    <i name="e_wo_entrp">   -223.90066062 </i>
    <i name="e_0_energy">   -223.90066062 </i>
   </energy>
  </scstep>
  <scstep>
   <time name="dav">   11.18   11.24</time>
   <time name="total">   11.58   11.64</time>
   <energy>
    <i name="e_fr_energy">   -223.90066163 </i>
    <i name="e_wo_entrp">   -223.90066163 </i>
    <i name="e_0_energy">   -223.90066163 </i>
   </energy>
  </scstep>
  <scstep>
   <time name="dav">   11.63   11.69</time>
   <time name="total">   12.02   12.08</time>
   <energy>
    <i name="e_fr_energy">   -223.90066223 </i>
    <i name="e_wo_entrp">   -223.90066223 </i>
    <i name="e_0_energy">   -223.90066223 </i>
   </energy>
  </scstep>
  <scstep>
   <time name="dav">    9.09    9.14</time>
   <time name="total">    9.48    9.53</time>
   <energy>
    <i name="e_fr_energy">   -223.90066235 </i>
    <i name="e_wo_entrp">   -223.90066235 </i>
    <i name="e_0_energy">   -223.90066235 </i>
   </energy>
  </scstep>
  <scstep>
   <time name="dav">    8.47    8.51</time>
   <time name="total">    8.86    8.91</time>
   <energy>
    <i name="e_fr_energy">   -223.90066240 </i>
    <i name="e_wo_entrp">   -223.90066240 </i>
    <i name="e_0_energy">   -223.90066240 </i>
   </energy>
  </scstep>
  <scstep>
   <time name="dav">    7.62    7.66</time>
   <time name="total">    8.01    8.05</time>
   <energy>
    <i name="e_fr_energy">   -223.90066236 </i>
    <i name="e_wo_entrp">   -223.90066236 </i>
    <i name="e_0_energy">   -223.90066236 </i>
   </energy>
  </scstep>
  <scstep>
   <time name="dav">    7.95    7.99</time>
   <time name="total">    8.35    8.40</time>
   <energy>
    <i name="e_fr_energy">   -223.90066231 </i>
    <i name="e_wo_entrp">   -223.90066231 </i>
    <i name="e_0_energy">   -223.90066231 </i>
   </energy>
  </scstep>
  <scstep>
   <time name="dav">    7.52    7.56</time>
   <time name="total">    7.92    7.96</time>
   <energy>
    <i name="e_fr_energy">   -223.90066230 </i>
    <i name="e_wo_entrp">   -223.90066230 </i>
    <i name="e_0_energy">   -223.90066230 </i>
   </energy>
  </scstep>
  <scstep>
   <time name="dav">    7.53    7.57</time>
   <time name="total">    7.60    7.64</time>
   <energy>
    <i name="alphaZ">    751.52672365 </i>
    <i name="ewald"> -22871.33549161 </i>
    <i name="hartreedc">  -9078.16707904 </i>
    <i name="XCdc">   1472.51345229 </i>
    <i name="pawpsdc">  29498.28919446 </i>
    <i name="pawaedc"> -32317.65390458 </i>
    <i name="eentropy">     -0.00000000 </i>
    <i name="bandstr">  -5211.25302739 </i>
    <i name="atom">  37532.17946992 </i>
    <i name="e_fr_energy">   -223.90066230 </i>
    <i name="e_wo_entrp">   -223.90066230 </i>
    <i name="e_0_energy">   -223.90066230 </i>
   </energy>
  </scstep>
  <structure>
   <crystal>
    <varray name="basis" >
     <v>      11.20400236       0.00000000       0.00000000 </v>
     <v>       0.00000000      11.20400236       0.00000000 </v>
     <v>       0.00000000       0.00000000      11.20400236 </v>
    </varray>
    <i name="volume">   1406.43470641 </i>
    <varray name="rec_basis" >
     <v>       0.08925382       0.00000000       0.00000000 </v>
     <v>       0.00000000       0.08925382       0.00000000 </v>
     <v>       0.00000000       0.00000000       0.08925382 </v>
    </varray>
   </crystal>
   <varray name="positions" >
    <v>       0.99732239       0.00000000       0.00000000 </v>
    <v>       0.25000000       0.25000000       0.00000000 </v>
    <v>       0.25000000       0.00000000       0.25000000 </v>
    <v>       0.00000000       0.25000000       0.25000000 </v>
    <v>       0.00000000       0.00000000       0.50000000 </v>
    <v>       0.25000000       0.25000000       0.50000000 </v>
    <v>       0.25000000       0.00000000       0.75000000 </v>
    <v>       0.00000000       0.25000000       0.75000000 </v>
    <v>       0.00000000       0.50000000       0.00000000 </v>
    <v>       0.25000000       0.75000000       0.00000000 </v>
    <v>       0.25000000       0.50000000       0.25000000 </v>
    <v>       0.00000000       0.75000000       0.25000000 </v>
    <v>       0.00000000       0.50000000       0.50000000 </v>
    <v>       0.25000000       0.75000000       0.50000000 </v>
    <v>       0.25000000       0.50000000       0.75000000 </v>
    <v>       0.00000000       0.75000000       0.75000000 </v>
    <v>       0.50000000       0.00000000       0.00000000 </v>
    <v>       0.75000000       0.25000000       0.00000000 </v>
    <v>       0.75000000       0.00000000       0.25000000 </v>
    <v>       0.50000000       0.25000000       0.25000000 </v>
    <v>       0.50000000       0.00000000       0.50000000 </v>
    <v>       0.75000000       0.25000000       0.50000000 </v>
    <v>       0.75000000       0.00000000       0.75000000 </v>
    <v>       0.50000000       0.25000000       0.75000000 </v>
    <v>       0.50000000       0.50000000       0.00000000 </v>
    <v>       0.75000000       0.75000000       0.00000000 </v>
    <v>       0.75000000       0.50000000       0.25000000 </v>
    <v>       0.50000000       0.75000000       0.25000000 </v>
    <v>       0.50000000       0.50000000       0.50000000 </v>
    <v>       0.75000000       0.75000000       0.50000000 </v>
    <v>       0.75000000       0.50000000       0.75000000 </v>
    <v>       0.50000000       0.75000000       0.75000000 </v>
    <v>       0.25000000       0.25267761       0.25000000 </v>
    <v>       0.00000000       0.00000000       0.25000000 </v>
    <v>       0.00000000       0.25000000       0.00000000 </v>
    <v>       0.25000000       0.00000000       0.00000000 </v>
    <v>       0.25000000       0.25000000       0.75000000 </v>
    <v>       0.00000000       0.00000000       0.75000000 </v>
    <v>       0.00000000       0.25000000       0.50000000 </v>
    <v>       0.25000000       0.00000000       0.50000000 </v>
    <v>       0.25000000       0.75000000       0.25000000 </v>
    <v>       0.00000000       0.50000000       0.25000000 </v>
    <v>       0.00000000       0.75000000       0.00000000 </v>
    <v>       0.25000000       0.50000000       0.00000000 </v>
    <v>       0.25000000       0.75000000       0.75000000 </v>
    <v>       0.00000000       0.50000000       0.75000000 </v>
    <v>       0.00000000       0.75000000       0.50000000 </v>
    <v>       0.25000000       0.50000000       0.50000000 </v>
    <v>       0.75000000       0.25000000       0.25000000 </v>
    <v>       0.50000000       0.00000000       0.25000000 </v>
    <v>       0.50000000       0.25000000       0.00000000 </v>
    <v>       0.75000000       0.00000000       0.00000000 </v>
    <v>       0.75000000       0.25000000       0.75000000 </v>
    <v>       0.50000000       0.00000000       0.75000000 </v>
    <v>       0.50000000       0.25000000       0.50000000 </v>
    <v>       0.75000000       0.00000000       0.50000000 </v>
    <v>       0.75000000       0.75000000       0.25000000 </v>
    <v>       0.50000000       0.50000000       0.25000000 </v>
    <v>       0.50000000       0.75000000       0.00000000 </v>
    <v>       0.75000000       0.50000000       0.00000000 </v>
    <v>       0.75000000       0.75000000       0.75000000 </v>
    <v>       0.50000000       0.50000000       0.75000000 </v>
    <v>       0.50000000       0.75000000       0.50000000 </v>
    <v>       0.75000000       0.50000000       0.50000000 </v>
   </varray>
  </structure>
  <varray name="forces" >
   <v>       0.06154847      -0.00022343      -0.00126735 </v>
   <v>      -0.00150879      -0.00079314       0.00009408 </v>
   <v>      -0.00150980       0.01620477      -0.00580639 </v>
   <v>       0.00175295       0.00499037      -0.00002244 </v>
   <v>      -0.00124136      -0.00023662       0.00128905 </v>
   <v>       0.00002043       0.00508706      -0.00008398 </v>
   <v>      -0.00150856       0.00015140       0.00580187 </v>
   <v>       0.00166585       0.00058766       0.00002084 </v>
   <v>       0.00135220      -0.00021370       0.00129858 </v>
   <v>      -0.00150853       0.00296674       0.00000353 </v>
   <v>       0.00002074       0.02028006       0.00007461 </v>
   <v>       0.00166715      -0.00281336      -0.00001954 </v>
   <v>       0.00175241      -0.00021267      -0.00129852 </v>
   <v>       0.00002074      -0.00290818      -0.00000328 </v>
   <v>       0.00002075       0.00016754      -0.00007302 </v>
   <v>       0.00166685      -0.00064988       0.00001971 </v>
   <v>      -0.00762525      -0.00023507      -0.00129530 </v>
   <v>      -0.00151277       0.00653300       0.00000186 </v>
   <v>      -0.00151238       0.00015108       0.00592614 </v>
   <v>      -0.00125071       0.00501565       0.00000207 </v>
   <v>       0.00098165      -0.00023662       0.00128981 </v>
   <v>       0.00003369       0.00052941      -0.00000191 </v>
   <v>      -0.00151304      -0.00000394      -0.00592572 </v>
   <v>      -0.00116516       0.00061176      -0.00000361 </v>
   <v>      -0.00160814      -0.00021349       0.00129853 </v>
   <v>      -0.00151304      -0.00659519       0.00000290 </v>
   <v>       0.00003363       0.00016753      -0.00007762 </v>
   <v>      -0.00116655      -0.00283824       0.00000457 </v>
   <v>      -0.00174001      -0.00021269      -0.00129845 </v>
   <v>       0.00003369      -0.00059180      -0.00000291 </v>
   <v>       0.00003362       0.00000574       0.00007772 </v>
   <v>      -0.00116620      -0.00067420      -0.00000447 </v>
   <v>       0.00023515      -0.07477447       0.00124898 </v>
   <v>       0.00072662       0.00385248      -0.00011178 </v>
   <v>      -0.00497704      -0.00245627       0.00002836 </v>
   <v>      -0.01618170       0.00386652       0.00574242 </v>
   <v>       0.00024109      -0.00026615      -0.00128490 </v>
   <v>      -0.00443496      -0.00003737       0.00012126 </v>
   <v>      -0.00056490      -0.00232702      -0.00003138 </v>
   <v>      -0.00013941       0.00386314      -0.00573529 </v>
   <v>       0.00024144       0.00255939       0.00128567 </v>
   <v>      -0.00648130       0.00391691       0.00001060 </v>
   <v>      -0.00500751       0.00166904      -0.00000363 </v>
   <v>      -0.00013992       0.00391760      -0.00588337 </v>
   <v>       0.00024159       0.00067667      -0.00128400 </v>
   <v>      -0.00117362      -0.00005323      -0.00001018 </v>
   <v>      -0.00060185       0.00153739       0.00000420 </v>
   <v>       0.00001163       0.00391699       0.00588411 </v>
   <v>       0.00021873      -0.00285627      -0.00130535 </v>
   <v>      -0.00289405       0.00385864      -0.00000822 </v>
   <v>       0.00280795      -0.00234822       0.00003002 </v>
   <v>      -0.02022632      -0.00003695       0.00056509 </v>
   <v>       0.00021895      -0.00182615       0.00130493 </v>
   <v>       0.00226820      -0.00003841       0.00001192 </v>
   <v>       0.00064041      -0.00233908      -0.00003194 </v>
   <v>      -0.00017080      -0.00003747      -0.00056780 </v>
   <v>       0.00021893       0.00326574      -0.00130655 </v>
   <v>       0.00655576       0.00391588      -0.00000049 </v>
   <v>       0.00284095       0.00155937      -0.00000352 </v>
   <v>      -0.00017089      -0.00005275      -0.00057605 </v>
   <v>       0.00021852       0.00183435       0.00130529 </v>
   <v>       0.00124756      -0.00005350       0.00000078 </v>
   <v>       0.00067557       0.00154914       0.00000365 </v>
   <v>       0.00000067      -0.00005348       0.00057582 </v>
  </varray>
  <varray name="stress" >
   <v>      -0.36722715      -0.00001362      -0.00013116 </v>
   <v>      -0.00001369      -0.36700796      -0.00016135 </v>
   <v>      -0.00013118      -0.00016128      -0.37893739 </v>
  </varray>
  <energy>
   <i name="e_fr_energy">   -223.90066230 </i>
   <i name="e_wo_entrp">   -223.90066230 </i>
   <i name="e_0_energy">   -223.90066230 </i>
  </energy>
  <time name="totalsc">  254.79  256.14</time>
  <eigenvalues>
   <array>
    <dimension dim="1">band</dimension>
    <dimension dim="2">kpoint</dimension>
    <dimension dim="3">spin</dimension>
    <field>eigene</field>
    <field>occ</field>
    <set>
     <set comment="spin 1">
      <set comment="kpoint 1">
       <r>  -21.3067    1.0000 </r>
       <r>  -21.3066    1.0000 </r>
       <r>  -21.3059    1.0000 </r>
       <r>  -21.3039    1.0000 </r>
       <r>  -21.3003    1.0000 </r>
       <r>  -21.2998    1.0000 </r>
       <r>  -21.2982    1.0000 </r>
       <r>  -21.2955    1.0000 </r>
       <r>  -21.2953    1.0000 </r>
       <r>  -21.2948    1.0000 </r>
       <r>  -21.2940    1.0000 </r>
       <r>  -21.2939    1.0000 </r>
       <r>  -21.2936    1.0000 </r>
       <r>  -21.2933    1.0000 </r>
       <r>  -21.2933    1.0000 </r>
       <r>  -21.2932    1.0000 </r>
       <r>  -21.2927    1.0000 </r>
       <r>  -21.2927    1.0000 </r>
       <r>  -21.2924    1.0000 </r>
       <r>  -21.2902    1.0000 </r>
       <r>  -21.2884    1.0000 </r>
       <r>  -21.2881    1.0000 </r>
       <r>  -21.2872    1.0000 </r>
       <r>  -21.2871    1.0000 </r>
       <r>  -21.2867    1.0000 </r>
       <r>  -21.2866    1.0000 </r>
       <r>  -21.2863    1.0000 </r>
       <r>  -21.2860    1.0000 </r>
       <r>  -21.2860    1.0000 </r>
       <r>  -21.2850    1.0000 </r>
       <r>  -21.2850    1.0000 </r>
       <r>  -21.2848    1.0000 </r>
       <r>  -21.2846    1.0000 </r>
       <r>  -21.2842    1.0000 </r>
       <r>  -21.2838    1.0000 </r>
       <r>  -21.2833    1.0000 </r>
       <r>  -21.2832    1.0000 </r>
       <r>  -21.2831    1.0000 </r>
       <r>  -21.2827    1.0000 </r>
       <r>  -21.2824    1.0000 </r>
       <r>  -21.2817    1.0000 </r>
       <r>  -21.2814    1.0000 </r>
       <r>  -21.2812    1.0000 </r>
       <r>  -21.2812    1.0000 </r>
       <r>  -21.2809    1.0000 </r>
       <r>  -21.2808    1.0000 </r>
       <r>  -21.2803    1.0000 </r>
       <r>  -21.2803    1.0000 </r>
       <r>  -21.2801    1.0000 </r>
       <r>  -21.2800    1.0000 </r>
       <r>  -21.2800    1.0000 </r>
       <r>  -21.2799    1.0000 </r>
       <r>  -21.2798    1.0000 </r>
       <r>  -21.2798    1.0000 </r>
       <r>  -21.2796    1.0000 </r>
       <r>  -21.2795    1.0000 </r>
       <r>  -21.2788    1.0000 </r>
       <r>  -21.2788    1.0000 </r>
       <r>  -21.2784    1.0000 </r>
       <r>  -21.2778    1.0000 </r>
       <r>  -21.2764    1.0000 </r>
       <r>  -21.2762    1.0000 </r>
       <r>  -21.2759    1.0000 </r>
       <r>  -21.2753    1.0000 </r>
       <r>  -21.2748    1.0000 </r>
       <r>  -21.2747    1.0000 </r>
       <r>  -21.2743    1.0000 </r>
       <r>  -21.2741    1.0000 </r>
       <r>  -21.2740    1.0000 </r>
       <r>  -21.2739    1.0000 </r>
       <r>  -21.2738    1.0000 </r>
       <r>  -21.2734    1.0000 </r>
       <r>  -21.2733    1.0000 </r>
       <r>  -21.2731    1.0000 </r>
       <r>  -21.2729    1.0000 </r>
       <r>  -21.2726    1.0000 </r>
       <r>  -21.2722    1.0000 </r>
       <r>  -21.2715    1.0000 </r>
       <r>  -21.2714    1.0000 </r>
       <r>  -21.2713    1.0000 </r>
       <r>  -21.2712    1.0000 </r>
       <r>  -21.2712    1.0000 </r>
       <r>  -21.2711    1.0000 </r>
       <r>  -21.2710    1.0000 </r>
       <r>  -21.2709    1.0000 </r>
       <r>  -21.2708    1.0000 </r>
       <r>  -21.2700    1.0000 </r>
       <r>  -21.2695    1.0000 </r>
       <r>  -21.2694    1.0000 </r>
       <r>  -21.2689    1.0000 </r>
       <r>  -21.2687    1.0000 </r>
       <r>  -21.2682    1.0000 </r>
       <r>  -21.2680    1.0000 </r>
       <r>  -21.2545    1.0000 </r>
       <r>  -21.2543    1.0000 </r>
       <r>  -21.2541    1.0000 </r>
       <r>  -13.3581    1.0000 </r>
       <r>  -13.1422    1.0000 </r>
       <r>  -13.1383    1.0000 </r>
       <r>  -13.1374    1.0000 </r>
       <r>  -13.1373    1.0000 </r>
       <r>  -13.1365    1.0000 </r>
       <r>  -13.1338    1.0000 </r>
       <r>  -13.0204    1.0000 </r>
       <r>  -13.0145    1.0000 </r>
       <r>  -13.0125    1.0000 </r>
       <r>  -13.0117    1.0000 </r>
       <r>  -13.0114    1.0000 </r>
       <r>  -13.0112    1.0000 </r>
       <r>  -13.0112    1.0000 </r>
       <r>  -13.0111    1.0000 </r>
       <r>  -13.0111    1.0000 </r>
       <r>  -13.0103    1.0000 </r>
       <r>  -13.0087    1.0000 </r>
       <r>  -13.0050    1.0000 </r>
       <r>  -12.9900    1.0000 </r>
       <r>  -12.9896    1.0000 </r>
       <r>  -12.9891    1.0000 </r>
       <r>  -12.9878    1.0000 </r>
       <r>  -12.9415    1.0000 </r>
       <r>  -12.9409    1.0000 </r>
       <r>  -12.9406    1.0000 </r>
       <r>  -12.9232    1.0000 </r>
       <r>  -12.9222    1.0000 </r>
       <r>  -12.9214    1.0000 </r>
       <r>  -12.9213    1.0000 </r>
       <r>  -12.9194    1.0000 </r>
       <r>  -12.9170    1.0000 </r>
       <r>   -2.7000    1.0000 </r>
       <r>   -2.7000    1.0000 </r>
       <r>   -2.7000    1.0000 </r>
       <r>   -2.6999    1.0000 </r>
       <r>   -2.4240    1.0000 </r>
       <r>   -2.4240    1.0000 </r>
       <r>   -2.4240    1.0000 </r>
       <r>   -2.2076    1.0000 </r>
       <r>   -2.2070    1.0000 </r>
       <r>   -2.2056    1.0000 </r>
       <r>   -2.2050    1.0000 </r>
       <r>   -2.2047    1.0000 </r>
       <r>   -2.2043    1.0000 </r>
       <r>   -2.2042    1.0000 </r>
       <r>   -2.2038    1.0000 </r>
       <r>   -2.2035    1.0000 </r>
       <r>   -2.2029    1.0000 </r>
       <r>   -2.2017    1.0000 </r>
       <r>   -2.2010    1.0000 </r>
       <r>   -1.9287    1.0000 </r>
       <r>   -1.9271    1.0000 </r>
       <r>   -1.9269    1.0000 </r>
       <r>   -1.9256    1.0000 </r>
       <r>   -1.9247    1.0000 </r>
       <r>   -1.9247    1.0000 </r>
       <r>   -1.9246    1.0000 </r>
       <r>   -1.9246    1.0000 </r>
       <r>   -1.9237    1.0000 </r>
       <r>   -1.9224    1.0000 </r>
       <r>   -1.9222    1.0000 </r>
       <r>   -1.9207    1.0000 </r>
       <r>   -1.7977    1.0000 </r>
       <r>   -1.7969    1.0000 </r>
       <r>   -1.7966    1.0000 </r>
       <r>   -1.7965    1.0000 </r>
       <r>   -1.7964    1.0000 </r>
       <r>   -1.7955    1.0000 </r>
       <r>   -1.5088    1.0000 </r>
       <r>   -1.5087    1.0000 </r>
       <r>   -1.5060    1.0000 </r>
       <r>   -1.5059    1.0000 </r>
       <r>   -1.5059    1.0000 </r>
       <r>   -1.5057    1.0000 </r>
       <r>   -1.5054    1.0000 </r>
       <r>   -1.5052    1.0000 </r>
       <r>   -1.5046    1.0000 </r>
       <r>   -1.5046    1.0000 </r>
       <r>   -1.5023    1.0000 </r>
       <r>   -1.5020    1.0000 </r>
       <r>   -1.4651    1.0000 </r>
       <r>   -1.4631    1.0000 </r>
       <r>   -1.4626    1.0000 </r>
       <r>   -1.4623    1.0000 </r>
       <r>   -1.4622    1.0000 </r>
       <r>   -1.4604    1.0000 </r>
       <r>   -1.2948    1.0000 </r>
       <r>   -1.2947    1.0000 </r>
       <r>   -1.2947    1.0000 </r>
       <r>   -1.2947    1.0000 </r>
       <r>   -1.2946    1.0000 </r>
       <r>   -1.2945    1.0000 </r>
       <r>   -1.0045    1.0000 </r>
       <r>   -1.0043    1.0000 </r>
       <r>   -1.0020    1.0000 </r>
       <r>   -1.0018    1.0000 </r>
       <r>   -1.0013    1.0000 </r>
       <r>   -1.0008    1.0000 </r>
       <r>   -1.0008    1.0000 </r>
       <r>   -1.0006    1.0000 </r>
       <r>   -1.0001    1.0000 </r>
       <r>   -0.9999    1.0000 </r>
       <r>   -0.9981    1.0000 </r>
       <r>   -0.9975    1.0000 </r>
       <r>   -0.9537    1.0000 </r>
       <r>   -0.9524    1.0000 </r>
       <r>   -0.9503    1.0000 </r>
       <r>   -0.9496    1.0000 </r>
       <r>   -0.9483    1.0000 </r>
       <r>   -0.9482    1.0000 </r>
       <r>   -0.9479    1.0000 </r>
       <r>   -0.9476    1.0000 </r>
       <r>   -0.9475    1.0000 </r>
       <r>   -0.9474    1.0000 </r>
       <r>   -0.9470    1.0000 </r>
       <r>   -0.9467    1.0000 </r>
       <r>   -0.9458    1.0000 </r>
       <r>   -0.9458    1.0000 </r>
       <r>   -0.9456    1.0000 </r>
       <r>   -0.9453    1.0000 </r>
       <r>   -0.9426    1.0000 </r>
       <r>   -0.9424    1.0000 </r>
       <r>   -0.9412    1.0000 </r>
       <r>   -0.9404    1.0000 </r>
       <r>   -0.6649    1.0000 </r>
       <r>   -0.6648    1.0000 </r>
       <r>   -0.6648    1.0000 </r>
       <r>    4.3403    0.0000 </r>
       <r>    6.3620    0.0000 </r>
       <r>    6.3666    0.0000 </r>
       <r>    6.3680    0.0000 </r>
       <r>    6.3682    0.0000 </r>
       <r>    6.3697    0.0000 </r>
       <r>    6.3738    0.0000 </r>
       <r>    6.4446    0.0000 </r>
       <r>    6.4446    0.0000 </r>
       <r>    6.4447    0.0000 </r>
       <r>    6.4448    0.0000 </r>
       <r>    6.8279    0.0000 </r>
       <r>    6.8280    0.0000 </r>
       <r>    6.8281    0.0000 </r>
       <r>    7.2068    0.0000 </r>
       <r>    7.2068    0.0000 </r>
       <r>    7.2069    0.0000 </r>
       <r>    7.4544    0.0000 </r>
       <r>    7.4590    0.0000 </r>
       <r>    7.4602    0.0000 </r>
       <r>    7.4628    0.0000 </r>
       <r>    7.4638    0.0000 </r>
       <r>    7.4641    0.0000 </r>
       <r>    7.4642    0.0000 </r>
       <r>    7.4646    0.0000 </r>
       <r>    7.4656    0.0000 </r>
       <r>    7.4682    0.0000 </r>
       <r>    7.4694    0.0000 </r>
       <r>    7.4734    0.0000 </r>
       <r>    8.1636    0.0000 </r>
       <r>    8.1672    0.0000 </r>
       <r>    8.1681    0.0000 </r>
       <r>    8.1684    0.0000 </r>
       <r>    8.1693    0.0000 </r>
       <r>    8.1733    0.0000 </r>
       <r>    8.2760    0.0000 </r>
       <r>    8.2787    0.0000 </r>
       <r>    8.2796    0.0000 </r>
       <r>    8.2797    0.0000 </r>
       <r>    8.2805    0.0000 </r>
       <r>    8.2831    0.0000 </r>
       <r>    8.8905    0.0000 </r>
       <r>    8.8921    0.0000 </r>
       <r>    8.8961    0.0000 </r>
       <r>    8.8976    0.0000 </r>
       <r>    8.8987    0.0000 </r>
       <r>    8.9004    0.0000 </r>
       <r>    8.9007    0.0000 </r>
       <r>    8.9021    0.0000 </r>
       <r>    8.9029    0.0000 </r>
       <r>    8.9035    0.0000 </r>
       <r>    8.9050    0.0000 </r>
       <r>    8.9059    0.0000 </r>
       <r>    8.9114    0.0000 </r>
       <r>    8.9139    0.0000 </r>
       <r>    8.9156    0.0000 </r>
       <r>    8.9159    0.0000 </r>
       <r>    8.9168    0.0000 </r>
       <r>    8.9170    0.0000 </r>
       <r>    8.9175    0.0000 </r>
       <r>    8.9189    0.0000 </r>
       <r>    8.9197    0.0000 </r>
       <r>    8.9232    0.0000 </r>
       <r>    8.9270    0.0000 </r>
      </set>
      <set comment="kpoint 2">
       <r>  -21.3038    1.0000 </r>
       <r>  -21.3032    1.0000 </r>
       <r>  -21.3031    1.0000 </r>
       <r>  -21.3031    1.0000 </r>
       <r>  -21.3023    1.0000 </r>
       <r>  -21.3012    1.0000 </r>
       <r>  -21.3004    1.0000 </r>
       <r>  -21.2986    1.0000 </r>
       <r>  -21.2952    1.0000 </r>
       <r>  -21.2951    1.0000 </r>
       <r>  -21.2946    1.0000 </r>
       <r>  -21.2942    1.0000 </r>
       <r>  -21.2932    1.0000 </r>
       <r>  -21.2926    1.0000 </r>
       <r>  -21.2922    1.0000 </r>
       <r>  -21.2920    1.0000 </r>
       <r>  -21.2919    1.0000 </r>
       <r>  -21.2917    1.0000 </r>
       <r>  -21.2915    1.0000 </r>
       <r>  -21.2915    1.0000 </r>
       <r>  -21.2910    1.0000 </r>
       <r>  -21.2902    1.0000 </r>
       <r>  -21.2889    1.0000 </r>
       <r>  -21.2883    1.0000 </r>
       <r>  -21.2880    1.0000 </r>
       <r>  -21.2880    1.0000 </r>
       <r>  -21.2875    1.0000 </r>
       <r>  -21.2873    1.0000 </r>
       <r>  -21.2871    1.0000 </r>
       <r>  -21.2866    1.0000 </r>
       <r>  -21.2863    1.0000 </r>
       <r>  -21.2862    1.0000 </r>
       <r>  -21.2859    1.0000 </r>
       <r>  -21.2858    1.0000 </r>
       <r>  -21.2837    1.0000 </r>
       <r>  -21.2833    1.0000 </r>
       <r>  -21.2831    1.0000 </r>
       <r>  -21.2831    1.0000 </r>
       <r>  -21.2830    1.0000 </r>
       <r>  -21.2825    1.0000 </r>
       <r>  -21.2824    1.0000 </r>
       <r>  -21.2823    1.0000 </r>
       <r>  -21.2813    1.0000 </r>
       <r>  -21.2812    1.0000 </r>
       <r>  -21.2805    1.0000 </r>
       <r>  -21.2801    1.0000 </r>
       <r>  -21.2800    1.0000 </r>
       <r>  -21.2797    1.0000 </r>
       <r>  -21.2793    1.0000 </r>
       <r>  -21.2787    1.0000 </r>
       <r>  -21.2780    1.0000 </r>
       <r>  -21.2780    1.0000 </r>
       <r>  -21.2774    1.0000 </r>
       <r>  -21.2773    1.0000 </r>
       <r>  -21.2773    1.0000 </r>
       <r>  -21.2772    1.0000 </r>
       <r>  -21.2770    1.0000 </r>
       <r>  -21.2768    1.0000 </r>
       <r>  -21.2766    1.0000 </r>
       <r>  -21.2762    1.0000 </r>
       <r>  -21.2760    1.0000 </r>
       <r>  -21.2756    1.0000 </r>
       <r>  -21.2754    1.0000 </r>
       <r>  -21.2752    1.0000 </r>
       <r>  -21.2751    1.0000 </r>
       <r>  -21.2750    1.0000 </r>
       <r>  -21.2746    1.0000 </r>
       <r>  -21.2746    1.0000 </r>
       <r>  -21.2742    1.0000 </r>
       <r>  -21.2742    1.0000 </r>
       <r>  -21.2740    1.0000 </r>
       <r>  -21.2735    1.0000 </r>
       <r>  -21.2735    1.0000 </r>
       <r>  -21.2733    1.0000 </r>
       <r>  -21.2732    1.0000 </r>
       <r>  -21.2732    1.0000 </r>
       <r>  -21.2728    1.0000 </r>
       <r>  -21.2726    1.0000 </r>
       <r>  -21.2718    1.0000 </r>
       <r>  -21.2717    1.0000 </r>
       <r>  -21.2715    1.0000 </r>
       <r>  -21.2712    1.0000 </r>
       <r>  -21.2712    1.0000 </r>
       <r>  -21.2711    1.0000 </r>
       <r>  -21.2710    1.0000 </r>
       <r>  -21.2706    1.0000 </r>
       <r>  -21.2702    1.0000 </r>
       <r>  -21.2701    1.0000 </r>
       <r>  -21.2697    1.0000 </r>
       <r>  -21.2695    1.0000 </r>
       <r>  -21.2695    1.0000 </r>
       <r>  -21.2689    1.0000 </r>
       <r>  -21.2687    1.0000 </r>
       <r>  -21.2547    1.0000 </r>
       <r>  -21.2544    1.0000 </r>
       <r>  -21.2542    1.0000 </r>
       <r>  -13.2939    1.0000 </r>
       <r>  -13.2887    1.0000 </r>
       <r>  -13.1048    1.0000 </r>
       <r>  -13.0989    1.0000 </r>
       <r>  -13.0982    1.0000 </r>
       <r>  -13.0970    1.0000 </r>
       <r>  -13.0966    1.0000 </r>
       <r>  -13.0955    1.0000 </r>
       <r>  -13.0952    1.0000 </r>
       <r>  -13.0904    1.0000 </r>
       <r>  -13.0094    1.0000 </r>
       <r>  -13.0034    1.0000 </r>
       <r>  -13.0015    1.0000 </r>
       <r>  -13.0012    1.0000 </r>
       <r>  -13.0006    1.0000 </r>
       <r>  -13.0006    1.0000 </r>
       <r>  -12.9977    1.0000 </r>
       <r>  -12.9967    1.0000 </r>
       <r>  -12.9964    1.0000 </r>
       <r>  -12.9900    1.0000 </r>
       <r>  -12.9506    1.0000 </r>
       <r>  -12.9455    1.0000 </r>
       <r>  -12.9451    1.0000 </r>
       <r>  -12.9439    1.0000 </r>
       <r>  -12.9435    1.0000 </r>
       <r>  -12.9424    1.0000 </r>
       <r>  -12.9418    1.0000 </r>
       <r>  -12.9372    1.0000 </r>
       <r>  -12.9345    1.0000 </r>
       <r>  -12.9307    1.0000 </r>
       <r>  -12.9305    1.0000 </r>
       <r>  -12.9251    1.0000 </r>
       <r>   -2.5082    1.0000 </r>
       <r>   -2.5081    1.0000 </r>
       <r>   -2.5065    1.0000 </r>
       <r>   -2.5051    1.0000 </r>
       <r>   -2.5035    1.0000 </r>
       <r>   -2.5023    1.0000 </r>
       <r>   -2.5007    1.0000 </r>
       <r>   -2.5006    1.0000 </r>
       <r>   -2.2902    1.0000 </r>
       <r>   -2.2902    1.0000 </r>
       <r>   -2.2852    1.0000 </r>
       <r>   -2.2851    1.0000 </r>
       <r>   -2.2769    1.0000 </r>
       <r>   -2.2715    1.0000 </r>
       <r>   -2.1416    1.0000 </r>
       <r>   -2.1379    1.0000 </r>
       <r>   -2.1365    1.0000 </r>
       <r>   -2.1363    1.0000 </r>
       <r>   -2.1363    1.0000 </r>
       <r>   -2.1358    1.0000 </r>
       <r>   -2.1358    1.0000 </r>
       <r>   -2.1312    1.0000 </r>
       <r>   -1.9878    1.0000 </r>
       <r>   -1.9877    1.0000 </r>
       <r>   -1.9859    1.0000 </r>
       <r>   -1.9854    1.0000 </r>
       <r>   -1.9852    1.0000 </r>
       <r>   -1.9849    1.0000 </r>
       <r>   -1.9832    1.0000 </r>
       <r>   -1.9831    1.0000 </r>
       <r>   -1.8122    1.0000 </r>
       <r>   -1.8121    1.0000 </r>
       <r>   -1.8105    1.0000 </r>
       <r>   -1.8101    1.0000 </r>
       <r>   -1.8099    1.0000 </r>
       <r>   -1.8071    1.0000 </r>
       <r>   -1.8053    1.0000 </r>
       <r>   -1.8027    1.0000 </r>
       <r>   -1.5001    1.0000 </r>
       <r>   -1.5000    1.0000 </r>
       <r>   -1.4955    1.0000 </r>
       <r>   -1.4955    1.0000 </r>
       <r>   -1.3859    1.0000 </r>
       <r>   -1.3805    1.0000 </r>
       <r>   -1.3804    1.0000 </r>
       <r>   -1.3751    1.0000 </r>
       <r>   -1.2155    1.0000 </r>
       <r>   -1.2149    1.0000 </r>
       <r>   -1.2102    1.0000 </r>
       <r>   -1.2098    1.0000 </r>
       <r>   -1.1939    1.0000 </r>
       <r>   -1.1933    1.0000 </r>
       <r>   -1.1927    1.0000 </r>
       <r>   -1.1913    1.0000 </r>
       <r>   -1.1909    1.0000 </r>
       <r>   -1.1900    1.0000 </r>
       <r>   -1.1893    1.0000 </r>
       <r>   -1.1887    1.0000 </r>
       <r>   -1.1786    1.0000 </r>
       <r>   -1.1771    1.0000 </r>
       <r>   -1.1760    1.0000 </r>
       <r>   -1.1755    1.0000 </r>
       <r>   -1.1734    1.0000 </r>
       <r>   -1.1732    1.0000 </r>
       <r>   -1.1714    1.0000 </r>
       <r>   -1.1679    1.0000 </r>
       <r>   -1.1625    1.0000 </r>
       <r>   -1.1625    1.0000 </r>
       <r>   -1.1611    1.0000 </r>
       <r>   -1.1601    1.0000 </r>
       <r>   -1.1600    1.0000 </r>
       <r>   -1.1583    1.0000 </r>
       <r>   -1.1561    1.0000 </r>
       <r>   -1.1542    1.0000 </r>
       <r>   -1.0857    1.0000 </r>
       <r>   -1.0805    1.0000 </r>
       <r>   -0.9518    1.0000 </r>
       <r>   -0.9517    1.0000 </r>
       <r>   -0.9472    1.0000 </r>
       <r>   -0.9470    1.0000 </r>
       <r>   -0.9469    1.0000 </r>
       <r>   -0.9468    1.0000 </r>
       <r>   -0.9421    1.0000 </r>
       <r>   -0.9417    1.0000 </r>
       <r>   -0.9383    1.0000 </r>
       <r>   -0.9343    1.0000 </r>
       <r>   -0.9333    1.0000 </r>
       <r>   -0.9323    1.0000 </r>
       <r>   -0.9322    1.0000 </r>
       <r>   -0.9309    1.0000 </r>
       <r>   -0.9309    1.0000 </r>
       <r>   -0.9256    1.0000 </r>
       <r>   -0.7707    1.0000 </r>
       <r>   -0.7706    1.0000 </r>
       <r>   -0.7659    1.0000 </r>
       <r>   -0.7658    1.0000 </r>
       <r>    5.0205    0.0000 </r>
       <r>    5.0241    0.0000 </r>
       <r>    6.7109    0.0000 </r>
       <r>    6.7143    0.0000 </r>
       <r>    6.7165    0.0000 </r>
       <r>    6.7166    0.0000 </r>
       <r>    6.7188    0.0000 </r>
       <r>    6.7196    0.0000 </r>
       <r>    6.7202    0.0000 </r>
       <r>    6.7281    0.0000 </r>
       <r>    6.8397    0.0000 </r>
       <r>    6.8399    0.0000 </r>
       <r>    6.8399    0.0000 </r>
       <r>    6.8404    0.0000 </r>
       <r>    6.8446    0.0000 </r>
       <r>    6.8451    0.0000 </r>
       <r>    6.8482    0.0000 </r>
       <r>    6.8484    0.0000 </r>
       <r>    6.9696    0.0000 </r>
       <r>    6.9726    0.0000 </r>
       <r>    7.3591    0.0000 </r>
       <r>    7.3623    0.0000 </r>
       <r>    7.3627    0.0000 </r>
       <r>    7.3661    0.0000 </r>
       <r>    7.4774    0.0000 </r>
       <r>    7.4831    0.0000 </r>
       <r>    7.7116    0.0000 </r>
       <r>    7.7116    0.0000 </r>
       <r>    7.7176    0.0000 </r>
       <r>    7.7176    0.0000 </r>
       <r>    8.2607    0.0000 </r>
       <r>    8.2622    0.0000 </r>
       <r>    8.2637    0.0000 </r>
       <r>    8.2640    0.0000 </r>
       <r>    8.2663    0.0000 </r>
       <r>    8.2673    0.0000 </r>
       <r>    8.2682    0.0000 </r>
       <r>    8.2745    0.0000 </r>
       <r>    8.5292    0.0000 </r>
       <r>    8.5313    0.0000 </r>
       <r>    8.5322    0.0000 </r>
       <r>    8.5349    0.0000 </r>
       <r>    8.5362    0.0000 </r>
       <r>    8.5368    0.0000 </r>
       <r>    8.5370    0.0000 </r>
       <r>    8.5377    0.0000 </r>
       <r>    8.5384    0.0000 </r>
       <r>    8.5385    0.0000 </r>
       <r>    8.5402    0.0000 </r>
       <r>    8.5415    0.0000 </r>
       <r>    8.5426    0.0000 </r>
       <r>    8.5442    0.0000 </r>
       <r>    8.5459    0.0000 </r>
       <r>    8.5494    0.0000 </r>
       <r>    8.9442    0.0000 </r>
       <r>    8.9459    0.0000 </r>
       <r>    8.9485    0.0000 </r>
       <r>    8.9485    0.0000 </r>
       <r>    8.9502    0.0000 </r>
       <r>    8.9533    0.0000 </r>
       <r>    8.9537    0.0000 </r>
       <r>    8.9632    0.0000 </r>
       <r>    9.4865    0.0000 </r>
       <r>    9.4944    0.0000 </r>
      </set>
      <set comment="kpoint 3">
       <r>  -21.3054    1.0000 </r>
       <r>  -21.3050    1.0000 </r>
       <r>  -21.3039    1.0000 </r>
       <r>  -21.3003    1.0000 </r>
       <r>  -21.2991    1.0000 </r>
       <r>  -21.2990    1.0000 </r>
       <r>  -21.2989    1.0000 </r>
       <r>  -21.2986    1.0000 </r>
       <r>  -21.2975    1.0000 </r>
       <r>  -21.2966    1.0000 </r>
       <r>  -21.2965    1.0000 </r>
       <r>  -21.2949    1.0000 </r>
       <r>  -21.2945    1.0000 </r>
       <r>  -21.2935    1.0000 </r>
       <r>  -21.2926    1.0000 </r>
       <r>  -21.2925    1.0000 </r>
       <r>  -21.2918    1.0000 </r>
       <r>  -21.2915    1.0000 </r>
       <r>  -21.2907    1.0000 </r>
       <r>  -21.2903    1.0000 </r>
       <r>  -21.2900    1.0000 </r>
       <r>  -21.2899    1.0000 </r>
       <r>  -21.2892    1.0000 </r>
       <r>  -21.2889    1.0000 </r>
       <r>  -21.2883    1.0000 </r>
       <r>  -21.2882    1.0000 </r>
       <r>  -21.2876    1.0000 </r>
       <r>  -21.2873    1.0000 </r>
       <r>  -21.2872    1.0000 </r>
       <r>  -21.2860    1.0000 </r>
       <r>  -21.2859    1.0000 </r>
       <r>  -21.2858    1.0000 </r>
       <r>  -21.2857    1.0000 </r>
       <r>  -21.2855    1.0000 </r>
       <r>  -21.2849    1.0000 </r>
       <r>  -21.2837    1.0000 </r>
       <r>  -21.2831    1.0000 </r>
       <r>  -21.2828    1.0000 </r>
       <r>  -21.2828    1.0000 </r>
       <r>  -21.2823    1.0000 </r>
       <r>  -21.2822    1.0000 </r>
       <r>  -21.2813    1.0000 </r>
       <r>  -21.2813    1.0000 </r>
       <r>  -21.2806    1.0000 </r>
       <r>  -21.2804    1.0000 </r>
       <r>  -21.2802    1.0000 </r>
       <r>  -21.2794    1.0000 </r>
       <r>  -21.2792    1.0000 </r>
       <r>  -21.2792    1.0000 </r>
       <r>  -21.2790    1.0000 </r>
       <r>  -21.2781    1.0000 </r>
       <r>  -21.2780    1.0000 </r>
       <r>  -21.2779    1.0000 </r>
       <r>  -21.2774    1.0000 </r>
       <r>  -21.2773    1.0000 </r>
       <r>  -21.2770    1.0000 </r>
       <r>  -21.2770    1.0000 </r>
       <r>  -21.2769    1.0000 </r>
       <r>  -21.2768    1.0000 </r>
       <r>  -21.2765    1.0000 </r>
       <r>  -21.2760    1.0000 </r>
       <r>  -21.2755    1.0000 </r>
       <r>  -21.2755    1.0000 </r>
       <r>  -21.2749    1.0000 </r>
       <r>  -21.2749    1.0000 </r>
       <r>  -21.2748    1.0000 </r>
       <r>  -21.2747    1.0000 </r>
       <r>  -21.2744    1.0000 </r>
       <r>  -21.2741    1.0000 </r>
       <r>  -21.2740    1.0000 </r>
       <r>  -21.2740    1.0000 </r>
       <r>  -21.2739    1.0000 </r>
       <r>  -21.2739    1.0000 </r>
       <r>  -21.2738    1.0000 </r>
       <r>  -21.2730    1.0000 </r>
       <r>  -21.2728    1.0000 </r>
       <r>  -21.2727    1.0000 </r>
       <r>  -21.2726    1.0000 </r>
       <r>  -21.2725    1.0000 </r>
       <r>  -21.2722    1.0000 </r>
       <r>  -21.2720    1.0000 </r>
       <r>  -21.2717    1.0000 </r>
       <r>  -21.2717    1.0000 </r>
       <r>  -21.2713    1.0000 </r>
       <r>  -21.2712    1.0000 </r>
       <r>  -21.2703    1.0000 </r>
       <r>  -21.2703    1.0000 </r>
       <r>  -21.2696    1.0000 </r>
       <r>  -21.2695    1.0000 </r>
       <r>  -21.2694    1.0000 </r>
       <r>  -21.2693    1.0000 </r>
       <r>  -21.2684    1.0000 </r>
       <r>  -21.2683    1.0000 </r>
       <r>  -21.2546    1.0000 </r>
       <r>  -21.2544    1.0000 </r>
       <r>  -21.2543    1.0000 </r>
       <r>  -13.2933    1.0000 </r>
       <r>  -13.2894    1.0000 </r>
       <r>  -13.1061    1.0000 </r>
       <r>  -13.0991    1.0000 </r>
       <r>  -13.0987    1.0000 </r>
       <r>  -13.0956    1.0000 </r>
       <r>  -13.0947    1.0000 </r>
       <r>  -13.0947    1.0000 </r>
       <r>  -13.0947    1.0000 </r>
       <r>  -13.0930    1.0000 </r>
       <r>  -13.0097    1.0000 </r>
       <r>  -13.0050    1.0000 </r>
       <r>  -13.0008    1.0000 </r>
       <r>  -13.0006    1.0000 </r>
       <r>  -13.0006    1.0000 </r>
       <r>  -13.0004    1.0000 </r>
       <r>  -12.9962    1.0000 </r>
       <r>  -12.9962    1.0000 </r>
       <r>  -12.9950    1.0000 </r>
       <r>  -12.9930    1.0000 </r>
       <r>  -12.9521    1.0000 </r>
       <r>  -12.9463    1.0000 </r>
       <r>  -12.9459    1.0000 </r>
       <r>  -12.9420    1.0000 </r>
       <r>  -12.9414    1.0000 </r>
       <r>  -12.9414    1.0000 </r>
       <r>  -12.9413    1.0000 </r>
       <r>  -12.9407    1.0000 </r>
       <r>  -12.9317    1.0000 </r>
       <r>  -12.9310    1.0000 </r>
       <r>  -12.9307    1.0000 </r>
       <r>  -12.9262    1.0000 </r>
       <r>   -2.5076    1.0000 </r>
       <r>   -2.5069    1.0000 </r>
       <r>   -2.5048    1.0000 </r>
       <r>   -2.5046    1.0000 </r>
       <r>   -2.5040    1.0000 </r>
       <r>   -2.5040    1.0000 </r>
       <r>   -2.5020    1.0000 </r>
       <r>   -2.5012    1.0000 </r>
       <r>   -2.2891    1.0000 </r>
       <r>   -2.2890    1.0000 </r>
       <r>   -2.2863    1.0000 </r>
       <r>   -2.2863    1.0000 </r>
       <r>   -2.2762    1.0000 </r>
       <r>   -2.2721    1.0000 </r>
       <r>   -2.1418    1.0000 </r>
       <r>   -2.1380    1.0000 </r>
       <r>   -2.1368    1.0000 </r>
       <r>   -2.1367    1.0000 </r>
       <r>   -2.1361    1.0000 </r>
       <r>   -2.1357    1.0000 </r>
       <r>   -2.1336    1.0000 </r>
       <r>   -2.1326    1.0000 </r>
       <r>   -1.9879    1.0000 </r>
       <r>   -1.9868    1.0000 </r>
       <r>   -1.9868    1.0000 </r>
       <r>   -1.9855    1.0000 </r>
       <r>   -1.9852    1.0000 </r>
       <r>   -1.9843    1.0000 </r>
       <r>   -1.9842    1.0000 </r>
       <r>   -1.9830    1.0000 </r>
       <r>   -1.8114    1.0000 </r>
       <r>   -1.8107    1.0000 </r>
       <r>   -1.8096    1.0000 </r>
       <r>   -1.8090    1.0000 </r>
       <r>   -1.8079    1.0000 </r>
       <r>   -1.8079    1.0000 </r>
       <r>   -1.8067    1.0000 </r>
       <r>   -1.8066    1.0000 </r>
       <r>   -1.5011    1.0000 </r>
       <r>   -1.5010    1.0000 </r>
       <r>   -1.4945    1.0000 </r>
       <r>   -1.4944    1.0000 </r>
       <r>   -1.3847    1.0000 </r>
       <r>   -1.3808    1.0000 </r>
       <r>   -1.3800    1.0000 </r>
       <r>   -1.3763    1.0000 </r>
       <r>   -1.2154    1.0000 </r>
       <r>   -1.2142    1.0000 </r>
       <r>   -1.2107    1.0000 </r>
       <r>   -1.2106    1.0000 </r>
       <r>   -1.1951    1.0000 </r>
       <r>   -1.1930    1.0000 </r>
       <r>   -1.1923    1.0000 </r>
       <r>   -1.1915    1.0000 </r>
       <r>   -1.1911    1.0000 </r>
       <r>   -1.1909    1.0000 </r>
       <r>   -1.1897    1.0000 </r>
       <r>   -1.1881    1.0000 </r>
       <r>   -1.1780    1.0000 </r>
       <r>   -1.1780    1.0000 </r>
       <r>   -1.1761    1.0000 </r>
       <r>   -1.1760    1.0000 </r>
       <r>   -1.1733    1.0000 </r>
       <r>   -1.1707    1.0000 </r>
       <r>   -1.1703    1.0000 </r>
       <r>   -1.1699    1.0000 </r>
       <r>   -1.1637    1.0000 </r>
       <r>   -1.1627    1.0000 </r>
       <r>   -1.1614    1.0000 </r>
       <r>   -1.1597    1.0000 </r>
       <r>   -1.1577    1.0000 </r>
       <r>   -1.1576    1.0000 </r>
       <r>   -1.1552    1.0000 </r>
       <r>   -1.1552    1.0000 </r>
       <r>   -1.0856    1.0000 </r>
       <r>   -1.0808    1.0000 </r>
       <r>   -0.9518    1.0000 </r>
       <r>   -0.9508    1.0000 </r>
       <r>   -0.9470    1.0000 </r>
       <r>   -0.9469    1.0000 </r>
       <r>   -0.9468    1.0000 </r>
       <r>   -0.9468    1.0000 </r>
       <r>   -0.9426    1.0000 </r>
       <r>   -0.9423    1.0000 </r>
       <r>   -0.9383    1.0000 </r>
       <r>   -0.9340    1.0000 </r>
       <r>   -0.9337    1.0000 </r>
       <r>   -0.9314    1.0000 </r>
       <r>   -0.9307    1.0000 </r>
       <r>   -0.9306    1.0000 </r>
       <r>   -0.9302    1.0000 </r>
       <r>   -0.9293    1.0000 </r>
       <r>   -0.7711    1.0000 </r>
       <r>   -0.7709    1.0000 </r>
       <r>   -0.7654    1.0000 </r>
       <r>   -0.7654    1.0000 </r>
       <r>    5.0188    0.0000 </r>
       <r>    5.0259    0.0000 </r>
       <r>    6.7088    0.0000 </r>
       <r>    6.7141    0.0000 </r>
       <r>    6.7144    0.0000 </r>
       <r>    6.7186    0.0000 </r>
       <r>    6.7196    0.0000 </r>
       <r>    6.7219    0.0000 </r>
       <r>    6.7219    0.0000 </r>
       <r>    6.7261    0.0000 </r>
       <r>    6.8384    0.0000 </r>
       <r>    6.8385    0.0000 </r>
       <r>    6.8401    0.0000 </r>
       <r>    6.8427    0.0000 </r>
       <r>    6.8437    0.0000 </r>
       <r>    6.8462    0.0000 </r>
       <r>    6.8482    0.0000 </r>
       <r>    6.8482    0.0000 </r>
       <r>    6.9683    0.0000 </r>
       <r>    6.9741    0.0000 </r>
       <r>    7.3562    0.0000 </r>
       <r>    7.3626    0.0000 </r>
       <r>    7.3626    0.0000 </r>
       <r>    7.3690    0.0000 </r>
       <r>    7.4789    0.0000 </r>
       <r>    7.4816    0.0000 </r>
       <r>    7.7110    0.0000 </r>
       <r>    7.7110    0.0000 </r>
       <r>    7.7182    0.0000 </r>
       <r>    7.7182    0.0000 </r>
       <r>    8.2552    0.0000 </r>
       <r>    8.2625    0.0000 </r>
       <r>    8.2636    0.0000 </r>
       <r>    8.2664    0.0000 </r>
       <r>    8.2669    0.0000 </r>
       <r>    8.2680    0.0000 </r>
       <r>    8.2683    0.0000 </r>
       <r>    8.2751    0.0000 </r>
       <r>    8.5277    0.0000 </r>
       <r>    8.5284    0.0000 </r>
       <r>    8.5313    0.0000 </r>
       <r>    8.5355    0.0000 </r>
       <r>    8.5365    0.0000 </r>
       <r>    8.5375    0.0000 </r>
       <r>    8.5377    0.0000 </r>
       <r>    8.5389    0.0000 </r>
       <r>    8.5390    0.0000 </r>
       <r>    8.5393    0.0000 </r>
       <r>    8.5401    0.0000 </r>
       <r>    8.5405    0.0000 </r>
       <r>    8.5410    0.0000 </r>
       <r>    8.5460    0.0000 </r>
       <r>    8.5486    0.0000 </r>
       <r>    8.5488    0.0000 </r>
       <r>    8.9419    0.0000 </r>
       <r>    8.9468    0.0000 </r>
       <r>    8.9498    0.0000 </r>
       <r>    8.9511    0.0000 </r>
       <r>    8.9526    0.0000 </r>
       <r>    8.9547    0.0000 </r>
       <r>    8.9553    0.0000 </r>
       <r>    8.9554    0.0000 </r>
       <r>    9.4899    0.0000 </r>
       <r>    9.5022    0.0000 </r>
      </set>
      <set comment="kpoint 4">
       <r>  -21.3047    1.0000 </r>
       <r>  -21.3038    1.0000 </r>
       <r>  -21.3038    1.0000 </r>
       <r>  -21.3009    1.0000 </r>
       <r>  -21.3002    1.0000 </r>
       <r>  -21.2999    1.0000 </r>
       <r>  -21.2999    1.0000 </r>
       <r>  -21.2993    1.0000 </r>
       <r>  -21.2984    1.0000 </r>
       <r>  -21.2978    1.0000 </r>
       <r>  -21.2957    1.0000 </r>
       <r>  -21.2939    1.0000 </r>
       <r>  -21.2927    1.0000 </r>
       <r>  -21.2926    1.0000 </r>
       <r>  -21.2924    1.0000 </r>
       <r>  -21.2915    1.0000 </r>
       <r>  -21.2915    1.0000 </r>
       <r>  -21.2913    1.0000 </r>
       <r>  -21.2911    1.0000 </r>
       <r>  -21.2907    1.0000 </r>
       <r>  -21.2899    1.0000 </r>
       <r>  -21.2896    1.0000 </r>
       <r>  -21.2891    1.0000 </r>
       <r>  -21.2889    1.0000 </r>
       <r>  -21.2885    1.0000 </r>
       <r>  -21.2883    1.0000 </r>
       <r>  -21.2882    1.0000 </r>
       <r>  -21.2878    1.0000 </r>
       <r>  -21.2876    1.0000 </r>
       <r>  -21.2866    1.0000 </r>
       <r>  -21.2847    1.0000 </r>
       <r>  -21.2846    1.0000 </r>
[...]
      </set>
     </set>
    </set>
   </array>
  </eigenvalues>
  <separator name="orbital magnetization" >
   <v name="MAGDIPOLOUT">      0.00000000      0.00000000      0.00000000</v>
  </separator>
  <dos>
   <i name="efermi">     -0.56463171 </i>
   <total>
    <array>
     <dimension dim="1">gridpoints</dimension>
     <dimension dim="2">spin</dimension>
     <field>energy</field>
     <field>total</field>
     <field>integrated</field>
     <set>
      <set comment="spin 1">
       <r>   -22.8471     0.0000     0.0000 </r>
       <r>   -22.7342     0.0000     0.0000 </r>
       <r>   -22.6212     0.0000     0.0000 </r>
       <r>   -22.5082     0.0000     0.0000 </r>
       <r>   -22.3953     0.0000     0.0000 </r>
       <r>   -22.2823     0.0000     0.0000 </r>
       <r>   -22.1693     0.0000     0.0000 </r>
       <r>   -22.0564     0.0000     0.0000 </r>
       <r>   -21.9434     0.0000     0.0000 </r>
       <r>   -21.8304     0.0000     0.0000 </r>
       <r>   -21.7175     0.0000     0.0000 </r>
       <r>   -21.6045     0.0000     0.0000 </r>
       <r>   -21.4915     0.0000     0.0000 </r>
       <r>   -21.3786     0.0000     0.0000 </r>
       <r>   -21.2656  1378.9003   155.7685 </r>
       <r>   -21.1526   320.7305   192.0000 </r>
       <r>   -21.0397     0.0000   192.0000 </r>
       <r>   -20.9267     0.0000   192.0000 </r>
       <r>   -20.8137     0.0000   192.0000 </r>
       <r>   -20.7008     0.0000   192.0000 </r>
       <r>   -20.5878     0.0000   192.0000 </r>
       <r>   -20.4748     0.0000   192.0000 </r>
       <r>   -20.3619     0.0000   192.0000 </r>
       <r>   -20.2489     0.0000   192.0000 </r>
       <r>   -20.1359     0.0000   192.0000 </r>
       <r>   -20.0230     0.0000   192.0000 </r>
       <r>   -19.9100     0.0000   192.0000 </r>
       <r>   -19.7970     0.0000   192.0000 </r>
       <r>   -19.6841     0.0000   192.0000 </r>
       <r>   -19.5711     0.0000   192.0000 </r>
       <r>   -19.4581     0.0000   192.0000 </r>
       <r>   -19.3452     0.0000   192.0000 </r>
       <r>   -19.2322     0.0000   192.0000 </r>
       <r>   -19.1192     0.0000   192.0000 </r>
       <r>   -19.0063     0.0000   192.0000 </r>
       <r>   -18.8933     0.0000   192.0000 </r>
       <r>   -18.7804     0.0000   192.0000 </r>
       <r>   -18.6674     0.0000   192.0000 </r>
       <r>   -18.5544     0.0000   192.0000 </r>
       <r>   -18.4415     0.0000   192.0000 </r>
       <r>   -18.3285     0.0000   192.0000 </r>
       <r>   -18.2155     0.0000   192.0000 </r>
       <r>   -18.1026     0.0000   192.0000 </r>
       <r>   -17.9896     0.0000   192.0000 </r>
       <r>   -17.8766     0.0000   192.0000 </r>
       <r>   -17.7637     0.0000   192.0000 </r>
       <r>   -17.6507     0.0000   192.0000 </r>
       <r>   -17.5377     0.0000   192.0000 </r>
       <r>   -17.4248     0.0000   192.0000 </r>
       <r>   -17.3118     0.0000   192.0000 </r>
       <r>   -17.1988     0.0000   192.0000 </r>
       <r>   -17.0859     0.0000   192.0000 </r>
       <r>   -16.9729     0.0000   192.0000 </r>
       <r>   -16.8599     0.0000   192.0000 </r>
       <r>   -16.7470     0.0000   192.0000 </r>
       <r>   -16.6340     0.0000   192.0000 </r>
       <r>   -16.5210     0.0000   192.0000 </r>
       <r>   -16.4081     0.0000   192.0000 </r>
       <r>   -16.2951     0.0000   192.0000 </r>
       <r>   -16.1821     0.0000   192.0000 </r>
       <r>   -16.0692     0.0000   192.0000 </r>
       <r>   -15.9562     0.0000   192.0000 </r>
       <r>   -15.8432     0.0000   192.0000 </r>
       <r>   -15.7303     0.0000   192.0000 </r>
       <r>   -15.6173     0.0000   192.0000 </r>
       <r>   -15.5043     0.0000   192.0000 </r>
       <r>   -15.3914     0.0000   192.0000 </r>
       <r>   -15.2784     0.0000   192.0000 </r>
       <r>   -15.1654     0.0000   192.0000 </r>
       <r>   -15.0525     0.0000   192.0000 </r>
       <r>   -14.9395     0.0000   192.0000 </r>
       <r>   -14.8266     0.0000   192.0000 </r>
       <r>   -14.7136     0.0000   192.0000 </r>
       <r>   -14.6006     0.0000   192.0000 </r>
       <r>   -14.4877     0.0000   192.0000 </r>
       <r>   -14.3747     0.0000   192.0000 </r>
       <r>   -14.2617     0.0000   192.0000 </r>
       <r>   -14.1488     0.0000   192.0000 </r>
       <r>   -14.0358     0.0000   192.0000 </r>
       <r>   -13.9228     0.0000   192.0000 </r>
       <r>   -13.8099     0.0000   192.0000 </r>
       <r>   -13.6969     0.0000   192.0000 </r>
       <r>   -13.5839     0.0000   192.0000 </r>
       <r>   -13.4710     0.0000   192.0000 </r>
       <r>   -13.3580     1.1110   192.1255 </r>
       <r>   -13.2450    19.1414   194.2878 </r>
       <r>   -13.1321    48.5612   199.7737 </r>
       <r>   -13.0191   125.0867   213.9045 </r>
       <r>   -12.9061   367.6949   255.4419 </r>
       <r>   -12.7932     4.9311   256.0000 </r>
       <r>   -12.6802     0.0000   256.0000 </r>
       <r>   -12.5672     0.0000   256.0000 </r>
       <r>   -12.4543     0.0000   256.0000 </r>
       <r>   -12.3413     0.0000   256.0000 </r>
       <r>   -12.2283     0.0000   256.0000 </r>
       <r>   -12.1154     0.0000   256.0000 </r>
       <r>   -12.0024     0.0000   256.0000 </r>
       <r>   -11.8894     0.0000   256.0000 </r>
       <r>   -11.7765     0.0000   256.0000 </r>
       <r>   -11.6635     0.0000   256.0000 </r>
       <r>   -11.5505     0.0000   256.0000 </r>
       <r>   -11.4376     0.0000   256.0000 </r>
       <r>   -11.3246     0.0000   256.0000 </r>
       <r>   -11.2116     0.0000   256.0000 </r>
       <r>   -11.0987     0.0000   256.0000 </r>
       <r>   -10.9857     0.0000   256.0000 </r>
       <r>   -10.8728     0.0000   256.0000 </r>
       <r>   -10.7598     0.0000   256.0000 </r>
       <r>   -10.6468     0.0000   256.0000 </r>
       <r>   -10.5339     0.0000   256.0000 </r>
       <r>   -10.4209     0.0000   256.0000 </r>
       <r>   -10.3079     0.0000   256.0000 </r>
       <r>   -10.1950     0.0000   256.0000 </r>
       <r>   -10.0820     0.0000   256.0000 </r>
       <r>    -9.9690     0.0000   256.0000 </r>
       <r>    -9.8561     0.0000   256.0000 </r>
       <r>    -9.7431     0.0000   256.0000 </r>
       <r>    -9.6301     0.0000   256.0000 </r>
       <r>    -9.5172     0.0000   256.0000 </r>
       <r>    -9.4042     0.0000   256.0000 </r>
       <r>    -9.2912     0.0000   256.0000 </r>
       <r>    -9.1783     0.0000   256.0000 </r>
       <r>    -9.0653     0.0000   256.0000 </r>
       <r>    -8.9523     0.0000   256.0000 </r>
       <r>    -8.8394     0.0000   256.0000 </r>
       <r>    -8.7264     0.0000   256.0000 </r>
       <r>    -8.6134     0.0000   256.0000 </r>
       <r>    -8.5005     0.0000   256.0000 </r>
       <r>    -8.3875     0.0000   256.0000 </r>
       <r>    -8.2745     0.0000   256.0000 </r>
       <r>    -8.1616     0.0000   256.0000 </r>
       <r>    -8.0486     0.0000   256.0000 </r>
       <r>    -7.9356     0.0000   256.0000 </r>
       <r>    -7.8227     0.0000   256.0000 </r>
       <r>    -7.7097     0.0000   256.0000 </r>
       <r>    -7.5967     0.0000   256.0000 </r>
       <r>    -7.4838     0.0000   256.0000 </r>
       <r>    -7.3708     0.0000   256.0000 </r>
       <r>    -7.2578     0.0000   256.0000 </r>
       <r>    -7.1449     0.0000   256.0000 </r>
       <r>    -7.0319     0.0000   256.0000 </r>
       <r>    -6.9190     0.0000   256.0000 </r>
       <r>    -6.8060     0.0000   256.0000 </r>
       <r>    -6.6930     0.0000   256.0000 </r>
       <r>    -6.5801     0.0000   256.0000 </r>
       <r>    -6.4671     0.0000   256.0000 </r>
       <r>    -6.3541     0.0000   256.0000 </r>
       <r>    -6.2412     0.0000   256.0000 </r>
       <r>    -6.1282     0.0000   256.0000 </r>
       <r>    -6.0152     0.0000   256.0000 </r>
       <r>    -5.9023     0.0000   256.0000 </r>
       <r>    -5.7893     0.0000   256.0000 </r>
       <r>    -5.6763     0.0000   256.0000 </r>
       <r>    -5.5634     0.0000   256.0000 </r>
       <r>    -5.4504     0.0000   256.0000 </r>
       <r>    -5.3374     0.0000   256.0000 </r>
       <r>    -5.2245     0.0000   256.0000 </r>
       <r>    -5.1115     0.0000   256.0000 </r>
       <r>    -4.9985     0.0000   256.0000 </r>
       <r>    -4.8856     0.0000   256.0000 </r>
       <r>    -4.7726     0.0000   256.0000 </r>
       <r>    -4.6596     0.0000   256.0000 </r>
       <r>    -4.5467     0.0000   256.0000 </r>
       <r>    -4.4337     0.0000   256.0000 </r>
       <r>    -4.3207     0.0000   256.0000 </r>
       <r>    -4.2078     0.0000   256.0000 </r>
       <r>    -4.0948     0.0000   256.0000 </r>
       <r>    -3.9818     0.0000   256.0000 </r>
       <r>    -3.8689     0.0000   256.0000 </r>
       <r>    -3.7559     0.0000   256.0000 </r>
       <r>    -3.6429     0.0000   256.0000 </r>
       <r>    -3.5300     0.0000   256.0000 </r>
       <r>    -3.4170     0.0000   256.0000 </r>
       <r>    -3.3041     0.0000   256.0000 </r>
       <r>    -3.1911     0.0000   256.0000 </r>
       <r>    -3.0781     0.0000   256.0000 </r>
       <r>    -2.9652     0.0000   256.0000 </r>
       <r>    -2.8522     0.0000   256.0000 </r>
       <r>    -2.7392     0.0246   256.0028 </r>
       <r>    -2.6263     8.8277   257.0000 </r>
       <r>    -2.5133    14.1519   258.5987 </r>
       <r>    -2.4003    88.4700   268.5928 </r>
       <r>    -2.2874    79.3918   277.5613 </r>
       <r>    -2.1744   159.0909   295.5333 </r>
       <r>    -2.0614    77.1623   304.2500 </r>
       <r>    -1.9485    54.1461   310.3666 </r>
       <r>    -1.8355    53.8773   316.4529 </r>
       <r>    -1.7225    82.2999   325.7500 </r>
       <r>    -1.6096     0.0000   325.7500 </r>
       <r>    -1.4966    45.1091   330.8458 </r>
       <r>    -1.3836   213.4556   354.9589 </r>
       <r>    -1.2707    33.0273   358.6899 </r>
       <r>    -1.1577   235.1580   385.2547 </r>
       <r>    -1.0447   152.0677   402.4333 </r>
       <r>    -0.9318   241.2455   429.6860 </r>
       <r>    -0.8188    76.5379   438.3321 </r>
       <r>    -0.7058    78.6923   447.2217 </r>
       <r>    -0.5929     6.8898   448.0000 </r>
       <r>    -0.4799     0.0000   448.0000 </r>
       <r>    -0.3669     0.0000   448.0000 </r>
       <r>    -0.2540     0.0000   448.0000 </r>
       <r>    -0.1410     0.0000   448.0000 </r>
       <r>    -0.0280     0.0000   448.0000 </r>
       <r>     0.0849     0.0000   448.0000 </r>
       <r>     0.1979     0.0000   448.0000 </r>
       <r>     0.3109     0.0000   448.0000 </r>
       <r>     0.4238     0.0000   448.0000 </r>
       <r>     0.5368     0.0000   448.0000 </r>
       <r>     0.6497     0.0000   448.0000 </r>
       <r>     0.7627     0.0000   448.0000 </r>
       <r>     0.8757     0.0000   448.0000 </r>
       <r>     0.9886     0.0000   448.0000 </r>
       <r>     1.1016     0.0000   448.0000 </r>
       <r>     1.2146     0.0000   448.0000 </r>
       <r>     1.3275     0.0000   448.0000 </r>
       <r>     1.4405     0.0000   448.0000 </r>
       <r>     1.5535     0.0000   448.0000 </r>
       <r>     1.6664     0.0000   448.0000 </r>
       <r>     1.7794     0.0000   448.0000 </r>
       <r>     1.8924     0.0000   448.0000 </r>
       <r>     2.0053     0.0000   448.0000 </r>
       <r>     2.1183     0.0000   448.0000 </r>
       <r>     2.2313     0.0000   448.0000 </r>
       <r>     2.3442     0.0000   448.0000 </r>
       <r>     2.4572     0.0000   448.0000 </r>
       <r>     2.5702     0.0000   448.0000 </r>
       <r>     2.6831     0.0000   448.0000 </r>
       <r>     2.7961     0.0000   448.0000 </r>
       <r>     2.9091     0.0000   448.0000 </r>
       <r>     3.0220     0.0000   448.0000 </r>
       <r>     3.1350     0.0000   448.0000 </r>
       <r>     3.2480     0.0000   448.0000 </r>
       <r>     3.3609     0.0000   448.0000 </r>
       <r>     3.4739     0.0000   448.0000 </r>
       <r>     3.5869     0.0000   448.0000 </r>
       <r>     3.6998     0.0000   448.0000 </r>
       <r>     3.8128     0.0000   448.0000 </r>
       <r>     3.9258     0.0000   448.0000 </r>
       <r>     4.0387     0.0000   448.0000 </r>
       <r>     4.1517     0.0000   448.0000 </r>
       <r>     4.2647     0.0000   448.0000 </r>
       <r>     4.3776     2.2039   448.2490 </r>
       <r>     4.4906     0.0092   448.2500 </r>
       <r>     4.6035     0.0000   448.2500 </r>
       <r>     4.7165     0.0000   448.2500 </r>
       <r>     4.8295     0.0000   448.2500 </r>
       <r>     4.9424     0.0000   448.2500 </r>
       <r>     5.0554    13.1394   449.7343 </r>
       <r>     5.1684     0.1390   449.7500 </r>
       <r>     5.2813     0.0000   449.7500 </r>
       <r>     5.3943     0.0000   449.7500 </r>
       <r>     5.5073     0.3679   449.7916 </r>
       <r>     5.6202    26.1888   452.7500 </r>
       <r>     5.7332     0.0000   452.7500 </r>
       <r>     5.8462    14.8328   454.4256 </r>
       <r>     5.9591     2.8717   454.7500 </r>
       <r>     6.0721     0.0000   454.7500 </r>
       <r>     6.1851     0.0000   454.7500 </r>
       <r>     6.2980     0.0000   454.7500 </r>
       <r>     6.4110    13.3335   456.2562 </r>
       <r>     6.5240     8.7965   457.2500 </r>
       <r>     6.6369    23.4860   459.9031 </r>
       <r>     6.7499    81.8768   469.1524 </r>
       <r>     6.8629    55.8363   475.4600 </r>
       <r>     6.9758    13.1250   476.9426 </r>
       <r>     7.0888     4.9338   477.5000 </r>
       <r>     7.2018     2.3875   477.7697 </r>
       <r>     7.3147     4.2641   478.2514 </r>
       <r>     7.4277    78.3408   487.1012 </r>
       <r>     7.5407   159.7820   505.1511 </r>
       <r>     7.6536    14.1516   506.7500 </r>
       <r>     7.7666    26.5524   509.7495 </r>
       <r>     7.8796     0.0058   509.7507 </r>
       <r>     7.9925    53.1055   515.7498 </r>
       <r>     8.1055     0.0001   515.7500 </r>
       <r>     8.2185    13.3109   517.2537 </r>
       <r>     8.3314    92.6508   527.7203 </r>
       <r>     8.4444     0.2611   527.7500 </r>
       <r>     8.5573   121.4934   541.4746 </r>
       <r>     8.6703    37.8470   545.7500 </r>
       <r>     8.7833     0.0000   545.7500 </r>
       <r>     8.8962    60.3017   552.5620 </r>
       <r>     9.0092   131.3235   567.3971 </r>
       <r>     9.1222    18.6140   569.5000 </r>
       <r>     9.2351     9.6499   570.5901 </r>
       <r>     9.3481    34.6114   574.5000 </r>
       <r>     9.4611     0.2333   574.5264 </r>
       <r>     9.5740    13.0451   576.0000 </r>
       <r>     9.6870     0.0000   576.0000 </r>
       <r>     9.8000     0.0000   576.0000 </r>
       <r>     9.9129     0.0000   576.0000 </r>
       <r>    10.0259     0.0000   576.0000 </r>
       <r>    10.1389     0.0000   576.0000 </r>
       <r>    10.2518     0.0000   576.0000 </r>
       <r>    10.3648     0.0000   576.0000 </r>
       <r>    10.4778     0.0000   576.0000 </r>
       <r>    10.5907     0.0000   576.0000 </r>
       <r>    10.7037     0.0000   576.0000 </r>
       <r>    10.8167     0.0000   576.0000 </r>
       <r>    10.9296     0.0000   576.0000 </r>
       <r>    11.0426     0.0000   576.0000 </r>
      </set>
     </set>
    </array>
   </total>
  </dos>
 </calculation>
 <structure name="finalpos" >
  <crystal>
   <varray name="basis" >
    <v>      11.20400236       0.00000000       0.00000000 </v>
    <v>       0.00000000      11.20400236       0.00000000 </v>
    <v>       0.00000000       0.00000000      11.20400236 </v>
   </varray>
   <i name="volume">   1406.43470641 </i>
   <varray name="rec_basis" >
    <v>       0.08925382       0.00000000       0.00000000 </v>
    <v>       0.00000000       0.08925382       0.00000000 </v>
    <v>       0.00000000       0.00000000       0.08925382 </v>
   </varray>
  </crystal>
  <varray name="positions" >
   <v>       0.99732239       0.00000000       0.00000000 </v>
   <v>       0.25000000       0.25000000       0.00000000 </v>
   <v>       0.25000000       0.00000000       0.25000000 </v>
   <v>       0.00000000       0.25000000       0.25000000 </v>
   <v>       0.00000000       0.00000000       0.50000000 </v>
   <v>       0.25000000       0.25000000       0.50000000 </v>
   <v>       0.25000000       0.00000000       0.75000000 </v>
   <v>       0.00000000       0.25000000       0.75000000 </v>
   <v>       0.00000000       0.50000000       0.00000000 </v>
   <v>       0.25000000       0.75000000       0.00000000 </v>
   <v>       0.25000000       0.50000000       0.25000000 </v>
   <v>       0.00000000       0.75000000       0.25000000 </v>
   <v>       0.00000000       0.50000000       0.50000000 </v>
   <v>       0.25000000       0.75000000       0.50000000 </v>
   <v>       0.25000000       0.50000000       0.75000000 </v>
   <v>       0.00000000       0.75000000       0.75000000 </v>
   <v>       0.50000000       0.00000000       0.00000000 </v>
   <v>       0.75000000       0.25000000       0.00000000 </v>
   <v>       0.75000000       0.00000000       0.25000000 </v>
   <v>       0.50000000       0.25000000       0.25000000 </v>
   <v>       0.50000000       0.00000000       0.50000000 </v>
   <v>       0.75000000       0.25000000       0.50000000 </v>
   <v>       0.75000000       0.00000000       0.75000000 </v>
   <v>       0.50000000       0.25000000       0.75000000 </v>
   <v>       0.50000000       0.50000000       0.00000000 </v>
   <v>       0.75000000       0.75000000       0.00000000 </v>
   <v>       0.75000000       0.50000000       0.25000000 </v>
   <v>       0.50000000       0.75000000       0.25000000 </v>
   <v>       0.50000000       0.50000000       0.50000000 </v>
   <v>       0.75000000       0.75000000       0.50000000 </v>
   <v>       0.75000000       0.50000000       0.75000000 </v>
   <v>       0.50000000       0.75000000       0.75000000 </v>
   <v>       0.25000000       0.25267761       0.25000000 </v>
   <v>       0.00000000       0.00000000       0.25000000 </v>
   <v>       0.00000000       0.25000000       0.00000000 </v>
   <v>       0.25000000       0.00000000       0.00000000 </v>
   <v>       0.25000000       0.25000000       0.75000000 </v>
   <v>       0.00000000       0.00000000       0.75000000 </v>
   <v>       0.00000000       0.25000000       0.50000000 </v>
   <v>       0.25000000       0.00000000       0.50000000 </v>
   <v>       0.25000000       0.75000000       0.25000000 </v>
   <v>       0.00000000       0.50000000       0.25000000 </v>
   <v>       0.00000000       0.75000000       0.00000000 </v>
   <v>       0.25000000       0.50000000       0.00000000 </v>
   <v>       0.25000000       0.75000000       0.75000000 </v>
   <v>       0.00000000       0.50000000       0.75000000 </v>
   <v>       0.00000000       0.75000000       0.50000000 </v>
   <v>       0.25000000       0.50000000       0.50000000 </v>
   <v>       0.75000000       0.25000000       0.25000000 </v>
   <v>       0.50000000       0.00000000       0.25000000 </v>
   <v>       0.50000000       0.25000000       0.00000000 </v>
   <v>       0.75000000       0.00000000       0.00000000 </v>
   <v>       0.75000000       0.25000000       0.75000000 </v>
   <v>       0.50000000       0.00000000       0.75000000 </v>
   <v>       0.50000000       0.25000000       0.50000000 </v>
   <v>       0.75000000       0.00000000       0.50000000 </v>
   <v>       0.75000000       0.75000000       0.25000000 </v>
   <v>       0.50000000       0.50000000       0.25000000 </v>
   <v>       0.50000000       0.75000000       0.00000000 </v>
   <v>       0.75000000       0.50000000       0.00000000 </v>
   <v>       0.75000000       0.75000000       0.75000000 </v>
   <v>       0.50000000       0.50000000       0.75000000 </v>
   <v>       0.50000000       0.75000000       0.50000000 </v>
   <v>       0.75000000       0.50000000       0.50000000 </v>
  </varray>
 </structure>
</modeling>
