  64  64   0   0
  0.2197554E+02  0.1120400E-08  0.1120400E-08  0.1120400E-08  0.5000000E-15
  1.000000000000000E-004
  CAR 
 unknown system                          
     11.04049184    -22.84692496  301     -0.56594841      1.00000000
    -22.847  0.0000E+00  0.0000E+00
    -22.734  0.0000E+00  0.0000E+00
    -22.621  0.0000E+00  0.0000E+00
    -22.508  0.0000E+00  0.0000E+00
    -22.395  0.0000E+00  0.0000E+00
    -22.282  0.0000E+00  0.0000E+00
    -22.169  0.0000E+00  0.0000E+00
    -22.056  0.0000E+00  0.0000E+00
    -21.943  0.0000E+00  0.0000E+00
    -21.830  0.0000E+00  0.0000E+00
    -21.717  0.0000E+00  0.0000E+00
    -21.604  0.0000E+00  0.0000E+00
    -21.491  0.0000E+00  0.0000E+00
    -21.378  0.4003E-05  0.4522E-06
    -21.266  0.1390E+04  0.1570E+03
    -21.153  0.3100E+03  0.1920E+03
    -21.040  0.0000E+00  0.1920E+03
    -20.927  0.0000E+00  0.1920E+03
    -20.814  0.0000E+00  0.1920E+03
    -20.701  0.0000E+00  0.1920E+03
    -20.588  0.0000E+00  0.1920E+03
    -20.475  0.0000E+00  0.1920E+03
    -20.362  0.0000E+00  0.1920E+03
    -20.249  0.0000E+00  0.1920E+03
    -20.136  0.0000E+00  0.1920E+03
    -20.023  0.0000E+00  0.1920E+03
    -19.910  0.0000E+00  0.1920E+03
    -19.797  0.0000E+00  0.1920E+03
    -19.684  0.0000E+00  0.1920E+03
    -19.571  0.0000E+00  0.1920E+03
    -19.458  0.0000E+00  0.1920E+03
    -19.345  0.0000E+00  0.1920E+03
    -19.232  0.0000E+00  0.1920E+03
    -19.119  0.0000E+00  0.1920E+03
    -19.006  0.0000E+00  0.1920E+03
    -18.893  0.0000E+00  0.1920E+03
    -18.780  0.0000E+00  0.1920E+03
    -18.667  0.0000E+00  0.1920E+03
    -18.555  0.0000E+00  0.1920E+03
    -18.442  0.0000E+00  0.1920E+03
    -18.329  0.0000E+00  0.1920E+03
    -18.216  0.0000E+00  0.1920E+03
    -18.103  0.0000E+00  0.1920E+03
    -17.990  0.0000E+00  0.1920E+03
    -17.877  0.0000E+00  0.1920E+03
    -17.764  0.0000E+00  0.1920E+03
    -17.651  0.0000E+00  0.1920E+03
    -17.538  0.0000E+00  0.1920E+03
    -17.425  0.0000E+00  0.1920E+03
    -17.312  0.0000E+00  0.1920E+03
    -17.199  0.0000E+00  0.1920E+03
    -17.086  0.0000E+00  0.1920E+03
    -16.973  0.0000E+00  0.1920E+03
    -16.860  0.0000E+00  0.1920E+03
    -16.747  0.0000E+00  0.1920E+03
    -16.634  0.0000E+00  0.1920E+03
    -16.521  0.0000E+00  0.1920E+03
    -16.408  0.0000E+00  0.1920E+03
    -16.295  0.0000E+00  0.1920E+03
    -16.182  0.0000E+00  0.1920E+03
    -16.069  0.0000E+00  0.1920E+03
    -15.956  0.0000E+00  0.1920E+03
    -15.844  0.0000E+00  0.1920E+03
    -15.731  0.0000E+00  0.1920E+03
    -15.618  0.0000E+00  0.1920E+03
    -15.505  0.0000E+00  0.1920E+03
    -15.392  0.0000E+00  0.1920E+03
    -15.279  0.0000E+00  0.1920E+03
    -15.166  0.0000E+00  0.1920E+03
    -15.053  0.0000E+00  0.1920E+03
    -14.940  0.0000E+00  0.1920E+03
    -14.827  0.0000E+00  0.1920E+03
    -14.714  0.0000E+00  0.1920E+03
    -14.601  0.0000E+00  0.1920E+03
    -14.488  0.0000E+00  0.1920E+03
    -14.375  0.0000E+00  0.1920E+03
    -14.262  0.0000E+00  0.1920E+03
    -14.149  0.0000E+00  0.1920E+03
    -14.036  0.0000E+00  0.1920E+03
    -13.923  0.0000E+00  0.1920E+03
    -13.810  0.0000E+00  0.1920E+03
    -13.697  0.0000E+00  0.1920E+03
    -13.584  0.0000E+00  0.1920E+03
    -13.471  0.1474E-14  0.1920E+03
    -13.358  0.1101E+01  0.1921E+03
    -13.245  0.1928E+02  0.1943E+03
    -13.133  0.4870E+02  0.1998E+03
    -13.020  0.1257E+03  0.2140E+03
    -12.907  0.3657E+03  0.2553E+03
    -12.794  0.6104E+01  0.2560E+03
    -12.681  0.0000E+00  0.2560E+03
    -12.568  0.0000E+00  0.2560E+03
    -12.455  0.0000E+00  0.2560E+03
    -12.342  0.0000E+00  0.2560E+03
    -12.229  0.0000E+00  0.2560E+03
    -12.116  0.0000E+00  0.2560E+03
    -12.003  0.0000E+00  0.2560E+03
    -11.890  0.0000E+00  0.2560E+03
    -11.777  0.0000E+00  0.2560E+03
    -11.664  0.0000E+00  0.2560E+03
    -11.551  0.0000E+00  0.2560E+03
    -11.438  0.0000E+00  0.2560E+03
    -11.325  0.0000E+00  0.2560E+03
    -11.212  0.0000E+00  0.2560E+03
    -11.099  0.0000E+00  0.2560E+03
    -10.986  0.0000E+00  0.2560E+03
    -10.873  0.0000E+00  0.2560E+03
    -10.760  0.0000E+00  0.2560E+03
    -10.647  0.0000E+00  0.2560E+03
    -10.534  0.0000E+00  0.2560E+03
    -10.422  0.0000E+00  0.2560E+03
    -10.309  0.0000E+00  0.2560E+03
    -10.196  0.0000E+00  0.2560E+03
    -10.083  0.0000E+00  0.2560E+03
     -9.970  0.0000E+00  0.2560E+03
     -9.857  0.0000E+00  0.2560E+03
     -9.744  0.0000E+00  0.2560E+03
     -9.631  0.0000E+00  0.2560E+03
     -9.518  0.0000E+00  0.2560E+03
     -9.405  0.0000E+00  0.2560E+03
     -9.292  0.0000E+00  0.2560E+03
     -9.179  0.0000E+00  0.2560E+03
     -9.066  0.0000E+00  0.2560E+03
     -8.953  0.0000E+00  0.2560E+03
     -8.840  0.0000E+00  0.2560E+03
     -8.727  0.0000E+00  0.2560E+03
     -8.614  0.0000E+00  0.2560E+03
     -8.501  0.0000E+00  0.2560E+03
     -8.388  0.0000E+00  0.2560E+03
     -8.275  0.0000E+00  0.2560E+03
     -8.162  0.0000E+00  0.2560E+03
     -8.049  0.0000E+00  0.2560E+03
     -7.936  0.0000E+00  0.2560E+03
     -7.824  0.0000E+00  0.2560E+03
     -7.711  0.0000E+00  0.2560E+03
     -7.598  0.0000E+00  0.2560E+03
     -7.485  0.0000E+00  0.2560E+03
     -7.372  0.0000E+00  0.2560E+03
     -7.259  0.0000E+00  0.2560E+03
     -7.146  0.0000E+00  0.2560E+03
     -7.033  0.0000E+00  0.2560E+03
     -6.920  0.0000E+00  0.2560E+03
     -6.807  0.0000E+00  0.2560E+03
     -6.694  0.0000E+00  0.2560E+03
     -6.581  0.0000E+00  0.2560E+03
     -6.468  0.0000E+00  0.2560E+03
     -6.355  0.0000E+00  0.2560E+03
     -6.242  0.0000E+00  0.2560E+03
     -6.129  0.0000E+00  0.2560E+03
     -6.016  0.0000E+00  0.2560E+03
     -5.903  0.0000E+00  0.2560E+03
     -5.790  0.0000E+00  0.2560E+03
     -5.677  0.0000E+00  0.2560E+03
     -5.564  0.0000E+00  0.2560E+03
     -5.451  0.0000E+00  0.2560E+03
     -5.338  0.0000E+00  0.2560E+03
     -5.225  0.0000E+00  0.2560E+03
     -5.113  0.0000E+00  0.2560E+03
     -5.000  0.0000E+00  0.2560E+03
     -4.887  0.0000E+00  0.2560E+03
     -4.774  0.0000E+00  0.2560E+03
     -4.661  0.0000E+00  0.2560E+03
     -4.548  0.0000E+00  0.2560E+03
     -4.435  0.0000E+00  0.2560E+03
     -4.322  0.0000E+00  0.2560E+03
     -4.209  0.0000E+00  0.2560E+03
     -4.096  0.0000E+00  0.2560E+03
     -3.983  0.0000E+00  0.2560E+03
     -3.870  0.0000E+00  0.2560E+03
     -3.757  0.0000E+00  0.2560E+03
     -3.644  0.0000E+00  0.2560E+03
     -3.531  0.0000E+00  0.2560E+03
     -3.418  0.0000E+00  0.2560E+03
     -3.305  0.0000E+00  0.2560E+03
     -3.192  0.0000E+00  0.2560E+03
     -3.079  0.0000E+00  0.2560E+03
     -2.966  0.0000E+00  0.2560E+03
     -2.853  0.0000E+00  0.2560E+03
     -2.740  0.1954E-01  0.2560E+03
     -2.627  0.8833E+01  0.2570E+03
     -2.514  0.1298E+02  0.2585E+03
     -2.402  0.8838E+02  0.2685E+03
     -2.289  0.7944E+02  0.2774E+03
     -2.176  0.1598E+03  0.2955E+03
     -2.063  0.7770E+02  0.3042E+03
     -1.950  0.5392E+02  0.3103E+03
     -1.837  0.5264E+02  0.3163E+03
     -1.724  0.8378E+02  0.3257E+03
     -1.611  0.1756E-11  0.3258E+03
     -1.498  0.4312E+02  0.3306E+03
     -1.385  0.2139E+03  0.3548E+03
     -1.272  0.3450E+02  0.3587E+03
     -1.159  0.2314E+03  0.3848E+03
     -1.046  0.1557E+03  0.4024E+03
     -0.933  0.2369E+03  0.4292E+03
     -0.820  0.8035E+02  0.4382E+03
     -0.707  0.7941E+02  0.4472E+03
     -0.594  0.6998E+01  0.4480E+03
     -0.481  0.0000E+00  0.4480E+03
     -0.368  0.0000E+00  0.4480E+03
     -0.255  0.0000E+00  0.4480E+03
     -0.142  0.0000E+00  0.4480E+03
     -0.029  0.0000E+00  0.4480E+03
      0.084  0.0000E+00  0.4480E+03
      0.197  0.0000E+00  0.4480E+03
      0.309  0.0000E+00  0.4480E+03
      0.422  0.0000E+00  0.4480E+03
      0.535  0.0000E+00  0.4480E+03
      0.648  0.0000E+00  0.4480E+03
      0.761  0.0000E+00  0.4480E+03
      0.874  0.0000E+00  0.4480E+03
      0.987  0.0000E+00  0.4480E+03
      1.100  0.0000E+00  0.4480E+03
      1.213  0.0000E+00  0.4480E+03
      1.326  0.0000E+00  0.4480E+03
      1.439  0.0000E+00  0.4480E+03
      1.552  0.0000E+00  0.4480E+03
      1.665  0.0000E+00  0.4480E+03
      1.778  0.0000E+00  0.4480E+03
      1.891  0.0000E+00  0.4480E+03
      2.004  0.0000E+00  0.4480E+03
      2.117  0.0000E+00  0.4480E+03
      2.230  0.0000E+00  0.4480E+03
      2.343  0.0000E+00  0.4480E+03
      2.456  0.0000E+00  0.4480E+03
      2.569  0.0000E+00  0.4480E+03
      2.682  0.0000E+00  0.4480E+03
      2.795  0.0000E+00  0.4480E+03
      2.908  0.0000E+00  0.4480E+03
      3.020  0.0000E+00  0.4480E+03
      3.133  0.0000E+00  0.4480E+03
      3.246  0.0000E+00  0.4480E+03
      3.359  0.0000E+00  0.4480E+03
      3.472  0.0000E+00  0.4480E+03
      3.585  0.0000E+00  0.4480E+03
      3.698  0.0000E+00  0.4480E+03
      3.811  0.0000E+00  0.4480E+03
      3.924  0.0000E+00  0.4480E+03
      4.037  0.0000E+00  0.4480E+03
      4.150  0.0000E+00  0.4480E+03
      4.263  0.5105E-07  0.4480E+03
      4.376  0.2200E+01  0.4482E+03
      4.489  0.1292E-01  0.4482E+03
      4.602  0.0000E+00  0.4482E+03
      4.715  0.0000E+00  0.4482E+03
      4.828  0.0000E+00  0.4482E+03
      4.941  0.6343E-07  0.4483E+03
      5.054  0.1310E+02  0.4497E+03
      5.167  0.1825E+00  0.4498E+03
      5.280  0.0000E+00  0.4498E+03
      5.393  0.0000E+00  0.4498E+03
      5.506  0.2434E+00  0.4498E+03
      5.619  0.2632E+02  0.4527E+03
      5.731  0.1415E-09  0.4528E+03
      5.844  0.1438E+02  0.4544E+03
      5.957  0.3329E+01  0.4548E+03
      6.070  0.0000E+00  0.4548E+03
      6.183  0.0000E+00  0.4548E+03
      6.296  0.4054E-05  0.4548E+03
      6.409  0.1331E+02  0.4563E+03
      6.522  0.8827E+01  0.4572E+03
      6.635  0.2076E+02  0.4596E+03
      6.748  0.8444E+02  0.4691E+03
      6.861  0.5512E+02  0.4754E+03
      6.974  0.1340E+02  0.4769E+03
      7.087  0.5555E+01  0.4775E+03
      7.200  0.2077E+01  0.4777E+03
      7.313  0.4569E+01  0.4783E+03
      7.426  0.7791E+02  0.4871E+03
      7.539  0.1582E+03  0.5049E+03
      7.652  0.1617E+02  0.5068E+03
      7.765  0.2655E+02  0.5097E+03
      7.878  0.3964E-02  0.5098E+03
      7.991  0.5311E+02  0.5157E+03
      8.104  0.3542E-04  0.5158E+03
      8.217  0.1329E+02  0.5173E+03
      8.329  0.9259E+02  0.5277E+03
      8.442  0.3474E+00  0.5278E+03
      8.555  0.1170E+03  0.5410E+03
      8.668  0.4235E+02  0.5458E+03
      8.781  0.3171E-09  0.5458E+03
      8.894  0.5721E+02  0.5522E+03
      9.007  0.1320E+03  0.5671E+03
      9.120  0.2101E+02  0.5695E+03
      9.233  0.8227E+01  0.5704E+03
      9.346  0.3604E+02  0.5745E+03
      9.459  0.1636E+00  0.5745E+03
      9.572  0.1312E+02  0.5760E+03
      9.685  0.0000E+00  0.5760E+03
      9.798  0.0000E+00  0.5760E+03
      9.911  0.0000E+00  0.5760E+03
     10.024  0.0000E+00  0.5760E+03
     10.137  0.0000E+00  0.5760E+03
     10.250  0.0000E+00  0.5760E+03
     10.363  0.0000E+00  0.5760E+03
     10.476  0.0000E+00  0.5760E+03
     10.589  0.0000E+00  0.5760E+03
     10.702  0.0000E+00  0.5760E+03
     10.815  0.0000E+00  0.5760E+03
     10.928  0.0000E+00  0.5760E+03
     11.040  0.0000E+00  0.5760E+03
