       N       E                     dE             d eps       ncg     rms          rms(c)
DAV:   1     0.431031573643E+04    0.43103E+04   -0.17199E+05  3456   0.125E+03
DAV:   2     0.360455624766E+03   -0.39499E+04   -0.37572E+04  3840   0.367E+02
DAV:   3    -0.206440554724E+03   -0.56690E+03   -0.56264E+03  4192   0.155E+02
DAV:   4    -0.228201966485E+03   -0.21761E+02   -0.21661E+02  4160   0.329E+01
DAV:   5    -0.229006826645E+03   -0.80486E+00   -0.80357E+00  4416   0.614E+00    0.106E+01
DAV:   6    -0.224137956534E+03    0.48689E+01   -0.95092E+00  4288   0.533E+00    0.776E+00
DAV:   7    -0.223777255819E+03    0.36070E+00   -0.20578E+00  4672   0.233E+00    0.534E+00
DAV:   8    -0.223902481208E+03   -0.12523E+00   -0.26736E-01  4000   0.123E+00    0.141E+00
DAV:   9    -0.223897074953E+03    0.54063E-02   -0.11012E-02  4288   0.251E-01    0.600E-01
DAV:  10    -0.223901412588E+03   -0.43376E-02   -0.18323E-02  4000   0.223E-01    0.288E-01
DAV:  11    -0.223900674558E+03    0.73803E-03   -0.16457E-03  4192   0.796E-02    0.816E-02
DAV:  12    -0.223900638681E+03    0.35877E-04   -0.16045E-04  4512   0.231E-02    0.936E-03
DAV:  13    -0.223900644405E+03   -0.57239E-05   -0.12250E-05  4224   0.611E-03    0.293E-03
DAV:  14    -0.223900644440E+03   -0.34932E-07   -0.15030E-06  4512   0.244E-03    0.969E-03
DAV:  15    -0.223900645957E+03   -0.15173E-05   -0.73353E-07  3488   0.159E-03    0.223E-03
DAV:  16    -0.223900646369E+03   -0.41223E-06   -0.83013E-08  4512   0.691E-04    0.309E-04
DAV:  17    -0.223900646308E+03    0.61103E-07   -0.38973E-09  2720   0.481E-04    0.121E-04
DAV:  18    -0.223900646334E+03   -0.26259E-07   -0.34491E-09  2368   0.232E-04    0.210E-04
DAV:  19    -0.223900646318E+03    0.16422E-07   -0.17518E-09  2432   0.166E-04    0.155E-04
DAV:  20    -0.223900646305E+03    0.13526E-07   -0.88116E-10  2368   0.190E-04    0.137E-04
DAV:  21    -0.223900646284E+03    0.20278E-07   -0.74470E-10  2304   0.920E-05    0.733E-05
DAV:  22    -0.223900646285E+03   -0.85129E-09   -0.37184E-10  2304   0.615E-05
   1 F= -.22390065E+03 E0= -.22390065E+03  d E =-.109035E-12
