 vasp.6.3.2 27Jun22 (build Oct 14 2022 12:13:54) complex                        
  
 executed on             LinuxIFC date 2025.08.28  21:57:06
 running on   32 total cores
 distrk:  each k-point on   32 cores,    1 groups
 distr:  one band on NCORE=   1 cores,   32 groups


--------------------------------------------------------------------------------------------------------


 INCAR:
   ENCUT = 341.213600
   SIGMA = 0.020000
   EDIFF = 1.00e-08
   GGA = PS
   PREC = Accurate
   IALGO = 38
   IBRION = -1
   ISMEAR = 0
   NELMIN = 5
   ADDGRID = .TRUE.
   LCHARG = .FALSE.
   LWAVE = .FALSE.
   LREAL = .FALSE.

 POTCAR:    PAW_PBE Na_pv 19Sep2006               
 POTCAR:    PAW_PBE Cl 06Sep2000                  
 -----------------------------------------------------------------------------
|                                                                             |
|           W    W    AA    RRRRR   N    N  II  N    N   GGGG   !!!           |
|           W    W   A  A   R    R  NN   N  II  NN   N  G    G  !!!           |
|           W    W  A    A  R    R  N N  N  II  N N  N  G       !!!           |
|           W WW W  AAAAAA  RRRRR   N  N N  II  N  N N  G  GGG   !            |
|           WW  WW  A    A  R   R   N   NN  II  N   NN  G    G                |
|           W    W  A    A  R    R  N    N  II  N    N   GGGG   !!!           |
|                                                                             |
|     For optimal performance we recommend to set                             |
|       NCORE = 2 up to number-of-cores-per-socket                            |
|     NCORE specifies how many cores store one orbital (NPAR=cpu/NCORE).      |
|     This setting can greatly improve the performance of VASP for DFT.       |
|     The default, NCORE=1 might be grossly inefficient on modern             |
|     multi-core architectures or massively parallel machines. Do your        |
|     own testing! More info at https://www.vasp.at/wiki/index.php/NCORE      |
|     Unfortunately you need to use the default for GW and RPA                |
|     calculations (for HF NCORE is supported but not extensively tested      |
|     yet).                                                                   |
|                                                                             |
 -----------------------------------------------------------------------------

 POTCAR:    PAW_PBE Na_pv 19Sep2006               
   SHA256 =  6a2f546d9e11350984debacf3dc457d8cffc0868e817d445faca461816a32b94 Na_pv/POTCAR          
   COPYR  = (c) Copyright 19Sep2006 Georg Kresse                                                    
   COPYR  = This file is part of the software VASP. Any use, copying, and all other rights are regul
   COPYR  = If you do not have a valid VASP license, you may not use, copy or distribute this file. 
   VRHFIN =Na: p6s1                                                                                 
   LEXCH  = PE                                                                                      
   EATOM  =   766.0439 eV,   56.3026 Ry                                                             
                                                                                                    
   TITEL  = PAW_PBE Na_pv 19Sep2006                                                                 
   LULTRA =        F    use ultrasoft PP ?                                                          
   IUNSCR =        1    unscreen: 0-lin 1-nonlin 2-no                                               
   RPACOR =    1.800    partial core radius                                                         
   POMASS =   22.990; ZVAL   =    7.000    mass and valenz                                          
   RCORE  =    2.200    outmost cutoff radius                                                       
   RWIGS  =    2.200; RWIGS  =    1.164    wigner-seitz radius (au A)                               
   ENMAX  =  259.561; ENMIN  =  194.671 eV                                                          
   ICORE  =        2    local potential                                                             
   LCOR   =        T    correct aug charges                                                         
   LPAW   =        T    paw PP                                                                      
   EAUG   =  368.056                                                                                
   DEXC   =    0.000                                                                                
   RMAX   =    2.245    core radius for proj-oper                                                   
   RAUG   =    1.300    factor for augmentation sphere                                              
   RDEP   =    2.259    radius for radial grids                                                     
   RDEPT  =    1.738    core radius for aug-charge                                                  
                                                                                                    
   Atomic configuration                                                                             
    5 entries                                                                                       
     n  l   j            E        occ.                                                              
     1  0  0.50     -1033.6933   2.0000                                                             
     2  0  0.50       -56.7526   2.0000                                                             
     2  1  1.50       -28.6721   6.0000                                                             
     3  0  0.50        -2.7440   1.0000                                                             
     3  2  1.50        -1.3606   0.0000                                                             
   Description                                                                                      
     l       E           TYP  RCUT    TYP  RCUT                                                     
     1    -28.6720912     23  2.000                                                                 
     1      6.8029130     23  2.000                                                                 
     0     -2.7439560     23  2.200                                                                 
     0     34.0145650     23  2.200                                                                 
     2     -1.3605826     23  2.200                                                                 
  local pseudopotential read in
  partial core-charges read in
  partial kinetic energy density read in
  atomic valenz-charges read in
  non local Contribution for L=           1  read in
    real space projection operators read in
  non local Contribution for L=           1  read in
    real space projection operators read in
  non local Contribution for L=           0  read in
    real space projection operators read in
  non local Contribution for L=           0  read in
    real space projection operators read in
    PAW grid and wavefunctions read in
 
   number of l-projection  operators is LMAX  =           4
   number of lm-projection operators is LMMAX =           8
 
 POTCAR:    PAW_PBE Cl 06Sep2000                  
   SHA256 =  9f1b6e6ed4247ac726a768b330d26d7667cc3c95a39ff49c1d064c2d9dcce931 Cl/POTCAR             
   COPYR  = (c) Copyright 06Sep2000 Georg Kresse                                                    
   COPYR  = This file is part of the software VASP. Any use, copying, and all other rights are regul
   COPYR  = If you do not have a valid VASP license, you may not use, copy or distribute this file. 
   VRHFIN =Cl: s2p5                                                                                 
   LEXCH  = PE                                                                                      
   EATOM  =   409.7259 eV,   30.1140 Ry                                                             
                                                                                                    
   TITEL  = PAW_PBE Cl 06Sep2000                                                                    
   LULTRA =        F    use ultrasoft PP ?                                                          
   IUNSCR =        1    unscreen: 0-lin 1-nonlin 2-no                                               
   RPACOR =    1.500    partial core radius                                                         
   POMASS =   35.453; ZVAL   =    7.000    mass and valenz                                          
   RCORE  =    1.900    outmost cutoff radius                                                       
   RWIGS  =    2.100; RWIGS  =    1.111    wigner-seitz radius (au A)                               
   ENMAX  =  262.472; ENMIN  =  196.854 eV                                                          
   ICORE  =        2    local potential                                                             
   LCOR   =        T    correct aug charges                                                         
   LPAW   =        T    paw PP                                                                      
   EAUG   =  356.192                                                                                
   DEXC   =    0.000                                                                                
   RMAX   =    1.945    core radius for proj-oper                                                   
   RAUG   =    1.300    factor for augmentation sphere                                              
   RDEP   =    2.020    radius for radial grids                                                     
   RDEPT  =    1.678    core radius for aug-charge                                                  
                                                                                                    
   Atomic configuration                                                                             
    6 entries                                                                                       
     n  l   j            E        occ.                                                              
     1  0  0.50     -2751.1850   2.0000                                                             
     2  0  0.50      -252.6861   2.0000                                                             
     2  1  1.50      -191.6157   6.0000                                                             
     3  0  0.50       -20.6916   2.0000                                                             
     3  1  0.50        -8.5949   5.0000                                                             
     3  2  1.50        -8.1635   0.0000                                                             
   Description                                                                                      
     l       E           TYP  RCUT    TYP  RCUT                                                     
     0    -20.6915656     23  1.900                                                                 
     0    -22.0521482     23  1.900                                                                 
     1     -8.5948577     23  1.900                                                                 
     1     -5.3847331     23  1.900                                                                 
     2     -8.1634956     23  1.900                                                                 
  local pseudopotential read in
  partial core-charges read in
  partial kinetic energy density read in
  atomic valenz-charges read in
  non local Contribution for L=           0  read in
    real space projection operators read in
  non local Contribution for L=           0  read in
    real space projection operators read in
  non local Contribution for L=           1  read in
    real space projection operators read in
  non local Contribution for L=           1  read in
    real space projection operators read in
    PAW grid and wavefunctions read in
 
   number of l-projection  operators is LMAX  =           4
   number of lm-projection operators is LMMAX =           8
 
 -----------------------------------------------------------------------------
|                                                                             |
|               ----> ADVICE to this user running VASP <----                  |
|                                                                             |
|     You have a (more or less) 'large supercell' and for larger cells it     |
|     might be more efficient to use real-space projection operators.         |
|     Therefore, try LREAL= Auto in the INCAR file.                           |
|     Mind: For very accurate calculation, you might also keep the            |
|     reciprocal projection scheme (i.e. LREAL=.FALSE.).                      |
|                                                                             |
 -----------------------------------------------------------------------------

 -----------------------------------------------------------------------------
|                                                                             |
|               ----> ADVICE to this user running VASP <----                  |
|                                                                             |
|     You enforced a specific xc type in the INCAR file but a different       |
|     type was found in the POTCAR file.                                      |
|     I HOPE YOU KNOW WHAT YOU ARE DOING!                                     |
|                                                                             |
 -----------------------------------------------------------------------------

  PAW_PBE Na_pv 19Sep2006               :
 energy of atom  1       EATOM= -766.0439
 kinetic energy error for atom=    0.0189 (will be added to EATOM!!)
  PAW_PBE Cl 06Sep2000                  :
 energy of atom  2       EATOM= -409.7259
 kinetic energy error for atom=    0.0106 (will be added to EATOM!!)
 
 
 POSCAR: Na Cl
  positions in cartesian coordinates
  No initial velocities read in
 exchange correlation table for  LEXCH =       14
   RHO(1)=    0.500       N(1)  =     2000
   RHO(2)=  100.500       N(2)  =     4000
 


--------------------------------------------------------------------------------------------------------


 ion  position               nearest neighbor table
   1  0.003  0.000  0.000-
   2  0.250  0.247  0.000-
   3  0.250  0.000  0.250-
   4  0.000  0.250  0.250-
   5  0.000  0.000  0.500-
   6  0.250  0.250  0.500-
   7  0.250  0.000  0.750-
   8  0.000  0.250  0.750-
   9  0.000  0.500  0.000-
  10  0.250  0.750  0.000-
  11  0.250  0.500  0.250-
  12  0.000  0.750  0.250-
  13  0.000  0.500  0.500-
  14  0.250  0.750  0.500-
  15  0.250  0.500  0.750-
  16  0.000  0.750  0.750-
  17  0.500  0.000  0.000-
  18  0.750  0.250  0.000-
  19  0.750  0.000  0.250-
  20  0.500  0.250  0.250-
  21  0.500  0.000  0.500-
  22  0.750  0.250  0.500-
  23  0.750  0.000  0.750-
  24  0.500  0.250  0.750-
  25  0.500  0.500  0.000-
  26  0.750  0.750  0.000-
  27  0.750  0.500  0.250-
  28  0.500  0.750  0.250-
  29  0.500  0.500  0.500-
  30  0.750  0.750  0.500-
  31  0.750  0.500  0.750-
  32  0.500  0.750  0.750-
  33  0.250  0.250  0.250-
  34  0.000  0.000  0.250-
  35  0.000  0.250  0.000-
  36  0.250  0.000  0.000-
  37  0.250  0.250  0.750-
  38  0.000  0.000  0.750-
  39  0.000  0.250  0.500-
  40  0.250  0.000  0.500-
  41  0.250  0.750  0.250-
  42  0.000  0.500  0.250-
  43  0.000  0.750  0.000-
  44  0.250  0.500  0.000-
  45  0.250  0.750  0.750-
  46  0.000  0.500  0.750-
  47  0.000  0.750  0.500-
  48  0.250  0.500  0.500-
  49  0.750  0.250  0.250-
  50  0.500  0.000  0.250-
  51  0.500  0.250  0.000-
  52  0.750  0.000  0.000-
  53  0.750  0.250  0.750-
  54  0.500  0.000  0.750-
  55  0.500  0.250  0.500-
  56  0.750  0.000  0.500-
  57  0.750  0.750  0.250-
  58  0.500  0.500  0.250-
  59  0.500  0.750  0.000-
  60  0.750  0.500  0.000-
  61  0.750  0.750  0.750-
  62  0.500  0.500  0.750-
  63  0.500  0.750  0.500-
  64  0.750  0.500  0.500-
 
  LATTYP: Found a simple cubic cell.
 ALAT       =    11.2040023600
  
  Lattice vectors:
  
 A1 = (  11.2040023600,   0.0000000000,   0.0000000000)
 A2 = (   0.0000000000,  11.2040023600,   0.0000000000)
 A3 = (   0.0000000000,   0.0000000000,  11.2040023600)


Analysis of symmetry for initial positions (statically):
=====================================================================
 Subroutine PRICEL returns:
 Original cell was already a primitive cell.
 

 Routine SETGRP: Setting up the symmetry group for a 
 simple cubic supercell.


 Subroutine GETGRP returns: Found  4 space group operations
 (whereof  2 operations were pure point group operations)
 out of a pool of 48 trial point group operations.


The static configuration has the point symmetry C_1h.
 The point group associated with its full space group is C_2v.


Analysis of symmetry for dynamics (positions and initial velocities):
=====================================================================
 Subroutine PRICEL returns:
 Original cell was already a primitive cell.
 

 Routine SETGRP: Setting up the symmetry group for a 
 simple cubic supercell.


 Subroutine GETGRP returns: Found  4 space group operations
 (whereof  2 operations were pure point group operations)
 out of a pool of 48 trial point group operations.


The dynamic configuration has the point symmetry C_1h.
 The point group associated with its full space group is C_2v.


 Subroutine INISYM returns: Found  4 space group operations
 (whereof  2 operations are pure point group operations),
 and found     1 'primitive' translations


----------------------------------------------------------------------------------------

                                     Primitive cell                                     

  volume of cell :    1406.4347

  direct lattice vectors                    reciprocal lattice vectors
    11.204002360  0.000000000  0.000000000     0.089253819  0.000000000  0.000000000
     0.000000000 11.204002360  0.000000000     0.000000000  0.089253819  0.000000000
     0.000000000  0.000000000 11.204002360     0.000000000  0.000000000  0.089253819

  length of vectors
    11.204002360 11.204002360 11.204002360     0.089253819  0.089253819  0.089253819

  position of ions in fractional coordinates (direct lattice)
     0.002677615  0.000000000  0.000000000
     0.250000000  0.247322385  0.000000000
     0.250000000  0.000000000  0.250000000
     0.000000000  0.250000000  0.250000000
     0.000000000  0.000000000  0.500000000
     0.250000000  0.250000000  0.500000000
     0.250000000  0.000000000  0.750000000
     0.000000000  0.250000000  0.750000000
     0.000000000  0.500000000  0.000000000
     0.250000000  0.750000000  0.000000000
     0.250000000  0.500000000  0.250000000
     0.000000000  0.750000000  0.250000000
     0.000000000  0.500000000  0.500000000
     0.250000000  0.750000000  0.500000000
     0.250000000  0.500000000  0.750000000
     0.000000000  0.750000000  0.750000000
     0.500000000  0.000000000  0.000000000
     0.750000000  0.250000000  0.000000000
     0.750000000  0.000000000  0.250000000
     0.500000000  0.250000000  0.250000000
     0.500000000  0.000000000  0.500000000
     0.750000000  0.250000000  0.500000000
     0.750000000  0.000000000  0.750000000
     0.500000000  0.250000000  0.750000000
     0.500000000  0.500000000  0.000000000
     0.750000000  0.750000000  0.000000000
     0.750000000  0.500000000  0.250000000
     0.500000000  0.750000000  0.250000000
     0.500000000  0.500000000  0.500000000
     0.750000000  0.750000000  0.500000000
     0.750000000  0.500000000  0.750000000
     0.500000000  0.750000000  0.750000000
     0.250000000  0.250000000  0.250000000
     0.000000000  0.000000000  0.250000000
     0.000000000  0.250000000  0.000000000
     0.250000000  0.000000000  0.000000000
     0.250000000  0.250000000  0.750000000
     0.000000000  0.000000000  0.750000000
     0.000000000  0.250000000  0.500000000
     0.250000000  0.000000000  0.500000000
     0.250000000  0.750000000  0.250000000
     0.000000000  0.500000000  0.250000000
     0.000000000  0.750000000  0.000000000
     0.250000000  0.500000000  0.000000000
     0.250000000  0.750000000  0.750000000
     0.000000000  0.500000000  0.750000000
     0.000000000  0.750000000  0.500000000
     0.250000000  0.500000000  0.500000000
     0.750000000  0.250000000  0.250000000
     0.500000000  0.000000000  0.250000000
     0.500000000  0.250000000  0.000000000
     0.750000000  0.000000000  0.000000000
     0.750000000  0.250000000  0.750000000
     0.500000000  0.000000000  0.750000000
     0.500000000  0.250000000  0.500000000
     0.750000000  0.000000000  0.500000000
     0.750000000  0.750000000  0.250000000
     0.500000000  0.500000000  0.250000000
     0.500000000  0.750000000  0.000000000
     0.750000000  0.500000000  0.000000000
     0.750000000  0.750000000  0.750000000
     0.500000000  0.500000000  0.750000000
     0.500000000  0.750000000  0.500000000
     0.750000000  0.500000000  0.500000000

  ion indices of the primitive-cell ions
   primitive index   ion index
                 1           1
                 2           2
                 3           3
                 4           4
                 5           5
                 6           6
                 7           7
                 8           8
                 9           9
                10          10
                11          11
                12          12
                13          13
                14          14
                15          15
                16          16
                17          17
                18          18
                19          19
                20          20
                21          21
                22          22
                23          23
                24          24
                25          25
                26          26
                27          27
                28          28
                29          29
                30          30
                31          31
                32          32
                33          33
                34          34
                35          35
                36          36
                37          37
                38          38
                39          39
                40          40
                41          41
                42          42
                43          43
                44          44
                45          45
                46          46
                47          47
                48          48
                49          49
                50          50
                51          51
                52          52
                53          53
                54          54
                55          55
                56          56
                57          57
                58          58
                59          59
                60          60
                61          61
                62          62
                63          63
                64          64

----------------------------------------------------------------------------------------

 
 
 KPOINTS: KPOINTS created by Atomic Simulation Env

Automatic generation of k-mesh.
 Grid dimensions read from file:
 generate k-points for:    2    2    2

 Generating k-lattice:

  Cartesian coordinates                     Fractional coordinates (reciprocal lattice)
     0.044626910  0.000000000  0.000000000     0.500000000  0.000000000  0.000000000
     0.000000000  0.044626910  0.000000000     0.000000000  0.500000000  0.000000000
     0.000000000  0.000000000  0.044626910     0.000000000  0.000000000  0.500000000

  Length of vectors
     0.044626910  0.044626910  0.044626910

  Shift w.r.t. Gamma in fractional coordinates (k-lattice)
     0.000000000  0.000000000  0.000000000

 
 Subroutine IBZKPT returns following result:
 ===========================================
 
 Found      6 irreducible k-points:
 
 Following reciprocal coordinates:
            Coordinates               Weight
  0.000000  0.000000  0.000000      1.000000
  0.500000  0.000000  0.000000      2.000000
  0.000000  0.000000  0.500000      1.000000
  0.500000  0.500000  0.000000      1.000000
  0.000000  0.500000  0.500000      2.000000
  0.500000  0.500000  0.500000      1.000000
 
 Following cartesian coordinates:
            Coordinates               Weight
  0.000000  0.000000  0.000000      1.000000
  0.044627  0.000000  0.000000      2.000000
  0.000000  0.000000  0.044627      1.000000
  0.044627  0.044627  0.000000      1.000000
  0.000000  0.044627  0.044627      2.000000
  0.044627  0.044627  0.044627      1.000000
 


--------------------------------------------------------------------------------------------------------




 Dimension of arrays:
   k-points           NKPTS =      6   k-points in BZ     NKDIM =      6   number of bands    NBANDS=    288
   number of dos      NEDOS =    301   number of ions     NIONS =     64
   non local maximal  LDIM  =      4   non local SUM 2l+1 LMDIM =      8
   total plane-waves  NPLWV = 343000
   max r-space proj   IRMAX =      1   max aug-charges    IRDMAX=  56280
   dimension x,y,z NGX =    70 NGY =   70 NGZ =   70
   dimension x,y,z NGXF=   140 NGYF=  140 NGZF=  140
   support grid    NGXF=   280 NGYF=  280 NGZF=  280
   ions per type =              32  32
   NGX,Y,Z   is equivalent  to a cutoff of  10.39, 10.39, 10.39 a.u.
   NGXF,Y,Z  is equivalent  to a cutoff of  20.77, 20.77, 20.77 a.u.

 SYSTEM =  unknown system                          
 POSCAR =  Na Cl                                   

 Startparameter for this run:
   NWRITE =      2    write-flag & timer
   PREC   = accura    normal or accurate (medium, high low for compatibility)
   ISTART =      0    job   : 0-new  1-cont  2-samecut
   ICHARG =      2    charge: 1-file 2-atom 10-const
   ISPIN  =      1    spin polarized calculation?
   LNONCOLLINEAR =      F non collinear calculations
   LSORBIT =      F    spin-orbit coupling
   INIWAV =      1    electr: 0-lowe 1-rand  2-diag
   LASPH  =      F    aspherical Exc in radial PAW
 Electronic Relaxation 1
   ENCUT  =  341.2 eV  25.08 Ry    5.01 a.u.  16.87 16.87 16.87*2*pi/ulx,y,z
   ENINI  =  341.2     initial cutoff
   ENAUG  =  368.1 eV  augmentation charge cutoff
   NELM   =     60;   NELMIN=  5; NELMDL= -5     # of ELM steps 
   EDIFF  = 0.1E-07   stopping-criterion for ELM
   LREAL  =      F    real-space projection
   NLSPLINE    = F    spline interpolate recip. space projectors
   LCOMPAT=      F    compatible to vasp.4.4
   GGA_COMPAT  = T    GGA compatible to vasp.4.4-vasp.4.6
   LMAXPAW     = -100 max onsite density
   LMAXMIX     =    2 max onsite mixed and CHGCAR
   VOSKOWN=      0    Vosko Wilk Nusair interpolation
   ROPT   =    0.00000   0.00000
 Ionic relaxation
   EDIFFG = 0.1E-06   stopping-criterion for IOM
   NSW    =      0    number of steps for IOM
   NBLOCK =      1;   KBLOCK =      1    inner block; outer block 
   IBRION =     -1    ionic relax: 0-MD 1-quasi-New 2-CG
   NFREE  =      0    steps in history (QN), initial steepest desc. (CG)
   ISIF   =      2    stress and relaxation
   IWAVPR =     10    prediction:  0-non 1-charg 2-wave 3-comb
   ISYM   =      2    0-nonsym 1-usesym 2-fastsym
   LCORR  =      T    Harris-Foulkes like correction to forces

   POTIM  = 0.5000    time-step for ionic-motion
   TEIN   =    0.0    initial temperature
   TEBEG  =    0.0;   TEEND  =   0.0 temperature during run
   SMASS  =  -3.00    Nose mass-parameter (am)
   estimated Nose-frequenzy (Omega)   =  0.10E-29 period in steps = 0.13E+47 mass=  -0.287E-26a.u.
   SCALEE = 1.0000    scale energy and forces
   NPACO  =    256;   APACO  = 10.0  distance and # of slots for P.C.
   PSTRESS=    0.0 pullay stress

  Mass of Ions in am
   POMASS =  22.99 35.45
  Ionic Valenz
   ZVAL   =   7.00  7.00
  Atomic Wigner-Seitz radii
   RWIGS  =  -1.00 -1.00
  virtual crystal weights 
   VCA    =   1.00  1.00
   NELECT =     448.0000    total number of electrons
   NUPDOWN=      -1.0000    fix difference up-down

 DOS related values:
   EMIN   =  10.00;   EMAX   =-10.00  energy-range for DOS
   EFERMI =   0.00
   ISMEAR =     0;   SIGMA  =   0.02  broadening in eV -4-tet -1-fermi 0-gaus

 Electronic relaxation 2 (details)
   IALGO  =     38    algorithm
   LDIAG  =      T    sub-space diagonalisation (order eigenvalues)
   LSUBROT=      F    optimize rotation matrix (better conditioning)
   TURBO    =      0    0=normal 1=particle mesh
   IRESTART =      0    0=no restart 2=restart with 2 vectors
   NREBOOT  =      0    no. of reboots
   NMIN     =      0    reboot dimension
   EREF     =   0.00    reference energy to select bands
   IMIX   =      4    mixing-type and parameters
     AMIX     =   0.40;   BMIX     =  1.00
     AMIX_MAG =   1.60;   BMIX_MAG =  1.00
     AMIN     =   0.10
     WC   =   100.;   INIMIX=   1;  MIXPRE=   1;  MAXMIX= -45

 Intra band minimization:
   WEIMIN = 0.0000     energy-eigenvalue tresh-hold
   EBREAK =  0.87E-11  absolut break condition
   DEPER  =   0.30     relativ break condition  

   TIME   =   0.40     timestep for ELM

  volume/ion in A,a.u.               =      21.98       148.30
  Fermi-wavevector in a.u.,A,eV,Ry     =   1.118049  2.112807 17.007750  1.250034
  Thomas-Fermi vector in A             =   2.254677
 
 Write flags
   LWAVE        =      F    write WAVECAR
   LDOWNSAMPLE  =      F    k-point downsampling of WAVECAR
   LCHARG       =      F    write CHGCAR
   LVTOT        =      F    write LOCPOT, total local potential
   LVHAR        =      F    write LOCPOT, Hartree potential only
   LELF         =      F    write electronic localiz. function (ELF)
   LORBIT       =      0    0 simple, 1 ext, 2 COOP (PROOUT), +10 PAW based schemes


 Dipole corrections
   LMONO  =      F    monopole corrections only (constant potential shift)
   LDIPOL =      F    correct potential (dipole corrections)
   IDIPOL =      0    1-x, 2-y, 3-z, 4-all directions 
   EPSILON=  1.0000000 bulk dielectric constant

 Exchange correlation treatment:
   GGA     =    PS    GGA type
   LEXCH   =    14    internal setting for exchange type
   LIBXC   =     F    Libxc                    
   VOSKOWN =     0    Vosko Wilk Nusair interpolation
   LHFCALC =     F    Hartree Fock is set to
   LHFONE  =     F    Hartree Fock one center treatment
   AEXX    =    0.0000 exact exchange contribution

 Linear response parameters
   LEPSILON=     F    determine dielectric tensor
   LRPA    =     F    only Hartree local field effects (RPA)
   LNABLA  =     F    use nabla operator in PAW spheres
   LVEL    =     F    velocity operator in full k-point grid
   CSHIFT  =0.1000    complex shift for real part using Kramers Kronig
   OMEGAMAX=  -1.0    maximum frequency
   DEG_THRESHOLD= 0.2000000E-02 threshold for treating states as degnerate
   RTIME   =   -0.100 relaxation time in fs
  (WPLASMAI=    0.000 imaginary part of plasma frequency in eV, 0.658/RTIME)
   DFIELD  = 0.0000000 0.0000000 0.0000000 field for delta impulse in time
 
  Optional k-point grid parameters
   LKPOINTS_OPT  =     F    use optional k-point grid
   KPOINTS_OPT_MODE=     1    mode for optional k-point grid
 
 Orbital magnetization related:
   ORBITALMAG=     F  switch on orbital magnetization
   LCHIMAG   =     F  perturbation theory with respect to B field
   DQ        =  0.001000  dq finite difference perturbation B field
   LLRAUG    =     F  two centre corrections for induced B field



--------------------------------------------------------------------------------------------------------


 Static calculation
 charge density and potential will be updated during run
 non-spin polarized calculation
 Variant of blocked Davidson
 Davidson routine will perform the subspace rotation
 perform sub-space diagonalisation
    after iterative eigenvector-optimisation
 modified Broyden-mixing scheme, WC =      100.0
 initial mixing is a Kerker type mixing with AMIX =  0.4000 and BMIX =      1.0000
 Hartree-type preconditioning will be used
 using additional bands           64
 reciprocal scheme for non local part
 use partial core corrections
 calculate Harris-corrections to forces 
   (improved forces if not selfconsistent)
 use gradient corrections 
 use of overlap-Matrix (Vanderbilt PP)
 Gauss-broadening in eV      SIGMA  =   0.02


--------------------------------------------------------------------------------------------------------


  energy-cutoff  :      341.21
  volume of cell :     1406.43
      direct lattice vectors                 reciprocal lattice vectors
    11.204002360  0.000000000  0.000000000     0.089253819  0.000000000  0.000000000
     0.000000000 11.204002360  0.000000000     0.000000000  0.089253819  0.000000000
     0.000000000  0.000000000 11.204002360     0.000000000  0.000000000  0.089253819

  length of vectors
    11.204002360 11.204002360 11.204002360     0.089253819  0.089253819  0.089253819


 
 k-points in units of 2pi/SCALE and weight: KPOINTS created by Atomic Simulation Env
   0.00000000  0.00000000  0.00000000       0.125
   0.04462691  0.00000000  0.00000000       0.250
   0.00000000  0.00000000  0.04462691       0.125
   0.04462691  0.04462691  0.00000000       0.125
   0.00000000  0.04462691  0.04462691       0.250
   0.04462691  0.04462691  0.04462691       0.125
 
 k-points in reciprocal lattice and weights: KPOINTS created by Atomic Simulation Env
   0.00000000  0.00000000  0.00000000       0.125
   0.50000000  0.00000000  0.00000000       0.250
   0.00000000  0.00000000  0.50000000       0.125
   0.50000000  0.50000000  0.00000000       0.125
   0.00000000  0.50000000  0.50000000       0.250
   0.50000000  0.50000000  0.50000000       0.125
 
 position of ions in fractional coordinates (direct lattice) 
   0.00267761  0.00000000  0.00000000
   0.25000000  0.24732239  0.00000000
   0.25000000  0.00000000  0.25000000
   0.00000000  0.25000000  0.25000000
   0.00000000  0.00000000  0.50000000
   0.25000000  0.25000000  0.50000000
   0.25000000  0.00000000  0.75000000
   0.00000000  0.25000000  0.75000000
   0.00000000  0.50000000  0.00000000
   0.25000000  0.75000000  0.00000000
   0.25000000  0.50000000  0.25000000
   0.00000000  0.75000000  0.25000000
   0.00000000  0.50000000  0.50000000
   0.25000000  0.75000000  0.50000000
   0.25000000  0.50000000  0.75000000
   0.00000000  0.75000000  0.75000000
   0.50000000  0.00000000  0.00000000
   0.75000000  0.25000000  0.00000000
   0.75000000  0.00000000  0.25000000
   0.50000000  0.25000000  0.25000000
   0.50000000  0.00000000  0.50000000
   0.75000000  0.25000000  0.50000000
   0.75000000  0.00000000  0.75000000
   0.50000000  0.25000000  0.75000000
   0.50000000  0.50000000  0.00000000
   0.75000000  0.75000000  0.00000000
   0.75000000  0.50000000  0.25000000
   0.50000000  0.75000000  0.25000000
   0.50000000  0.50000000  0.50000000
   0.75000000  0.75000000  0.50000000
   0.75000000  0.50000000  0.75000000
   0.50000000  0.75000000  0.75000000
   0.25000000  0.25000000  0.25000000
   0.00000000  0.00000000  0.25000000
   0.00000000  0.25000000  0.00000000
   0.25000000  0.00000000  0.00000000
   0.25000000  0.25000000  0.75000000
   0.00000000  0.00000000  0.75000000
   0.00000000  0.25000000  0.50000000
   0.25000000  0.00000000  0.50000000
   0.25000000  0.75000000  0.25000000
   0.00000000  0.50000000  0.25000000
   0.00000000  0.75000000  0.00000000
   0.25000000  0.50000000  0.00000000
   0.25000000  0.75000000  0.75000000
   0.00000000  0.50000000  0.75000000
   0.00000000  0.75000000  0.50000000
   0.25000000  0.50000000  0.50000000
   0.75000000  0.25000000  0.25000000
   0.50000000  0.00000000  0.25000000
   0.50000000  0.25000000  0.00000000
   0.75000000  0.00000000  0.00000000
   0.75000000  0.25000000  0.75000000
   0.50000000  0.00000000  0.75000000
   0.50000000  0.25000000  0.50000000
   0.75000000  0.00000000  0.50000000
   0.75000000  0.75000000  0.25000000
   0.50000000  0.50000000  0.25000000
   0.50000000  0.75000000  0.00000000
   0.75000000  0.50000000  0.00000000
   0.75000000  0.75000000  0.75000000
   0.50000000  0.50000000  0.75000000
   0.50000000  0.75000000  0.50000000
   0.75000000  0.50000000  0.50000000
 
 position of ions in cartesian coordinates  (Angst):
   0.03000000  0.00000000  0.00000000
   2.80100059  2.77100059  0.00000000
   2.80100059  0.00000000  2.80100059
   0.00000000  2.80100059  2.80100059
   0.00000000  0.00000000  5.60200118
   2.80100059  2.80100059  5.60200118
   2.80100059  0.00000000  8.40300177
   0.00000000  2.80100059  8.40300177
   0.00000000  5.60200118  0.00000000
   2.80100059  8.40300177  0.00000000
   2.80100059  5.60200118  2.80100059
   0.00000000  8.40300177  2.80100059
   0.00000000  5.60200118  5.60200118
   2.80100059  8.40300177  5.60200118
   2.80100059  5.60200118  8.40300177
   0.00000000  8.40300177  8.40300177
   5.60200118  0.00000000  0.00000000
   8.40300177  2.80100059  0.00000000
   8.40300177  0.00000000  2.80100059
   5.60200118  2.80100059  2.80100059
   5.60200118  0.00000000  5.60200118
   8.40300177  2.80100059  5.60200118
   8.40300177  0.00000000  8.40300177
   5.60200118  2.80100059  8.40300177
   5.60200118  5.60200118  0.00000000
   8.40300177  8.40300177  0.00000000
   8.40300177  5.60200118  2.80100059
   5.60200118  8.40300177  2.80100059
   5.60200118  5.60200118  5.60200118
   8.40300177  8.40300177  5.60200118
   8.40300177  5.60200118  8.40300177
   5.60200118  8.40300177  8.40300177
   2.80100059  2.80100059  2.80100059
   0.00000000  0.00000000  2.80100059
   0.00000000  2.80100059  0.00000000
   2.80100059  0.00000000  0.00000000
   2.80100059  2.80100059  8.40300177
   0.00000000  0.00000000  8.40300177
   0.00000000  2.80100059  5.60200118
   2.80100059  0.00000000  5.60200118
   2.80100059  8.40300177  2.80100059
   0.00000000  5.60200118  2.80100059
   0.00000000  8.40300177  0.00000000
   2.80100059  5.60200118  0.00000000
   2.80100059  8.40300177  8.40300177
   0.00000000  5.60200118  8.40300177
   0.00000000  8.40300177  5.60200118
   2.80100059  5.60200118  5.60200118
   8.40300177  2.80100059  2.80100059
   5.60200118  0.00000000  2.80100059
   5.60200118  2.80100059  0.00000000
   8.40300177  0.00000000  0.00000000
   8.40300177  2.80100059  8.40300177
   5.60200118  0.00000000  8.40300177
   5.60200118  2.80100059  5.60200118
   8.40300177  0.00000000  5.60200118
   8.40300177  8.40300177  2.80100059
   5.60200118  5.60200118  2.80100059
   5.60200118  8.40300177  0.00000000
   8.40300177  5.60200118  0.00000000
   8.40300177  8.40300177  8.40300177
   5.60200118  5.60200118  8.40300177
   5.60200118  8.40300177  5.60200118
   8.40300177  5.60200118  5.60200118
 


--------------------------------------------------------------------------------------------------------


 k-point   1 :   0.0000 0.0000 0.0000  plane waves:   20005
 k-point   2 :   0.5000 0.0000 0.0000  plane waves:   20138
 k-point   3 :   0.0000 0.0000 0.5000  plane waves:   20138
 k-point   4 :   0.5000 0.5000 0.0000  plane waves:   20160
 k-point   5 :   0.0000 0.5000 0.5000  plane waves:   20160
 k-point   6 :   0.5000 0.5000 0.5000  plane waves:   20336

 maximum and minimum number of plane-waves per node :     20336    20005

 maximum number of plane-waves:     20336
 maximum index in each direction: 
   IXMAX=   16   IYMAX=   16   IZMAX=   16
   IXMIN=  -17   IYMIN=  -17   IZMIN=  -17


 serial   3D FFT for wavefunctions
 parallel 3D FFT for charge:
    minimum data exchange during FFTs selected (reduces bandwidth)


 total amount of memory used by VASP MPI-rank0   118439. kBytes
=======================================================================

   base      :      30000. kBytes
   nonl-proj :      36470. kBytes
   fftplans  :      14405. kBytes
   grid      :      19342. kBytes
   one-center:        196. kBytes
   wavefun   :      18026. kBytes
 
     INWAV:  cpu time      0.0000: real time      0.0000
 Broyden mixing: mesh for mixing (old mesh)
   NGX = 33   NGY = 33   NGZ = 33
  (NGX  =140   NGY  =140   NGZ  =140)
  gives a total of  35937 points

 initial charge density was supplied:
 charge density of overlapping atoms calculated
 number of electron     448.0000000 magnetization 
 keeping initial charge density in first step


--------------------------------------------------------------------------------------------------------


 Maximum index for augmentation-charges         1834 (set IRDMAX)


--------------------------------------------------------------------------------------------------------


 First call to EWALD:  gamma=   0.158
 Maximum number of real-space cells 3x 3x 3
 Maximum number of reciprocal cells 3x 3x 3

    FEWALD:  cpu time      0.0014: real time      0.0015


--------------------------------------- Iteration      1(   1)  ---------------------------------------


    POTLOK:  cpu time      0.0426: real time      0.0505
    SETDIJ:  cpu time      0.0322: real time      0.0361
     EDDAV:  cpu time      7.1827: real time      7.2667
       DOS:  cpu time      0.0016: real time      0.0036
    --------------------------------------------
      LOOP:  cpu time      7.2591: real time      7.3568

 eigenvalue-minimisations  :  3456
 total energy-change (2. order) : 0.4310316E+04  (-0.1719900E+05)
 number of electron     448.0000000 magnetization 
 augmentation part      448.0000000 magnetization 

 Free energy of the ion-electron system (eV)
  ---------------------------------------------------
  alpha Z        PSCENC =       751.52672365
  Ewald energy   TEWEN  =    -22871.32574670
  -Hartree energ DENC   =     -8992.25837551
  -exchange      EXHF   =         0.00000000
  -V(xc)+E(xc)   XCENC  =      1456.53425669
  PAW double counting   =     26466.43774078   -29286.08056155
  entropy T*S    EENTRO =        -0.00077605
  eigenvalues    EBANDS =      -746.69699481
  atomic energy  EATOM  =     37532.17946992
  Solvation  Ediel_sol  =         0.00000000
  ---------------------------------------------------
  free energy    TOTEN  =      4310.31573643 eV

  energy without entropy =     4310.31651248  energy(sigma->0) =     4310.31612446


--------------------------------------------------------------------------------------------------------




--------------------------------------- Iteration      1(   2)  ---------------------------------------


     EDDAV:  cpu time      7.8641: real time      7.9055
       DOS:  cpu time      0.0004: real time      0.0004
    --------------------------------------------
      LOOP:  cpu time      7.8645: real time      7.9060

 eigenvalue-minimisations  :  3840
 total energy-change (2. order) :-0.3949860E+04  (-0.3757236E+04)
 number of electron     448.0000000 magnetization 
 augmentation part      448.0000000 magnetization 

 Free energy of the ion-electron system (eV)
  ---------------------------------------------------
  alpha Z        PSCENC =       751.52672365
  Ewald energy   TEWEN  =    -22871.32574670
  -Hartree energ DENC   =     -8992.25837551
  -exchange      EXHF   =         0.00000000
  -V(xc)+E(xc)   XCENC  =      1456.53425669
  PAW double counting   =     26466.43774078   -29286.08056155
  entropy T*S    EENTRO =        -0.00000000
  eigenvalues    EBANDS =     -4696.55788253
  atomic energy  EATOM  =     37532.17946992
  Solvation  Ediel_sol  =         0.00000000
  ---------------------------------------------------
  free energy    TOTEN  =       360.45562477 eV

  energy without entropy =      360.45562477  energy(sigma->0) =      360.45562477


--------------------------------------------------------------------------------------------------------




--------------------------------------- Iteration      1(   3)  ---------------------------------------


     EDDAV:  cpu time      8.4714: real time      8.5169
       DOS:  cpu time      0.0005: real time      0.0005
    --------------------------------------------
      LOOP:  cpu time      8.4719: real time      8.5173

 eigenvalue-minimisations  :  4192
 total energy-change (2. order) :-0.5668962E+03  (-0.5626436E+03)
 number of electron     448.0000000 magnetization 
 augmentation part      448.0000000 magnetization 

 Free energy of the ion-electron system (eV)
  ---------------------------------------------------
  alpha Z        PSCENC =       751.52672365
  Ewald energy   TEWEN  =    -22871.32574670
  -Hartree energ DENC   =     -8992.25837551
  -exchange      EXHF   =         0.00000000
  -V(xc)+E(xc)   XCENC  =      1456.53425669
  PAW double counting   =     26466.43774078   -29286.08056155
  entropy T*S    EENTRO =        -0.00000000
  eigenvalues    EBANDS =     -5263.45406202
  atomic energy  EATOM  =     37532.17946992
  Solvation  Ediel_sol  =         0.00000000
  ---------------------------------------------------
  free energy    TOTEN  =      -206.44055472 eV

  energy without entropy =     -206.44055472  energy(sigma->0) =     -206.44055472


--------------------------------------------------------------------------------------------------------




--------------------------------------- Iteration      1(   4)  ---------------------------------------


     EDDAV:  cpu time      8.4666: real time      8.5112
       DOS:  cpu time      0.0006: real time      0.0006
    --------------------------------------------
      LOOP:  cpu time      8.4672: real time      8.5118

 eigenvalue-minimisations  :  4160
 total energy-change (2. order) :-0.2176141E+02  (-0.2166052E+02)
 number of electron     448.0000000 magnetization 
 augmentation part      448.0000000 magnetization 

 Free energy of the ion-electron system (eV)
  ---------------------------------------------------
  alpha Z        PSCENC =       751.52672365
  Ewald energy   TEWEN  =    -22871.32574670
  -Hartree energ DENC   =     -8992.25837551
  -exchange      EXHF   =         0.00000000
  -V(xc)+E(xc)   XCENC  =      1456.53425669
  PAW double counting   =     26466.43774078   -29286.08056155
  entropy T*S    EENTRO =        -0.00000000
  eigenvalues    EBANDS =     -5285.21547378
  atomic energy  EATOM  =     37532.17946992
  Solvation  Ediel_sol  =         0.00000000
  ---------------------------------------------------
  free energy    TOTEN  =      -228.20196649 eV

  energy without entropy =     -228.20196649  energy(sigma->0) =     -228.20196649


--------------------------------------------------------------------------------------------------------




--------------------------------------- Iteration      1(   5)  ---------------------------------------


     EDDAV:  cpu time      8.9149: real time      8.9648
       DOS:  cpu time      0.0006: real time      0.0006
    CHARGE:  cpu time      0.2718: real time      0.2735
    MIXING:  cpu time      0.0011: real time      0.0022
    --------------------------------------------
      LOOP:  cpu time      9.1885: real time      9.2411

 eigenvalue-minimisations  :  4416
 total energy-change (2. order) :-0.8048602E+00  (-0.8035742E+00)
 number of electron     448.0000022 magnetization 
 augmentation part      111.6382327 magnetization 

 Broyden mixing:
  rms(total) = 0.10607E+01    rms(broyden)= 0.10602E+01
  rms(prec ) = 0.14938E+01
  weight for this iteration     100.00

 Free energy of the ion-electron system (eV)
  ---------------------------------------------------
  alpha Z        PSCENC =       751.52672365
  Ewald energy   TEWEN  =    -22871.32574670
  -Hartree energ DENC   =     -8992.25837551
  -exchange      EXHF   =         0.00000000
  -V(xc)+E(xc)   XCENC  =      1456.53425669
  PAW double counting   =     26466.43774078   -29286.08056155
  entropy T*S    EENTRO =        -0.00000000
  eigenvalues    EBANDS =     -5286.02033394
  atomic energy  EATOM  =     37532.17946992
  Solvation  Ediel_sol  =         0.00000000
  ---------------------------------------------------
  free energy    TOTEN  =      -229.00682665 eV

  energy without entropy =     -229.00682665  energy(sigma->0) =     -229.00682665


--------------------------------------------------------------------------------------------------------




--------------------------------------- Iteration      1(   6)  ---------------------------------------


    POTLOK:  cpu time      0.0371: real time      0.0378
    SETDIJ:  cpu time      0.0296: real time      0.0297
     EDDAV:  cpu time      8.7488: real time      8.7935
       DOS:  cpu time      0.0002: real time      0.0002
    CHARGE:  cpu time      0.2713: real time      0.2727
    MIXING:  cpu time      0.0013: real time      0.0013
    --------------------------------------------
      LOOP:  cpu time      9.0882: real time      9.1351

 eigenvalue-minimisations  :  4288
 total energy-change (2. order) : 0.4868870E+01  (-0.9509229E+00)
 number of electron     448.0000022 magnetization 
 augmentation part      112.4595575 magnetization 

 Broyden mixing:
  rms(total) = 0.77633E+00    rms(broyden)= 0.77627E+00
  rms(prec ) = 0.89225E+00
  weight for this iteration     100.00

 eigenvalues of (default mixing * dielectric matrix)
  average eigenvalue GAMMA=   1.0721
  1.0721

 Free energy of the ion-electron system (eV)
  ---------------------------------------------------
  alpha Z        PSCENC =       751.52672365
  Ewald energy   TEWEN  =    -22871.32574670
  -Hartree energ DENC   =     -9061.71653234
  -exchange      EXHF   =         0.00000000
  -V(xc)+E(xc)   XCENC  =      1465.42541625
  PAW double counting   =     27290.57871722   -30102.46908118
  entropy T*S    EENTRO =        -0.00000000
  eigenvalues    EBANDS =     -5228.33692337
  atomic energy  EATOM  =     37532.17946992
  Solvation  Ediel_sol  =         0.00000000
  ---------------------------------------------------
  free energy    TOTEN  =      -224.13795653 eV

  energy without entropy =     -224.13795653  energy(sigma->0) =     -224.13795653


--------------------------------------------------------------------------------------------------------




--------------------------------------- Iteration      1(   7)  ---------------------------------------


    POTLOK:  cpu time      0.0358: real time      0.0360
    SETDIJ:  cpu time      0.0293: real time      0.0294
     EDDAV:  cpu time      9.4409: real time      9.4885
       DOS:  cpu time      0.0002: real time      0.0002
    CHARGE:  cpu time      0.2680: real time      0.2696
    MIXING:  cpu time      0.0012: real time      0.0012
    --------------------------------------------
      LOOP:  cpu time      9.7753: real time      9.8249

 eigenvalue-minimisations  :  4672
 total energy-change (2. order) : 0.3607007E+00  (-0.2057816E+00)
 number of electron     448.0000022 magnetization 
 augmentation part      112.8271853 magnetization 

 Broyden mixing:
  rms(total) = 0.53351E+00    rms(broyden)= 0.53349E+00
  rms(prec ) = 0.56356E+00
  weight for this iteration     100.00

 eigenvalues of (default mixing * dielectric matrix)
  average eigenvalue GAMMA=   2.1524
  1.4381  2.8666

 Free energy of the ion-electron system (eV)
  ---------------------------------------------------
  alpha Z        PSCENC =       751.52672365
  Ewald energy   TEWEN  =    -22871.32574670
  -Hartree energ DENC   =     -9085.79292064
  -exchange      EXHF   =         0.00000000
  -V(xc)+E(xc)   XCENC  =      1470.11843214
  PAW double counting   =     28328.42339697   -31141.14936188
  entropy T*S    EENTRO =        -0.00000000
  eigenvalues    EBANDS =     -5207.75724929
  atomic energy  EATOM  =     37532.17946992
  Solvation  Ediel_sol  =         0.00000000
  ---------------------------------------------------
  free energy    TOTEN  =      -223.77725582 eV

  energy without entropy =     -223.77725582  energy(sigma->0) =     -223.77725582


--------------------------------------------------------------------------------------------------------




--------------------------------------- Iteration      1(   8)  ---------------------------------------


    POTLOK:  cpu time      0.0357: real time      0.0360
    SETDIJ:  cpu time      0.0298: real time      0.0300
     EDDAV:  cpu time      8.3468: real time      8.3891
       DOS:  cpu time      0.0002: real time      0.0002
    CHARGE:  cpu time      0.2674: real time      0.2687
    MIXING:  cpu time      0.0012: real time      0.0027
    --------------------------------------------
      LOOP:  cpu time      8.6811: real time      8.7267

 eigenvalue-minimisations  :  4000
 total energy-change (2. order) :-0.1252254E+00  (-0.2673622E-01)
 number of electron     448.0000022 magnetization 
 augmentation part      112.8100842 magnetization 

 Broyden mixing:
  rms(total) = 0.14076E+00    rms(broyden)= 0.14076E+00
  rms(prec ) = 0.14360E+00
  weight for this iteration     100.00

 eigenvalues of (default mixing * dielectric matrix)
  average eigenvalue GAMMA=   1.5548
  2.5237  1.3858  0.7550

 Free energy of the ion-electron system (eV)
  ---------------------------------------------------
  alpha Z        PSCENC =       751.52672365
  Ewald energy   TEWEN  =    -22871.32574670
  -Hartree energ DENC   =     -9075.26132878
  -exchange      EXHF   =         0.00000000
  -V(xc)+E(xc)   XCENC  =      1472.33964648
  PAW double counting   =     29807.62554984   -32627.46956179
  entropy T*S    EENTRO =        -0.00000000
  eigenvalues    EBANDS =     -5213.51723383
  atomic energy  EATOM  =     37532.17946992
  Solvation  Ediel_sol  =         0.00000000
  ---------------------------------------------------
  free energy    TOTEN  =      -223.90248121 eV

  energy without entropy =     -223.90248121  energy(sigma->0) =     -223.90248121


--------------------------------------------------------------------------------------------------------




--------------------------------------- Iteration      1(   9)  ---------------------------------------


    POTLOK:  cpu time      0.0359: real time      0.0362
    SETDIJ:  cpu time      0.0296: real time      0.0297
     EDDAV:  cpu time      8.8429: real time      8.8879
       DOS:  cpu time      0.0002: real time      0.0002
    CHARGE:  cpu time      0.2676: real time      0.2692
    MIXING:  cpu time      0.0011: real time      0.0011
    --------------------------------------------
      LOOP:  cpu time      9.1773: real time      9.2244

 eigenvalue-minimisations  :  4288
 total energy-change (2. order) : 0.5406255E-02  (-0.1101211E-02)
 number of electron     448.0000022 magnetization 
 augmentation part      112.8315328 magnetization 

 Broyden mixing:
  rms(total) = 0.60044E-01    rms(broyden)= 0.60043E-01
  rms(prec ) = 0.62096E-01
  weight for this iteration     100.00

 eigenvalues of (default mixing * dielectric matrix)
  average eigenvalue GAMMA=   2.0159
  2.9689  2.7053  0.9978  1.3916

 Free energy of the ion-electron system (eV)
  ---------------------------------------------------
  alpha Z        PSCENC =       751.52672365
  Ewald energy   TEWEN  =    -22871.32574670
  -Hartree energ DENC   =     -9077.95342575
  -exchange      EXHF   =         0.00000000
  -V(xc)+E(xc)   XCENC  =      1472.35720921
  PAW double counting   =     29630.07920040   -32449.09239452
  entropy T*S    EENTRO =        -0.00000000
  eigenvalues    EBANDS =     -5211.66811117
  atomic energy  EATOM  =     37532.17946992
  Solvation  Ediel_sol  =         0.00000000
  ---------------------------------------------------
  free energy    TOTEN  =      -223.89707495 eV

  energy without entropy =     -223.89707495  energy(sigma->0) =     -223.89707495


--------------------------------------------------------------------------------------------------------




--------------------------------------- Iteration      1(  10)  ---------------------------------------


    POTLOK:  cpu time      0.0356: real time      0.0359
    SETDIJ:  cpu time      0.0298: real time      0.0299
     EDDAV:  cpu time      8.3927: real time      8.4351
       DOS:  cpu time      0.0002: real time      0.0002
    CHARGE:  cpu time      0.2679: real time      0.2692
    MIXING:  cpu time      0.0027: real time      0.0027
    --------------------------------------------
      LOOP:  cpu time      8.7288: real time      8.7729

 eigenvalue-minimisations  :  4000
 total energy-change (2. order) :-0.4337634E-02  (-0.1832285E-02)
 number of electron     448.0000022 magnetization 
 augmentation part      112.8610600 magnetization 

 Broyden mixing:
  rms(total) = 0.28823E-01    rms(broyden)= 0.28821E-01
  rms(prec ) = 0.30855E-01
  weight for this iteration     100.00

 eigenvalues of (default mixing * dielectric matrix)
  average eigenvalue GAMMA=   1.7110
  2.9418  2.5081  1.2950  1.0219  0.7879

 Free energy of the ion-electron system (eV)
  ---------------------------------------------------
  alpha Z        PSCENC =       751.52672365
  Ewald energy   TEWEN  =    -22871.32574670
  -Hartree energ DENC   =     -9079.42902718
  -exchange      EXHF   =         0.00000000
  -V(xc)+E(xc)   XCENC  =      1472.60708202
  PAW double counting   =     29455.04497874   -32274.27747792
  entropy T*S    EENTRO =        -0.00000000
  eigenvalues    EBANDS =     -5210.22741513
  atomic energy  EATOM  =     37532.17946992
  Solvation  Ediel_sol  =         0.00000000
  ---------------------------------------------------
  free energy    TOTEN  =      -223.90141259 eV

  energy without entropy =     -223.90141259  energy(sigma->0) =     -223.90141259


--------------------------------------------------------------------------------------------------------




--------------------------------------- Iteration      1(  11)  ---------------------------------------


    POTLOK:  cpu time      0.0364: real time      0.0373
    SETDIJ:  cpu time      0.0297: real time      0.0299
     EDDAV:  cpu time      8.7187: real time      8.7628
       DOS:  cpu time      0.0002: real time      0.0002
    CHARGE:  cpu time      0.2702: real time      0.2715
    MIXING:  cpu time      0.0013: real time      0.0013
    --------------------------------------------
      LOOP:  cpu time      9.0564: real time      9.1029

 eigenvalue-minimisations  :  4192
 total energy-change (2. order) : 0.7380292E-03  (-0.1645668E-03)
 number of electron     448.0000022 magnetization 
 augmentation part      112.8514758 magnetization 

 Broyden mixing:
  rms(total) = 0.81552E-02    rms(broyden)= 0.81551E-02
  rms(prec ) = 0.85529E-02
  weight for this iteration     100.00

 eigenvalues of (default mixing * dielectric matrix)
  average eigenvalue GAMMA=   1.5991
  2.9089  2.4138  1.3313  1.0100  0.9653  0.9653

 Free energy of the ion-electron system (eV)
  ---------------------------------------------------
  alpha Z        PSCENC =       751.52672365
  Ewald energy   TEWEN  =    -22871.32574670
  -Hartree energ DENC   =     -9078.32593439
  -exchange      EXHF   =         0.00000000
  -V(xc)+E(xc)   XCENC  =      1472.52805727
  PAW double counting   =     29488.01996492   -32307.39660024
  entropy T*S    EENTRO =        -0.00000000
  eigenvalues    EBANDS =     -5211.10660900
  atomic energy  EATOM  =     37532.17946992
  Solvation  Ediel_sol  =         0.00000000
  ---------------------------------------------------
  free energy    TOTEN  =      -223.90067456 eV

  energy without entropy =     -223.90067456  energy(sigma->0) =     -223.90067456


--------------------------------------------------------------------------------------------------------




--------------------------------------- Iteration      1(  12)  ---------------------------------------


    POTLOK:  cpu time      0.0360: real time      0.0411
    SETDIJ:  cpu time      0.0297: real time      0.0301
     EDDAV:  cpu time      9.2623: real time      9.3090
       DOS:  cpu time      0.0002: real time      0.0002
    CHARGE:  cpu time      0.2735: real time      0.2748
    MIXING:  cpu time      0.0015: real time      0.0015
    --------------------------------------------
      LOOP:  cpu time      9.6030: real time      9.6567

 eigenvalue-minimisations  :  4512
 total energy-change (2. order) : 0.3587737E-04  (-0.1604495E-04)
 number of electron     448.0000022 magnetization 
 augmentation part      112.8484628 magnetization 

 Broyden mixing:
  rms(total) = 0.93611E-03    rms(broyden)= 0.93472E-03
  rms(prec ) = 0.11486E-02
  weight for this iteration     100.00

 eigenvalues of (default mixing * dielectric matrix)
  average eigenvalue GAMMA=   1.6335
  2.8889  2.4436  1.8336  1.1888  1.1888  0.8388  1.0519

 Free energy of the ion-electron system (eV)
  ---------------------------------------------------
  alpha Z        PSCENC =       751.52672365
  Ewald energy   TEWEN  =    -22871.32574670
  -Hartree energ DENC   =     -9078.16341611
  -exchange      EXHF   =         0.00000000
  -V(xc)+E(xc)   XCENC  =      1472.51651426
  PAW double counting   =     29500.30082739   -32319.67718494
  entropy T*S    EENTRO =        -0.00000000
  eigenvalues    EBANDS =     -5211.25782616
  atomic energy  EATOM  =     37532.17946992
  Solvation  Ediel_sol  =         0.00000000
  ---------------------------------------------------
  free energy    TOTEN  =      -223.90063868 eV

  energy without entropy =     -223.90063868  energy(sigma->0) =     -223.90063868


--------------------------------------------------------------------------------------------------------




--------------------------------------- Iteration      1(  13)  ---------------------------------------


    POTLOK:  cpu time      0.0360: real time      0.0370
    SETDIJ:  cpu time      0.0300: real time      0.0302
     EDDAV:  cpu time      8.7759: real time      8.8262
       DOS:  cpu time      0.0002: real time      0.0002
    CHARGE:  cpu time      0.2684: real time      0.2699
    MIXING:  cpu time      0.0020: real time      0.0020
    --------------------------------------------
      LOOP:  cpu time      9.1124: real time      9.1653

 eigenvalue-minimisations  :  4224
 total energy-change (2. order) :-0.5723872E-05  (-0.1224999E-05)
 number of electron     448.0000022 magnetization 
 augmentation part      112.8478022 magnetization 

 Broyden mixing:
  rms(total) = 0.29343E-03    rms(broyden)= 0.29298E-03
  rms(prec ) = 0.34324E-03
  weight for this iteration     100.00

 eigenvalues of (default mixing * dielectric matrix)
  average eigenvalue GAMMA=   1.6479
  2.9774  2.4168  2.4168  1.2790  0.9864  0.9864  1.0601  1.0601

 Free energy of the ion-electron system (eV)
  ---------------------------------------------------
  alpha Z        PSCENC =       751.52672365
  Ewald energy   TEWEN  =    -22871.32574670
  -Hartree energ DENC   =     -9078.12094681
  -exchange      EXHF   =         0.00000000
  -V(xc)+E(xc)   XCENC  =      1472.51096296
  PAW double counting   =     29498.53473408   -32317.90557395
  entropy T*S    EENTRO =        -0.00000000
  eigenvalues    EBANDS =     -5211.30026757
  atomic energy  EATOM  =     37532.17946992
  Solvation  Ediel_sol  =         0.00000000
  ---------------------------------------------------
  free energy    TOTEN  =      -223.90064440 eV

  energy without entropy =     -223.90064440  energy(sigma->0) =     -223.90064440


--------------------------------------------------------------------------------------------------------




--------------------------------------- Iteration      1(  14)  ---------------------------------------


    POTLOK:  cpu time      0.0357: real time      0.0359
    SETDIJ:  cpu time      0.0305: real time      0.0307
     EDDAV:  cpu time      9.2630: real time      9.3162
       DOS:  cpu time      0.0002: real time      0.0002
    CHARGE:  cpu time      0.2723: real time      0.2739
    MIXING:  cpu time      0.0015: real time      0.0015
    --------------------------------------------
      LOOP:  cpu time      9.6031: real time      9.6584

 eigenvalue-minimisations  :  4512
 total energy-change (2. order) :-0.3493187E-07  (-0.1502962E-06)
 number of electron     448.0000022 magnetization 
 augmentation part      112.8476277 magnetization 

 Broyden mixing:
  rms(total) = 0.96920E-03    rms(broyden)= 0.96916E-03
  rms(prec ) = 0.99456E-03
  weight for this iteration     100.00

 eigenvalues of (default mixing * dielectric matrix)
  average eigenvalue GAMMA=   1.6624
  3.0630  2.6098  2.6098  1.4340  1.2552  1.2552  0.9358  0.9358  0.8628

 Free energy of the ion-electron system (eV)
  ---------------------------------------------------
  alpha Z        PSCENC =       751.52672365
  Ewald energy   TEWEN  =    -22871.32574670
  -Hartree energ DENC   =     -9078.12590199
  -exchange      EXHF   =         0.00000000
  -V(xc)+E(xc)   XCENC  =      1472.51185311
  PAW double counting   =     29500.16004091   -32319.52991534
  entropy T*S    EENTRO =        -0.00000000
  eigenvalues    EBANDS =     -5211.29716802
  atomic energy  EATOM  =     37532.17946992
  Solvation  Ediel_sol  =         0.00000000
  ---------------------------------------------------
  free energy    TOTEN  =      -223.90064444 eV

  energy without entropy =     -223.90064444  energy(sigma->0) =     -223.90064444


--------------------------------------------------------------------------------------------------------




--------------------------------------- Iteration      1(  15)  ---------------------------------------


    POTLOK:  cpu time      0.0356: real time      0.0361
    SETDIJ:  cpu time      0.0303: real time      0.0305
     EDDAV:  cpu time      7.5725: real time      7.6155
       DOS:  cpu time      0.0002: real time      0.0002
    CHARGE:  cpu time      0.2675: real time      0.2691
    MIXING:  cpu time      0.0013: real time      0.0014
    --------------------------------------------
      LOOP:  cpu time      7.9074: real time      7.9527

 eigenvalue-minimisations  :  3488
 total energy-change (2. order) :-0.1517255E-05  (-0.7335287E-07)
 number of electron     448.0000022 magnetization 
 augmentation part      112.8477903 magnetization 

 Broyden mixing:
  rms(total) = 0.22340E-03    rms(broyden)= 0.22331E-03
  rms(prec ) = 0.23034E-03
  weight for this iteration     100.00

 eigenvalues of (default mixing * dielectric matrix)
  average eigenvalue GAMMA=   1.6265
  3.1060  2.7808  2.3657  1.3749  1.3749  1.3718  1.0257  1.0257  0.9195  0.9195

 Free energy of the ion-electron system (eV)
  ---------------------------------------------------
  alpha Z        PSCENC =       751.52672365
  Ewald energy   TEWEN  =    -22871.32574670
  -Hartree energ DENC   =     -9078.15811057
  -exchange      EXHF   =         0.00000000
  -V(xc)+E(xc)   XCENC  =      1472.51304567
  PAW double counting   =     29498.72708540   -32318.09322326
  entropy T*S    EENTRO =        -0.00000000
  eigenvalues    EBANDS =     -5211.26989008
  atomic energy  EATOM  =     37532.17946992
  Solvation  Ediel_sol  =         0.00000000
  ---------------------------------------------------
  free energy    TOTEN  =      -223.90064596 eV

  energy without entropy =     -223.90064596  energy(sigma->0) =     -223.90064596


--------------------------------------------------------------------------------------------------------




--------------------------------------- Iteration      1(  16)  ---------------------------------------


    POTLOK:  cpu time      0.0356: real time      0.0359
    SETDIJ:  cpu time      0.0300: real time      0.0301
     EDDAV:  cpu time      9.2728: real time      9.3251
       DOS:  cpu time      0.0002: real time      0.0002
    CHARGE:  cpu time      0.2722: real time      0.2738
    MIXING:  cpu time      0.0013: real time      0.0013
    --------------------------------------------
      LOOP:  cpu time      9.6120: real time      9.6665

 eigenvalue-minimisations  :  4512
 total energy-change (2. order) :-0.4122339E-06  (-0.8301318E-08)
 number of electron     448.0000022 magnetization 
 augmentation part      112.8478613 magnetization 

 Broyden mixing:
  rms(total) = 0.30945E-04    rms(broyden)= 0.30320E-04
  rms(prec ) = 0.35434E-04
  weight for this iteration     100.00

 eigenvalues of (default mixing * dielectric matrix)
  average eigenvalue GAMMA=   1.6344
  3.1590  2.7534  2.3855  1.6730  1.6730  1.3328  1.1537  1.1537  0.9561  0.8691
  0.8691

 Free energy of the ion-electron system (eV)
  ---------------------------------------------------
  alpha Z        PSCENC =       751.52672365
  Ewald energy   TEWEN  =    -22871.32574670
  -Hartree energ DENC   =     -9078.16473642
  -exchange      EXHF   =         0.00000000
  -V(xc)+E(xc)   XCENC  =      1472.51322907
  PAW double counting   =     29498.27290531   -32317.63784266
  entropy T*S    EENTRO =        -0.00000000
  eigenvalues    EBANDS =     -5211.26464854
  atomic energy  EATOM  =     37532.17946992
  Solvation  Ediel_sol  =         0.00000000
  ---------------------------------------------------
  free energy    TOTEN  =      -223.90064637 eV

  energy without entropy =     -223.90064637  energy(sigma->0) =     -223.90064637


--------------------------------------------------------------------------------------------------------




--------------------------------------- Iteration      1(  17)  ---------------------------------------


    POTLOK:  cpu time      0.0357: real time      0.0359
    SETDIJ:  cpu time      0.0297: real time      0.0299
     EDDAV:  cpu time      6.3494: real time      6.3852
       DOS:  cpu time      0.0002: real time      0.0002
    CHARGE:  cpu time      0.2695: real time      0.2710
    MIXING:  cpu time      0.0014: real time      0.0014
    --------------------------------------------
      LOOP:  cpu time      6.6859: real time      6.7236

 eigenvalue-minimisations  :  2720
 total energy-change (2. order) : 0.6110349E-07  (-0.3897337E-09)
 number of electron     448.0000022 magnetization 
 augmentation part      112.8478604 magnetization 

 Broyden mixing:
  rms(total) = 0.12115E-04    rms(broyden)= 0.10484E-04
  rms(prec ) = 0.15435E-04
  weight for this iteration     100.00
  WARNING: grid for Broyden might be to small

 eigenvalues of (default mixing * dielectric matrix)
  average eigenvalue GAMMA=   1.5975
  3.1540  2.8442  2.2438  1.9467  1.4662  1.2880  1.2880  1.2180  0.9174  0.9174
  0.9433  0.9433

 Free energy of the ion-electron system (eV)
  ---------------------------------------------------
  alpha Z        PSCENC =       751.52672365
  Ewald energy   TEWEN  =    -22871.32574670
  -Hartree energ DENC   =     -9078.16551106
  -exchange      EXHF   =         0.00000000
  -V(xc)+E(xc)   XCENC  =      1472.51325645
  PAW double counting   =     29498.26464380   -32317.62949343
  entropy T*S    EENTRO =        -0.00000000
  eigenvalues    EBANDS =     -5211.26398895
  atomic energy  EATOM  =     37532.17946992
  Solvation  Ediel_sol  =         0.00000000
  ---------------------------------------------------
  free energy    TOTEN  =      -223.90064631 eV

  energy without entropy =     -223.90064631  energy(sigma->0) =     -223.90064631


--------------------------------------------------------------------------------------------------------




--------------------------------------- Iteration      1(  18)  ---------------------------------------


    POTLOK:  cpu time      0.0362: real time      0.0370
    SETDIJ:  cpu time      0.0299: real time      0.0300
     EDDAV:  cpu time      5.7617: real time      5.7910
       DOS:  cpu time      0.0002: real time      0.0002
    CHARGE:  cpu time      0.2690: real time      0.2703
    MIXING:  cpu time      0.0016: real time      0.0017
    --------------------------------------------
      LOOP:  cpu time      6.0988: real time      6.1302

 eigenvalue-minimisations  :  2368
 total energy-change (2. order) :-0.2625893E-07  (-0.3449102E-09)
 number of electron     448.0000022 magnetization 
 augmentation part      112.8478647 magnetization 

 Broyden mixing:
  rms(total) = 0.21029E-04    rms(broyden)= 0.20134E-04
  rms(prec ) = 0.21724E-04
  weight for this iteration     100.00

 eigenvalues of (default mixing * dielectric matrix)
  average eigenvalue GAMMA=   1.5907
  3.1662  2.8870  2.3104  2.3104  1.3499  1.3499  1.2794  1.1617  1.1617  1.0304
  0.9725  0.8698  0.8304

 Free energy of the ion-electron system (eV)
  ---------------------------------------------------
  alpha Z        PSCENC =       751.52672365
  Ewald energy   TEWEN  =    -22871.32574670
  -Hartree energ DENC   =     -9078.16712036
  -exchange      EXHF   =         0.00000000
  -V(xc)+E(xc)   XCENC  =      1472.51332225
  PAW double counting   =     29498.24158065   -32317.60632777
  entropy T*S    EENTRO =        -0.00000000
  eigenvalues    EBANDS =     -5211.26254799
  atomic energy  EATOM  =     37532.17946992
  Solvation  Ediel_sol  =         0.00000000
  ---------------------------------------------------
  free energy    TOTEN  =      -223.90064633 eV

  energy without entropy =     -223.90064633  energy(sigma->0) =     -223.90064633


--------------------------------------------------------------------------------------------------------




--------------------------------------- Iteration      1(  19)  ---------------------------------------


    POTLOK:  cpu time      0.0357: real time      0.0360
    SETDIJ:  cpu time      0.0295: real time      0.0296
     EDDAV:  cpu time      5.8656: real time      5.8951
       DOS:  cpu time      0.0002: real time      0.0002
    CHARGE:  cpu time      0.2682: real time      0.2697
    MIXING:  cpu time      0.0014: real time      0.0014
    --------------------------------------------
      LOOP:  cpu time      6.2006: real time      6.2320

 eigenvalue-minimisations  :  2432
 total energy-change (2. order) : 0.1642184E-07  (-0.1751812E-09)
 number of electron     448.0000022 magnetization 
 augmentation part      112.8478630 magnetization 

 Broyden mixing:
  rms(total) = 0.15487E-04    rms(broyden)= 0.14248E-04
  rms(prec ) = 0.15366E-04
  weight for this iteration     100.00

 eigenvalues of (default mixing * dielectric matrix)
  average eigenvalue GAMMA=   1.6391
  3.3081  2.9554  2.4616  2.4616  1.7286  1.7286  1.3230  1.1946  1.1946  0.9552
  0.9552  0.8902  0.8954  0.8954

 Free energy of the ion-electron system (eV)
  ---------------------------------------------------
  alpha Z        PSCENC =       751.52672365
  Ewald energy   TEWEN  =    -22871.32574670
  -Hartree energ DENC   =     -9078.16750302
  -exchange      EXHF   =         0.00000000
  -V(xc)+E(xc)   XCENC  =      1472.51334805
  PAW double counting   =     29498.26209320   -32317.62689682
  entropy T*S    EENTRO =        -0.00000000
  eigenvalues    EBANDS =     -5211.26213461
  atomic energy  EATOM  =     37532.17946992
  Solvation  Ediel_sol  =         0.00000000
  ---------------------------------------------------
  free energy    TOTEN  =      -223.90064632 eV

  energy without entropy =     -223.90064632  energy(sigma->0) =     -223.90064632


--------------------------------------------------------------------------------------------------------




--------------------------------------- Iteration      1(  20)  ---------------------------------------


    POTLOK:  cpu time      0.0359: real time      0.0410
    SETDIJ:  cpu time      0.0301: real time      0.0302
     EDDAV:  cpu time      5.7570: real time      5.7858
       DOS:  cpu time      0.0003: real time      0.0003
    CHARGE:  cpu time      0.2685: real time      0.2700
    MIXING:  cpu time      0.0017: real time      0.0017
    --------------------------------------------
      LOOP:  cpu time      6.0935: real time      6.1290

 eigenvalue-minimisations  :  2368
 total energy-change (2. order) : 0.1352601E-07  (-0.8811565E-10)
 number of electron     448.0000022 magnetization 
 augmentation part      112.8478630 magnetization 

 Broyden mixing:
  rms(total) = 0.13664E-04    rms(broyden)= 0.12243E-04
  rms(prec ) = 0.12823E-04
  weight for this iteration     100.00
  WARNING: grid for Broyden might be to small

 eigenvalues of (default mixing * dielectric matrix)
  average eigenvalue GAMMA=   1.6298
  3.6610  2.9965  2.7228  2.3910  1.9194  1.3703  1.3703  1.1612  1.1612  1.1226
  1.1226  0.9381  0.9381  0.7859  0.7859

 Free energy of the ion-electron system (eV)
  ---------------------------------------------------
  alpha Z        PSCENC =       751.52672365
  Ewald energy   TEWEN  =    -22871.32574670
  -Hartree energ DENC   =     -9078.16716762
  -exchange      EXHF   =         0.00000000
  -V(xc)+E(xc)   XCENC  =      1472.51332988
  PAW double counting   =     29498.26518136   -32317.62994727
  entropy T*S    EENTRO =        -0.00000000
  eigenvalues    EBANDS =     -5211.26248954
  atomic energy  EATOM  =     37532.17946992
  Solvation  Ediel_sol  =         0.00000000
  ---------------------------------------------------
  free energy    TOTEN  =      -223.90064630 eV

  energy without entropy =     -223.90064630  energy(sigma->0) =     -223.90064630


--------------------------------------------------------------------------------------------------------




--------------------------------------- Iteration      1(  21)  ---------------------------------------


    POTLOK:  cpu time      0.0359: real time      0.0368
    SETDIJ:  cpu time      0.0296: real time      0.0298
     EDDAV:  cpu time      5.6580: real time      5.6867
       DOS:  cpu time      0.0003: real time      0.0003
    CHARGE:  cpu time      0.2707: real time      0.2720
    MIXING:  cpu time      0.0016: real time      0.0016
    --------------------------------------------
      LOOP:  cpu time      5.9962: real time      6.0273

 eigenvalue-minimisations  :  2304
 total energy-change (2. order) : 0.2027809E-07  (-0.7447004E-10)
 number of electron     448.0000022 magnetization 
 augmentation part      112.8478618 magnetization 

 Broyden mixing:
  rms(total) = 0.73299E-05    rms(broyden)= 0.41123E-05
  rms(prec ) = 0.43907E-05
  weight for this iteration     100.00
  WARNING: grid for Broyden might be to small

 eigenvalues of (default mixing * dielectric matrix)
  average eigenvalue GAMMA=   1.5711
  3.7822  2.9741  2.6899  2.4469  1.6257  1.3047  1.3047  1.2565  1.2565  1.1311
  1.1311  0.9509  0.9509  0.8409  0.7456  0.7456

 Free energy of the ion-electron system (eV)
  ---------------------------------------------------
  alpha Z        PSCENC =       751.52672365
  Ewald energy   TEWEN  =    -22871.32574670
  -Hartree energ DENC   =     -9078.16676896
  -exchange      EXHF   =         0.00000000
  -V(xc)+E(xc)   XCENC  =      1472.51331181
  PAW double counting   =     29498.27737457   -32317.64216531
  entropy T*S    EENTRO =        -0.00000000
  eigenvalues    EBANDS =     -5211.26284528
  atomic energy  EATOM  =     37532.17946992
  Solvation  Ediel_sol  =         0.00000000
  ---------------------------------------------------
  free energy    TOTEN  =      -223.90064628 eV

  energy without entropy =     -223.90064628  energy(sigma->0) =     -223.90064628


--------------------------------------------------------------------------------------------------------




--------------------------------------- Iteration      1(  22)  ---------------------------------------


    POTLOK:  cpu time      0.0356: real time      0.0358
    SETDIJ:  cpu time      0.0300: real time      0.0301
     EDDAV:  cpu time      5.6645: real time      5.6932
       DOS:  cpu time      0.0003: real time      0.0003
    --------------------------------------------
      LOOP:  cpu time      5.7303: real time      5.7595

 eigenvalue-minimisations  :  2304
 total energy-change (2. order) :-0.8512870E-09  (-0.3718445E-10)
 number of electron     448.0000022 magnetization 
[...]
         0         1         2         3         4         5         6         7         8         9
 total charge-density along one line
 
 pseudopotential strength for first ion, spin component:           1
-25.391  -0.000  -0.000   2.512   0.000   0.000   0.000   0.000
 -0.000 -25.391  -0.000   0.000   2.512   0.000   0.000   0.000
 -0.000  -0.000 -25.391   0.000   0.000   2.512  -0.000  -0.001
  2.512   0.000   0.000   6.528   0.000  -0.000   0.000   0.000
  0.000   2.512   0.000   0.000   6.528   0.000  -0.000   0.000
  0.000   0.000   2.512  -0.000   0.000   6.528   0.000   0.000
  0.000   0.000  -0.000   0.000  -0.000   0.000   1.428   6.993
  0.000   0.000  -0.001   0.000   0.000   0.000   6.993  33.990
 total augmentation occupancy for first ion, spin component:           1
  2.002   0.000   0.000   0.002   0.000   0.000  -0.000   0.000
  0.000   2.002   0.000   0.000   0.002   0.000   0.000   0.000
  0.000   0.000   2.002   0.000   0.000   0.002   0.000  -0.000
  0.002   0.000   0.000   0.017   0.000   0.000   0.000  -0.000
  0.000   0.002   0.000   0.000   0.017   0.000   0.000   0.000
  0.000   0.000   0.002   0.000   0.000   0.017   0.003  -0.000
 -0.000   0.000   0.000   0.000   0.000   0.003   0.403  -0.001
  0.000   0.000  -0.000  -0.000   0.000  -0.000  -0.001   0.000


------------------------ aborting loop because EDIFF is reached ----------------------------------------


    CHARGE:  cpu time      0.2679: real time      0.2694
    FORLOC:  cpu time      0.0115: real time      0.0115
    FORNL :  cpu time      1.7586: real time      1.7685
    STRESS:  cpu time      9.8092: real time      9.8608
    FORCOR:  cpu time      0.0432: real time      0.0434
    FORHAR:  cpu time      0.0171: real time      0.0171
    MIXING:  cpu time      0.0013: real time      0.0013
    OFIELD:  cpu time      0.0000: real time      0.0000

  FORCE on cell =-STRESS in cart. coord.  units (eV):
  Direction    XX          YY          ZZ          XY          YZ          ZX
  --------------------------------------------------------------------------------------
  Alpha Z   751.52672   751.52672   751.52672
  Ewald   -7623.76815 -7623.76815 -7623.92677     0.01697     0.00000     0.00000
  Hartree  3026.07622  3026.07622  3026.01420     0.01222    -0.00000    -0.00000
  E(xc)   -2014.34805 -2014.34805 -2014.34811     0.00000     0.00000     0.00000
  Local   -2024.96958 -2024.96958 -2024.75194    -0.02898     0.00000    -0.00000
  n-local  1887.57142  1887.68065  1887.62049     0.00006     0.00000     0.00000
  augment   687.00911   687.00911   687.00918    -0.00005    -0.00010    -0.00010
  Kinetic  5310.35143  5310.69840  5310.52315     0.00002     0.00000     0.00000
  Fock        0.00000     0.00000     0.00000     0.00000     0.00000     0.00000
  -------------------------------------------------------------------------------------
  Total      -0.32278    -0.32278    -0.33308     0.00023     0.00000     0.00000
  in kB      -0.36770    -0.36770    -0.37944     0.00026     0.00000     0.00000
  external pressure =       -0.37 kB  Pullay stress =        0.00 kB


 VOLUME and BASIS-vectors are now :
 -----------------------------------------------------------------------------
  energy-cutoff  :      341.21
  volume of cell :     1406.43
      direct lattice vectors                 reciprocal lattice vectors
    11.204002360  0.000000000  0.000000000     0.089253819  0.000000000  0.000000000
     0.000000000 11.204002360  0.000000000     0.000000000  0.089253819  0.000000000
     0.000000000  0.000000000 11.204002360     0.000000000  0.000000000  0.089253819

  length of vectors
    11.204002360 11.204002360 11.204002360     0.089253819  0.089253819  0.089253819


 FORCES acting on ions
    electron-ion (+dipol)            ewald-force                    non-local-force                 convergence-correction
 -----------------------------------------------------------------------------------------------
   0.448E+01 0.251E+00 -.673E-05   -.446E+01 -.256E+00 -.169E-13   -.874E-01 0.314E-02 0.376E-22   -.236E-05 -.982E-08 -.207E-12
   -.251E+00 -.448E+01 0.673E-05   0.256E+00 0.446E+01 -.215E-14   -.314E-02 0.874E-01 -.333E-22   0.982E-08 0.236E-05 -.126E-12
   -.242E+00 0.242E+00 -.891E+00   0.247E+00 -.247E+00 0.957E+00   -.293E-02 0.293E-02 -.546E-01   0.419E-07 -.419E-07 0.386E-05
   0.297E+00 -.297E+00 0.497E-02   -.305E+00 0.305E+00 -.519E-02   0.639E-02 -.639E-02 0.181E-03   0.257E-05 -.257E-05 -.986E-07
   0.203E+00 0.721E-02 -.279E-07   -.203E+00 -.709E-02 0.180E-14   -.723E-03 -.917E-04 -.241E-25   0.223E-05 -.434E-07 -.168E-12
   -.721E-02 -.203E+00 0.279E-07   0.709E-02 0.203E+00 0.125E-13   0.917E-04 0.723E-03 -.922E-25   0.434E-07 -.223E-05 -.946E-13
   -.242E+00 0.242E+00 0.891E+00   0.247E+00 -.247E+00 -.957E+00   -.293E-02 0.293E-02 0.546E-01   0.419E-07 -.419E-07 -.386E-05
   0.297E+00 -.297E+00 -.497E-02   -.305E+00 0.305E+00 0.519E-02   0.639E-02 -.639E-02 -.181E-03   0.257E-05 -.257E-05 0.986E-07
   -.274E+00 0.246E+00 0.780E-09   0.307E+00 -.250E+00 0.131E-13   -.271E-01 0.303E-02 0.139E-24   0.518E-05 -.109E-06 -.215E-12
   -.242E+00 0.896E+00 -.502E-05   0.247E+00 -.995E+00 0.954E-14   -.294E-02 0.832E-01 -.958E-23   0.659E-07 0.281E-06 -.839E-13
   -.721E-02 0.246E+00 0.398E+00   0.709E-02 -.250E+00 -.431E+00   0.915E-04 0.303E-02 0.272E-01   0.583E-07 0.303E-07 -.855E-06
   0.301E+00 0.164E+00 0.173E-02   -.309E+00 -.171E+00 -.182E-02   0.650E-02 0.544E-02 0.689E-04   0.271E-05 0.265E-05 0.248E-07
   0.254E-01 0.881E-02 -.267E-10   -.284E-01 -.877E-02 0.160E-13   0.244E-02 -.355E-04 -.266E-25   0.350E-05 0.160E-06 -.151E-12
   -.721E-02 0.166E+00 0.279E-07   0.709E-02 -.167E+00 0.125E-13   0.918E-04 0.790E-03 -.552E-25   0.967E-07 0.258E-05 -.107E-12
   -.721E-02 0.246E+00 -.398E+00   0.709E-02 -.250E+00 0.431E+00   0.915E-04 0.303E-02 -.272E-01   0.583E-07 0.303E-07 0.855E-06
   0.301E+00 0.164E+00 -.173E-02   -.309E+00 -.171E+00 0.182E-02   0.650E-02 0.544E-02 -.689E-04   0.271E-05 0.265E-05 -.248E-07
   -.896E+00 0.242E+00 0.502E-05   0.995E+00 -.247E+00 -.153E-13   -.832E-01 0.294E-02 -.103E-22   -.281E-06 -.659E-07 -.225E-12
   -.246E+00 0.274E+00 -.785E-09   0.250E+00 -.307E+00 0.599E-14   -.303E-02 0.271E-01 -.578E-25   0.109E-06 -.518E-05 -.148E-12
   -.246E+00 0.721E-02 0.398E+00   0.250E+00 -.709E-02 -.431E+00   -.303E-02 -.915E-04 0.272E-01   -.303E-07 -.583E-07 -.855E-06
   -.164E+00 -.301E+00 0.173E-02   0.171E+00 0.309E+00 -.182E-02   -.544E-02 -.650E-02 0.689E-04   -.265E-05 -.271E-05 0.248E-07
   -.166E+00 0.721E-02 -.279E-07   0.167E+00 -.709E-02 0.160E-13   -.790E-03 -.918E-04 -.228E-25   -.258E-05 -.967E-07 -.172E-12
   -.881E-02 -.254E-01 0.302E-10   0.877E-02 0.284E-01 0.891E-14   0.355E-04 -.244E-02 -.249E-25   -.160E-06 -.350E-05 -.108E-12
   -.246E+00 0.721E-02 -.398E+00   0.250E+00 -.709E-02 0.431E+00   -.303E-02 -.915E-04 -.272E-01   -.303E-07 -.583E-07 0.855E-06
   -.164E+00 -.301E+00 -.173E-02   0.171E+00 0.309E+00 0.182E-02   -.544E-02 -.650E-02 -.689E-04   -.265E-05 -.271E-05 -.248E-07
   0.311E+00 0.246E+00 0.783E-09   -.342E+00 -.250E+00 -.162E-13   0.256E-01 0.302E-02 0.379E-25   -.505E-05 0.270E-08 -.194E-12
   -.246E+00 -.311E+00 -.787E-09   0.250E+00 0.342E+00 0.194E-13   -.302E-02 -.256E-01 0.256E-25   -.270E-08 0.505E-05 -.126E-12
   -.881E-02 0.881E-02 0.791E-01   0.877E-02 -.877E-02 -.781E-01   0.355E-04 -.355E-04 -.815E-03   0.538E-08 -.538E-08 -.324E-06
   -.167E+00 0.167E+00 -.151E-02   0.174E+00 -.174E+00 0.155E-02   -.554E-02 0.554E-02 -.373E-04   -.283E-05 0.283E-05 -.235E-07
   -.210E-01 0.881E-02 -.260E-10   0.240E-01 -.877E-02 0.142E-13   -.244E-02 -.354E-04 -.856E-26   -.374E-05 0.174E-07 -.154E-12
   -.881E-02 0.210E-01 0.336E-10   0.877E-02 -.240E-01 0.892E-14   0.354E-04 0.244E-02 -.149E-25   -.174E-07 0.374E-05 -.118E-12
   -.881E-02 0.881E-02 -.791E-01   0.877E-02 -.877E-02 0.781E-01   0.355E-04 -.355E-04 0.815E-03   0.538E-08 -.538E-08 0.324E-06
   -.167E+00 0.167E+00 0.151E-02   0.174E+00 -.174E+00 -.155E-02   -.554E-02 0.554E-02 0.373E-04   -.283E-05 0.283E-05 0.235E-07
   -.611E-01 -.107E+01 -.143E+00   0.614E-01 0.108E+01 0.145E+00   -.544E-03 -.198E-01 -.335E-02   -.641E-07 -.144E-06 0.376E-06
   0.107E+01 0.611E-01 -.143E+00   -.108E+01 -.614E-01 0.145E+00   0.198E-01 0.544E-03 -.335E-02   0.144E-06 0.641E-07 0.376E-06
   0.892E+00 -.892E+00 0.125E-12   -.903E+00 0.903E+00 0.869E-14   0.166E-01 -.166E-01 -.600E-25   0.797E-06 -.797E-06 -.134E-12
   -.204E+01 0.204E+01 0.584E-12   0.206E+01 -.206E+01 -.135E-13   0.769E-02 -.769E-02 -.297E-25   0.325E-06 -.325E-06 -.116E-12
   -.611E-01 -.107E+01 0.143E+00   0.614E-01 0.108E+01 -.145E+00   -.544E-03 -.198E-01 0.335E-02   -.641E-07 -.144E-06 -.376E-06
   0.107E+01 0.611E-01 0.143E+00   -.108E+01 -.614E-01 -.145E+00   0.198E-01 0.544E-03 0.335E-02   0.144E-06 0.641E-07 -.376E-06
   0.108E+00 -.108E+00 0.179E-12   -.109E+00 0.109E+00 -.354E-14   0.150E-02 -.150E-02 -.445E-25   0.205E-05 -.205E-05 -.643E-13
   -.164E-01 0.164E-01 0.261E-11   0.162E-01 -.162E-01 0.623E-14   0.448E-03 -.448E-03 0.219E-25   -.135E-06 0.135E-06 -.806E-13
   -.611E-01 0.436E+00 -.160E+00   0.614E-01 -.442E+00 0.162E+00   -.545E-03 0.104E-01 -.333E-02   -.136E-06 -.771E-07 0.783E-06
   -.486E-01 0.643E-01 0.157E+00   0.496E-01 -.646E-01 -.159E+00   -.172E-02 0.596E-03 0.327E-02   0.249E-05 0.145E-06 -.817E-06
   0.908E+00 0.262E+00 -.763E-12   -.920E+00 -.266E+00 0.237E-14   0.166E-01 0.717E-02 -.106E-24   0.131E-06 0.135E-05 -.126E-12
   -.164E-01 0.198E+01 -.148E-05   0.162E-01 -.200E+01 -.145E-13   0.449E-03 -.259E-02 -.131E-23   0.218E-06 -.975E-06 -.126E-12
   -.611E-01 0.436E+00 0.160E+00   0.614E-01 -.442E+00 -.162E+00   -.545E-03 0.104E-01 0.333E-02   -.136E-06 -.771E-07 -.783E-06
   -.486E-01 0.643E-01 -.157E+00   0.496E-01 -.646E-01 0.159E+00   -.172E-02 0.596E-03 -.327E-02   0.249E-05 0.145E-06 0.817E-06
   0.109E+00 0.921E-01 0.180E-11   -.110E+00 -.931E-01 -.266E-14   0.153E-02 0.165E-02 -.877E-25   0.196E-05 0.207E-05 -.863E-13
   -.165E-02 0.187E-01 -.835E-08   0.163E-02 -.185E-01 0.771E-17   0.230E-04 -.375E-03 -.554E-25   0.291E-07 -.948E-07 -.624E-13
   -.643E-01 0.486E-01 0.157E+00   0.646E-01 -.496E-01 -.159E+00   -.596E-03 0.172E-02 0.327E-02   -.145E-06 -.249E-05 -.817E-06
   -.436E+00 0.611E-01 -.160E+00   0.442E+00 -.614E-01 0.162E+00   -.104E-01 0.545E-03 -.333E-02   0.771E-07 0.136E-06 0.783E-06
   -.262E+00 -.908E+00 0.168E-11   0.266E+00 0.920E+00 0.104E-13   -.717E-02 -.166E-01 0.124E-24   -.135E-05 -.131E-06 -.127E-12
   -.198E+01 0.164E-01 0.148E-05   0.200E+01 -.162E-01 -.829E-14   0.259E-02 -.449E-03 -.669E-24   0.975E-06 -.218E-06 -.122E-12
   -.643E-01 0.486E-01 -.157E+00   0.646E-01 -.496E-01 0.159E+00   -.596E-03 0.172E-02 -.327E-02   -.145E-06 -.249E-05 0.817E-06
   -.436E+00 0.611E-01 0.160E+00   0.442E+00 -.614E-01 -.162E+00   -.104E-01 0.545E-03 0.333E-02   0.771E-07 0.136E-06 -.783E-06
   -.921E-01 -.109E+00 -.403E-11   0.931E-01 0.110E+00 -.355E-14   -.165E-02 -.153E-02 0.115E-24   -.207E-05 -.196E-05 -.753E-13
   -.187E-01 0.165E-02 0.836E-08   0.185E-01 -.163E-02 0.837E-17   0.375E-03 -.230E-04 -.106E-25   0.948E-07 -.291E-07 -.939E-13
   -.643E-01 -.646E-01 0.157E+00   0.646E-01 0.656E-01 -.159E+00   -.595E-03 -.158E-02 0.324E-02   0.266E-06 0.289E-05 -.126E-05
   0.646E-01 0.643E-01 0.157E+00   -.656E-01 -.646E-01 -.159E+00   0.158E-02 0.595E-03 0.324E-02   -.289E-05 -.266E-06 -.126E-05
   -.278E+00 0.278E+00 0.174E-11   0.283E+00 -.283E+00 0.734E-14   -.713E-02 0.713E-02 -.423E-25   -.447E-06 0.447E-06 -.111E-12
   -.187E-01 0.187E-01 -.738E-11   0.185E-01 -.185E-01 -.140E-13   0.376E-03 -.376E-03 0.758E-25   -.344E-06 0.344E-06 -.132E-12
   -.643E-01 -.646E-01 -.157E+00   0.646E-01 0.656E-01 0.159E+00   -.595E-03 -.158E-02 -.324E-02   0.266E-06 0.289E-05 0.126E-05
   0.646E-01 0.643E-01 -.157E+00   -.656E-01 -.646E-01 0.159E+00   0.158E-02 0.595E-03 -.324E-02   -.289E-05 -.266E-06 0.126E-05
   -.927E-01 0.927E-01 -.869E-12   0.937E-01 -.937E-01 -.416E-16   -.167E-02 0.167E-02 -.405E-25   -.207E-05 0.207E-05 -.872E-13
   -.273E-02 0.273E-02 0.357E-11   0.273E-02 -.273E-02 -.583E-16   -.252E-05 0.252E-05 0.229E-25   -.235E-06 0.235E-06 -.739E-13
 -----------------------------------------------------------------------------------------------
   0.149E+00 -.149E+00 -.146E-11   0.112E-12 -.104E-12 0.108E-12   -.149E+00 0.149E+00 0.477E-17   -.379E-05 0.379E-05 -.155E-11
 
 
 POSITION                                       TOTAL-FORCE (eV/Angst)
 -----------------------------------------------------------------------------------
      0.03000      0.00000      0.00000        -0.068869     -0.001605     -0.000000
      2.80100      2.77100      0.00000         0.001605      0.068869     -0.000000
      2.80100      0.00000      2.80100         0.001513     -0.001513      0.011851
      0.00000      2.80100      2.80100        -0.001644      0.001644     -0.000040
      0.00000      0.00000      5.60200         0.000028      0.000033     -0.000000
      2.80100      2.80100      5.60200        -0.000033     -0.000028     -0.000000
      2.80100      0.00000      8.40300         0.001513     -0.001513     -0.011851
      0.00000      2.80100      8.40300        -0.001644      0.001644      0.000040
      0.00000      5.60200      0.00000         0.005748     -0.001508     -0.000000
      2.80100      8.40300      0.00000         0.001515     -0.014841     -0.000000
      2.80100      5.60200      2.80100        -0.000033     -0.001508     -0.005879
      0.00000      8.40300      2.80100        -0.001668     -0.001144     -0.000015
      0.00000      5.60200      5.60200        -0.000527      0.000021     -0.000000
      2.80100      8.40300      5.60200        -0.000033     -0.000232     -0.000000
      2.80100      5.60200      8.40300        -0.000033     -0.001508      0.005879
      0.00000      8.40300      8.40300        -0.001668     -0.001144      0.000015
      5.60200      0.00000      0.00000         0.014841     -0.001515     -0.000000
      8.40300      2.80100      0.00000         0.001508     -0.005748     -0.000000
      8.40300      0.00000      2.80100         0.001508      0.000033     -0.005879
      5.60200      2.80100      2.80100         0.001144      0.001668     -0.000015
      5.60200      0.00000      5.60200         0.000232      0.000033     -0.000000
      8.40300      2.80100      5.60200        -0.000021      0.000527     -0.000000
      8.40300      0.00000      8.40300         0.001508      0.000033      0.005879
      5.60200      2.80100      8.40300         0.001144      0.001668      0.000015
      5.60200      5.60200      0.00000        -0.005492     -0.001507     -0.000000
      8.40300      8.40300      0.00000         0.001507      0.005492     -0.000000
      8.40300      5.60200      2.80100        -0.000021      0.000021      0.000147
      5.60200      8.40300      2.80100         0.001167     -0.001167      0.000008
      5.60200      5.60200      5.60200         0.000515      0.000021     -0.000000
      8.40300      8.40300      5.60200        -0.000021     -0.000515     -0.000000
      8.40300      5.60200      8.40300        -0.000021      0.000021     -0.000147
      5.60200      8.40300      8.40300         0.001167     -0.001167     -0.000008
      2.80100      2.80100      2.80100        -0.000220     -0.006311     -0.001435
      0.00000      0.00000      2.80100         0.006311      0.000220     -0.001435
      0.00000      2.80100      0.00000         0.005146     -0.005146     -0.000000
      2.80100      0.00000      0.00000         0.020232     -0.020232     -0.000000
      2.80100      2.80100      8.40300        -0.000220     -0.006311      0.001435
      0.00000      0.00000      8.40300         0.006311      0.000220      0.001435
      0.00000      2.80100      5.60200         0.000589     -0.000589     -0.000000
      2.80100      0.00000      5.60200         0.000170     -0.000170     -0.000000
      2.80100      8.40300      2.80100        -0.000220      0.004142     -0.001318
      0.00000      5.60200      2.80100        -0.000685      0.000240      0.001293
      0.00000      8.40300      0.00000         0.005019      0.002965     -0.000000
      2.80100      5.60200      0.00000         0.000170     -0.016176     -0.000000
      2.80100      8.40300      8.40300        -0.000220      0.004142      0.001318
      0.00000      5.60200      8.40300        -0.000685      0.000240     -0.001293
      0.00000      8.40300      5.60200         0.000599      0.000663     -0.000000
      2.80100      5.60200      5.60200        -0.000001     -0.000141     -0.000000
      8.40300      2.80100      2.80100        -0.000240      0.000685      0.001293
      5.60200      0.00000      2.80100        -0.004142      0.000220     -0.001318
      5.60200      2.80100      0.00000        -0.002965     -0.005019     -0.000000
      8.40300      0.00000      0.00000         0.016176     -0.000170     -0.000000
      8.40300      2.80100      8.40300        -0.000240      0.000685     -0.001293
      5.60200      0.00000      8.40300        -0.004142      0.000220      0.001318
      5.60200      2.80100      5.60200        -0.000663     -0.000599     -0.000000
      8.40300      0.00000      5.60200         0.000141      0.000001     -0.000000
      8.40300      8.40300      2.80100        -0.000240     -0.000611      0.001283
      5.60200      5.60200      2.80100         0.000611      0.000240      0.001283
      5.60200      8.40300      0.00000        -0.002848      0.002848     -0.000000
      8.40300      5.60200      0.00000         0.000140     -0.000140     -0.000000
      8.40300      8.40300      8.40300        -0.000240     -0.000611     -0.001283
      5.60200      5.60200      8.40300         0.000611      0.000240     -0.001283
      5.60200      8.40300      5.60200        -0.000673      0.000673     -0.000000
      8.40300      5.60200      5.60200        -0.000012      0.000012     -0.000000
 -----------------------------------------------------------------------------------
    total drift:                                0.000583     -0.000583     -0.000000


--------------------------------------------------------------------------------------------------------



  FREE ENERGIE OF THE ION-ELECTRON SYSTEM (eV)
  ---------------------------------------------------
  free  energy   TOTEN  =      -223.90064629 eV

  energy  without entropy=     -223.90064629  energy(sigma->0) =     -223.90064629
 


--------------------------------------------------------------------------------------------------------


    POTLOK:  cpu time      0.0690: real time      0.0693


--------------------------------------------------------------------------------------------------------


     LOOP+:  cpu time    190.4203: real time    191.5146
    4ORBIT:  cpu time      0.0000: real time      0.0000

 total amount of memory used by VASP MPI-rank0   118439. kBytes
=======================================================================

   base      :      30000. kBytes
   nonl-proj :      36470. kBytes
   fftplans  :      14405. kBytes
   grid      :      19342. kBytes
   one-center:        196. kBytes
   wavefun   :      18026. kBytes
 
  
  
 General timing and accounting informations for this job:
 ========================================================
  
                  Total CPU time used (sec):      193.975
                            User time (sec):      193.369
                          System time (sec):        0.606
                         Elapsed time (sec):      196.142
  
                   Maximum memory used (kb):      307056.
                   Average memory used (kb):          N/A
  
                          Minor page faults:       127624
                          Major page faults:          184
                 Voluntary context switches:         1509
