<?xml version="1.0" encoding="ISO-8859-1"?>
<modeling>
 <generator>
  <i name="program" type="string">vasp </i>
  <i name="version" type="string">6.3.2  </i>
  <i name="subversion" type="string">27Jun22 (build Oct 14 2022 12:13:54) complex                          parallel </i>
  <i name="platform" type="string">LinuxIFC </i>
  <i name="date" type="string">2025 08 28 </i>
  <i name="time" type="string">21:57:06 </i>
 </generator>
 <incar>
  <i type="string" name="PREC">Accurate</i>
  <i type="int" name="IALGO">    38</i>
  <i type="logical" name="ADDGRID"> T  </i>
  <i type="int" name="NELMIN">     5</i>
  <i type="int" name="IBRION">    -1</i>
  <i name="EDIFF">      0.00000001</i>
  <i name="ENCUT">    341.21360000</i>
  <i type="logical" name="LREAL"> F  </i>
  <i type="int" name="ISMEAR">     0</i>
  <i name="SIGMA">      0.02000000</i>
  <i type="logical" name="LWAVE"> F  </i>
  <i type="logical" name="LCHARG"> F  </i>
  <i type="string" name="GGA">PS</i>
 </incar>
 <primitive_cell>
  <structure name="primitive_cell" >
   <crystal>
    <varray name="basis" >
     <v>      11.20400236       0.00000000       0.00000000 </v>
     <v>       0.00000000      11.20400236       0.00000000 </v>
     <v>       0.00000000       0.00000000      11.20400236 </v>
    </varray>
    <i name="volume">   1406.43470641 </i>
    <varray name="rec_basis" >
     <v>       0.08925382       0.00000000       0.00000000 </v>
     <v>       0.00000000       0.08925382       0.00000000 </v>
     <v>       0.00000000       0.00000000       0.08925382 </v>
    </varray>
   </crystal>
   <varray name="positions" >
    <v>       0.00267761       0.00000000       0.00000000 </v>
    <v>       0.25000000       0.24732239       0.00000000 </v>
    <v>       0.25000000       0.00000000       0.25000000 </v>
    <v>       0.00000000       0.25000000       0.25000000 </v>
    <v>       0.00000000       0.00000000       0.50000000 </v>
    <v>       0.25000000       0.25000000       0.50000000 </v>
    <v>       0.25000000       0.00000000       0.75000000 </v>
    <v>       0.00000000       0.25000000       0.75000000 </v>
    <v>       0.00000000       0.50000000       0.00000000 </v>
    <v>       0.25000000       0.75000000       0.00000000 </v>
    <v>       0.25000000       0.50000000       0.25000000 </v>
    <v>       0.00000000       0.75000000       0.25000000 </v>
    <v>       0.00000000       0.50000000       0.50000000 </v>
    <v>       0.25000000       0.75000000       0.50000000 </v>
    <v>       0.25000000       0.50000000       0.75000000 </v>
    <v>       0.00000000       0.75000000       0.75000000 </v>
    <v>       0.50000000       0.00000000       0.00000000 </v>
    <v>       0.75000000       0.25000000       0.00000000 </v>
    <v>       0.75000000       0.00000000       0.25000000 </v>
    <v>       0.50000000       0.25000000       0.25000000 </v>
    <v>       0.50000000       0.00000000       0.50000000 </v>
    <v>       0.75000000       0.25000000       0.50000000 </v>
    <v>       0.75000000       0.00000000       0.75000000 </v>
    <v>       0.50000000       0.25000000       0.75000000 </v>
    <v>       0.50000000       0.50000000       0.00000000 </v>
    <v>       0.75000000       0.75000000       0.00000000 </v>
    <v>       0.75000000       0.50000000       0.25000000 </v>
    <v>       0.50000000       0.75000000       0.25000000 </v>
    <v>       0.50000000       0.50000000       0.50000000 </v>
    <v>       0.75000000       0.75000000       0.50000000 </v>
    <v>       0.75000000       0.50000000       0.75000000 </v>
    <v>       0.50000000       0.75000000       0.75000000 </v>
    <v>       0.25000000       0.25000000       0.25000000 </v>
    <v>       0.00000000       0.00000000       0.25000000 </v>
    <v>       0.00000000       0.25000000       0.00000000 </v>
    <v>       0.25000000       0.00000000       0.00000000 </v>
    <v>       0.25000000       0.25000000       0.75000000 </v>
    <v>       0.00000000       0.00000000       0.75000000 </v>
    <v>       0.00000000       0.25000000       0.50000000 </v>
    <v>       0.25000000       0.00000000       0.50000000 </v>
    <v>       0.25000000       0.75000000       0.25000000 </v>
    <v>       0.00000000       0.50000000       0.25000000 </v>
    <v>       0.00000000       0.75000000       0.00000000 </v>
    <v>       0.25000000       0.50000000       0.00000000 </v>
    <v>       0.25000000       0.75000000       0.75000000 </v>
    <v>       0.00000000       0.50000000       0.75000000 </v>
    <v>       0.00000000       0.75000000       0.50000000 </v>
    <v>       0.25000000       0.50000000       0.50000000 </v>
    <v>       0.75000000       0.25000000       0.25000000 </v>
    <v>       0.50000000       0.00000000       0.25000000 </v>
    <v>       0.50000000       0.25000000       0.00000000 </v>
    <v>       0.75000000       0.00000000       0.00000000 </v>
    <v>       0.75000000       0.25000000       0.75000000 </v>
    <v>       0.50000000       0.00000000       0.75000000 </v>
    <v>       0.50000000       0.25000000       0.50000000 </v>
    <v>       0.75000000       0.00000000       0.50000000 </v>
    <v>       0.75000000       0.75000000       0.25000000 </v>
    <v>       0.50000000       0.50000000       0.25000000 </v>
    <v>       0.50000000       0.75000000       0.00000000 </v>
    <v>       0.75000000       0.50000000       0.00000000 </v>
    <v>       0.75000000       0.75000000       0.75000000 </v>
    <v>       0.50000000       0.50000000       0.75000000 </v>
    <v>       0.50000000       0.75000000       0.50000000 </v>
    <v>       0.75000000       0.50000000       0.50000000 </v>
   </varray>
  </structure>
  <varray name="primitive_index" >
   <v type="int" >        1 </v>
   <v type="int" >        2 </v>
   <v type="int" >        3 </v>
   <v type="int" >        4 </v>
   <v type="int" >        5 </v>
   <v type="int" >        6 </v>
   <v type="int" >        7 </v>
   <v type="int" >        8 </v>
   <v type="int" >        9 </v>
   <v type="int" >       10 </v>
   <v type="int" >       11 </v>
   <v type="int" >       12 </v>
   <v type="int" >       13 </v>
   <v type="int" >       14 </v>
   <v type="int" >       15 </v>
   <v type="int" >       16 </v>
   <v type="int" >       17 </v>
   <v type="int" >       18 </v>
   <v type="int" >       19 </v>
   <v type="int" >       20 </v>
   <v type="int" >       21 </v>
   <v type="int" >       22 </v>
   <v type="int" >       23 </v>
   <v type="int" >       24 </v>
   <v type="int" >       25 </v>
   <v type="int" >       26 </v>
   <v type="int" >       27 </v>
   <v type="int" >       28 </v>
   <v type="int" >       29 </v>
   <v type="int" >       30 </v>
   <v type="int" >       31 </v>
   <v type="int" >       32 </v>
   <v type="int" >       33 </v>
   <v type="int" >       34 </v>
   <v type="int" >       35 </v>
   <v type="int" >       36 </v>
   <v type="int" >       37 </v>
   <v type="int" >       38 </v>
   <v type="int" >       39 </v>
   <v type="int" >       40 </v>
   <v type="int" >       41 </v>
   <v type="int" >       42 </v>
   <v type="int" >       43 </v>
   <v type="int" >       44 </v>
   <v type="int" >       45 </v>
   <v type="int" >       46 </v>
   <v type="int" >       47 </v>
   <v type="int" >       48 </v>
   <v type="int" >       49 </v>
   <v type="int" >       50 </v>
   <v type="int" >       51 </v>
   <v type="int" >       52 </v>
   <v type="int" >       53 </v>
   <v type="int" >       54 </v>
   <v type="int" >       55 </v>
   <v type="int" >       56 </v>
   <v type="int" >       57 </v>
   <v type="int" >       58 </v>
   <v type="int" >       59 </v>
   <v type="int" >       60 </v>
   <v type="int" >       61 </v>
   <v type="int" >       62 </v>
   <v type="int" >       63 </v>
   <v type="int" >       64 </v>
  </varray>
 </primitive_cell>
 <kpoints>
  <generation param="Gamma">
   <v type="int" name="divisions">       2        2        2 </v>
   <v name="usershift">      0.00000000       0.00000000       0.00000000 </v>
   <v name="genvec1">      0.50000000       0.00000000       0.00000000 </v>
   <v name="genvec2">      0.00000000       0.50000000       0.00000000 </v>
   <v name="genvec3">      0.00000000       0.00000000       0.50000000 </v>
   <v name="shift">      0.00000000       0.00000000       0.00000000 </v>
  </generation>
  <varray name="kpointlist" >
   <v>       0.00000000       0.00000000       0.00000000 </v>
   <v>       0.50000000       0.00000000       0.00000000 </v>
   <v>       0.00000000       0.00000000       0.50000000 </v>
   <v>       0.50000000       0.50000000       0.00000000 </v>
   <v>       0.00000000       0.50000000       0.50000000 </v>
   <v>       0.50000000       0.50000000       0.50000000 </v>
  </varray>
  <varray name="weights" >
   <v>       0.12500000 </v>
   <v>       0.25000000 </v>
   <v>       0.12500000 </v>
   <v>       0.12500000 </v>
   <v>       0.25000000 </v>
   <v>       0.12500000 </v>
  </varray>
 </kpoints>
 <parameters>
  <separator name="general" >
   <i type="string" name="SYSTEM">unknown system</i>
   <i type="logical" name="LCOMPAT"> F  </i>
  </separator>
  <separator name="electronic" >
   <i type="string" name="PREC">accura</i>
   <i name="ENMAX">    341.21360000</i>
   <i name="ENAUG">    368.05600000</i>
   <i name="EDIFF">      0.00000001</i>
   <i type="int" name="IALGO">    38</i>
   <i type="int" name="IWAVPR">    10</i>
   <i type="int" name="NBANDS">   288</i>
   <i type="int" name="NBANDSLOW">    -1</i>
   <i type="int" name="NBANDSHIGH">    -1</i>
   <i name="NELECT">    448.00000000</i>
   <i type="int" name="TURBO">     0</i>
   <i type="int" name="IRESTART">     0</i>
   <i type="int" name="NREBOOT">     0</i>
   <i type="int" name="NMIN">     0</i>
   <i name="EREF">      0.00000000</i>
   <separator name="electronic smearing" >
    <i type="int" name="ISMEAR">     0</i>
    <i name="SIGMA">      0.02000000</i>
    <i name="KSPACING">      0.50000000</i>
    <i type="logical" name="KGAMMA"> T  </i>
    <i type="logical" name="KBLOWUP"> T  </i>
   </separator>
   <separator name="electronic projectors" >
    <i type="logical" name="LREAL"> F  </i>
    <v name="ROPT">      0.00000000      0.00000000</v>
    <i type="int" name="LMAXPAW">  -100</i>
    <i type="int" name="LMAXMIX">     2</i>
    <i type="logical" name="NLSPLINE"> F  </i>
   </separator>
   <separator name="electronic startup" >
    <i type="int" name="ISTART">     0</i>
    <i type="int" name="ICHARG">     2</i>
    <i type="int" name="INIWAV">     1</i>
   </separator>
   <separator name="electronic spin" >
    <i type="int" name="ISPIN">     1</i>
    <i type="logical" name="LNONCOLLINEAR"> F  </i>
    <v name="MAGMOM">      1.00000000      1.00000000      1.00000000      1.00000000      1.00000000      1.00000000      1.00000000      1.00000000      1.00000000      1.00000000      1.00000000      1.00000000      1.00000000      1.00000000      1.00000000      1.00000000      1.00000000      1.00000000      1.00000000      1.00000000
      1.00000000      1.00000000      1.00000000      1.00000000      1.00000000      1.00000000      1.00000000      1.00000000      1.00000000      1.00000000      1.00000000      1.00000000      1.00000000      1.00000000      1.00000000      1.00000000      1.00000000      1.00000000      1.00000000      1.00000000
      1.00000000      1.00000000      1.00000000      1.00000000      1.00000000      1.00000000      1.00000000      1.00000000      1.00000000      1.00000000      1.00000000      1.00000000      1.00000000      1.00000000      1.00000000      1.00000000      1.00000000      1.00000000      1.00000000      1.00000000
      1.00000000      1.00000000      1.00000000      1.00000000</v>
    <i name="NUPDOWN">     -1.00000000</i>
    <i type="logical" name="LSORBIT"> F  </i>
    <v name="SAXIS">      0.00000000      0.00000000      1.00000000</v>
    <i type="logical" name="LSPIRAL"> F  </i>
    <v name="QSPIRAL">      0.00000000      0.00000000      0.00000000</v>
    <i type="logical" name="LZEROZ"> F  </i>
   </separator>
   <separator name="electronic exchange-correlation" >
    <i type="logical" name="LASPH"> F  </i>
    <i type="logical" name="LMETAGGA"> F  </i>
   </separator>
   <separator name="electronic convergence" >
    <i type="int" name="NELM">    60</i>
    <i type="int" name="NELMDL">    -5</i>
    <i type="int" name="NELMIN">     5</i>
    <i name="ENINI">    341.21360000</i>
    <separator name="electronic convergence detail" >
     <i type="logical" name="LDIAG"> T  </i>
     <i type="logical" name="LSUBROT"> F  </i>
     <i name="WEIMIN">      0.00000000</i>
     <i name="EBREAK">      0.00000000</i>
     <i name="DEPER">      0.30000000</i>
     <i type="int" name="NRMM">     4</i>
     <i name="TIME">      0.40000000</i>
    </separator>
   </separator>
   <separator name="electronic mixer" >
    <i name="AMIX">      0.40000000</i>
    <i name="BMIX">      1.00000000</i>
    <i name="AMIN">      0.10000000</i>
    <i name="AMIX_MAG">      1.60000000</i>
    <i name="BMIX_MAG">      1.00000000</i>
    <separator name="electronic mixer details" >
     <i type="int" name="IMIX">     4</i>
     <i type="logical" name="MIXFIRST"> F  </i>
     <i type="int" name="MAXMIX">   -45</i>
     <i name="WC">    100.00000000</i>
     <i type="int" name="INIMIX">     1</i>
     <i type="int" name="MIXPRE">     1</i>
     <i type="int" name="MREMOVE">     5</i>
    </separator>
   </separator>
   <separator name="electronic dipolcorrection" >
    <i type="logical" name="LDIPOL"> F  </i>
    <i type="logical" name="LMONO"> F  </i>
    <i type="int" name="IDIPOL">     0</i>
    <i name="EPSILON">      1.00000000</i>
    <v name="DIPOL">   -100.00000000   -100.00000000   -100.00000000</v>
    <i name="EFIELD">      0.00000000</i>
   </separator>
  </separator>
  <separator name="grids" >
   <i type="int" name="NGX">    70</i>
   <i type="int" name="NGY">    70</i>
   <i type="int" name="NGZ">    70</i>
   <i type="int" name="NGXF">   140</i>
   <i type="int" name="NGYF">   140</i>
   <i type="int" name="NGZF">   140</i>
   <i type="logical" name="ADDGRID"> T  </i>
  </separator>
  <separator name="ionic" >
   <i type="int" name="NSW">     0</i>
   <i type="int" name="IBRION">    -1</i>
   <i type="int" name="MDALGO">     0</i>
   <i type="int" name="ISIF">     2</i>
   <i name="PSTRESS">      0.00000000</i>
   <i name="EDIFFG">      0.00000010</i>
   <i type="int" name="NFREE">     0</i>
   <i name="POTIM">      0.50000000</i>
   <i name="SMASS">     -3.00000000</i>
   <i name="SCALEE">      1.00000000</i>
  </separator>
  <separator name="ionic md" >
   <i name="TEBEG">      0.00010000</i>
   <i name="TEEND">      0.00010000</i>
   <i type="int" name="NBLOCK">     1</i>
   <i type="int" name="KBLOCK">     1</i>
   <i type="int" name="NPACO">   256</i>
   <i name="APACO">     10.00000000</i>
  </separator>
  <separator name="symmetry" >
   <i type="int" name="ISYM">     2</i>
   <i name="SYMPREC">      0.00001000</i>
  </separator>
  <separator name="dos" >
   <i type="int" name="LORBIT">     0</i>
   <v name="RWIGS">     -1.00000000     -1.00000000</v>
   <i type="int" name="NEDOS">   301</i>
   <i name="EMIN">     10.00000000</i>
   <i name="EMAX">    -10.00000000</i>
   <i name="EFERMI">      0.00000000</i>
  </separator>
  <separator name="writing" >
   <i type="int" name="NWRITE">     2</i>
   <i type="logical" name="LWAVE"> F  </i>
   <i type="logical" name="LDOWNSAMPLE"> F  </i>
   <i type="logical" name="LCHARG"> F  </i>
   <i type="logical" name="LPARD"> F  </i>
   <i type="logical" name="LVTOT"> F  </i>
   <i type="logical" name="LVHAR"> F  </i>
   <i type="logical" name="LELF"> F  </i>
   <i type="logical" name="LOPTICS"> F  </i>
   <v name="STM">      0.00000000      0.00000000      0.00000000      0.00000000      0.00000000      0.00000000      0.00000000</v>
  </separator>
  <separator name="performance" >
   <i type="int" name="NPAR">    32</i>
   <i type="int" name="NSIM">     4</i>
   <i type="int" name="NBLK">    -1</i>
   <i type="logical" name="LPLANE"> T  </i>
   <i type="logical" name="LSCALAPACK"> T  </i>
   <i type="logical" name="LSCAAWARE"> F  </i>
   <i type="logical" name="LSCALU"> F  </i>
   <i type="logical" name="LASYNC"> F  </i>
   <i type="logical" name="LORBITALREAL"> F  </i>
  </separator>
  <separator name="miscellaneous" >
   <i type="int" name="IDIOT">     3</i>
   <i type="int" name="PHON_NSTRUCT">    -1</i>
   <i type="logical" name="LMUSIC"> F  </i>
   <v name="POMASS">     22.99000000     35.45300000</v>
   <v name="DARWINR">      0.00000000      0.00000000</v>
   <v name="DARWINV">      1.00000000      1.00000000</v>
   <i type="logical" name="LCORR"> T  </i>
  </separator>
  <i type="logical" name="GGA_COMPAT"> T  </i>
  <i type="logical" name="LBERRY"> F  </i>
  <i type="int" name="ICORELEVEL">     0</i>
  <i type="logical" name="LDAU"> F  </i>
  <i type="int" name="I_CONSTRAINED_M">     0</i>
  <separator name="electronic exchange-correlation" >
   <i type="string" name="GGA">PS</i>
   <i type="int" name="VOSKOWN">     0</i>
   <i type="logical" name="LHFCALC"> F  </i>
   <i type="string" name="PRECFOCK"></i>
   <i type="logical" name="LSYMGRAD"> F  </i>
   <i type="logical" name="LHFONE"> F  </i>
   <i type="logical" name="LRHFCALC"> F  </i>
   <i type="logical" name="LTHOMAS"> F  </i>
   <i type="logical" name="LMODELHF"> F  </i>
   <i type="logical" name="LFOCKACE"> F  </i>
   <i name="ENCUT4O">     -1.00000000</i>
   <i type="int" name="EXXOEP">     0</i>
   <i type="int" name="FOURORBIT">     0</i>
   <i name="AEXX">      0.00000000</i>
   <i name="HFALPHA">      0.00000000</i>
   <i name="MCALPHA">      0.00000000</i>
   <i name="ALDAX">      1.00000000</i>
   <i name="AGGAX">      1.00000000</i>
   <i name="ALDAC">      1.00000000</i>
   <i name="AGGAC">      1.00000000</i>
   <i type="int" name="NKREDX">     1</i>
   <i type="int" name="NKREDY">     1</i>
   <i type="int" name="NKREDZ">     1</i>
   <i type="logical" name="SHIFTRED"> F  </i>
   <i type="logical" name="ODDONLY"> F  </i>
   <i type="logical" name="EVENONLY"> F  </i>
   <i type="int" name="LMAXFOCK">     0</i>
   <i type="int" name="NMAXFOCKAE">     0</i>
   <i type="logical" name="LFOCKAEDFT"> F  </i>
   <i name="HFSCREEN">      0.00000000</i>
   <i name="HFSCREENC">      0.00000000</i>
   <i type="int" name="NBANDSGWLOW">     0</i>
  </separator>
  <separator name="vdW DFT" >
   <i type="logical" name="LUSE_VDW"> F  </i>
   <i name="Zab_VDW">     -0.84910000</i>
   <i name="PARAM1">      0.12340000</i>
   <i name="PARAM2">      1.00000000</i>
   <i name="PARAM3">      0.00000000</i>
  </separator>
  <separator name="model GW" >
   <i type="int" name="MODEL_GW">     0</i>
   <i name="MODEL_EPS0">     13.18532537</i>
   <i name="MODEL_ALPHA">      1.00000000</i>
  </separator>
  <separator name="linear response parameters" >
   <i type="logical" name="LEPSILON"> F  </i>
   <i type="logical" name="LRPA"> F  </i>
   <i type="logical" name="LNABLA"> F  </i>
   <i type="logical" name="LVEL"> F  </i>
   <i name="CSHIFT">      0.10000000</i>
   <i name="OMEGAMAX">     -1.00000000</i>
   <i name="DEG_THRESHOLD">      0.00200000</i>
   <i name="RTIME">     -0.10000000</i>
   <i name="WPLASMAI">      0.00000000</i>
   <v name="DFIELD">      0.00000000      0.00000000      0.00000000</v>
   <v name="WPLASMA">      0.00000000      0.00000000      0.00000000      0.00000000      0.00000000      0.00000000      0.00000000      0.00000000      0.00000000</v>
  </separator>
  <separator name="orbital magnetization" >
   <i type="logical" name="NUCIND"> F  </i>
   <v name="MAGPOS">      0.00000000      0.00000000      0.00000000</v>
   <i type="logical" name="LNICSALL"> T  </i>
   <i type="logical" name="ORBITALMAG"> F  </i>
   <i type="logical" name="LMAGBLOCH"> F  </i>
   <i type="logical" name="LCHIMAG"> F  </i>
   <i type="logical" name="LGAUGE"> T  </i>
   <i type="int" name="MAGATOM">     0</i>
   <v name="MAGDIPOL">      0.00000000      0.00000000      0.00000000</v>
   <v name="AVECCONST">      0.00000000      0.00000000      0.00000000</v>
  </separator>
  <separator name="response functions" >
   <i type="logical" name="LFINITE_TEMPERATURE"> F  </i>
   <i type="logical" name="LADDER"> F  </i>
   <i type="logical" name="LRPAFORCE"> F  </i>
   <i type="logical" name="LFXC"> F  </i>
   <i type="logical" name="LHARTREE"> T  </i>
   <i type="int" name="IBSE">     0</i>
   <v type="int" name="KPOINT">    -1     0     0     0</v>
   <i type="logical" name="LTCTC"> F  </i>
   <i type="logical" name="LTCTE"> F  </i>
   <i type="logical" name="LTETE"> F  </i>
   <i type="logical" name="LTRIPLET"> F  </i>
   <i type="logical" name="LFXCEPS"> F  </i>
   <i type="logical" name="LFXHEG"> F  </i>
   <i type="int" name="NATURALO">     2</i>
   <i type="logical" name="LHOLEGF"> F  </i>
   <i type="logical" name="L2ORDER"> F  </i>
   <i type="logical" name="LDMP1"> F  </i>
   <i type="logical" name="LMP2LT"> F  </i>
   <i type="logical" name="LSMP2LT"> F  </i>
   <i type="logical" name="LGWLF"> F  </i>
   <i name="ENCUTGW">     -2.00000000</i>
   <i name="ENCUTGWSOFT">     -2.00000000</i>
   <i name="ENCUTLF">     -1.00000000</i>
   <i type="logical" name="LESF_SPLINES"> F  </i>
   <i type="int" name="LMAXMP2">    -1</i>
   <i name="SCISSOR">      0.00000000</i>
   <i type="int" name="NOMEGA">     0</i>
   <i type="int" name="NOMEGAR">     0</i>
   <i type="int" name="NBANDSGW">    -1</i>
   <i type="int" name="NBANDSO">    -1</i>
   <i type="int" name="NBANDSV">    -1</i>
   <i type="int" name="NELMGW">     1</i>
   <i type="int" name="NELMHF">     1</i>
   <i type="int" name="DIM">     3</i>
   <i type="int" name="IESPILON">     4</i>
   <i type="int" name="ANTIRES">     0</i>
   <i name="OMEGAMAX">    -30.00000000</i>
   <i name="OMEGAMIN">    -30.00000000</i>
   <i name="OMEGATL">   -200.00000000</i>
   <i type="int" name="OMEGAGRID">     0</i>
   <i name="CSHIFT">     -0.10000000</i>
   <i type="logical" name="LSELFENERGY"> F  </i>
   <i type="logical" name="LSPECTRAL"> F  </i>
   <i type="logical" name="LSPECTRALGW"> F  </i>
   <i type="logical" name="LSINGLES"> F  </i>
   <i type="logical" name="LFERMIGW"> F  </i>
   <i type="logical" name="ODDONLYGW"> F  </i>
   <i type="logical" name="EVENONLYGW"> F  </i>
   <i type="int" name="NKREDLFX">     1</i>
   <i type="int" name="NKREDLFY">     1</i>
   <i type="int" name="NKREDLFZ">     1</i>
   <i type="int" name="MAXMEM">  2800</i>
   <i type="int" name="TELESCOPE">     0</i>
   <i type="int" name="NTAUPAR">    -1</i>
   <i type="int" name="NOMEGAPAR">    -1</i>
   <i name="DAMP_NEWTON">      0.80000001</i>
   <i name="LAMBDA">      1.00000000</i>
  </separator>
  <separator name="External order field" >
   <i name="OFIELD_KAPPA">      0.00000000</i>
   <v name="OFIELD_K">      0.00000000      0.00000000      0.00000000</v>
   <i name="OFIELD_Q6_NEAR">      0.00000000</i>
   <i name="OFIELD_Q6_FAR">      0.00000000</i>
   <i name="OFIELD_A">      0.00000000</i>
  </separator>
  <separator name="optional k-points parameters" >
   <i type="int" name="KPOINTS_OPT_MODE">     1</i>
   <i type="logical" name="LKPOINTS_OPT"> F  </i>
  </separator>
 </parameters>
 <atominfo>
  <atoms>      64 </atoms>
  <types>       2 </types>
  <array name="atoms" >
   <dimension dim="1">ion</dimension>
   <field type="string">element</field>
   <field type="int">atomtype</field>
   <set>
    <rc><c>Na</c><c>   1</c></rc>
    <rc><c>Na</c><c>   1</c></rc>
    <rc><c>Na</c><c>   1</c></rc>
    <rc><c>Na</c><c>   1</c></rc>
    <rc><c>Na</c><c>   1</c></rc>
    <rc><c>Na</c><c>   1</c></rc>
    <rc><c>Na</c><c>   1</c></rc>
    <rc><c>Na</c><c>   1</c></rc>
    <rc><c>Na</c><c>   1</c></rc>
    <rc><c>Na</c><c>   1</c></rc>
    <rc><c>Na</c><c>   1</c></rc>
    <rc><c>Na</c><c>   1</c></rc>
    <rc><c>Na</c><c>   1</c></rc>
    <rc><c>Na</c><c>   1</c></rc>
    <rc><c>Na</c><c>   1</c></rc>
    <rc><c>Na</c><c>   1</c></rc>
    <rc><c>Na</c><c>   1</c></rc>
    <rc><c>Na</c><c>   1</c></rc>
    <rc><c>Na</c><c>   1</c></rc>
    <rc><c>Na</c><c>   1</c></rc>
    <rc><c>Na</c><c>   1</c></rc>
    <rc><c>Na</c><c>   1</c></rc>
    <rc><c>Na</c><c>   1</c></rc>
    <rc><c>Na</c><c>   1</c></rc>
    <rc><c>Na</c><c>   1</c></rc>
    <rc><c>Na</c><c>   1</c></rc>
    <rc><c>Na</c><c>   1</c></rc>
    <rc><c>Na</c><c>   1</c></rc>
    <rc><c>Na</c><c>   1</c></rc>
    <rc><c>Na</c><c>   1</c></rc>
    <rc><c>Na</c><c>   1</c></rc>
    <rc><c>Na</c><c>   1</c></rc>
    <rc><c>Cl</c><c>   2</c></rc>
    <rc><c>Cl</c><c>   2</c></rc>
    <rc><c>Cl</c><c>   2</c></rc>
    <rc><c>Cl</c><c>   2</c></rc>
    <rc><c>Cl</c><c>   2</c></rc>
    <rc><c>Cl</c><c>   2</c></rc>
    <rc><c>Cl</c><c>   2</c></rc>
    <rc><c>Cl</c><c>   2</c></rc>
    <rc><c>Cl</c><c>   2</c></rc>
    <rc><c>Cl</c><c>   2</c></rc>
    <rc><c>Cl</c><c>   2</c></rc>
    <rc><c>Cl</c><c>   2</c></rc>
    <rc><c>Cl</c><c>   2</c></rc>
    <rc><c>Cl</c><c>   2</c></rc>
    <rc><c>Cl</c><c>   2</c></rc>
    <rc><c>Cl</c><c>   2</c></rc>
    <rc><c>Cl</c><c>   2</c></rc>
    <rc><c>Cl</c><c>   2</c></rc>
    <rc><c>Cl</c><c>   2</c></rc>
    <rc><c>Cl</c><c>   2</c></rc>
    <rc><c>Cl</c><c>   2</c></rc>
    <rc><c>Cl</c><c>   2</c></rc>
    <rc><c>Cl</c><c>   2</c></rc>
    <rc><c>Cl</c><c>   2</c></rc>
    <rc><c>Cl</c><c>   2</c></rc>
    <rc><c>Cl</c><c>   2</c></rc>
    <rc><c>Cl</c><c>   2</c></rc>
    <rc><c>Cl</c><c>   2</c></rc>
    <rc><c>Cl</c><c>   2</c></rc>
    <rc><c>Cl</c><c>   2</c></rc>
    <rc><c>Cl</c><c>   2</c></rc>
    <rc><c>Cl</c><c>   2</c></rc>
   </set>
  </array>
  <array name="atomtypes" >
   <dimension dim="1">type</dimension>
   <field type="int">atomspertype</field>
   <field type="string">element</field>
   <field>mass</field>
   <field>valence</field>
   <field type="string">pseudopotential</field>
   <set>
    <rc><c>  32</c><c>Na</c><c>     22.99000000</c><c>      7.00000000</c><c>  PAW_PBE Na_pv 19Sep2006               </c></rc>
    <rc><c>  32</c><c>Cl</c><c>     35.45300000</c><c>      7.00000000</c><c>  PAW_PBE Cl 06Sep2000                  </c></rc>
   </set>
  </array>
 </atominfo>
 <structure name="initialpos" >
  <crystal>
   <varray name="basis" >
    <v>      11.20400236       0.00000000       0.00000000 </v>
    <v>       0.00000000      11.20400236       0.00000000 </v>
    <v>       0.00000000       0.00000000      11.20400236 </v>
   </varray>
   <i name="volume">   1406.43470641 </i>
   <varray name="rec_basis" >
    <v>       0.08925382       0.00000000       0.00000000 </v>
    <v>       0.00000000       0.08925382       0.00000000 </v>
    <v>       0.00000000       0.00000000       0.08925382 </v>
   </varray>
  </crystal>
  <varray name="positions" >
   <v>       0.00267761       0.00000000       0.00000000 </v>
   <v>       0.25000000       0.24732239       0.00000000 </v>
   <v>       0.25000000       0.00000000       0.25000000 </v>
   <v>       0.00000000       0.25000000       0.25000000 </v>
   <v>       0.00000000       0.00000000       0.50000000 </v>
   <v>       0.25000000       0.25000000       0.50000000 </v>
   <v>       0.25000000       0.00000000       0.75000000 </v>
   <v>       0.00000000       0.25000000       0.75000000 </v>
   <v>       0.00000000       0.50000000       0.00000000 </v>
   <v>       0.25000000       0.75000000       0.00000000 </v>
   <v>       0.25000000       0.50000000       0.25000000 </v>
   <v>       0.00000000       0.75000000       0.25000000 </v>
   <v>       0.00000000       0.50000000       0.50000000 </v>
   <v>       0.25000000       0.75000000       0.50000000 </v>
   <v>       0.25000000       0.50000000       0.75000000 </v>
   <v>       0.00000000       0.75000000       0.75000000 </v>
   <v>       0.50000000       0.00000000       0.00000000 </v>
   <v>       0.75000000       0.25000000       0.00000000 </v>
   <v>       0.75000000       0.00000000       0.25000000 </v>
   <v>       0.50000000       0.25000000       0.25000000 </v>
   <v>       0.50000000       0.00000000       0.50000000 </v>
   <v>       0.75000000       0.25000000       0.50000000 </v>
   <v>       0.75000000       0.00000000       0.75000000 </v>
   <v>       0.50000000       0.25000000       0.75000000 </v>
   <v>       0.50000000       0.50000000       0.00000000 </v>
   <v>       0.75000000       0.75000000       0.00000000 </v>
   <v>       0.75000000       0.50000000       0.25000000 </v>
   <v>       0.50000000       0.75000000       0.25000000 </v>
   <v>       0.50000000       0.50000000       0.50000000 </v>
   <v>       0.75000000       0.75000000       0.50000000 </v>
   <v>       0.75000000       0.50000000       0.75000000 </v>
   <v>       0.50000000       0.75000000       0.75000000 </v>
   <v>       0.25000000       0.25000000       0.25000000 </v>
   <v>       0.00000000       0.00000000       0.25000000 </v>
   <v>       0.00000000       0.25000000       0.00000000 </v>
   <v>       0.25000000       0.00000000       0.00000000 </v>
   <v>       0.25000000       0.25000000       0.75000000 </v>
   <v>       0.00000000       0.00000000       0.75000000 </v>
   <v>       0.00000000       0.25000000       0.50000000 </v>
   <v>       0.25000000       0.00000000       0.50000000 </v>
   <v>       0.25000000       0.75000000       0.25000000 </v>
   <v>       0.00000000       0.50000000       0.25000000 </v>
   <v>       0.00000000       0.75000000       0.00000000 </v>
   <v>       0.25000000       0.50000000       0.00000000 </v>
   <v>       0.25000000       0.75000000       0.75000000 </v>
   <v>       0.00000000       0.50000000       0.75000000 </v>
   <v>       0.00000000       0.75000000       0.50000000 </v>
   <v>       0.25000000       0.50000000       0.50000000 </v>
   <v>       0.75000000       0.25000000       0.25000000 </v>
   <v>       0.50000000       0.00000000       0.25000000 </v>
   <v>       0.50000000       0.25000000       0.00000000 </v>
   <v>       0.75000000       0.00000000       0.00000000 </v>
   <v>       0.75000000       0.25000000       0.75000000 </v>
   <v>       0.50000000       0.00000000       0.75000000 </v>
   <v>       0.50000000       0.25000000       0.50000000 </v>
   <v>       0.75000000       0.00000000       0.50000000 </v>
   <v>       0.75000000       0.75000000       0.25000000 </v>
   <v>       0.50000000       0.50000000       0.25000000 </v>
   <v>       0.50000000       0.75000000       0.00000000 </v>
   <v>       0.75000000       0.50000000       0.00000000 </v>
   <v>       0.75000000       0.75000000       0.75000000 </v>
   <v>       0.50000000       0.50000000       0.75000000 </v>
   <v>       0.50000000       0.75000000       0.50000000 </v>
   <v>       0.75000000       0.50000000       0.50000000 </v>
  </varray>
 </structure>
 <calculation>
  <scstep>
   <time name="dav">    7.18    7.27</time>
   <time name="total">    7.26    7.36</time>
   <energy>
    <i name="alphaZ">    751.52672365 </i>
    <i name="ewald"> -22871.32574670 </i>
    <i name="hartreedc">  -8992.25837551 </i>
    <i name="XCdc">   1456.53425669 </i>
    <i name="pawpsdc">  26466.43774078 </i>
    <i name="pawaedc"> -29286.08056155 </i>
    <i name="eentropy">     -0.00077605 </i>
    <i name="bandstr">   -746.69699481 </i>
    <i name="atom">  37532.17946992 </i>
    <i name="e_fr_energy">   4310.31573643 </i>
    <i name="e_wo_entrp">   4310.31651248 </i>
    <i name="e_0_energy">   4310.31612446 </i>
   </energy>
  </scstep>
  <scstep>
   <time name="dav">    7.86    7.91</time>
   <time name="total">    7.86    7.91</time>
   <energy>
    <i name="e_fr_energy">    360.45562477 </i>
    <i name="e_wo_entrp">    360.45562477 </i>
    <i name="e_0_energy">    360.45562477 </i>
   </energy>
  </scstep>
  <scstep>
   <time name="dav">    8.47    8.52</time>
   <time name="total">    8.47    8.52</time>
   <energy>
    <i name="e_fr_energy">   -206.44055472 </i>
    <i name="e_wo_entrp">   -206.44055472 </i>
    <i name="e_0_energy">   -206.44055472 </i>
   </energy>
  </scstep>
  <scstep>
   <time name="dav">    8.47    8.51</time>
   <time name="total">    8.47    8.51</time>
   <energy>
    <i name="e_fr_energy">   -228.20196649 </i>
    <i name="e_wo_entrp">   -228.20196649 </i>
    <i name="e_0_energy">   -228.20196649 </i>
   </energy>
  </scstep>
  <scstep>
   <time name="dav">    8.91    8.96</time>
   <time name="total">    9.19    9.24</time>
   <energy>
    <i name="e_fr_energy">   -229.00682665 </i>
    <i name="e_wo_entrp">   -229.00682665 </i>
    <i name="e_0_energy">   -229.00682665 </i>
   </energy>
  </scstep>
  <scstep>
   <time name="dav">    8.75    8.79</time>
   <time name="total">    9.09    9.14</time>
   <energy>
    <i name="e_fr_energy">   -224.13795653 </i>
    <i name="e_wo_entrp">   -224.13795653 </i>
    <i name="e_0_energy">   -224.13795653 </i>
   </energy>
  </scstep>
  <scstep>
   <time name="dav">    9.44    9.49</time>
   <time name="total">    9.78    9.82</time>
   <energy>
    <i name="e_fr_energy">   -223.77725582 </i>
    <i name="e_wo_entrp">   -223.77725582 </i>
    <i name="e_0_energy">   -223.77725582 </i>
   </energy>
  </scstep>
  <scstep>
   <time name="dav">    8.35    8.39</time>
   <time name="total">    8.68    8.73</time>
   <energy>
    <i name="e_fr_energy">   -223.90248121 </i>
    <i name="e_wo_entrp">   -223.90248121 </i>
    <i name="e_0_energy">   -223.90248121 </i>
   </energy>
  </scstep>
  <scstep>
   <time name="dav">    8.84    8.89</time>
   <time name="total">    9.18    9.22</time>
   <energy>
    <i name="e_fr_energy">   -223.89707495 </i>
    <i name="e_wo_entrp">   -223.89707495 </i>
    <i name="e_0_energy">   -223.89707495 </i>
   </energy>
  </scstep>
  <scstep>
   <time name="dav">    8.39    8.44</time>
   <time name="total">    8.73    8.77</time>
   <energy>
    <i name="e_fr_energy">   -223.90141259 </i>
    <i name="e_wo_entrp">   -223.90141259 </i>
    <i name="e_0_energy">   -223.90141259 </i>
   </energy>
  </scstep>
  <scstep>
   <time name="dav">    8.72    8.76</time>
   <time name="total">    9.06    9.10</time>
   <energy>
    <i name="e_fr_energy">   -223.90067456 </i>
    <i name="e_wo_entrp">   -223.90067456 </i>
    <i name="e_0_energy">   -223.90067456 </i>
   </energy>
  </scstep>
  <scstep>
   <time name="dav">    9.26    9.31</time>
   <time name="total">    9.60    9.66</time>
   <energy>
    <i name="e_fr_energy">   -223.90063868 </i>
    <i name="e_wo_entrp">   -223.90063868 </i>
    <i name="e_0_energy">   -223.90063868 </i>
   </energy>
  </scstep>
  <scstep>
   <time name="dav">    8.78    8.83</time>
   <time name="total">    9.11    9.17</time>
   <energy>
    <i name="e_fr_energy">   -223.90064440 </i>
    <i name="e_wo_entrp">   -223.90064440 </i>
    <i name="e_0_energy">   -223.90064440 </i>
   </energy>
  </scstep>
  <scstep>
   <time name="dav">    9.26    9.32</time>
   <time name="total">    9.60    9.66</time>
   <energy>
    <i name="e_fr_energy">   -223.90064444 </i>
    <i name="e_wo_entrp">   -223.90064444 </i>
    <i name="e_0_energy">   -223.90064444 </i>
   </energy>
  </scstep>
  <scstep>
   <time name="dav">    7.57    7.62</time>
   <time name="total">    7.91    7.95</time>
   <energy>
    <i name="e_fr_energy">   -223.90064596 </i>
    <i name="e_wo_entrp">   -223.90064596 </i>
    <i name="e_0_energy">   -223.90064596 </i>
   </energy>
  </scstep>
  <scstep>
   <time name="dav">    9.27    9.33</time>
   <time name="total">    9.61    9.67</time>
   <energy>
    <i name="e_fr_energy">   -223.90064637 </i>
    <i name="e_wo_entrp">   -223.90064637 </i>
    <i name="e_0_energy">   -223.90064637 </i>
   </energy>
  </scstep>
  <scstep>
   <time name="dav">    6.35    6.39</time>
   <time name="total">    6.69    6.72</time>
   <energy>
    <i name="e_fr_energy">   -223.90064631 </i>
    <i name="e_wo_entrp">   -223.90064631 </i>
    <i name="e_0_energy">   -223.90064631 </i>
   </energy>
  </scstep>
  <scstep>
   <time name="dav">    5.76    5.79</time>
   <time name="total">    6.10    6.13</time>
   <energy>
    <i name="e_fr_energy">   -223.90064633 </i>
    <i name="e_wo_entrp">   -223.90064633 </i>
    <i name="e_0_energy">   -223.90064633 </i>
   </energy>
  </scstep>
  <scstep>
   <time name="dav">    5.87    5.90</time>
   <time name="total">    6.20    6.23</time>
   <energy>
    <i name="e_fr_energy">   -223.90064632 </i>
    <i name="e_wo_entrp">   -223.90064632 </i>
    <i name="e_0_energy">   -223.90064632 </i>
   </energy>
  </scstep>
  <scstep>
   <time name="dav">    5.76    5.79</time>
   <time name="total">    6.09    6.13</time>
   <energy>
    <i name="e_fr_energy">   -223.90064630 </i>
    <i name="e_wo_entrp">   -223.90064630 </i>
    <i name="e_0_energy">   -223.90064630 </i>
   </energy>
  </scstep>
  <scstep>
   <time name="dav">    5.66    5.69</time>
   <time name="total">    6.00    6.03</time>
   <energy>
    <i name="e_fr_energy">   -223.90064628 </i>
    <i name="e_wo_entrp">   -223.90064628 </i>
    <i name="e_0_energy">   -223.90064628 </i>
   </energy>
  </scstep>
  <scstep>
   <time name="dav">    5.66    5.69</time>
   <time name="total">    5.73    5.76</time>
   <energy>
    <i name="alphaZ">    751.52672365 </i>
    <i name="ewald"> -22871.32574670 </i>
    <i name="hartreedc">  -9078.16677366 </i>
    <i name="XCdc">   1472.51331237 </i>
    <i name="pawpsdc">  29498.27525154 </i>
    <i name="pawaedc"> -32317.64006758 </i>
    <i name="eentropy">     -0.00000000 </i>
    <i name="bandstr">  -5211.26281584 </i>
    <i name="atom">  37532.17946992 </i>
    <i name="e_fr_energy">   -223.90064629 </i>
    <i name="e_wo_entrp">   -223.90064629 </i>
    <i name="e_0_energy">   -223.90064629 </i>
   </energy>
  </scstep>
  <structure>
   <crystal>
    <varray name="basis" >
     <v>      11.20400236       0.00000000       0.00000000 </v>
     <v>       0.00000000      11.20400236       0.00000000 </v>
     <v>       0.00000000       0.00000000      11.20400236 </v>
    </varray>
    <i name="volume">   1406.43470641 </i>
    <varray name="rec_basis" >
     <v>       0.08925382       0.00000000       0.00000000 </v>
     <v>       0.00000000       0.08925382       0.00000000 </v>
     <v>       0.00000000       0.00000000       0.08925382 </v>
    </varray>
   </crystal>
   <varray name="positions" >
    <v>       0.00267761       0.00000000       0.00000000 </v>
    <v>       0.25000000       0.24732239       0.00000000 </v>
    <v>       0.25000000       0.00000000       0.25000000 </v>
    <v>       0.00000000       0.25000000       0.25000000 </v>
    <v>       0.00000000       0.00000000       0.50000000 </v>
    <v>       0.25000000       0.25000000       0.50000000 </v>
    <v>       0.25000000       0.00000000       0.75000000 </v>
    <v>       0.00000000       0.25000000       0.75000000 </v>
    <v>       0.00000000       0.50000000       0.00000000 </v>
    <v>       0.25000000       0.75000000       0.00000000 </v>
    <v>       0.25000000       0.50000000       0.25000000 </v>
    <v>       0.00000000       0.75000000       0.25000000 </v>
    <v>       0.00000000       0.50000000       0.50000000 </v>
    <v>       0.25000000       0.75000000       0.50000000 </v>
    <v>       0.25000000       0.50000000       0.75000000 </v>
    <v>       0.00000000       0.75000000       0.75000000 </v>
    <v>       0.50000000       0.00000000       0.00000000 </v>
    <v>       0.75000000       0.25000000       0.00000000 </v>
    <v>       0.75000000       0.00000000       0.25000000 </v>
    <v>       0.50000000       0.25000000       0.25000000 </v>
    <v>       0.50000000       0.00000000       0.50000000 </v>
    <v>       0.75000000       0.25000000       0.50000000 </v>
    <v>       0.75000000       0.00000000       0.75000000 </v>
    <v>       0.50000000       0.25000000       0.75000000 </v>
    <v>       0.50000000       0.50000000       0.00000000 </v>
    <v>       0.75000000       0.75000000       0.00000000 </v>
    <v>       0.75000000       0.50000000       0.25000000 </v>
    <v>       0.50000000       0.75000000       0.25000000 </v>
    <v>       0.50000000       0.50000000       0.50000000 </v>
    <v>       0.75000000       0.75000000       0.50000000 </v>
    <v>       0.75000000       0.50000000       0.75000000 </v>
    <v>       0.50000000       0.75000000       0.75000000 </v>
    <v>       0.25000000       0.25000000       0.25000000 </v>
    <v>       0.00000000       0.00000000       0.25000000 </v>
    <v>       0.00000000       0.25000000       0.00000000 </v>
    <v>       0.25000000       0.00000000       0.00000000 </v>
    <v>       0.25000000       0.25000000       0.75000000 </v>
    <v>       0.00000000       0.00000000       0.75000000 </v>
    <v>       0.00000000       0.25000000       0.50000000 </v>
    <v>       0.25000000       0.00000000       0.50000000 </v>
    <v>       0.25000000       0.75000000       0.25000000 </v>
    <v>       0.00000000       0.50000000       0.25000000 </v>
    <v>       0.00000000       0.75000000       0.00000000 </v>
    <v>       0.25000000       0.50000000       0.00000000 </v>
    <v>       0.25000000       0.75000000       0.75000000 </v>
    <v>       0.00000000       0.50000000       0.75000000 </v>
    <v>       0.00000000       0.75000000       0.50000000 </v>
    <v>       0.25000000       0.50000000       0.50000000 </v>
    <v>       0.75000000       0.25000000       0.25000000 </v>
    <v>       0.50000000       0.00000000       0.25000000 </v>
    <v>       0.50000000       0.25000000       0.00000000 </v>
    <v>       0.75000000       0.00000000       0.00000000 </v>
    <v>       0.75000000       0.25000000       0.75000000 </v>
    <v>       0.50000000       0.00000000       0.75000000 </v>
    <v>       0.50000000       0.25000000       0.50000000 </v>
    <v>       0.75000000       0.00000000       0.50000000 </v>
    <v>       0.75000000       0.75000000       0.25000000 </v>
    <v>       0.50000000       0.50000000       0.25000000 </v>
    <v>       0.50000000       0.75000000       0.00000000 </v>
    <v>       0.75000000       0.50000000       0.00000000 </v>
    <v>       0.75000000       0.75000000       0.75000000 </v>
    <v>       0.50000000       0.50000000       0.75000000 </v>
    <v>       0.50000000       0.75000000       0.50000000 </v>
    <v>       0.75000000       0.50000000       0.50000000 </v>
   </varray>
  </structure>
  <varray name="forces" >
   <v>      -0.06886936      -0.00160530      -0.00000000 </v>
   <v>       0.00160530       0.06886936      -0.00000000 </v>
   <v>       0.00151349      -0.00151349       0.01185109 </v>
   <v>      -0.00164370       0.00164370      -0.00003967 </v>
   <v>       0.00002777       0.00003340      -0.00000000 </v>
   <v>      -0.00003340      -0.00002777      -0.00000000 </v>
   <v>       0.00151349      -0.00151349      -0.01185109 </v>
   <v>      -0.00164370       0.00164370       0.00003967 </v>
   <v>       0.00574765      -0.00150771      -0.00000000 </v>
   <v>       0.00151493      -0.01484053      -0.00000000 </v>
   <v>      -0.00003335      -0.00150761      -0.00587855 </v>
   <v>      -0.00166795      -0.00114362      -0.00001508 </v>
   <v>      -0.00052711       0.00002094      -0.00000000 </v>
   <v>      -0.00003338      -0.00023196      -0.00000000 </v>
   <v>      -0.00003335      -0.00150761       0.00587855 </v>
   <v>      -0.00166795      -0.00114362       0.00001508 </v>
   <v>       0.01484053      -0.00151493      -0.00000000 </v>
   <v>       0.00150771      -0.00574765      -0.00000000 </v>
   <v>       0.00150761       0.00003335      -0.00587855 </v>
   <v>       0.00114362       0.00166795      -0.00001508 </v>
   <v>       0.00023196       0.00003338      -0.00000000 </v>
   <v>      -0.00002094       0.00052711      -0.00000000 </v>
   <v>       0.00150761       0.00003335       0.00587855 </v>
   <v>       0.00114362       0.00166795       0.00001508 </v>
   <v>      -0.00549176      -0.00150717      -0.00000000 </v>
   <v>       0.00150717       0.00549176      -0.00000000 </v>
   <v>      -0.00002099       0.00002099       0.00014670 </v>
   <v>       0.00116730      -0.00116730       0.00000821 </v>
   <v>       0.00051466       0.00002096      -0.00000000 </v>
   <v>      -0.00002096      -0.00051466      -0.00000000 </v>
   <v>      -0.00002099       0.00002099      -0.00014670 </v>
   <v>       0.00116730      -0.00116730      -0.00000821 </v>
   <v>      -0.00021991      -0.00631087      -0.00143530 </v>
   <v>       0.00631087       0.00021991      -0.00143530 </v>
   <v>       0.00514625      -0.00514625      -0.00000000 </v>
   <v>       0.02023206      -0.02023206      -0.00000000 </v>
   <v>      -0.00021991      -0.00631087       0.00143530 </v>
   <v>       0.00631087       0.00021991       0.00143530 </v>
   <v>       0.00058920      -0.00058920      -0.00000000 </v>
   <v>       0.00016980      -0.00016980      -0.00000000 </v>
   <v>      -0.00022032       0.00414248      -0.00131825 </v>
   <v>      -0.00068497       0.00024025       0.00129287 </v>
   <v>       0.00501932       0.00296532      -0.00000000 </v>
   <v>       0.00016989      -0.01617622      -0.00000000 </v>
   <v>      -0.00022032       0.00414248       0.00131825 </v>
   <v>      -0.00068497       0.00024025      -0.00129287 </v>
   <v>       0.00059912       0.00066279      -0.00000000 </v>
   <v>      -0.00000139      -0.00014061      -0.00000000 </v>
   <v>      -0.00024025       0.00068497       0.00129287 </v>
   <v>      -0.00414248       0.00022032      -0.00131825 </v>
   <v>      -0.00296532      -0.00501932      -0.00000000 </v>
   <v>       0.01617622      -0.00016989      -0.00000000 </v>
   <v>      -0.00024025       0.00068497      -0.00129287 </v>
   <v>      -0.00414248       0.00022032       0.00131825 </v>
   <v>      -0.00066279      -0.00059912      -0.00000000 </v>
   <v>       0.00014061       0.00000139      -0.00000000 </v>
   <v>      -0.00024039      -0.00061108       0.00128293 </v>
   <v>       0.00061108       0.00024039       0.00128293 </v>
   <v>      -0.00284803       0.00284803      -0.00000000 </v>
   <v>       0.00014007      -0.00014007      -0.00000000 </v>
   <v>      -0.00024039      -0.00061108      -0.00128293 </v>
   <v>       0.00061108       0.00024039      -0.00128293 </v>
   <v>      -0.00067309       0.00067309      -0.00000000 </v>
   <v>      -0.00001200       0.00001200      -0.00000000 </v>
  </varray>
  <varray name="stress" >
   <v>      -0.36769909       0.00026413       0.00000000 </v>
   <v>       0.00026413      -0.36769909       0.00000000 </v>
   <v>       0.00000000       0.00000000      -0.37944086 </v>
  </varray>
  <energy>
   <i name="e_fr_energy">   -223.90064629 </i>
   <i name="e_wo_entrp">   -223.90064629 </i>
   <i name="e_0_energy">   -223.90064629 </i>
  </energy>
  <time name="totalsc">  190.42  191.51</time>
  <eigenvalues>
   <array>
    <dimension dim="1">band</dimension>
    <dimension dim="2">kpoint</dimension>
    <dimension dim="3">spin</dimension>
    <field>eigene</field>
    <field>occ</field>
    <set>
     <set comment="spin 1">
      <set comment="kpoint 1">
       <r>  -21.3066    1.0000 </r>
       <r>  -21.3052    1.0000 </r>
       <r>  -21.3052    1.0000 </r>
       <r>  -21.3040    1.0000 </r>
       <r>  -21.2975    1.0000 </r>
       <r>  -21.2975    1.0000 </r>
       <r>  -21.2967    1.0000 </r>
       <r>  -21.2956    1.0000 </r>
       <r>  -21.2943    1.0000 </r>
       <r>  -21.2939    1.0000 </r>
       <r>  -21.2939    1.0000 </r>
       <r>  -21.2937    1.0000 </r>
       <r>  -21.2937    1.0000 </r>
       <r>  -21.2936    1.0000 </r>
       <r>  -21.2936    1.0000 </r>
       <r>  -21.2934    1.0000 </r>
       <r>  -21.2918    1.0000 </r>
       <r>  -21.2918    1.0000 </r>
       <r>  -21.2912    1.0000 </r>
       <r>  -21.2886    1.0000 </r>
       <r>  -21.2875    1.0000 </r>
       <r>  -21.2875    1.0000 </r>
       <r>  -21.2872    1.0000 </r>
       <r>  -21.2872    1.0000 </r>
       <r>  -21.2865    1.0000 </r>
       <r>  -21.2865    1.0000 </r>
       <r>  -21.2862    1.0000 </r>
       <r>  -21.2861    1.0000 </r>
       <r>  -21.2861    1.0000 </r>
       <r>  -21.2855    1.0000 </r>
       <r>  -21.2850    1.0000 </r>
       <r>  -21.2844    1.0000 </r>
       <r>  -21.2844    1.0000 </r>
       <r>  -21.2843    1.0000 </r>
       <r>  -21.2842    1.0000 </r>
       <r>  -21.2842    1.0000 </r>
       <r>  -21.2832    1.0000 </r>
       <r>  -21.2821    1.0000 </r>
       <r>  -21.2821    1.0000 </r>
       <r>  -21.2819    1.0000 </r>
       <r>  -21.2817    1.0000 </r>
       <r>  -21.2814    1.0000 </r>
       <r>  -21.2811    1.0000 </r>
       <r>  -21.2811    1.0000 </r>
       <r>  -21.2809    1.0000 </r>
       <r>  -21.2809    1.0000 </r>
       <r>  -21.2806    1.0000 </r>
       <r>  -21.2803    1.0000 </r>
       <r>  -21.2803    1.0000 </r>
       <r>  -21.2799    1.0000 </r>
       <r>  -21.2798    1.0000 </r>
       <r>  -21.2798    1.0000 </r>
       <r>  -21.2798    1.0000 </r>
       <r>  -21.2796    1.0000 </r>
       <r>  -21.2796    1.0000 </r>
       <r>  -21.2781    1.0000 </r>
       <r>  -21.2776    1.0000 </r>
       <r>  -21.2776    1.0000 </r>
       <r>  -21.2766    1.0000 </r>
       <r>  -21.2766    1.0000 </r>
       <r>  -21.2764    1.0000 </r>
       <r>  -21.2753    1.0000 </r>
       <r>  -21.2744    1.0000 </r>
       <r>  -21.2744    1.0000 </r>
       <r>  -21.2744    1.0000 </r>
       <r>  -21.2742    1.0000 </r>
       <r>  -21.2742    1.0000 </r>
       <r>  -21.2742    1.0000 </r>
       <r>  -21.2742    1.0000 </r>
       <r>  -21.2736    1.0000 </r>
       <r>  -21.2736    1.0000 </r>
       <r>  -21.2727    1.0000 </r>
       <r>  -21.2727    1.0000 </r>
       <r>  -21.2725    1.0000 </r>
       <r>  -21.2721    1.0000 </r>
       <r>  -21.2721    1.0000 </r>
       <r>  -21.2716    1.0000 </r>
       <r>  -21.2716    1.0000 </r>
       <r>  -21.2715    1.0000 </r>
       <r>  -21.2714    1.0000 </r>
       <r>  -21.2709    1.0000 </r>
       <r>  -21.2709    1.0000 </r>
       <r>  -21.2709    1.0000 </r>
       <r>  -21.2704    1.0000 </r>
       <r>  -21.2704    1.0000 </r>
       <r>  -21.2701    1.0000 </r>
       <r>  -21.2701    1.0000 </r>
       <r>  -21.2701    1.0000 </r>
       <r>  -21.2687    1.0000 </r>
       <r>  -21.2682    1.0000 </r>
       <r>  -21.2680    1.0000 </r>
       <r>  -21.2680    1.0000 </r>
       <r>  -21.2674    1.0000 </r>
       <r>  -21.2674    1.0000 </r>
       <r>  -21.2673    1.0000 </r>
       <r>  -21.2670    1.0000 </r>
       <r>  -13.3584    1.0000 </r>
       <r>  -13.1494    1.0000 </r>
       <r>  -13.1373    1.0000 </r>
       <r>  -13.1373    1.0000 </r>
       <r>  -13.1373    1.0000 </r>
       <r>  -13.1353    1.0000 </r>
       <r>  -13.1318    1.0000 </r>
       <r>  -13.0323    1.0000 </r>
       <r>  -13.0115    1.0000 </r>
       <r>  -13.0115    1.0000 </r>
       <r>  -13.0112    1.0000 </r>
       <r>  -13.0112    1.0000 </r>
       <r>  -13.0112    1.0000 </r>
       <r>  -13.0111    1.0000 </r>
       <r>  -13.0111    1.0000 </r>
       <r>  -13.0111    1.0000 </r>
       <r>  -13.0111    1.0000 </r>
       <r>  -13.0080    1.0000 </r>
       <r>  -12.9992    1.0000 </r>
       <r>  -12.9900    1.0000 </r>
       <r>  -12.9897    1.0000 </r>
       <r>  -12.9897    1.0000 </r>
       <r>  -12.9890    1.0000 </r>
       <r>  -12.9409    1.0000 </r>
       <r>  -12.9409    1.0000 </r>
       <r>  -12.9384    1.0000 </r>
       <r>  -12.9257    1.0000 </r>
       <r>  -12.9214    1.0000 </r>
       <r>  -12.9214    1.0000 </r>
       <r>  -12.9214    1.0000 </r>
       <r>  -12.9175    1.0000 </r>
       <r>  -12.9140    1.0000 </r>
       <r>   -2.7002    1.0000 </r>
       <r>   -2.7002    1.0000 </r>
       <r>   -2.7002    1.0000 </r>
       <r>   -2.6999    1.0000 </r>
       <r>   -2.4241    1.0000 </r>
       <r>   -2.4241    1.0000 </r>
       <r>   -2.4240    1.0000 </r>
       <r>   -2.2106    1.0000 </r>
       <r>   -2.2080    1.0000 </r>
       <r>   -2.2079    1.0000 </r>
       <r>   -2.2059    1.0000 </r>
       <r>   -2.2042    1.0000 </r>
       <r>   -2.2042    1.0000 </r>
       <r>   -2.2042    1.0000 </r>
       <r>   -2.2038    1.0000 </r>
       <r>   -2.2029    1.0000 </r>
       <r>   -2.2012    1.0000 </r>
       <r>   -2.2012    1.0000 </r>
       <r>   -2.1984    1.0000 </r>
       <r>   -1.9308    1.0000 </r>
       <r>   -1.9279    1.0000 </r>
       <r>   -1.9278    1.0000 </r>
       <r>   -1.9256    1.0000 </r>
       <r>   -1.9252    1.0000 </r>
       <r>   -1.9252    1.0000 </r>
       <r>   -1.9241    1.0000 </r>
       <r>   -1.9241    1.0000 </r>
       <r>   -1.9236    1.0000 </r>
       <r>   -1.9217    1.0000 </r>
       <r>   -1.9216    1.0000 </r>
       <r>   -1.9187    1.0000 </r>
       <r>   -1.7986    1.0000 </r>
       <r>   -1.7968    1.0000 </r>
       <r>   -1.7966    1.0000 </r>
       <r>   -1.7966    1.0000 </r>
       <r>   -1.7961    1.0000 </r>
       <r>   -1.7952    1.0000 </r>
       <r>   -1.5073    1.0000 </r>
       <r>   -1.5073    1.0000 </r>
       <r>   -1.5070    1.0000 </r>
       <r>   -1.5068    1.0000 </r>
       <r>   -1.5061    1.0000 </r>
       <r>   -1.5061    1.0000 </r>
       <r>   -1.5056    1.0000 </r>
       <r>   -1.5051    1.0000 </r>
       <r>   -1.5050    1.0000 </r>
       <r>   -1.5044    1.0000 </r>
       <r>   -1.5044    1.0000 </r>
       <r>   -1.5035    1.0000 </r>
       <r>   -1.4639    1.0000 </r>
       <r>   -1.4633    1.0000 </r>
       <r>   -1.4615    1.0000 </r>
       <r>   -1.4614    1.0000 </r>
       <r>   -1.4611    1.0000 </r>
       <r>   -1.4611    1.0000 </r>
       <r>   -1.2948    1.0000 </r>
       <r>   -1.2948    1.0000 </r>
       <r>   -1.2947    1.0000 </r>
       <r>   -1.2947    1.0000 </r>
       <r>   -1.2947    1.0000 </r>
       <r>   -1.2946    1.0000 </r>
       <r>   -1.0075    1.0000 </r>
       <r>   -1.0073    1.0000 </r>
       <r>   -1.0073    1.0000 </r>
       <r>   -1.0016    1.0000 </r>
       <r>   -1.0011    1.0000 </r>
       <r>   -1.0011    1.0000 </r>
       <r>   -1.0003    1.0000 </r>
       <r>   -1.0002    1.0000 </r>
       <r>   -0.9998    1.0000 </r>
       <r>   -0.9981    1.0000 </r>
       <r>   -0.9981    1.0000 </r>
       <r>   -0.9957    1.0000 </r>
       <r>   -0.9560    1.0000 </r>
       <r>   -0.9495    1.0000 </r>
       <r>   -0.9492    1.0000 </r>
       <r>   -0.9488    1.0000 </r>
       <r>   -0.9480    1.0000 </r>
       <r>   -0.9478    1.0000 </r>
       <r>   -0.9478    1.0000 </r>
       <r>   -0.9478    1.0000 </r>
       <r>   -0.9473    1.0000 </r>
       <r>   -0.9472    1.0000 </r>
       <r>   -0.9467    1.0000 </r>
       <r>   -0.9466    1.0000 </r>
       <r>   -0.9458    1.0000 </r>
       <r>   -0.9458    1.0000 </r>
       <r>   -0.9454    1.0000 </r>
       <r>   -0.9452    1.0000 </r>
       <r>   -0.9419    1.0000 </r>
       <r>   -0.9407    1.0000 </r>
       <r>   -0.9407    1.0000 </r>
       <r>   -0.9406    1.0000 </r>
       <r>   -0.6648    1.0000 </r>
       <r>   -0.6647    1.0000 </r>
       <r>   -0.6647    1.0000 </r>
       <r>    4.3403    0.0000 </r>
       <r>    6.3631    0.0000 </r>
       <r>    6.3681    0.0000 </r>
       <r>    6.3682    0.0000 </r>
       <r>    6.3682    0.0000 </r>
       <r>    6.3695    0.0000 </r>
       <r>    6.3718    0.0000 </r>
       <r>    6.4445    0.0000 </r>
       <r>    6.4445    0.0000 </r>
       <r>    6.4446    0.0000 </r>
       <r>    6.4448    0.0000 </r>
       <r>    6.8279    0.0000 </r>
       <r>    6.8280    0.0000 </r>
       <r>    6.8280    0.0000 </r>
       <r>    7.2068    0.0000 </r>
       <r>    7.2068    0.0000 </r>
       <r>    7.2068    0.0000 </r>
       <r>    7.4585    0.0000 </r>
       <r>    7.4607    0.0000 </r>
       <r>    7.4623    0.0000 </r>
       <r>    7.4624    0.0000 </r>
       <r>    7.4640    0.0000 </r>
       <r>    7.4642    0.0000 </r>
       <r>    7.4643    0.0000 </r>
       <r>    7.4656    0.0000 </r>
       <r>    7.4658    0.0000 </r>
       <r>    7.4663    0.0000 </r>
       <r>    7.4676    0.0000 </r>
       <r>    7.4684    0.0000 </r>
       <r>    8.1659    0.0000 </r>
       <r>    8.1675    0.0000 </r>
       <r>    8.1684    0.0000 </r>
       <r>    8.1684    0.0000 </r>
       <r>    8.1684    0.0000 </r>
       <r>    8.1718    0.0000 </r>
       <r>    8.2749    0.0000 </r>
       <r>    8.2791    0.0000 </r>
       <r>    8.2795    0.0000 </r>
       <r>    8.2795    0.0000 </r>
       <r>    8.2809    0.0000 </r>
       <r>    8.2831    0.0000 </r>
       <r>    8.8908    0.0000 </r>
       <r>    8.8919    0.0000 </r>
       <r>    8.8932    0.0000 </r>
       <r>    8.8978    0.0000 </r>
       <r>    8.9001    0.0000 </r>
       <r>    8.9004    0.0000 </r>
       <r>    8.9008    0.0000 </r>
       <r>    8.9026    0.0000 </r>
       <r>    8.9039    0.0000 </r>
       <r>    8.9043    0.0000 </r>
       <r>    8.9045    0.0000 </r>
       <r>    8.9064    0.0000 </r>
       <r>    8.9125    0.0000 </r>
       <r>    8.9143    0.0000 </r>
       <r>    8.9152    0.0000 </r>
       <r>    8.9154    0.0000 </r>
       <r>    8.9184    0.0000 </r>
       <r>    8.9184    0.0000 </r>
       <r>    8.9186    0.0000 </r>
       <r>    8.9192    0.0000 </r>
       <r>    8.9202    0.0000 </r>
       <r>    8.9220    0.0000 </r>
       <r>    8.9237    0.0000 </r>
      </set>
      <set comment="kpoint 2">
       <r>  -21.3050    1.0000 </r>
       <r>  -21.3032    1.0000 </r>
       <r>  -21.3025    1.0000 </r>
       <r>  -21.3007    1.0000 </r>
       <r>  -21.2989    1.0000 </r>
       <r>  -21.2988    1.0000 </r>
       <r>  -21.2976    1.0000 </r>
       <r>  -21.2968    1.0000 </r>
       <r>  -21.2968    1.0000 </r>
       <r>  -21.2968    1.0000 </r>
       <r>  -21.2961    1.0000 </r>
       <r>  -21.2929    1.0000 </r>
       <r>  -21.2928    1.0000 </r>
       <r>  -21.2927    1.0000 </r>
       <r>  -21.2921    1.0000 </r>
       <r>  -21.2916    1.0000 </r>
       <r>  -21.2916    1.0000 </r>
       <r>  -21.2911    1.0000 </r>
       <r>  -21.2898    1.0000 </r>
       <r>  -21.2898    1.0000 </r>
       <r>  -21.2892    1.0000 </r>
       <r>  -21.2892    1.0000 </r>
       <r>  -21.2888    1.0000 </r>
       <r>  -21.2885    1.0000 </r>
       <r>  -21.2883    1.0000 </r>
       <r>  -21.2880    1.0000 </r>
       <r>  -21.2876    1.0000 </r>
       <r>  -21.2874    1.0000 </r>
       <r>  -21.2874    1.0000 </r>
       <r>  -21.2874    1.0000 </r>
       <r>  -21.2867    1.0000 </r>
       <r>  -21.2864    1.0000 </r>
       <r>  -21.2864    1.0000 </r>
       <r>  -21.2859    1.0000 </r>
       <r>  -21.2835    1.0000 </r>
       <r>  -21.2834    1.0000 </r>
       <r>  -21.2833    1.0000 </r>
       <r>  -21.2831    1.0000 </r>
       <r>  -21.2827    1.0000 </r>
       <r>  -21.2826    1.0000 </r>
       <r>  -21.2826    1.0000 </r>
       <r>  -21.2818    1.0000 </r>
       <r>  -21.2807    1.0000 </r>
       <r>  -21.2801    1.0000 </r>
       <r>  -21.2801    1.0000 </r>
       <r>  -21.2798    1.0000 </r>
       <r>  -21.2789    1.0000 </r>
       <r>  -21.2787    1.0000 </r>
       <r>  -21.2784    1.0000 </r>
       <r>  -21.2783    1.0000 </r>
       <r>  -21.2782    1.0000 </r>
       <r>  -21.2775    1.0000 </r>
       <r>  -21.2775    1.0000 </r>
       <r>  -21.2774    1.0000 </r>
       <r>  -21.2770    1.0000 </r>
       <r>  -21.2765    1.0000 </r>
       <r>  -21.2765    1.0000 </r>
       <r>  -21.2761    1.0000 </r>
       <r>  -21.2761    1.0000 </r>
       <r>  -21.2757    1.0000 </r>
       <r>  -21.2756    1.0000 </r>
       <r>  -21.2752    1.0000 </r>
       <r>  -21.2746    1.0000 </r>
       <r>  -21.2746    1.0000 </r>
       <r>  -21.2746    1.0000 </r>
       <r>  -21.2743    1.0000 </r>
       <r>  -21.2742    1.0000 </r>
       <r>  -21.2739    1.0000 </r>
       <r>  -21.2738    1.0000 </r>
       <r>  -21.2736    1.0000 </r>
       <r>  -21.2735    1.0000 </r>
       <r>  -21.2734    1.0000 </r>
       <r>  -21.2731    1.0000 </r>
       <r>  -21.2728    1.0000 </r>
       <r>  -21.2725    1.0000 </r>
       <r>  -21.2724    1.0000 </r>
       <r>  -21.2722    1.0000 </r>
       <r>  -21.2717    1.0000 </r>
       <r>  -21.2715    1.0000 </r>
       <r>  -21.2714    1.0000 </r>
       <r>  -21.2714    1.0000 </r>
       <r>  -21.2712    1.0000 </r>
       <r>  -21.2711    1.0000 </r>
       <r>  -21.2709    1.0000 </r>
       <r>  -21.2708    1.0000 </r>
       <r>  -21.2707    1.0000 </r>
       <r>  -21.2703    1.0000 </r>
       <r>  -21.2696    1.0000 </r>
       <r>  -21.2692    1.0000 </r>
       <r>  -21.2689    1.0000 </r>
       <r>  -21.2686    1.0000 </r>
       <r>  -21.2682    1.0000 </r>
       <r>  -21.2680    1.0000 </r>
       <r>  -21.2679    1.0000 </r>
       <r>  -21.2678    1.0000 </r>
       <r>  -21.2674    1.0000 </r>
       <r>  -13.2946    1.0000 </r>
       <r>  -13.2887    1.0000 </r>
       <r>  -13.1139    1.0000 </r>
       <r>  -13.0983    1.0000 </r>
       <r>  -13.0982    1.0000 </r>
       <r>  -13.0964    1.0000 </r>
       <r>  -13.0955    1.0000 </r>
       <r>  -13.0954    1.0000 </r>
       <r>  -13.0918    1.0000 </r>
       <r>  -13.0909    1.0000 </r>
       <r>  -13.0158    1.0000 </r>
       <r>  -13.0033    1.0000 </r>
       <r>  -13.0007    1.0000 </r>
       <r>  -13.0006    1.0000 </r>
       <r>  -13.0006    1.0000 </r>
       <r>  -13.0005    1.0000 </r>
       <r>  -12.9979    1.0000 </r>
       <r>  -12.9966    1.0000 </r>
       <r>  -12.9932    1.0000 </r>
       <r>  -12.9905    1.0000 </r>
       <r>  -12.9544    1.0000 </r>
       <r>  -12.9451    1.0000 </r>
       <r>  -12.9450    1.0000 </r>
       <r>  -12.9434    1.0000 </r>
       <r>  -12.9424    1.0000 </r>
       <r>  -12.9423    1.0000 </r>
       <r>  -12.9400    1.0000 </r>
       <r>  -12.9380    1.0000 </r>
       <r>  -12.9312    1.0000 </r>
       <r>  -12.9309    1.0000 </r>
       <r>  -12.9278    1.0000 </r>
       <r>  -12.9239    1.0000 </r>
       <r>   -2.5085    1.0000 </r>
       <r>   -2.5085    1.0000 </r>
       <r>   -2.5068    1.0000 </r>
       <r>   -2.5050    1.0000 </r>
       <r>   -2.5036    1.0000 </r>
       <r>   -2.5023    1.0000 </r>
       <r>   -2.5007    1.0000 </r>
       <r>   -2.5007    1.0000 </r>
       <r>   -2.2903    1.0000 </r>
       <r>   -2.2901    1.0000 </r>
       <r>   -2.2852    1.0000 </r>
       <r>   -2.2852    1.0000 </r>
       <r>   -2.2772    1.0000 </r>
       <r>   -2.2715    1.0000 </r>
       <r>   -2.1460    1.0000 </r>
       <r>   -2.1368    1.0000 </r>
       <r>   -2.1366    1.0000 </r>
       <r>   -2.1366    1.0000 </r>
       <r>   -2.1363    1.0000 </r>
       <r>   -2.1363    1.0000 </r>
       <r>   -2.1315    1.0000 </r>
       <r>   -2.1315    1.0000 </r>
       <r>   -1.9883    1.0000 </r>
       <r>   -1.9881    1.0000 </r>
       <r>   -1.9866    1.0000 </r>
       <r>   -1.9864    1.0000 </r>
       <r>   -1.9846    1.0000 </r>
       <r>   -1.9836    1.0000 </r>
       <r>   -1.9832    1.0000 </r>
       <r>   -1.9832    1.0000 </r>
       <r>   -1.8121    1.0000 </r>
       <r>   -1.8118    1.0000 </r>
       <r>   -1.8114    1.0000 </r>
       <r>   -1.8090    1.0000 </r>
       <r>   -1.8074    1.0000 </r>
       <r>   -1.8071    1.0000 </r>
       <r>   -1.8054    1.0000 </r>
       <r>   -1.8053    1.0000 </r>
       <r>   -1.5002    1.0000 </r>
       <r>   -1.5001    1.0000 </r>
       <r>   -1.4955    1.0000 </r>
       <r>   -1.4954    1.0000 </r>
       <r>   -1.3867    1.0000 </r>
       <r>   -1.3804    1.0000 </r>
       <r>   -1.3803    1.0000 </r>
       <r>   -1.3752    1.0000 </r>
       <r>   -1.2176    1.0000 </r>
       <r>   -1.2159    1.0000 </r>
       <r>   -1.2100    1.0000 </r>
       <r>   -1.2099    1.0000 </r>
       <r>   -1.1970    1.0000 </r>
       <r>   -1.1954    1.0000 </r>
       <r>   -1.1932    1.0000 </r>
       <r>   -1.1912    1.0000 </r>
       <r>   -1.1902    1.0000 </r>
       <r>   -1.1896    1.0000 </r>
       <r>   -1.1893    1.0000 </r>
       <r>   -1.1892    1.0000 </r>
       <r>   -1.1771    1.0000 </r>
       <r>   -1.1769    1.0000 </r>
       <r>   -1.1760    1.0000 </r>
       <r>   -1.1740    1.0000 </r>
       <r>   -1.1735    1.0000 </r>
       <r>   -1.1734    1.0000 </r>
       <r>   -1.1725    1.0000 </r>
       <r>   -1.1680    1.0000 </r>
       <r>   -1.1620    1.0000 </r>
       <r>   -1.1608    1.0000 </r>
       <r>   -1.1600    1.0000 </r>
       <r>   -1.1587    1.0000 </r>
       <r>   -1.1584    1.0000 </r>
       <r>   -1.1583    1.0000 </r>
       <r>   -1.1559    1.0000 </r>
       <r>   -1.1558    1.0000 </r>
       <r>   -1.0851    1.0000 </r>
       <r>   -1.0806    1.0000 </r>
       <r>   -0.9524    1.0000 </r>
       <r>   -0.9511    1.0000 </r>
       <r>   -0.9470    1.0000 </r>
       <r>   -0.9469    1.0000 </r>
       <r>   -0.9468    1.0000 </r>
       <r>   -0.9468    1.0000 </r>
       <r>   -0.9422    1.0000 </r>
       <r>   -0.9421    1.0000 </r>
       <r>   -0.9421    1.0000 </r>
       <r>   -0.9329    1.0000 </r>
       <r>   -0.9324    1.0000 </r>
       <r>   -0.9323    1.0000 </r>
       <r>   -0.9322    1.0000 </r>
       <r>   -0.9313    1.0000 </r>
       <r>   -0.9273    1.0000 </r>
       <r>   -0.9259    1.0000 </r>
       <r>   -0.7703    1.0000 </r>
       <r>   -0.7701    1.0000 </r>
       <r>   -0.7659    1.0000 </r>
       <r>   -0.7659    1.0000 </r>
       <r>    5.0205    0.0000 </r>
       <r>    5.0242    0.0000 </r>
       <r>    6.7122    0.0000 </r>
       <r>    6.7165    0.0000 </r>
       <r>    6.7165    0.0000 </r>
       <r>    6.7195    0.0000 </r>
       <r>    6.7201    0.0000 </r>
       <r>    6.7202    0.0000 </r>
       <r>    6.7206    0.0000 </r>
       <r>    6.7209    0.0000 </r>
       <r>    6.8401    0.0000 </r>
       <r>    6.8405    0.0000 </r>
       <r>    6.8416    0.0000 </r>
       <r>    6.8417    0.0000 </r>
       <r>    6.8446    0.0000 </r>
       <r>    6.8448    0.0000 </r>
       <r>    6.8461    0.0000 </r>
       <r>    6.8462    0.0000 </r>
       <r>    6.9696    0.0000 </r>
       <r>    6.9726    0.0000 </r>
       <r>    7.3591    0.0000 </r>
       <r>    7.3623    0.0000 </r>
       <r>    7.3628    0.0000 </r>
       <r>    7.3660    0.0000 </r>
       <r>    7.4775    0.0000 </r>
       <r>    7.4830    0.0000 </r>
       <r>    7.7115    0.0000 </r>
       <r>    7.7115    0.0000 </r>
       <r>    7.7176    0.0000 </r>
       <r>    7.7176    0.0000 </r>
       <r>    8.2600    0.0000 </r>
       <r>    8.2634    0.0000 </r>
       <r>    8.2637    0.0000 </r>
       <r>    8.2670    0.0000 </r>
       <r>    8.2676    0.0000 </r>
       <r>    8.2682    0.0000 </r>
       <r>    8.2682    0.0000 </r>
       <r>    8.2690    0.0000 </r>
       <r>    8.5325    0.0000 </r>
       <r>    8.5349    0.0000 </r>
       <r>    8.5353    0.0000 </r>
       <r>    8.5357    0.0000 </r>
       <r>    8.5361    0.0000 </r>
       <r>    8.5364    0.0000 </r>
       <r>    8.5379    0.0000 </r>
       <r>    8.5381    0.0000 </r>
       <r>    8.5401    0.0000 </r>
       <r>    8.5401    0.0000 </r>
       <r>    8.5403    0.0000 </r>
       <r>    8.5404    0.0000 </r>
       <r>    8.5409    0.0000 </r>
       <r>    8.5411    0.0000 </r>
       <r>    8.5430    0.0000 </r>
       <r>    8.5431    0.0000 </r>
       <r>    8.9400    0.0000 </r>
       <r>    8.9485    0.0000 </r>
       <r>    8.9485    0.0000 </r>
       <r>    8.9521    0.0000 </r>
       <r>    8.9533    0.0000 </r>
       <r>    8.9534    0.0000 </r>
       <r>    8.9554    0.0000 </r>
       <r>    8.9562    0.0000 </r>
       <r>    9.4877    0.0000 </r>
       <r>    9.4966    0.0000 </r>
      </set>
      <set comment="kpoint 3">
       <r>  -21.3035    1.0000 </r>
       <r>  -21.3017    1.0000 </r>
       <r>  -21.3017    1.0000 </r>
       <r>  -21.3013    1.0000 </r>
       <r>  -21.3010    1.0000 </r>
       <r>  -21.3010    1.0000 </r>
       <r>  -21.3005    1.0000 </r>
       <r>  -21.2992    1.0000 </r>
       <r>  -21.2953    1.0000 </r>
       <r>  -21.2937    1.0000 </r>
       <r>  -21.2937    1.0000 </r>
       <r>  -21.2932    1.0000 </r>
       <r>  -21.2920    1.0000 </r>
       <r>  -21.2920    1.0000 </r>
       <r>  -21.2918    1.0000 </r>
       <r>  -21.2918    1.0000 </r>
       <r>  -21.2915    1.0000 </r>
       <r>  -21.2909    1.0000 </r>
       <r>  -21.2909    1.0000 </r>
       <r>  -21.2903    1.0000 </r>
       <r>  -21.2903    1.0000 </r>
       <r>  -21.2895    1.0000 </r>
       <r>  -21.2883    1.0000 </r>
       <r>  -21.2881    1.0000 </r>
       <r>  -21.2880    1.0000 </r>
       <r>  -21.2880    1.0000 </r>
       <r>  -21.2877    1.0000 </r>
       <r>  -21.2875    1.0000 </r>
       <r>  -21.2875    1.0000 </r>
       <r>  -21.2875    1.0000 </r>
       <r>  -21.2852    1.0000 </r>
       <r>  -21.2849    1.0000 </r>
       <r>  -21.2849    1.0000 </r>
       <r>  -21.2844    1.0000 </r>
       <r>  -21.2844    1.0000 </r>
       <r>  -21.2840    1.0000 </r>
       <r>  -21.2840    1.0000 </r>
       <r>  -21.2839    1.0000 </r>
       <r>  -21.2836    1.0000 </r>
       <r>  -21.2836    1.0000 </r>
       <r>  -21.2831    1.0000 </r>
       <r>  -21.2820    1.0000 </r>
       <r>  -21.2817    1.0000 </r>
       <r>  -21.2817    1.0000 </r>
       <r>  -21.2809    1.0000 </r>
       <r>  -21.2801    1.0000 </r>
       <r>  -21.2788    1.0000 </r>
       <r>  -21.2788    1.0000 </r>
       <r>  -21.2776    1.0000 </r>
       <r>  -21.2774    1.0000 </r>
       <r>  -21.2774    1.0000 </r>
       <r>  -21.2771    1.0000 </r>
       <r>  -21.2770    1.0000 </r>
       <r>  -21.2770    1.0000 </r>
       <r>  -21.2763    1.0000 </r>
       <r>  -21.2763    1.0000 </r>
       <r>  -21.2763    1.0000 </r>
       <r>  -21.2763    1.0000 </r>
       <r>  -21.2761    1.0000 </r>
       <r>  -21.2759    1.0000 </r>
       <r>  -21.2759    1.0000 </r>
       <r>  -21.2758    1.0000 </r>
       <r>  -21.2749    1.0000 </r>
       <r>  -21.2747    1.0000 </r>
       <r>  -21.2745    1.0000 </r>
       <r>  -21.2745    1.0000 </r>
       <r>  -21.2743    1.0000 </r>
       <r>  -21.2743    1.0000 </r>
       <r>  -21.2742    1.0000 </r>
       <r>  -21.2742    1.0000 </r>
       <r>  -21.2737    1.0000 </r>
       <r>  -21.2734    1.0000 </r>
       <r>  -21.2734    1.0000 </r>
       <r>  -21.2729    1.0000 </r>
       <r>  -21.2720    1.0000 </r>
       <r>  -21.2719    1.0000 </r>
       <r>  -21.2717    1.0000 </r>
       <r>  -21.2716    1.0000 </r>
       <r>  -21.2716    1.0000 </r>
       <r>  -21.2714    1.0000 </r>
       <r>  -21.2714    1.0000 </r>
       <r>  -21.2713    1.0000 </r>
       <r>  -21.2713    1.0000 </r>
       <r>  -21.2701    1.0000 </r>
       <r>  -21.2701    1.0000 </r>
       <r>  -21.2700    1.0000 </r>
       <r>  -21.2695    1.0000 </r>
       <r>  -21.2695    1.0000 </r>
       <r>  -21.2695    1.0000 </r>
       <r>  -21.2691    1.0000 </r>
       <r>  -21.2689    1.0000 </r>
       <r>  -21.2689    1.0000 </r>
       <r>  -21.2687    1.0000 </r>
       <r>  -21.2681    1.0000 </r>
       <r>  -21.2681    1.0000 </r>
       <r>  -21.2673    1.0000 </r>
       <r>  -13.2923    1.0000 </r>
       <r>  -13.2911    1.0000 </r>
       <r>  -13.1133    1.0000 </r>
       <r>  -13.0969    1.0000 </r>
       <r>  -13.0969    1.0000 </r>
       <r>  -13.0968    1.0000 </r>
       <r>  -13.0968    1.0000 </r>
       <r>  -13.0968    1.0000 </r>
       <r>  -13.0968    1.0000 </r>
       <r>  -13.0854    1.0000 </r>
       <r>  -13.0144    1.0000 </r>
       <r>  -13.0006    1.0000 </r>
       <r>  -13.0006    1.0000 </r>
       <r>  -13.0006    1.0000 </r>
       <r>  -13.0006    1.0000 </r>
       <r>  -13.0006    1.0000 </r>
       <r>  -13.0006    1.0000 </r>
       <r>  -13.0005    1.0000 </r>
       <r>  -12.9955    1.0000 </r>
       <r>  -12.9870    1.0000 </r>
       <r>  -12.9525    1.0000 </r>
       <r>  -12.9441    1.0000 </r>
       <r>  -12.9437    1.0000 </r>
       <r>  -12.9437    1.0000 </r>
       <r>  -12.9437    1.0000 </r>
       <r>  -12.9437    1.0000 </r>
       <r>  -12.9437    1.0000 </r>
       <r>  -12.9326    1.0000 </r>
       <r>  -12.9311    1.0000 </r>
       <r>  -12.9309    1.0000 </r>
       <r>  -12.9289    1.0000 </r>
       <r>  -12.9253    1.0000 </r>
       <r>   -2.5053    1.0000 </r>
       <r>   -2.5051    1.0000 </r>
       <r>   -2.5050    1.0000 </r>
       <r>   -2.5043    1.0000 </r>
       <r>   -2.5043    1.0000 </r>
       <r>   -2.5043    1.0000 </r>
       <r>   -2.5041    1.0000 </r>
       <r>   -2.5041    1.0000 </r>
       <r>   -2.2876    1.0000 </r>
       <r>   -2.2876    1.0000 </r>
       <r>   -2.2876    1.0000 </r>
       <r>   -2.2875    1.0000 </r>
       <r>   -2.2744    1.0000 </r>
       <r>   -2.2741    1.0000 </r>
       <r>   -2.1450    1.0000 </r>
       <r>   -2.1367    1.0000 </r>
       <r>   -2.1366    1.0000 </r>
       <r>   -2.1364    1.0000 </r>
       <r>   -2.1364    1.0000 </r>
       <r>   -2.1363    1.0000 </r>
       <r>   -2.1361    1.0000 </r>
       <r>   -2.1280    1.0000 </r>
       <r>   -1.9880    1.0000 </r>
       <r>   -1.9879    1.0000 </r>
       <r>   -1.9863    1.0000 </r>
       <r>   -1.9863    1.0000 </r>
       <r>   -1.9854    1.0000 </r>
       <r>   -1.9854    1.0000 </r>
       <r>   -1.9828    1.0000 </r>
       <r>   -1.9827    1.0000 </r>
       <r>   -1.8107    1.0000 </r>
       <r>   -1.8089    1.0000 </r>
       <r>   -1.8088    1.0000 </r>
       <r>   -1.8087    1.0000 </r>
       <r>   -1.8086    1.0000 </r>
       <r>   -1.8082    1.0000 </r>
       <r>   -1.8082    1.0000 </r>
       <r>   -1.8067    1.0000 </r>
       <r>   -1.4980    1.0000 </r>
       <r>   -1.4980    1.0000 </r>
       <r>   -1.4977    1.0000 </r>
       <r>   -1.4977    1.0000 </r>
       <r>   -1.3815    1.0000 </r>
       <r>   -1.3804    1.0000 </r>
       <r>   -1.3804    1.0000 </r>
       <r>   -1.3804    1.0000 </r>
       <r>   -1.2153    1.0000 </r>
       <r>   -1.2152    1.0000 </r>
       <r>   -1.2123    1.0000 </r>
       <r>   -1.2123    1.0000 </r>
       <r>   -1.1962    1.0000 </r>
       <r>   -1.1937    1.0000 </r>
       <r>   -1.1933    1.0000 </r>
       <r>   -1.1926    1.0000 </r>
       <r>   -1.1909    1.0000 </r>
       <r>   -1.1909    1.0000 </r>
       <r>   -1.1889    1.0000 </r>
       <r>   -1.1879    1.0000 </r>
       <r>   -1.1743    1.0000 </r>
       <r>   -1.1743    1.0000 </r>
       <r>   -1.1742    1.0000 </r>
       <r>   -1.1741    1.0000 </r>
       <r>   -1.1741    1.0000 </r>
       <r>   -1.1735    1.0000 </r>
       <r>   -1.1734    1.0000 </r>
       <r>   -1.1727    1.0000 </r>
       <r>   -1.1613    1.0000 </r>
       <r>   -1.1598    1.0000 </r>
       <r>   -1.1597    1.0000 </r>
       <r>   -1.1597    1.0000 </r>
       <r>   -1.1596    1.0000 </r>
       <r>   -1.1580    1.0000 </r>
       <r>   -1.1556    1.0000 </r>
       <r>   -1.1556    1.0000 </r>
       <r>   -1.0833    1.0000 </r>
       <r>   -1.0824    1.0000 </r>
       <r>   -0.9471    1.0000 </r>
       <r>   -0.9471    1.0000 </r>
       <r>   -0.9470    1.0000 </r>
       <r>   -0.9469    1.0000 </r>
       <r>   -0.9468    1.0000 </r>
       <r>   -0.9468    1.0000 </r>
       <r>   -0.9468    1.0000 </r>
       <r>   -0.9468    1.0000 </r>
       <r>   -0.9407    1.0000 </r>
       <r>   -0.9325    1.0000 </r>
       <r>   -0.9325    1.0000 </r>
       <r>   -0.9324    1.0000 </r>
       <r>   -0.9324    1.0000 </r>
       <r>   -0.9317    1.0000 </r>
       <r>   -0.9317    1.0000 </r>
       <r>   -0.9233    1.0000 </r>
       <r>   -0.7684    1.0000 </r>
       <r>   -0.7684    1.0000 </r>
       <r>   -0.7675    1.0000 </r>
       <r>   -0.7675    1.0000 </r>
       <r>    5.0223    0.0000 </r>
       <r>    5.0224    0.0000 </r>
       <r>    6.7116    0.0000 </r>
       <r>    6.7174    0.0000 </r>
       <r>    6.7182    0.0000 </r>
       <r>    6.7183    0.0000 </r>
       <r>    6.7183    0.0000 </r>
       <r>    6.7184    0.0000 </r>
       <r>    6.7193    0.0000 </r>
       <r>    6.7248    0.0000 </r>
       <r>    6.8420    0.0000 </r>
       <r>    6.8422    0.0000 </r>
       <r>    6.8431    0.0000 </r>
       <r>    6.8432    0.0000 </r>
       <r>    6.8432    0.0000 </r>
       <r>    6.8433    0.0000 </r>
       <r>    6.8441    0.0000 </r>
       <r>    6.8443    0.0000 </r>
       <r>    6.9711    0.0000 </r>
       <r>    6.9711    0.0000 </r>
       <r>    7.3625    0.0000 </r>
       <r>    7.3625    0.0000 </r>
       <r>    7.3626    0.0000 </r>
       <r>    7.3626    0.0000 </r>
       <r>    7.4802    0.0000 </r>
       <r>    7.4803    0.0000 </r>
       <r>    7.7145    0.0000 </r>
       <r>    7.7145    0.0000 </r>
       <r>    7.7146    0.0000 </r>
       <r>    7.7146    0.0000 </r>
       <r>    8.2599    0.0000 </r>
       <r>    8.2638    0.0000 </r>
       <r>    8.2651    0.0000 </r>
       <r>    8.2660    0.0000 </r>
       <r>    8.2660    0.0000 </r>
       <r>    8.2661    0.0000 </r>
       <r>    8.2681    0.0000 </r>
       <r>    8.2719    0.0000 </r>
       <r>    8.5324    0.0000 </r>
       <r>    8.5343    0.0000 </r>
       <r>    8.5363    0.0000 </r>
       <r>    8.5367    0.0000 </r>
       <r>    8.5369    0.0000 </r>
       <r>    8.5377    0.0000 </r>
       <r>    8.5379    0.0000 </r>
       <r>    8.5383    0.0000 </r>
       <r>    8.5384    0.0000 </r>
       <r>    8.5391    0.0000 </r>
       <r>    8.5398    0.0000 </r>
       <r>    8.5402    0.0000 </r>
       <r>    8.5403    0.0000 </r>
       <r>    8.5404    0.0000 </r>
       <r>    8.5423    0.0000 </r>
       <r>    8.5451    0.0000 </r>
       <r>    8.9390    0.0000 </r>
       <r>    8.9498    0.0000 </r>
       <r>    8.9503    0.0000 </r>
       <r>    8.9508    0.0000 </r>
       <r>    8.9510    0.0000 </r>
       <r>    8.9514    0.0000 </r>
       <r>    8.9520    0.0000 </r>
       <r>    8.9627    0.0000 </r>
       <r>    9.4879    0.0000 </r>
       <r>    9.5002    0.0000 </r>
      </set>
      <set comment="kpoint 4">
       <r>  -21.3039    1.0000 </r>
       <r>  -21.3016    1.0000 </r>
       <r>  -21.3016    1.0000 </r>
       <r>  -21.2984    1.0000 </r>
       <r>  -21.2978    1.0000 </r>
       <r>  -21.2978    1.0000 </r>
       <r>  -21.2970    1.0000 </r>
       <r>  -21.2965    1.0000 </r>
       <r>  -21.2965    1.0000 </r>
       <r>  -21.2965    1.0000 </r>
       <r>  -21.2944    1.0000 </r>
       <r>  -21.2944    1.0000 </r>
       <r>  -21.2939    1.0000 </r>
       <r>  -21.2931    1.0000 </r>
       <r>  -21.2930    1.0000 </r>
       <r>  -21.2930    1.0000 </r>
       <r>  -21.2930    1.0000 </r>
       <r>  -21.2930    1.0000 </r>
       <r>  -21.2926    1.0000 </r>
       <r>  -21.2914    1.0000 </r>
       <r>  -21.2913    1.0000 </r>
       <r>  -21.2913    1.0000 </r>
       <r>  -21.2912    1.0000 </r>
       <r>  -21.2899    1.0000 </r>
       <r>  -21.2899    1.0000 </r>
       <r>  -21.2887    1.0000 </r>
       <r>  -21.2887    1.0000 </r>
       <r>  -21.2878    1.0000 </r>
       <r>  -21.2878    1.0000 </r>
       <r>  -21.2864    1.0000 </r>
       <r>  -21.2857    1.0000 </r>
       <r>  -21.2848    1.0000 </r>
       <r>  -21.2844    1.0000 </r>
       <r>  -21.2832    1.0000 </r>
       <r>  -21.2832    1.0000 </r>
       <r>  -21.2830    1.0000 </r>
       <r>  -21.2828    1.0000 </r>
[...]
      </set>
     </set>
    </set>
   </array>
  </eigenvalues>
  <separator name="orbital magnetization" >
   <v name="MAGDIPOLOUT">      0.00000000      0.00000000      0.00000000</v>
  </separator>
  <dos>
   <i name="efermi">     -0.56594841 </i>
   <total>
    <array>
     <dimension dim="1">gridpoints</dimension>
     <dimension dim="2">spin</dimension>
     <field>energy</field>
     <field>total</field>
     <field>integrated</field>
     <set>
      <set comment="spin 1">
       <r>   -22.8469     0.0000     0.0000 </r>
       <r>   -22.7340     0.0000     0.0000 </r>
       <r>   -22.6210     0.0000     0.0000 </r>
       <r>   -22.5081     0.0000     0.0000 </r>
       <r>   -22.3951     0.0000     0.0000 </r>
       <r>   -22.2821     0.0000     0.0000 </r>
       <r>   -22.1692     0.0000     0.0000 </r>
       <r>   -22.0562     0.0000     0.0000 </r>
       <r>   -21.9433     0.0000     0.0000 </r>
       <r>   -21.8303     0.0000     0.0000 </r>
       <r>   -21.7173     0.0000     0.0000 </r>
       <r>   -21.6044     0.0000     0.0000 </r>
       <r>   -21.4914     0.0000     0.0000 </r>
       <r>   -21.3785     0.0000     0.0000 </r>
       <r>   -21.2655  1389.7736   156.9861 </r>
       <r>   -21.1526   309.9723   192.0000 </r>
       <r>   -21.0396     0.0000   192.0000 </r>
       <r>   -20.9266     0.0000   192.0000 </r>
       <r>   -20.8137     0.0000   192.0000 </r>
       <r>   -20.7007     0.0000   192.0000 </r>
       <r>   -20.5878     0.0000   192.0000 </r>
       <r>   -20.4748     0.0000   192.0000 </r>
       <r>   -20.3618     0.0000   192.0000 </r>
       <r>   -20.2489     0.0000   192.0000 </r>
       <r>   -20.1359     0.0000   192.0000 </r>
       <r>   -20.0230     0.0000   192.0000 </r>
       <r>   -19.9100     0.0000   192.0000 </r>
       <r>   -19.7971     0.0000   192.0000 </r>
       <r>   -19.6841     0.0000   192.0000 </r>
       <r>   -19.5711     0.0000   192.0000 </r>
       <r>   -19.4582     0.0000   192.0000 </r>
       <r>   -19.3452     0.0000   192.0000 </r>
       <r>   -19.2323     0.0000   192.0000 </r>
       <r>   -19.1193     0.0000   192.0000 </r>
       <r>   -19.0064     0.0000   192.0000 </r>
       <r>   -18.8934     0.0000   192.0000 </r>
       <r>   -18.7804     0.0000   192.0000 </r>
       <r>   -18.6675     0.0000   192.0000 </r>
       <r>   -18.5545     0.0000   192.0000 </r>
       <r>   -18.4416     0.0000   192.0000 </r>
       <r>   -18.3286     0.0000   192.0000 </r>
       <r>   -18.2156     0.0000   192.0000 </r>
       <r>   -18.1027     0.0000   192.0000 </r>
       <r>   -17.9897     0.0000   192.0000 </r>
       <r>   -17.8768     0.0000   192.0000 </r>
       <r>   -17.7638     0.0000   192.0000 </r>
       <r>   -17.6509     0.0000   192.0000 </r>
       <r>   -17.5379     0.0000   192.0000 </r>
       <r>   -17.4249     0.0000   192.0000 </r>
       <r>   -17.3120     0.0000   192.0000 </r>
       <r>   -17.1990     0.0000   192.0000 </r>
       <r>   -17.0861     0.0000   192.0000 </r>
       <r>   -16.9731     0.0000   192.0000 </r>
       <r>   -16.8601     0.0000   192.0000 </r>
       <r>   -16.7472     0.0000   192.0000 </r>
       <r>   -16.6342     0.0000   192.0000 </r>
       <r>   -16.5213     0.0000   192.0000 </r>
       <r>   -16.4083     0.0000   192.0000 </r>
       <r>   -16.2954     0.0000   192.0000 </r>
       <r>   -16.1824     0.0000   192.0000 </r>
       <r>   -16.0694     0.0000   192.0000 </r>
       <r>   -15.9565     0.0000   192.0000 </r>
       <r>   -15.8435     0.0000   192.0000 </r>
       <r>   -15.7306     0.0000   192.0000 </r>
       <r>   -15.6176     0.0000   192.0000 </r>
       <r>   -15.5047     0.0000   192.0000 </r>
       <r>   -15.3917     0.0000   192.0000 </r>
       <r>   -15.2787     0.0000   192.0000 </r>
       <r>   -15.1658     0.0000   192.0000 </r>
       <r>   -15.0528     0.0000   192.0000 </r>
       <r>   -14.9399     0.0000   192.0000 </r>
       <r>   -14.8269     0.0000   192.0000 </r>
       <r>   -14.7139     0.0000   192.0000 </r>
       <r>   -14.6010     0.0000   192.0000 </r>
       <r>   -14.4880     0.0000   192.0000 </r>
       <r>   -14.3751     0.0000   192.0000 </r>
       <r>   -14.2621     0.0000   192.0000 </r>
       <r>   -14.1492     0.0000   192.0000 </r>
       <r>   -14.0362     0.0000   192.0000 </r>
       <r>   -13.9232     0.0000   192.0000 </r>
       <r>   -13.8103     0.0000   192.0000 </r>
       <r>   -13.6973     0.0000   192.0000 </r>
       <r>   -13.5844     0.0000   192.0000 </r>
       <r>   -13.4714     0.0000   192.0000 </r>
       <r>   -13.3584     1.1008   192.1243 </r>
       <r>   -13.2455    19.2768   194.3018 </r>
       <r>   -13.1325    48.6963   199.8026 </r>
       <r>   -13.0196   125.7079   214.0026 </r>
       <r>   -12.9066   365.6811   255.3093 </r>
       <r>   -12.7937     6.1037   256.0000 </r>
       <r>   -12.6807     0.0000   256.0000 </r>
       <r>   -12.5677     0.0000   256.0000 </r>
       <r>   -12.4548     0.0000   256.0000 </r>
       <r>   -12.3418     0.0000   256.0000 </r>
       <r>   -12.2289     0.0000   256.0000 </r>
       <r>   -12.1159     0.0000   256.0000 </r>
       <r>   -12.0030     0.0000   256.0000 </r>
       <r>   -11.8900     0.0000   256.0000 </r>
       <r>   -11.7770     0.0000   256.0000 </r>
       <r>   -11.6641     0.0000   256.0000 </r>
       <r>   -11.5511     0.0000   256.0000 </r>
       <r>   -11.4382     0.0000   256.0000 </r>
       <r>   -11.3252     0.0000   256.0000 </r>
       <r>   -11.2122     0.0000   256.0000 </r>
       <r>   -11.0993     0.0000   256.0000 </r>
       <r>   -10.9863     0.0000   256.0000 </r>
       <r>   -10.8734     0.0000   256.0000 </r>
       <r>   -10.7604     0.0000   256.0000 </r>
       <r>   -10.6475     0.0000   256.0000 </r>
       <r>   -10.5345     0.0000   256.0000 </r>
       <r>   -10.4215     0.0000   256.0000 </r>
       <r>   -10.3086     0.0000   256.0000 </r>
       <r>   -10.1956     0.0000   256.0000 </r>
       <r>   -10.0827     0.0000   256.0000 </r>
       <r>    -9.9697     0.0000   256.0000 </r>
       <r>    -9.8567     0.0000   256.0000 </r>
       <r>    -9.7438     0.0000   256.0000 </r>
       <r>    -9.6308     0.0000   256.0000 </r>
       <r>    -9.5179     0.0000   256.0000 </r>
       <r>    -9.4049     0.0000   256.0000 </r>
       <r>    -9.2920     0.0000   256.0000 </r>
       <r>    -9.1790     0.0000   256.0000 </r>
       <r>    -9.0660     0.0000   256.0000 </r>
       <r>    -8.9531     0.0000   256.0000 </r>
       <r>    -8.8401     0.0000   256.0000 </r>
       <r>    -8.7272     0.0000   256.0000 </r>
       <r>    -8.6142     0.0000   256.0000 </r>
       <r>    -8.5013     0.0000   256.0000 </r>
       <r>    -8.3883     0.0000   256.0000 </r>
       <r>    -8.2753     0.0000   256.0000 </r>
       <r>    -8.1624     0.0000   256.0000 </r>
       <r>    -8.0494     0.0000   256.0000 </r>
       <r>    -7.9365     0.0000   256.0000 </r>
       <r>    -7.8235     0.0000   256.0000 </r>
       <r>    -7.7105     0.0000   256.0000 </r>
       <r>    -7.5976     0.0000   256.0000 </r>
       <r>    -7.4846     0.0000   256.0000 </r>
       <r>    -7.3717     0.0000   256.0000 </r>
       <r>    -7.2587     0.0000   256.0000 </r>
       <r>    -7.1458     0.0000   256.0000 </r>
       <r>    -7.0328     0.0000   256.0000 </r>
       <r>    -6.9198     0.0000   256.0000 </r>
       <r>    -6.8069     0.0000   256.0000 </r>
       <r>    -6.6939     0.0000   256.0000 </r>
       <r>    -6.5810     0.0000   256.0000 </r>
       <r>    -6.4680     0.0000   256.0000 </r>
       <r>    -6.3550     0.0000   256.0000 </r>
       <r>    -6.2421     0.0000   256.0000 </r>
       <r>    -6.1291     0.0000   256.0000 </r>
       <r>    -6.0162     0.0000   256.0000 </r>
       <r>    -5.9032     0.0000   256.0000 </r>
       <r>    -5.7903     0.0000   256.0000 </r>
       <r>    -5.6773     0.0000   256.0000 </r>
       <r>    -5.5643     0.0000   256.0000 </r>
       <r>    -5.4514     0.0000   256.0000 </r>
       <r>    -5.3384     0.0000   256.0000 </r>
       <r>    -5.2255     0.0000   256.0000 </r>
       <r>    -5.1125     0.0000   256.0000 </r>
       <r>    -4.9996     0.0000   256.0000 </r>
       <r>    -4.8866     0.0000   256.0000 </r>
       <r>    -4.7736     0.0000   256.0000 </r>
       <r>    -4.6607     0.0000   256.0000 </r>
       <r>    -4.5477     0.0000   256.0000 </r>
       <r>    -4.4348     0.0000   256.0000 </r>
       <r>    -4.3218     0.0000   256.0000 </r>
       <r>    -4.2088     0.0000   256.0000 </r>
       <r>    -4.0959     0.0000   256.0000 </r>
       <r>    -3.9829     0.0000   256.0000 </r>
       <r>    -3.8700     0.0000   256.0000 </r>
       <r>    -3.7570     0.0000   256.0000 </r>
       <r>    -3.6441     0.0000   256.0000 </r>
       <r>    -3.5311     0.0000   256.0000 </r>
       <r>    -3.4181     0.0000   256.0000 </r>
       <r>    -3.3052     0.0000   256.0000 </r>
       <r>    -3.1922     0.0000   256.0000 </r>
       <r>    -3.0793     0.0000   256.0000 </r>
       <r>    -2.9663     0.0000   256.0000 </r>
       <r>    -2.8533     0.0000   256.0000 </r>
       <r>    -2.7404     0.0195   256.0022 </r>
       <r>    -2.6274     8.8333   257.0000 </r>
       <r>    -2.5145    12.9834   258.4666 </r>
       <r>    -2.4015    88.3843   268.4503 </r>
       <r>    -2.2886    79.4436   277.4241 </r>
       <r>    -2.1756   159.7804   295.4726 </r>
       <r>    -2.0626    77.7047   304.2500 </r>
       <r>    -1.9497    53.9188   310.3406 </r>
       <r>    -1.8367    52.6409   316.2868 </r>
       <r>    -1.7238    83.7764   325.7500 </r>
       <r>    -1.6108     0.0000   325.7500 </r>
       <r>    -1.4979    43.1189   330.6206 </r>
       <r>    -1.3849   213.8704   354.7790 </r>
       <r>    -1.2719    34.5006   358.6761 </r>
       <r>    -1.1590   231.4153   384.8164 </r>
       <r>    -1.0460   155.6565   402.3993 </r>
       <r>    -0.9331   236.9368   429.1635 </r>
       <r>    -0.8201    80.3496   438.2396 </r>
       <r>    -0.7071    79.4085   447.2095 </r>
       <r>    -0.5942     6.9983   448.0000 </r>
       <r>    -0.4812     0.0000   448.0000 </r>
       <r>    -0.3683     0.0000   448.0000 </r>
       <r>    -0.2553     0.0000   448.0000 </r>
       <r>    -0.1424     0.0000   448.0000 </r>
       <r>    -0.0294     0.0000   448.0000 </r>
       <r>     0.0836     0.0000   448.0000 </r>
       <r>     0.1965     0.0000   448.0000 </r>
       <r>     0.3095     0.0000   448.0000 </r>
       <r>     0.4224     0.0000   448.0000 </r>
       <r>     0.5354     0.0000   448.0000 </r>
       <r>     0.6484     0.0000   448.0000 </r>
       <r>     0.7613     0.0000   448.0000 </r>
       <r>     0.8743     0.0000   448.0000 </r>
       <r>     0.9872     0.0000   448.0000 </r>
       <r>     1.1002     0.0000   448.0000 </r>
       <r>     1.2131     0.0000   448.0000 </r>
       <r>     1.3261     0.0000   448.0000 </r>
       <r>     1.4391     0.0000   448.0000 </r>
       <r>     1.5520     0.0000   448.0000 </r>
       <r>     1.6650     0.0000   448.0000 </r>
       <r>     1.7779     0.0000   448.0000 </r>
       <r>     1.8909     0.0000   448.0000 </r>
       <r>     2.0038     0.0000   448.0000 </r>
       <r>     2.1168     0.0000   448.0000 </r>
       <r>     2.2298     0.0000   448.0000 </r>
       <r>     2.3427     0.0000   448.0000 </r>
       <r>     2.4557     0.0000   448.0000 </r>
       <r>     2.5686     0.0000   448.0000 </r>
       <r>     2.6816     0.0000   448.0000 </r>
       <r>     2.7946     0.0000   448.0000 </r>
       <r>     2.9075     0.0000   448.0000 </r>
       <r>     3.0205     0.0000   448.0000 </r>
       <r>     3.1334     0.0000   448.0000 </r>
       <r>     3.2464     0.0000   448.0000 </r>
       <r>     3.3593     0.0000   448.0000 </r>
       <r>     3.4723     0.0000   448.0000 </r>
       <r>     3.5853     0.0000   448.0000 </r>
       <r>     3.6982     0.0000   448.0000 </r>
       <r>     3.8112     0.0000   448.0000 </r>
       <r>     3.9241     0.0000   448.0000 </r>
       <r>     4.0371     0.0000   448.0000 </r>
       <r>     4.1501     0.0000   448.0000 </r>
       <r>     4.2630     0.0000   448.0000 </r>
       <r>     4.3760     2.2003   448.2485 </r>
       <r>     4.4889     0.0129   448.2500 </r>
       <r>     4.6019     0.0000   448.2500 </r>
       <r>     4.7148     0.0000   448.2500 </r>
       <r>     4.8278     0.0000   448.2500 </r>
       <r>     4.9408     0.0000   448.2500 </r>
       <r>     5.0537    13.0968   449.7294 </r>
       <r>     5.1667     0.1825   449.7500 </r>
       <r>     5.2796     0.0000   449.7500 </r>
       <r>     5.3926     0.0000   449.7500 </r>
       <r>     5.5055     0.2434   449.7775 </r>
       <r>     5.6185    26.3151   452.7500 </r>
       <r>     5.7315     0.0000   452.7500 </r>
       <r>     5.8444    14.3766   454.3739 </r>
       <r>     5.9574     3.3291   454.7500 </r>
       <r>     6.0703     0.0000   454.7500 </r>
       <r>     6.1833     0.0000   454.7500 </r>
       <r>     6.2963     0.0000   454.7500 </r>
       <r>     6.4092    13.3056   456.2530 </r>
       <r>     6.5222     8.8265   457.2500 </r>
       <r>     6.6351    20.7559   459.5945 </r>
       <r>     6.7481    84.4395   469.1327 </r>
       <r>     6.8610    55.1198   475.3589 </r>
       <r>     6.9740    13.4000   476.8725 </r>
       <r>     7.0870     5.5548   477.5000 </r>
       <r>     7.1999     2.0773   477.7347 </r>
       <r>     7.3129     4.5690   478.2508 </r>
       <r>     7.4258    77.9054   487.0508 </r>
       <r>     7.5388   158.2187   504.9229 </r>
       <r>     7.6518    16.1702   506.7500 </r>
       <r>     7.7647    26.5520   509.7493 </r>
       <r>     7.8777     0.0040   509.7504 </r>
       <r>     7.9906    53.1099   515.7496 </r>
       <r>     8.1036     0.0000   515.7500 </r>
       <r>     8.2165    13.2921   517.2514 </r>
       <r>     8.3295    92.5891   527.7105 </r>
       <r>     8.4425     0.3474   527.7500 </r>
       <r>     8.5554   117.0034   540.9665 </r>
       <r>     8.6684    42.3477   545.7500 </r>
       <r>     8.7813     0.0000   545.7500 </r>
       <r>     8.8943    57.2126   552.2126 </r>
       <r>     9.0072   132.0250   567.1259 </r>
       <r>     9.1202    21.0148   569.5000 </r>
       <r>     9.2332     8.2268   570.4293 </r>
       <r>     9.3461    36.0374   574.5000 </r>
       <r>     9.4591     0.1636   574.5185 </r>
       <r>     9.5720    13.1157   576.0000 </r>
       <r>     9.6850     0.0000   576.0000 </r>
       <r>     9.7980     0.0000   576.0000 </r>
       <r>     9.9109     0.0000   576.0000 </r>
       <r>    10.0239     0.0000   576.0000 </r>
       <r>    10.1368     0.0000   576.0000 </r>
       <r>    10.2498     0.0000   576.0000 </r>
       <r>    10.3627     0.0000   576.0000 </r>
       <r>    10.4757     0.0000   576.0000 </r>
       <r>    10.5887     0.0000   576.0000 </r>
       <r>    10.7016     0.0000   576.0000 </r>
       <r>    10.8146     0.0000   576.0000 </r>
       <r>    10.9275     0.0000   576.0000 </r>
       <r>    11.0405     0.0000   576.0000 </r>
      </set>
     </set>
    </array>
   </total>
  </dos>
 </calculation>
 <structure name="finalpos" >
  <crystal>
   <varray name="basis" >
    <v>      11.20400236       0.00000000       0.00000000 </v>
    <v>       0.00000000      11.20400236       0.00000000 </v>
    <v>       0.00000000       0.00000000      11.20400236 </v>
   </varray>
   <i name="volume">   1406.43470641 </i>
   <varray name="rec_basis" >
    <v>       0.08925382       0.00000000       0.00000000 </v>
    <v>       0.00000000       0.08925382       0.00000000 </v>
    <v>       0.00000000       0.00000000       0.08925382 </v>
   </varray>
  </crystal>
  <varray name="positions" >
   <v>       0.00267761       0.00000000       0.00000000 </v>
   <v>       0.25000000       0.24732239       0.00000000 </v>
   <v>       0.25000000       0.00000000       0.25000000 </v>
   <v>       0.00000000       0.25000000       0.25000000 </v>
   <v>       0.00000000       0.00000000       0.50000000 </v>
   <v>       0.25000000       0.25000000       0.50000000 </v>
   <v>       0.25000000       0.00000000       0.75000000 </v>
   <v>       0.00000000       0.25000000       0.75000000 </v>
   <v>       0.00000000       0.50000000       0.00000000 </v>
   <v>       0.25000000       0.75000000       0.00000000 </v>
   <v>       0.25000000       0.50000000       0.25000000 </v>
   <v>       0.00000000       0.75000000       0.25000000 </v>
   <v>       0.00000000       0.50000000       0.50000000 </v>
   <v>       0.25000000       0.75000000       0.50000000 </v>
   <v>       0.25000000       0.50000000       0.75000000 </v>
   <v>       0.00000000       0.75000000       0.75000000 </v>
   <v>       0.50000000       0.00000000       0.00000000 </v>
   <v>       0.75000000       0.25000000       0.00000000 </v>
   <v>       0.75000000       0.00000000       0.25000000 </v>
   <v>       0.50000000       0.25000000       0.25000000 </v>
   <v>       0.50000000       0.00000000       0.50000000 </v>
   <v>       0.75000000       0.25000000       0.50000000 </v>
   <v>       0.75000000       0.00000000       0.75000000 </v>
   <v>       0.50000000       0.25000000       0.75000000 </v>
   <v>       0.50000000       0.50000000       0.00000000 </v>
   <v>       0.75000000       0.75000000       0.00000000 </v>
   <v>       0.75000000       0.50000000       0.25000000 </v>
   <v>       0.50000000       0.75000000       0.25000000 </v>
   <v>       0.50000000       0.50000000       0.50000000 </v>
   <v>       0.75000000       0.75000000       0.50000000 </v>
   <v>       0.75000000       0.50000000       0.75000000 </v>
   <v>       0.50000000       0.75000000       0.75000000 </v>
   <v>       0.25000000       0.25000000       0.25000000 </v>
   <v>       0.00000000       0.00000000       0.25000000 </v>
   <v>       0.00000000       0.25000000       0.00000000 </v>
   <v>       0.25000000       0.00000000       0.00000000 </v>
   <v>       0.25000000       0.25000000       0.75000000 </v>
   <v>       0.00000000       0.00000000       0.75000000 </v>
   <v>       0.00000000       0.25000000       0.50000000 </v>
   <v>       0.25000000       0.00000000       0.50000000 </v>
   <v>       0.25000000       0.75000000       0.25000000 </v>
   <v>       0.00000000       0.50000000       0.25000000 </v>
   <v>       0.00000000       0.75000000       0.00000000 </v>
   <v>       0.25000000       0.50000000       0.00000000 </v>
   <v>       0.25000000       0.75000000       0.75000000 </v>
   <v>       0.00000000       0.50000000       0.75000000 </v>
   <v>       0.00000000       0.75000000       0.50000000 </v>
   <v>       0.25000000       0.50000000       0.50000000 </v>
   <v>       0.75000000       0.25000000       0.25000000 </v>
   <v>       0.50000000       0.00000000       0.25000000 </v>
   <v>       0.50000000       0.25000000       0.00000000 </v>
   <v>       0.75000000       0.00000000       0.00000000 </v>
   <v>       0.75000000       0.25000000       0.75000000 </v>
   <v>       0.50000000       0.00000000       0.75000000 </v>
   <v>       0.50000000       0.25000000       0.50000000 </v>
   <v>       0.75000000       0.00000000       0.50000000 </v>
   <v>       0.75000000       0.75000000       0.25000000 </v>
   <v>       0.50000000       0.50000000       0.25000000 </v>
   <v>       0.50000000       0.75000000       0.00000000 </v>
   <v>       0.75000000       0.50000000       0.00000000 </v>
   <v>       0.75000000       0.75000000       0.75000000 </v>
   <v>       0.50000000       0.50000000       0.75000000 </v>
   <v>       0.50000000       0.75000000       0.50000000 </v>
   <v>       0.75000000       0.50000000       0.50000000 </v>
  </varray>
 </structure>
</modeling>
