  64  64   0   0
  0.2197554E+02  0.1120400E-08  0.1120400E-08  0.1120400E-08  0.5000000E-15
  1.000000000000000E-004
  CAR 
 unknown system                          
     11.04627761    -22.84986326  301     -0.56315064      1.00000000
    -22.850  0.0000E+00  0.0000E+00
    -22.737  0.0000E+00  0.0000E+00
    -22.624  0.0000E+00  0.0000E+00
    -22.511  0.0000E+00  0.0000E+00
    -22.398  0.0000E+00  0.0000E+00
    -22.285  0.0000E+00  0.0000E+00
    -22.172  0.0000E+00  0.0000E+00
    -22.059  0.0000E+00  0.0000E+00
    -21.946  0.0000E+00  0.0000E+00
    -21.833  0.0000E+00  0.0000E+00
    -21.720  0.0000E+00  0.0000E+00
    -21.607  0.0000E+00  0.0000E+00
    -21.494  0.0000E+00  0.0000E+00
    -21.381  0.6854E-05  0.7744E-06
    -21.268  0.1305E+04  0.1474E+03
    -21.155  0.3943E+03  0.1920E+03
    -21.042  0.0000E+00  0.1920E+03
    -20.929  0.0000E+00  0.1920E+03
    -20.816  0.0000E+00  0.1920E+03
    -20.703  0.0000E+00  0.1920E+03
    -20.590  0.0000E+00  0.1920E+03
    -20.477  0.0000E+00  0.1920E+03
    -20.364  0.0000E+00  0.1920E+03
    -20.251  0.0000E+00  0.1920E+03
    -20.138  0.0000E+00  0.1920E+03
    -20.025  0.0000E+00  0.1920E+03
    -19.912  0.0000E+00  0.1920E+03
    -19.799  0.0000E+00  0.1920E+03
    -19.686  0.0000E+00  0.1920E+03
    -19.573  0.0000E+00  0.1920E+03
    -19.460  0.0000E+00  0.1920E+03
    -19.347  0.0000E+00  0.1920E+03
    -19.234  0.0000E+00  0.1920E+03
    -19.121  0.0000E+00  0.1920E+03
    -19.008  0.0000E+00  0.1920E+03
    -18.895  0.0000E+00  0.1920E+03
    -18.782  0.0000E+00  0.1920E+03
    -18.669  0.0000E+00  0.1920E+03
    -18.556  0.0000E+00  0.1920E+03
    -18.443  0.0000E+00  0.1920E+03
    -18.330  0.0000E+00  0.1920E+03
    -18.217  0.0000E+00  0.1920E+03
    -18.104  0.0000E+00  0.1920E+03
    -17.991  0.0000E+00  0.1920E+03
    -17.878  0.0000E+00  0.1920E+03
    -17.765  0.0000E+00  0.1920E+03
    -17.652  0.0000E+00  0.1920E+03
    -17.539  0.0000E+00  0.1920E+03
    -17.426  0.0000E+00  0.1920E+03
    -17.313  0.0000E+00  0.1920E+03
    -17.201  0.0000E+00  0.1920E+03
    -17.088  0.0000E+00  0.1920E+03
    -16.975  0.0000E+00  0.1920E+03
    -16.862  0.0000E+00  0.1920E+03
    -16.749  0.0000E+00  0.1920E+03
    -16.636  0.0000E+00  0.1920E+03
    -16.523  0.0000E+00  0.1920E+03
    -16.410  0.0000E+00  0.1920E+03
    -16.297  0.0000E+00  0.1920E+03
    -16.184  0.0000E+00  0.1920E+03
    -16.071  0.0000E+00  0.1920E+03
    -15.958  0.0000E+00  0.1920E+03
    -15.845  0.0000E+00  0.1920E+03
    -15.732  0.0000E+00  0.1920E+03
    -15.619  0.0000E+00  0.1920E+03
    -15.506  0.0000E+00  0.1920E+03
    -15.393  0.0000E+00  0.1920E+03
    -15.280  0.0000E+00  0.1920E+03
    -15.167  0.0000E+00  0.1920E+03
    -15.054  0.0000E+00  0.1920E+03
    -14.941  0.0000E+00  0.1920E+03
    -14.828  0.0000E+00  0.1920E+03
    -14.715  0.0000E+00  0.1920E+03
    -14.602  0.0000E+00  0.1920E+03
    -14.489  0.0000E+00  0.1920E+03
    -14.376  0.0000E+00  0.1920E+03
    -14.263  0.0000E+00  0.1920E+03
    -14.150  0.0000E+00  0.1920E+03
    -14.037  0.0000E+00  0.1920E+03
    -13.924  0.0000E+00  0.1920E+03
    -13.811  0.0000E+00  0.1920E+03
    -13.698  0.0000E+00  0.1920E+03
    -13.585  0.0000E+00  0.1920E+03
    -13.472  0.8598E-15  0.1920E+03
    -13.359  0.1053E+01  0.1921E+03
    -13.246  0.1877E+02  0.1942E+03
    -13.133  0.4859E+02  0.1997E+03
    -13.020  0.1243E+03  0.2138E+03
    -12.907  0.3679E+03  0.2553E+03
    -12.794  0.5856E+01  0.2560E+03
    -12.681  0.0000E+00  0.2560E+03
    -12.568  0.0000E+00  0.2560E+03
    -12.455  0.0000E+00  0.2560E+03
    -12.342  0.0000E+00  0.2560E+03
    -12.229  0.0000E+00  0.2560E+03
    -12.116  0.0000E+00  0.2560E+03
    -12.003  0.0000E+00  0.2560E+03
    -11.890  0.0000E+00  0.2560E+03
    -11.777  0.0000E+00  0.2560E+03
    -11.664  0.0000E+00  0.2560E+03
    -11.551  0.0000E+00  0.2560E+03
    -11.438  0.0000E+00  0.2560E+03
    -11.325  0.0000E+00  0.2560E+03
    -11.212  0.0000E+00  0.2560E+03
    -11.099  0.0000E+00  0.2560E+03
    -10.986  0.0000E+00  0.2560E+03
    -10.873  0.0000E+00  0.2560E+03
    -10.760  0.0000E+00  0.2560E+03
    -10.647  0.0000E+00  0.2560E+03
    -10.534  0.0000E+00  0.2560E+03
    -10.421  0.0000E+00  0.2560E+03
    -10.308  0.0000E+00  0.2560E+03
    -10.195  0.0000E+00  0.2560E+03
    -10.082  0.0000E+00  0.2560E+03
     -9.969  0.0000E+00  0.2560E+03
     -9.856  0.0000E+00  0.2560E+03
     -9.743  0.0000E+00  0.2560E+03
     -9.630  0.0000E+00  0.2560E+03
     -9.517  0.0000E+00  0.2560E+03
     -9.404  0.0000E+00  0.2560E+03
     -9.291  0.0000E+00  0.2560E+03
     -9.178  0.0000E+00  0.2560E+03
     -9.065  0.0000E+00  0.2560E+03
     -8.952  0.0000E+00  0.2560E+03
     -8.839  0.0000E+00  0.2560E+03
     -8.726  0.0000E+00  0.2560E+03
     -8.613  0.0000E+00  0.2560E+03
     -8.500  0.0000E+00  0.2560E+03
     -8.388  0.0000E+00  0.2560E+03
     -8.275  0.0000E+00  0.2560E+03
     -8.162  0.0000E+00  0.2560E+03
     -8.049  0.0000E+00  0.2560E+03
     -7.936  0.0000E+00  0.2560E+03
     -7.823  0.0000E+00  0.2560E+03
     -7.710  0.0000E+00  0.2560E+03
     -7.597  0.0000E+00  0.2560E+03
     -7.484  0.0000E+00  0.2560E+03
     -7.371  0.0000E+00  0.2560E+03
     -7.258  0.0000E+00  0.2560E+03
     -7.145  0.0000E+00  0.2560E+03
     -7.032  0.0000E+00  0.2560E+03
     -6.919  0.0000E+00  0.2560E+03
     -6.806  0.0000E+00  0.2560E+03
     -6.693  0.0000E+00  0.2560E+03
     -6.580  0.0000E+00  0.2560E+03
     -6.467  0.0000E+00  0.2560E+03
     -6.354  0.0000E+00  0.2560E+03
     -6.241  0.0000E+00  0.2560E+03
     -6.128  0.0000E+00  0.2560E+03
     -6.015  0.0000E+00  0.2560E+03
     -5.902  0.0000E+00  0.2560E+03
     -5.789  0.0000E+00  0.2560E+03
     -5.676  0.0000E+00  0.2560E+03
     -5.563  0.0000E+00  0.2560E+03
     -5.450  0.0000E+00  0.2560E+03
     -5.337  0.0000E+00  0.2560E+03
     -5.224  0.0000E+00  0.2560E+03
     -5.111  0.0000E+00  0.2560E+03
     -4.998  0.0000E+00  0.2560E+03
     -4.885  0.0000E+00  0.2560E+03
     -4.772  0.0000E+00  0.2560E+03
     -4.659  0.0000E+00  0.2560E+03
     -4.546  0.0000E+00  0.2560E+03
     -4.433  0.0000E+00  0.2560E+03
     -4.320  0.0000E+00  0.2560E+03
     -4.207  0.0000E+00  0.2560E+03
     -4.094  0.0000E+00  0.2560E+03
     -3.981  0.0000E+00  0.2560E+03
     -3.868  0.0000E+00  0.2560E+03
     -3.755  0.0000E+00  0.2560E+03
     -3.642  0.0000E+00  0.2560E+03
     -3.529  0.0000E+00  0.2560E+03
     -3.416  0.0000E+00  0.2560E+03
     -3.303  0.0000E+00  0.2560E+03
     -3.190  0.0000E+00  0.2560E+03
     -3.077  0.0000E+00  0.2560E+03
     -2.964  0.0000E+00  0.2560E+03
     -2.851  0.0000E+00  0.2560E+03
     -2.738  0.3095E-01  0.2560E+03
     -2.625  0.8820E+01  0.2570E+03
     -2.512  0.1554E+02  0.2588E+03
     -2.399  0.8820E+02  0.2687E+03
     -2.286  0.7951E+02  0.2777E+03
     -2.173  0.1583E+03  0.2956E+03
     -2.060  0.7659E+02  0.3043E+03
     -1.947  0.5444E+02  0.3104E+03
     -1.834  0.5511E+02  0.3166E+03
     -1.721  0.8074E+02  0.3257E+03
     -1.608  0.7725E-11  0.3258E+03
     -1.495  0.4887E+02  0.3313E+03
     -1.382  0.2113E+03  0.3551E+03
     -1.269  0.3148E+02  0.3587E+03
     -1.156  0.2383E+03  0.3856E+03
     -1.043  0.1491E+03  0.4025E+03
     -0.930  0.2448E+03  0.4301E+03
     -0.817  0.7367E+02  0.4385E+03
     -0.704  0.7753E+02  0.4472E+03
     -0.591  0.6825E+01  0.4480E+03
     -0.478  0.0000E+00  0.4480E+03
     -0.365  0.0000E+00  0.4480E+03
     -0.252  0.0000E+00  0.4480E+03
     -0.139  0.0000E+00  0.4480E+03
     -0.026  0.0000E+00  0.4480E+03
      0.087  0.0000E+00  0.4480E+03
      0.200  0.0000E+00  0.4480E+03
      0.312  0.0000E+00  0.4480E+03
      0.425  0.0000E+00  0.4480E+03
      0.538  0.0000E+00  0.4480E+03
      0.651  0.0000E+00  0.4480E+03
      0.764  0.0000E+00  0.4480E+03
      0.877  0.0000E+00  0.4480E+03
      0.990  0.0000E+00  0.4480E+03
      1.103  0.0000E+00  0.4480E+03
      1.216  0.0000E+00  0.4480E+03
      1.329  0.0000E+00  0.4480E+03
      1.442  0.0000E+00  0.4480E+03
      1.555  0.0000E+00  0.4480E+03
      1.668  0.0000E+00  0.4480E+03
      1.781  0.0000E+00  0.4480E+03
      1.894  0.0000E+00  0.4480E+03
      2.007  0.0000E+00  0.4480E+03
      2.120  0.0000E+00  0.4480E+03
      2.233  0.0000E+00  0.4480E+03
      2.346  0.0000E+00  0.4480E+03
      2.459  0.0000E+00  0.4480E+03
      2.572  0.0000E+00  0.4480E+03
      2.685  0.0000E+00  0.4480E+03
      2.798  0.0000E+00  0.4480E+03
      2.911  0.0000E+00  0.4480E+03
      3.024  0.0000E+00  0.4480E+03
      3.137  0.0000E+00  0.4480E+03
      3.250  0.0000E+00  0.4480E+03
      3.363  0.0000E+00  0.4480E+03
      3.476  0.0000E+00  0.4480E+03
      3.589  0.0000E+00  0.4480E+03
      3.702  0.0000E+00  0.4480E+03
      3.815  0.0000E+00  0.4480E+03
      3.928  0.0000E+00  0.4480E+03
      4.041  0.0000E+00  0.4480E+03
      4.154  0.0000E+00  0.4480E+03
      4.267  0.2483E-06  0.4480E+03
      4.380  0.2207E+01  0.4482E+03
      4.493  0.5455E-02  0.4482E+03
      4.606  0.0000E+00  0.4482E+03
      4.719  0.0000E+00  0.4482E+03
      4.832  0.0000E+00  0.4482E+03
      4.945  0.4463E-06  0.4483E+03
      5.058  0.1319E+02  0.4497E+03
      5.171  0.8547E-01  0.4498E+03
      5.284  0.0000E+00  0.4498E+03
      5.397  0.0000E+00  0.4498E+03
      5.510  0.5856E+00  0.4498E+03
      5.623  0.2597E+02  0.4527E+03
      5.736  0.1149E-08  0.4528E+03
      5.849  0.1552E+02  0.4545E+03
      5.962  0.2185E+01  0.4548E+03
      6.075  0.0000E+00  0.4548E+03
      6.188  0.0000E+00  0.4548E+03
      6.301  0.3349E-04  0.4548E+03
      6.414  0.1339E+02  0.4563E+03
      6.527  0.8735E+01  0.4572E+03
      6.640  0.2760E+02  0.4604E+03
      6.753  0.7807E+02  0.4692E+03
      6.866  0.5700E+02  0.4756E+03
      6.979  0.1260E+02  0.4771E+03
      7.092  0.3954E+01  0.4775E+03
      7.205  0.2928E+01  0.4778E+03
      7.318  0.3735E+01  0.4783E+03
      7.431  0.7903E+02  0.4872E+03
      7.544  0.1623E+03  0.5055E+03
      7.657  0.1085E+02  0.5068E+03
      7.770  0.2655E+02  0.5097E+03
      7.883  0.1321E-01  0.5098E+03
      7.996  0.5309E+02  0.5157E+03
      8.109  0.2584E-03  0.5158E+03
      8.222  0.1335E+02  0.5173E+03
      8.335  0.9271E+02  0.5277E+03
      8.448  0.1470E+00  0.5278E+03
      8.561  0.1292E+03  0.5423E+03
      8.674  0.3010E+02  0.5457E+03
      8.787  0.6971E-08  0.5458E+03
      8.900  0.6536E+02  0.5531E+03
      9.013  0.1303E+03  0.5679E+03
      9.125  0.1449E+02  0.5695E+03
      9.238  0.1259E+02  0.5709E+03
      9.351  0.3166E+02  0.5745E+03
      9.464  0.4763E+00  0.5746E+03
      9.577  0.1280E+02  0.5760E+03
      9.690  0.0000E+00  0.5760E+03
      9.803  0.0000E+00  0.5760E+03
      9.916  0.0000E+00  0.5760E+03
     10.029  0.0000E+00  0.5760E+03
     10.142  0.0000E+00  0.5760E+03
     10.255  0.0000E+00  0.5760E+03
     10.368  0.0000E+00  0.5760E+03
     10.481  0.0000E+00  0.5760E+03
     10.594  0.0000E+00  0.5760E+03
     10.707  0.0000E+00  0.5760E+03
     10.820  0.0000E+00  0.5760E+03
     10.933  0.0000E+00  0.5760E+03
     11.046  0.0000E+00  0.5760E+03
