       N       E                     dE             d eps       ncg     rms          rms(c)
DAV:   1     0.431678165468E+04    0.43168E+04   -0.17182E+05  3456   0.125E+03
DAV:   2     0.363386208413E+03   -0.39534E+04   -0.37615E+04  3840   0.367E+02
DAV:   3    -0.206229137495E+03   -0.56962E+03   -0.56538E+03  4224   0.156E+02
DAV:   4    -0.228193992940E+03   -0.21965E+02   -0.21867E+02  4160   0.331E+01
DAV:   5    -0.229004549611E+03   -0.81056E+00   -0.80915E+00  4320   0.616E+00    0.106E+01
DAV:   6    -0.224138552369E+03    0.48660E+01   -0.94801E+00  4288   0.530E+00    0.776E+00
DAV:   7    -0.223777367406E+03    0.36118E+00   -0.20681E+00  4704   0.235E+00    0.533E+00
DAV:   8    -0.223902662755E+03   -0.12530E+00   -0.26673E-01  4000   0.124E+00    0.142E+00
DAV:   9    -0.223897128244E+03    0.55345E-02   -0.11285E-02  4256   0.260E-01    0.608E-01
DAV:  10    -0.223901397419E+03   -0.42692E-02   -0.18498E-02  4032   0.231E-01    0.287E-01
DAV:  11    -0.223900667721E+03    0.72970E-03   -0.16046E-03  4512   0.837E-02    0.883E-02
DAV:  12    -0.223900630451E+03    0.37270E-04   -0.13890E-04  4448   0.231E-02    0.195E-02
DAV:  13    -0.223900628018E+03    0.24329E-05   -0.27052E-05  4160   0.872E-03    0.356E-03
DAV:  14    -0.223900629448E+03   -0.14292E-05   -0.24014E-06  4096   0.369E-03    0.855E-03
DAV:  15    -0.223900630611E+03   -0.11631E-05   -0.36286E-07  4128   0.166E-03    0.380E-03
DAV:  16    -0.223900631130E+03   -0.51972E-06   -0.14443E-07  4192   0.848E-04    0.954E-04
DAV:  17    -0.223900631186E+03   -0.55246E-07   -0.10040E-08  2752   0.607E-04    0.361E-04
DAV:  18    -0.223900631328E+03   -0.14263E-06   -0.14331E-08  2880   0.568E-04    0.502E-04
DAV:  19    -0.223900631311E+03    0.17499E-07   -0.58965E-09  2272   0.250E-04    0.439E-04
DAV:  20    -0.223900631233E+03    0.78297E-07   -0.24965E-09  2400   0.286E-04    0.155E-04
DAV:  21    -0.223900631205E+03    0.27743E-07   -0.21319E-09  2240   0.153E-04    0.111E-04
DAV:  22    -0.223900631208E+03   -0.30268E-08   -0.86248E-10  2304   0.113E-04
   1 F= -.22390063E+03 E0= -.22390063E+03  d E =-.252913E-13
