 vasp.6.3.2 27Jun22 (build Oct 14 2022 12:13:54) complex                        
  
 executed on             LinuxIFC date 2025.08.28  22:00:53
 running on   32 total cores
 distrk:  each k-point on   32 cores,    1 groups
 distr:  one band on NCORE=   1 cores,   32 groups


--------------------------------------------------------------------------------------------------------


 INCAR:
   ENCUT = 341.213600
   SIGMA = 0.020000
   EDIFF = 1.00e-08
   GGA = PS
   PREC = Accurate
   IALGO = 38
   IBRION = -1
   ISMEAR = 0
   NELMIN = 5
   ADDGRID = .TRUE.
   LCHARG = .FALSE.
   LWAVE = .FALSE.
   LREAL = .FALSE.

 POTCAR:    PAW_PBE Na_pv 19Sep2006               
 POTCAR:    PAW_PBE Cl 06Sep2000                  
 -----------------------------------------------------------------------------
|                                                                             |
|           W    W    AA    RRRRR   N    N  II  N    N   GGGG   !!!           |
|           W    W   A  A   R    R  NN   N  II  NN   N  G    G  !!!           |
|           W    W  A    A  R    R  N N  N  II  N N  N  G       !!!           |
|           W WW W  AAAAAA  RRRRR   N  N N  II  N  N N  G  GGG   !            |
|           WW  WW  A    A  R   R   N   NN  II  N   NN  G    G                |
|           W    W  A    A  R    R  N    N  II  N    N   GGGG   !!!           |
|                                                                             |
|     For optimal performance we recommend to set                             |
|       NCORE = 2 up to number-of-cores-per-socket                            |
|     NCORE specifies how many cores store one orbital (NPAR=cpu/NCORE).      |
|     This setting can greatly improve the performance of VASP for DFT.       |
|     The default, NCORE=1 might be grossly inefficient on modern             |
|     multi-core architectures or massively parallel machines. Do your        |
|     own testing! More info at https://www.vasp.at/wiki/index.php/NCORE      |
|     Unfortunately you need to use the default for GW and RPA                |
|     calculations (for HF NCORE is supported but not extensively tested      |
|     yet).                                                                   |
|                                                                             |
 -----------------------------------------------------------------------------

 POTCAR:    PAW_PBE Na_pv 19Sep2006               
   SHA256 =  6a2f546d9e11350984debacf3dc457d8cffc0868e817d445faca461816a32b94 Na_pv/POTCAR          
   COPYR  = (c) Copyright 19Sep2006 Georg Kresse                                                    
   COPYR  = This file is part of the software VASP. Any use, copying, and all other rights are regul
   COPYR  = If you do not have a valid VASP license, you may not use, copy or distribute this file. 
   VRHFIN =Na: p6s1                                                                                 
   LEXCH  = PE                                                                                      
   EATOM  =   766.0439 eV,   56.3026 Ry                                                             
                                                                                                    
   TITEL  = PAW_PBE Na_pv 19Sep2006                                                                 
   LULTRA =        F    use ultrasoft PP ?                                                          
   IUNSCR =        1    unscreen: 0-lin 1-nonlin 2-no                                               
   RPACOR =    1.800    partial core radius                                                         
   POMASS =   22.990; ZVAL   =    7.000    mass and valenz                                          
   RCORE  =    2.200    outmost cutoff radius                                                       
   RWIGS  =    2.200; RWIGS  =    1.164    wigner-seitz radius (au A)                               
   ENMAX  =  259.561; ENMIN  =  194.671 eV                                                          
   ICORE  =        2    local potential                                                             
   LCOR   =        T    correct aug charges                                                         
   LPAW   =        T    paw PP                                                                      
   EAUG   =  368.056                                                                                
   DEXC   =    0.000                                                                                
   RMAX   =    2.245    core radius for proj-oper                                                   
   RAUG   =    1.300    factor for augmentation sphere                                              
   RDEP   =    2.259    radius for radial grids                                                     
   RDEPT  =    1.738    core radius for aug-charge                                                  
                                                                                                    
   Atomic configuration                                                                             
    5 entries                                                                                       
     n  l   j            E        occ.                                                              
     1  0  0.50     -1033.6933   2.0000                                                             
     2  0  0.50       -56.7526   2.0000                                                             
     2  1  1.50       -28.6721   6.0000                                                             
     3  0  0.50        -2.7440   1.0000                                                             
     3  2  1.50        -1.3606   0.0000                                                             
   Description                                                                                      
     l       E           TYP  RCUT    TYP  RCUT                                                     
     1    -28.6720912     23  2.000                                                                 
     1      6.8029130     23  2.000                                                                 
     0     -2.7439560     23  2.200                                                                 
     0     34.0145650     23  2.200                                                                 
     2     -1.3605826     23  2.200                                                                 
  local pseudopotential read in
  partial core-charges read in
  partial kinetic energy density read in
  atomic valenz-charges read in
  non local Contribution for L=           1  read in
    real space projection operators read in
  non local Contribution for L=           1  read in
    real space projection operators read in
  non local Contribution for L=           0  read in
    real space projection operators read in
  non local Contribution for L=           0  read in
    real space projection operators read in
    PAW grid and wavefunctions read in
 
   number of l-projection  operators is LMAX  =           4
   number of lm-projection operators is LMMAX =           8
 
 POTCAR:    PAW_PBE Cl 06Sep2000                  
   SHA256 =  9f1b6e6ed4247ac726a768b330d26d7667cc3c95a39ff49c1d064c2d9dcce931 Cl/POTCAR             
   COPYR  = (c) Copyright 06Sep2000 Georg Kresse                                                    
   COPYR  = This file is part of the software VASP. Any use, copying, and all other rights are regul
   COPYR  = If you do not have a valid VASP license, you may not use, copy or distribute this file. 
   VRHFIN =Cl: s2p5                                                                                 
   LEXCH  = PE                                                                                      
   EATOM  =   409.7259 eV,   30.1140 Ry                                                             
                                                                                                    
   TITEL  = PAW_PBE Cl 06Sep2000                                                                    
   LULTRA =        F    use ultrasoft PP ?                                                          
   IUNSCR =        1    unscreen: 0-lin 1-nonlin 2-no                                               
   RPACOR =    1.500    partial core radius                                                         
   POMASS =   35.453; ZVAL   =    7.000    mass and valenz                                          
   RCORE  =    1.900    outmost cutoff radius                                                       
   RWIGS  =    2.100; RWIGS  =    1.111    wigner-seitz radius (au A)                               
   ENMAX  =  262.472; ENMIN  =  196.854 eV                                                          
   ICORE  =        2    local potential                                                             
   LCOR   =        T    correct aug charges                                                         
   LPAW   =        T    paw PP                                                                      
   EAUG   =  356.192                                                                                
   DEXC   =    0.000                                                                                
   RMAX   =    1.945    core radius for proj-oper                                                   
   RAUG   =    1.300    factor for augmentation sphere                                              
   RDEP   =    2.020    radius for radial grids                                                     
   RDEPT  =    1.678    core radius for aug-charge                                                  
                                                                                                    
   Atomic configuration                                                                             
    6 entries                                                                                       
     n  l   j            E        occ.                                                              
     1  0  0.50     -2751.1850   2.0000                                                             
     2  0  0.50      -252.6861   2.0000                                                             
     2  1  1.50      -191.6157   6.0000                                                             
     3  0  0.50       -20.6916   2.0000                                                             
     3  1  0.50        -8.5949   5.0000                                                             
     3  2  1.50        -8.1635   0.0000                                                             
   Description                                                                                      
     l       E           TYP  RCUT    TYP  RCUT                                                     
     0    -20.6915656     23  1.900                                                                 
     0    -22.0521482     23  1.900                                                                 
     1     -8.5948577     23  1.900                                                                 
     1     -5.3847331     23  1.900                                                                 
     2     -8.1634956     23  1.900                                                                 
  local pseudopotential read in
  partial core-charges read in
  partial kinetic energy density read in
  atomic valenz-charges read in
  non local Contribution for L=           0  read in
    real space projection operators read in
  non local Contribution for L=           0  read in
    real space projection operators read in
  non local Contribution for L=           1  read in
    real space projection operators read in
  non local Contribution for L=           1  read in
    real space projection operators read in
    PAW grid and wavefunctions read in
 
   number of l-projection  operators is LMAX  =           4
   number of lm-projection operators is LMMAX =           8
 
 -----------------------------------------------------------------------------
|                                                                             |
|               ----> ADVICE to this user running VASP <----                  |
|                                                                             |
|     You have a (more or less) 'large supercell' and for larger cells it     |
|     might be more efficient to use real-space projection operators.         |
|     Therefore, try LREAL= Auto in the INCAR file.                           |
|     Mind: For very accurate calculation, you might also keep the            |
|     reciprocal projection scheme (i.e. LREAL=.FALSE.).                      |
|                                                                             |
 -----------------------------------------------------------------------------

 -----------------------------------------------------------------------------
|                                                                             |
|               ----> ADVICE to this user running VASP <----                  |
|                                                                             |
|     You enforced a specific xc type in the INCAR file but a different       |
|     type was found in the POTCAR file.                                      |
|     I HOPE YOU KNOW WHAT YOU ARE DOING!                                     |
|                                                                             |
 -----------------------------------------------------------------------------

  PAW_PBE Na_pv 19Sep2006               :
 energy of atom  1       EATOM= -766.0439
 kinetic energy error for atom=    0.0189 (will be added to EATOM!!)
  PAW_PBE Cl 06Sep2000                  :
 energy of atom  2       EATOM= -409.7259
 kinetic energy error for atom=    0.0106 (will be added to EATOM!!)
 
 
 POSCAR: Na Cl
  positions in cartesian coordinates
  No initial velocities read in
 exchange correlation table for  LEXCH =       14
   RHO(1)=    0.500       N(1)  =     2000
   RHO(2)=  100.500       N(2)  =     4000
 


--------------------------------------------------------------------------------------------------------


 ion  position               nearest neighbor table
   1  0.997  0.000  0.000-
   2  0.250  0.250  0.000-
   3  0.250  0.000  0.250-
   4  0.000  0.250  0.250-
   5  0.000  0.000  0.500-
   6  0.250  0.250  0.500-
   7  0.250  0.000  0.750-
   8  0.000  0.250  0.750-
   9  0.000  0.500  0.000-
  10  0.250  0.750  0.000-
  11  0.250  0.500  0.250-
  12  0.000  0.750  0.250-
  13  0.000  0.500  0.500-
  14  0.250  0.750  0.500-
  15  0.250  0.500  0.750-
  16  0.000  0.750  0.750-
  17  0.500  0.000  0.000-
  18  0.750  0.250  0.000-
  19  0.750  0.000  0.250-
  20  0.500  0.250  0.250-
  21  0.500  0.000  0.500-
  22  0.750  0.250  0.500-
  23  0.750  0.000  0.750-
  24  0.500  0.250  0.750-
  25  0.500  0.500  0.000-
  26  0.750  0.750  0.000-
  27  0.750  0.500  0.250-
  28  0.500  0.750  0.250-
  29  0.500  0.500  0.500-
  30  0.750  0.750  0.500-
  31  0.750  0.500  0.750-
  32  0.500  0.750  0.750-
  33  0.253  0.250  0.250-
  34  0.000  0.000  0.250-
  35  0.000  0.250  0.000-
  36  0.250  0.000  0.000-
  37  0.250  0.250  0.750-
  38  0.000  0.000  0.750-
  39  0.000  0.250  0.500-
  40  0.250  0.000  0.500-
  41  0.250  0.750  0.250-
  42  0.000  0.500  0.250-
  43  0.000  0.750  0.000-
  44  0.250  0.500  0.000-
  45  0.250  0.750  0.750-
  46  0.000  0.500  0.750-
  47  0.000  0.750  0.500-
  48  0.250  0.500  0.500-
  49  0.750  0.250  0.250-
  50  0.500  0.000  0.250-
  51  0.500  0.250  0.000-
  52  0.750  0.000  0.000-
  53  0.750  0.250  0.750-
  54  0.500  0.000  0.750-
  55  0.500  0.250  0.500-
  56  0.750  0.000  0.500-
  57  0.750  0.750  0.250-
  58  0.500  0.500  0.250-
  59  0.500  0.750  0.000-
  60  0.750  0.500  0.000-
  61  0.750  0.750  0.750-
  62  0.500  0.500  0.750-
  63  0.500  0.750  0.500-
  64  0.750  0.500  0.500-
 
  LATTYP: Found a simple cubic cell.
 ALAT       =    11.2040023600
  
  Lattice vectors:
  
 A1 = (  11.2040023600,   0.0000000000,   0.0000000000)
 A2 = (   0.0000000000,  11.2040023600,   0.0000000000)
 A3 = (   0.0000000000,   0.0000000000,  11.2040023600)


Analysis of symmetry for initial positions (statically):
=====================================================================
 Subroutine PRICEL returns:
 Original cell was already a primitive cell.
 

 Routine SETGRP: Setting up the symmetry group for a 
 simple cubic supercell.


 Subroutine GETGRP returns: Found  2 space group operations
 (whereof  2 operations were pure point group operations)
 out of a pool of 48 trial point group operations.


The static configuration has the point symmetry C_1h.


Analysis of symmetry for dynamics (positions and initial velocities):
=====================================================================
 Subroutine PRICEL returns:
 Original cell was already a primitive cell.
 

 Routine SETGRP: Setting up the symmetry group for a 
 simple cubic supercell.


 Subroutine GETGRP returns: Found  2 space group operations
 (whereof  2 operations were pure point group operations)
 out of a pool of 48 trial point group operations.


The dynamic configuration has the point symmetry C_1h.


 Subroutine INISYM returns: Found  2 space group operations
 (whereof  2 operations are pure point group operations),
 and found     1 'primitive' translations


----------------------------------------------------------------------------------------

                                     Primitive cell                                     

  volume of cell :    1406.4347

  direct lattice vectors                    reciprocal lattice vectors
    11.204002360  0.000000000  0.000000000     0.089253819  0.000000000  0.000000000
     0.000000000 11.204002360  0.000000000     0.000000000  0.089253819  0.000000000
     0.000000000  0.000000000 11.204002360     0.000000000  0.000000000  0.089253819

  length of vectors
    11.204002360 11.204002360 11.204002360     0.089253819  0.089253819  0.089253819

  position of ions in fractional coordinates (direct lattice)
     0.997322385  0.000000000  0.000000000
     0.250000000  0.250000000  0.000000000
     0.250000000  0.000000000  0.250000000
     0.000000000  0.250000000  0.250000000
     0.000000000  0.000000000  0.500000000
     0.250000000  0.250000000  0.500000000
     0.250000000  0.000000000  0.750000000
     0.000000000  0.250000000  0.750000000
     0.000000000  0.500000000  0.000000000
     0.250000000  0.750000000  0.000000000
     0.250000000  0.500000000  0.250000000
     0.000000000  0.750000000  0.250000000
     0.000000000  0.500000000  0.500000000
     0.250000000  0.750000000  0.500000000
     0.250000000  0.500000000  0.750000000
     0.000000000  0.750000000  0.750000000
     0.500000000  0.000000000  0.000000000
     0.750000000  0.250000000  0.000000000
     0.750000000  0.000000000  0.250000000
     0.500000000  0.250000000  0.250000000
     0.500000000  0.000000000  0.500000000
     0.750000000  0.250000000  0.500000000
     0.750000000  0.000000000  0.750000000
     0.500000000  0.250000000  0.750000000
     0.500000000  0.500000000  0.000000000
     0.750000000  0.750000000  0.000000000
     0.750000000  0.500000000  0.250000000
     0.500000000  0.750000000  0.250000000
     0.500000000  0.500000000  0.500000000
     0.750000000  0.750000000  0.500000000
     0.750000000  0.500000000  0.750000000
     0.500000000  0.750000000  0.750000000
     0.252677615  0.250000000  0.250000000
     0.000000000  0.000000000  0.250000000
     0.000000000  0.250000000  0.000000000
     0.250000000  0.000000000  0.000000000
     0.250000000  0.250000000  0.750000000
     0.000000000  0.000000000  0.750000000
     0.000000000  0.250000000  0.500000000
     0.250000000  0.000000000  0.500000000
     0.250000000  0.750000000  0.250000000
     0.000000000  0.500000000  0.250000000
     0.000000000  0.750000000  0.000000000
     0.250000000  0.500000000  0.000000000
     0.250000000  0.750000000  0.750000000
     0.000000000  0.500000000  0.750000000
     0.000000000  0.750000000  0.500000000
     0.250000000  0.500000000  0.500000000
     0.750000000  0.250000000  0.250000000
     0.500000000  0.000000000  0.250000000
     0.500000000  0.250000000  0.000000000
     0.750000000  0.000000000  0.000000000
     0.750000000  0.250000000  0.750000000
     0.500000000  0.000000000  0.750000000
     0.500000000  0.250000000  0.500000000
     0.750000000  0.000000000  0.500000000
     0.750000000  0.750000000  0.250000000
     0.500000000  0.500000000  0.250000000
     0.500000000  0.750000000  0.000000000
     0.750000000  0.500000000  0.000000000
     0.750000000  0.750000000  0.750000000
     0.500000000  0.500000000  0.750000000
     0.500000000  0.750000000  0.500000000
     0.750000000  0.500000000  0.500000000

  ion indices of the primitive-cell ions
   primitive index   ion index
                 1           1
                 2           2
                 3           3
                 4           4
                 5           5
                 6           6
                 7           7
                 8           8
                 9           9
                10          10
                11          11
                12          12
                13          13
                14          14
                15          15
                16          16
                17          17
                18          18
                19          19
                20          20
                21          21
                22          22
                23          23
                24          24
                25          25
                26          26
                27          27
                28          28
                29          29
                30          30
                31          31
                32          32
                33          33
                34          34
                35          35
                36          36
                37          37
                38          38
                39          39
                40          40
                41          41
                42          42
                43          43
                44          44
                45          45
                46          46
                47          47
                48          48
                49          49
                50          50
                51          51
                52          52
                53          53
                54          54
                55          55
                56          56
                57          57
                58          58
                59          59
                60          60
                61          61
                62          62
                63          63
                64          64

----------------------------------------------------------------------------------------

 
 
 KPOINTS: KPOINTS created by Atomic Simulation Env

Automatic generation of k-mesh.
 Grid dimensions read from file:
 generate k-points for:    2    2    2

 Generating k-lattice:

  Cartesian coordinates                     Fractional coordinates (reciprocal lattice)
     0.044626910  0.000000000  0.000000000     0.500000000  0.000000000  0.000000000
     0.000000000  0.044626910  0.000000000     0.000000000  0.500000000  0.000000000
     0.000000000  0.000000000  0.044626910     0.000000000  0.000000000  0.500000000

  Length of vectors
     0.044626910  0.044626910  0.044626910

  Shift w.r.t. Gamma in fractional coordinates (k-lattice)
     0.000000000  0.000000000  0.000000000

 
 Subroutine IBZKPT returns following result:
 ===========================================
 
 Found      6 irreducible k-points:
 
 Following reciprocal coordinates:
            Coordinates               Weight
  0.000000  0.000000  0.000000      1.000000
  0.500000  0.000000  0.000000      1.000000
  0.000000  0.500000  0.000000      2.000000
  0.500000  0.500000  0.000000      2.000000
  0.000000  0.500000  0.500000      1.000000
  0.500000  0.500000  0.500000      1.000000
 
 Following cartesian coordinates:
            Coordinates               Weight
  0.000000  0.000000  0.000000      1.000000
  0.044627  0.000000  0.000000      1.000000
  0.000000  0.044627  0.000000      2.000000
  0.044627  0.044627  0.000000      2.000000
  0.000000  0.044627  0.044627      1.000000
  0.044627  0.044627  0.044627      1.000000
 


--------------------------------------------------------------------------------------------------------




 Dimension of arrays:
   k-points           NKPTS =      6   k-points in BZ     NKDIM =      6   number of bands    NBANDS=    288
   number of dos      NEDOS =    301   number of ions     NIONS =     64
   non local maximal  LDIM  =      4   non local SUM 2l+1 LMDIM =      8
   total plane-waves  NPLWV = 343000
   max r-space proj   IRMAX =      1   max aug-charges    IRDMAX=  56280
   dimension x,y,z NGX =    70 NGY =   70 NGZ =   70
   dimension x,y,z NGXF=   140 NGYF=  140 NGZF=  140
   support grid    NGXF=   280 NGYF=  280 NGZF=  280
   ions per type =              32  32
   NGX,Y,Z   is equivalent  to a cutoff of  10.39, 10.39, 10.39 a.u.
   NGXF,Y,Z  is equivalent  to a cutoff of  20.77, 20.77, 20.77 a.u.

 SYSTEM =  unknown system                          
 POSCAR =  Na Cl                                   

 Startparameter for this run:
   NWRITE =      2    write-flag & timer
   PREC   = accura    normal or accurate (medium, high low for compatibility)
   ISTART =      0    job   : 0-new  1-cont  2-samecut
   ICHARG =      2    charge: 1-file 2-atom 10-const
   ISPIN  =      1    spin polarized calculation?
   LNONCOLLINEAR =      F non collinear calculations
   LSORBIT =      F    spin-orbit coupling
   INIWAV =      1    electr: 0-lowe 1-rand  2-diag
   LASPH  =      F    aspherical Exc in radial PAW
 Electronic Relaxation 1
   ENCUT  =  341.2 eV  25.08 Ry    5.01 a.u.  16.87 16.87 16.87*2*pi/ulx,y,z
   ENINI  =  341.2     initial cutoff
   ENAUG  =  368.1 eV  augmentation charge cutoff
   NELM   =     60;   NELMIN=  5; NELMDL= -5     # of ELM steps 
   EDIFF  = 0.1E-07   stopping-criterion for ELM
   LREAL  =      F    real-space projection
   NLSPLINE    = F    spline interpolate recip. space projectors
   LCOMPAT=      F    compatible to vasp.4.4
   GGA_COMPAT  = T    GGA compatible to vasp.4.4-vasp.4.6
   LMAXPAW     = -100 max onsite density
   LMAXMIX     =    2 max onsite mixed and CHGCAR
   VOSKOWN=      0    Vosko Wilk Nusair interpolation
   ROPT   =    0.00000   0.00000
 Ionic relaxation
   EDIFFG = 0.1E-06   stopping-criterion for IOM
   NSW    =      0    number of steps for IOM
   NBLOCK =      1;   KBLOCK =      1    inner block; outer block 
   IBRION =     -1    ionic relax: 0-MD 1-quasi-New 2-CG
   NFREE  =      0    steps in history (QN), initial steepest desc. (CG)
   ISIF   =      2    stress and relaxation
   IWAVPR =     10    prediction:  0-non 1-charg 2-wave 3-comb
   ISYM   =      2    0-nonsym 1-usesym 2-fastsym
   LCORR  =      T    Harris-Foulkes like correction to forces

   POTIM  = 0.5000    time-step for ionic-motion
   TEIN   =    0.0    initial temperature
   TEBEG  =    0.0;   TEEND  =   0.0 temperature during run
   SMASS  =  -3.00    Nose mass-parameter (am)
   estimated Nose-frequenzy (Omega)   =  0.10E-29 period in steps = 0.13E+47 mass=  -0.287E-26a.u.
   SCALEE = 1.0000    scale energy and forces
   NPACO  =    256;   APACO  = 10.0  distance and # of slots for P.C.
   PSTRESS=    0.0 pullay stress

  Mass of Ions in am
   POMASS =  22.99 35.45
  Ionic Valenz
   ZVAL   =   7.00  7.00
  Atomic Wigner-Seitz radii
   RWIGS  =  -1.00 -1.00
  virtual crystal weights 
   VCA    =   1.00  1.00
   NELECT =     448.0000    total number of electrons
   NUPDOWN=      -1.0000    fix difference up-down

 DOS related values:
   EMIN   =  10.00;   EMAX   =-10.00  energy-range for DOS
   EFERMI =   0.00
   ISMEAR =     0;   SIGMA  =   0.02  broadening in eV -4-tet -1-fermi 0-gaus

 Electronic relaxation 2 (details)
   IALGO  =     38    algorithm
   LDIAG  =      T    sub-space diagonalisation (order eigenvalues)
   LSUBROT=      F    optimize rotation matrix (better conditioning)
   TURBO    =      0    0=normal 1=particle mesh
   IRESTART =      0    0=no restart 2=restart with 2 vectors
   NREBOOT  =      0    no. of reboots
   NMIN     =      0    reboot dimension
   EREF     =   0.00    reference energy to select bands
   IMIX   =      4    mixing-type and parameters
     AMIX     =   0.40;   BMIX     =  1.00
     AMIX_MAG =   1.60;   BMIX_MAG =  1.00
     AMIN     =   0.10
     WC   =   100.;   INIMIX=   1;  MIXPRE=   1;  MAXMIX= -45

 Intra band minimization:
   WEIMIN = 0.0000     energy-eigenvalue tresh-hold
   EBREAK =  0.87E-11  absolut break condition
   DEPER  =   0.30     relativ break condition  

   TIME   =   0.40     timestep for ELM

  volume/ion in A,a.u.               =      21.98       148.30
  Fermi-wavevector in a.u.,A,eV,Ry     =   1.118049  2.112807 17.007750  1.250034
  Thomas-Fermi vector in A             =   2.254677
 
 Write flags
   LWAVE        =      F    write WAVECAR
   LDOWNSAMPLE  =      F    k-point downsampling of WAVECAR
   LCHARG       =      F    write CHGCAR
   LVTOT        =      F    write LOCPOT, total local potential
   LVHAR        =      F    write LOCPOT, Hartree potential only
   LELF         =      F    write electronic localiz. function (ELF)
   LORBIT       =      0    0 simple, 1 ext, 2 COOP (PROOUT), +10 PAW based schemes


 Dipole corrections
   LMONO  =      F    monopole corrections only (constant potential shift)
   LDIPOL =      F    correct potential (dipole corrections)
   IDIPOL =      0    1-x, 2-y, 3-z, 4-all directions 
   EPSILON=  1.0000000 bulk dielectric constant

 Exchange correlation treatment:
   GGA     =    PS    GGA type
   LEXCH   =    14    internal setting for exchange type
   LIBXC   =     F    Libxc                    
   VOSKOWN =     0    Vosko Wilk Nusair interpolation
   LHFCALC =     F    Hartree Fock is set to
   LHFONE  =     F    Hartree Fock one center treatment
   AEXX    =    0.0000 exact exchange contribution

 Linear response parameters
   LEPSILON=     F    determine dielectric tensor
   LRPA    =     F    only Hartree local field effects (RPA)
   LNABLA  =     F    use nabla operator in PAW spheres
   LVEL    =     F    velocity operator in full k-point grid
   CSHIFT  =0.1000    complex shift for real part using Kramers Kronig
   OMEGAMAX=  -1.0    maximum frequency
   DEG_THRESHOLD= 0.2000000E-02 threshold for treating states as degnerate
   RTIME   =   -0.100 relaxation time in fs
  (WPLASMAI=    0.000 imaginary part of plasma frequency in eV, 0.658/RTIME)
   DFIELD  = 0.0000000 0.0000000 0.0000000 field for delta impulse in time
 
  Optional k-point grid parameters
   LKPOINTS_OPT  =     F    use optional k-point grid
   KPOINTS_OPT_MODE=     1    mode for optional k-point grid
 
 Orbital magnetization related:
   ORBITALMAG=     F  switch on orbital magnetization
   LCHIMAG   =     F  perturbation theory with respect to B field
   DQ        =  0.001000  dq finite difference perturbation B field
   LLRAUG    =     F  two centre corrections for induced B field



--------------------------------------------------------------------------------------------------------


 Static calculation
 charge density and potential will be updated during run
 non-spin polarized calculation
 Variant of blocked Davidson
 Davidson routine will perform the subspace rotation
 perform sub-space diagonalisation
    after iterative eigenvector-optimisation
 modified Broyden-mixing scheme, WC =      100.0
 initial mixing is a Kerker type mixing with AMIX =  0.4000 and BMIX =      1.0000
 Hartree-type preconditioning will be used
 using additional bands           64
 reciprocal scheme for non local part
 use partial core corrections
 calculate Harris-corrections to forces 
   (improved forces if not selfconsistent)
 use gradient corrections 
 use of overlap-Matrix (Vanderbilt PP)
 Gauss-broadening in eV      SIGMA  =   0.02


--------------------------------------------------------------------------------------------------------


  energy-cutoff  :      341.21
  volume of cell :     1406.43
      direct lattice vectors                 reciprocal lattice vectors
    11.204002360  0.000000000  0.000000000     0.089253819  0.000000000  0.000000000
     0.000000000 11.204002360  0.000000000     0.000000000  0.089253819  0.000000000
     0.000000000  0.000000000 11.204002360     0.000000000  0.000000000  0.089253819

  length of vectors
    11.204002360 11.204002360 11.204002360     0.089253819  0.089253819  0.089253819


 
 k-points in units of 2pi/SCALE and weight: KPOINTS created by Atomic Simulation Env
   0.00000000  0.00000000  0.00000000       0.125
   0.04462691  0.00000000  0.00000000       0.125
   0.00000000  0.04462691  0.00000000       0.250
   0.04462691  0.04462691  0.00000000       0.250
   0.00000000  0.04462691  0.04462691       0.125
   0.04462691  0.04462691  0.04462691       0.125
 
 k-points in reciprocal lattice and weights: KPOINTS created by Atomic Simulation Env
   0.00000000  0.00000000  0.00000000       0.125
   0.50000000  0.00000000  0.00000000       0.125
   0.00000000  0.50000000  0.00000000       0.250
   0.50000000  0.50000000  0.00000000       0.250
   0.00000000  0.50000000  0.50000000       0.125
   0.50000000  0.50000000  0.50000000       0.125
 
 position of ions in fractional coordinates (direct lattice) 
   0.99732239  0.00000000  0.00000000
   0.25000000  0.25000000  0.00000000
   0.25000000  0.00000000  0.25000000
   0.00000000  0.25000000  0.25000000
   0.00000000  0.00000000  0.50000000
   0.25000000  0.25000000  0.50000000
   0.25000000  0.00000000  0.75000000
   0.00000000  0.25000000  0.75000000
   0.00000000  0.50000000  0.00000000
   0.25000000  0.75000000  0.00000000
   0.25000000  0.50000000  0.25000000
   0.00000000  0.75000000  0.25000000
   0.00000000  0.50000000  0.50000000
   0.25000000  0.75000000  0.50000000
   0.25000000  0.50000000  0.75000000
   0.00000000  0.75000000  0.75000000
   0.50000000  0.00000000  0.00000000
   0.75000000  0.25000000  0.00000000
   0.75000000  0.00000000  0.25000000
   0.50000000  0.25000000  0.25000000
   0.50000000  0.00000000  0.50000000
   0.75000000  0.25000000  0.50000000
   0.75000000  0.00000000  0.75000000
   0.50000000  0.25000000  0.75000000
   0.50000000  0.50000000  0.00000000
   0.75000000  0.75000000  0.00000000
   0.75000000  0.50000000  0.25000000
   0.50000000  0.75000000  0.25000000
   0.50000000  0.50000000  0.50000000
   0.75000000  0.75000000  0.50000000
   0.75000000  0.50000000  0.75000000
   0.50000000  0.75000000  0.75000000
   0.25267761  0.25000000  0.25000000
   0.00000000  0.00000000  0.25000000
   0.00000000  0.25000000  0.00000000
   0.25000000  0.00000000  0.00000000
   0.25000000  0.25000000  0.75000000
   0.00000000  0.00000000  0.75000000
   0.00000000  0.25000000  0.50000000
   0.25000000  0.00000000  0.50000000
   0.25000000  0.75000000  0.25000000
   0.00000000  0.50000000  0.25000000
   0.00000000  0.75000000  0.00000000
   0.25000000  0.50000000  0.00000000
   0.25000000  0.75000000  0.75000000
   0.00000000  0.50000000  0.75000000
   0.00000000  0.75000000  0.50000000
   0.25000000  0.50000000  0.50000000
   0.75000000  0.25000000  0.25000000
   0.50000000  0.00000000  0.25000000
   0.50000000  0.25000000  0.00000000
   0.75000000  0.00000000  0.00000000
   0.75000000  0.25000000  0.75000000
   0.50000000  0.00000000  0.75000000
   0.50000000  0.25000000  0.50000000
   0.75000000  0.00000000  0.50000000
   0.75000000  0.75000000  0.25000000
   0.50000000  0.50000000  0.25000000
   0.50000000  0.75000000  0.00000000
   0.75000000  0.50000000  0.00000000
   0.75000000  0.75000000  0.75000000
   0.50000000  0.50000000  0.75000000
   0.50000000  0.75000000  0.50000000
   0.75000000  0.50000000  0.50000000
 
 position of ions in cartesian coordinates  (Angst):
  11.17400236  0.00000000  0.00000000
   2.80100059  2.80100059  0.00000000
   2.80100059  0.00000000  2.80100059
   0.00000000  2.80100059  2.80100059
   0.00000000  0.00000000  5.60200118
   2.80100059  2.80100059  5.60200118
   2.80100059  0.00000000  8.40300177
   0.00000000  2.80100059  8.40300177
   0.00000000  5.60200118  0.00000000
   2.80100059  8.40300177  0.00000000
   2.80100059  5.60200118  2.80100059
   0.00000000  8.40300177  2.80100059
   0.00000000  5.60200118  5.60200118
   2.80100059  8.40300177  5.60200118
   2.80100059  5.60200118  8.40300177
   0.00000000  8.40300177  8.40300177
   5.60200118  0.00000000  0.00000000
   8.40300177  2.80100059  0.00000000
   8.40300177  0.00000000  2.80100059
   5.60200118  2.80100059  2.80100059
   5.60200118  0.00000000  5.60200118
   8.40300177  2.80100059  5.60200118
   8.40300177  0.00000000  8.40300177
   5.60200118  2.80100059  8.40300177
   5.60200118  5.60200118  0.00000000
   8.40300177  8.40300177  0.00000000
   8.40300177  5.60200118  2.80100059
   5.60200118  8.40300177  2.80100059
   5.60200118  5.60200118  5.60200118
   8.40300177  8.40300177  5.60200118
   8.40300177  5.60200118  8.40300177
   5.60200118  8.40300177  8.40300177
   2.83100059  2.80100059  2.80100059
   0.00000000  0.00000000  2.80100059
   0.00000000  2.80100059  0.00000000
   2.80100059  0.00000000  0.00000000
   2.80100059  2.80100059  8.40300177
   0.00000000  0.00000000  8.40300177
   0.00000000  2.80100059  5.60200118
   2.80100059  0.00000000  5.60200118
   2.80100059  8.40300177  2.80100059
   0.00000000  5.60200118  2.80100059
   0.00000000  8.40300177  0.00000000
   2.80100059  5.60200118  0.00000000
   2.80100059  8.40300177  8.40300177
   0.00000000  5.60200118  8.40300177
   0.00000000  8.40300177  5.60200118
   2.80100059  5.60200118  5.60200118
   8.40300177  2.80100059  2.80100059
   5.60200118  0.00000000  2.80100059
   5.60200118  2.80100059  0.00000000
   8.40300177  0.00000000  0.00000000
   8.40300177  2.80100059  8.40300177
   5.60200118  0.00000000  8.40300177
   5.60200118  2.80100059  5.60200118
   8.40300177  0.00000000  5.60200118
   8.40300177  8.40300177  2.80100059
   5.60200118  5.60200118  2.80100059
   5.60200118  8.40300177  0.00000000
   8.40300177  5.60200118  0.00000000
   8.40300177  8.40300177  8.40300177
   5.60200118  5.60200118  8.40300177
   5.60200118  8.40300177  5.60200118
   8.40300177  5.60200118  5.60200118
 


--------------------------------------------------------------------------------------------------------


 k-point   1 :   0.0000 0.0000 0.0000  plane waves:   20005
 k-point   2 :   0.5000 0.0000 0.0000  plane waves:   20138
 k-point   3 :   0.0000 0.5000 0.0000  plane waves:   20138
 k-point   4 :   0.5000 0.5000 0.0000  plane waves:   20160
 k-point   5 :   0.0000 0.5000 0.5000  plane waves:   20160
 k-point   6 :   0.5000 0.5000 0.5000  plane waves:   20336

 maximum and minimum number of plane-waves per node :     20336    20005

 maximum number of plane-waves:     20336
 maximum index in each direction: 
   IXMAX=   16   IYMAX=   16   IZMAX=   16
   IXMIN=  -17   IYMIN=  -17   IZMIN=  -17


 serial   3D FFT for wavefunctions
 parallel 3D FFT for charge:
    minimum data exchange during FFTs selected (reduces bandwidth)


 total amount of memory used by VASP MPI-rank0   118439. kBytes
=======================================================================

   base      :      30000. kBytes
   nonl-proj :      36470. kBytes
   fftplans  :      14405. kBytes
   grid      :      19342. kBytes
   one-center:        196. kBytes
   wavefun   :      18026. kBytes
 
     INWAV:  cpu time      0.0000: real time      0.0000
 Broyden mixing: mesh for mixing (old mesh)
   NGX = 33   NGY = 33   NGZ = 33
  (NGX  =140   NGY  =140   NGZ  =140)
  gives a total of  35937 points

 initial charge density was supplied:
 charge density of overlapping atoms calculated
 number of electron     448.0000000 magnetization 
 keeping initial charge density in first step


--------------------------------------------------------------------------------------------------------


 Maximum index for augmentation-charges         1834 (set IRDMAX)


--------------------------------------------------------------------------------------------------------


 First call to EWALD:  gamma=   0.158
 Maximum number of real-space cells 3x 3x 3
 Maximum number of reciprocal cells 3x 3x 3

    FEWALD:  cpu time      0.0014: real time      0.0014


--------------------------------------- Iteration      1(   1)  ---------------------------------------


    POTLOK:  cpu time      0.0426: real time      0.0434
    SETDIJ:  cpu time      0.0322: real time      0.0324
     EDDAV:  cpu time      7.0961: real time      7.1388
       DOS:  cpu time      0.0009: real time      0.0009
    --------------------------------------------
      LOOP:  cpu time      7.1718: real time      7.2154

 eigenvalue-minimisations  :  3456
 total energy-change (2. order) : 0.4316782E+04  (-0.1718204E+05)
 number of electron     448.0000000 magnetization 
 augmentation part      448.0000000 magnetization 

 Free energy of the ion-electron system (eV)
  ---------------------------------------------------
  alpha Z        PSCENC =       751.52672365
  Ewald energy   TEWEN  =    -22871.33825301
  -Hartree energ DENC   =     -8992.24831915
  -exchange      EXHF   =         0.00000000
  -V(xc)+E(xc)   XCENC  =      1456.53426699
  PAW double counting   =     26466.43774078   -29286.08056155
  entropy T*S    EENTRO =        -0.00309800
  eigenvalues    EBANDS =      -740.22631497
  atomic energy  EATOM  =     37532.17946992
  Solvation  Ediel_sol  =         0.00000000
  ---------------------------------------------------
  free energy    TOTEN  =      4316.78165468 eV

  energy without entropy =     4316.78475267  energy(sigma->0) =     4316.78320368


--------------------------------------------------------------------------------------------------------




--------------------------------------- Iteration      1(   2)  ---------------------------------------


     EDDAV:  cpu time      7.6843: real time      7.7310
       DOS:  cpu time      0.0004: real time      0.0004
    --------------------------------------------
      LOOP:  cpu time      7.6847: real time      7.7313

 eigenvalue-minimisations  :  3840
 total energy-change (2. order) :-0.3953395E+04  (-0.3761514E+04)
 number of electron     448.0000000 magnetization 
 augmentation part      448.0000000 magnetization 

 Free energy of the ion-electron system (eV)
  ---------------------------------------------------
  alpha Z        PSCENC =       751.52672365
  Ewald energy   TEWEN  =    -22871.33825301
  -Hartree energ DENC   =     -8992.24831915
  -exchange      EXHF   =         0.00000000
  -V(xc)+E(xc)   XCENC  =      1456.53426699
  PAW double counting   =     26466.43774078   -29286.08056155
  entropy T*S    EENTRO =        -0.00000000
  eigenvalues    EBANDS =     -4693.62485923
  atomic energy  EATOM  =     37532.17946992
  Solvation  Ediel_sol  =         0.00000000
  ---------------------------------------------------
  free energy    TOTEN  =       363.38620841 eV

  energy without entropy =      363.38620841  energy(sigma->0) =      363.38620841


--------------------------------------------------------------------------------------------------------




--------------------------------------- Iteration      1(   3)  ---------------------------------------


     EDDAV:  cpu time      8.3132: real time      8.3597
       DOS:  cpu time      0.0002: real time      0.0002
    --------------------------------------------
      LOOP:  cpu time      8.3134: real time      8.3598

 eigenvalue-minimisations  :  4224
 total energy-change (2. order) :-0.5696153E+03  (-0.5653832E+03)
 number of electron     448.0000000 magnetization 
 augmentation part      448.0000000 magnetization 

 Free energy of the ion-electron system (eV)
  ---------------------------------------------------
  alpha Z        PSCENC =       751.52672365
  Ewald energy   TEWEN  =    -22871.33825301
  -Hartree energ DENC   =     -8992.24831915
  -exchange      EXHF   =         0.00000000
  -V(xc)+E(xc)   XCENC  =      1456.53426699
  PAW double counting   =     26466.43774078   -29286.08056155
  entropy T*S    EENTRO =        -0.00000000
  eigenvalues    EBANDS =     -5263.24020514
  atomic energy  EATOM  =     37532.17946992
  Solvation  Ediel_sol  =         0.00000000
  ---------------------------------------------------
  free energy    TOTEN  =      -206.22913750 eV

  energy without entropy =     -206.22913750  energy(sigma->0) =     -206.22913750


--------------------------------------------------------------------------------------------------------




--------------------------------------- Iteration      1(   4)  ---------------------------------------


     EDDAV:  cpu time      8.2334: real time      8.2792
       DOS:  cpu time      0.0002: real time      0.0002
    --------------------------------------------
      LOOP:  cpu time      8.2336: real time      8.2795

 eigenvalue-minimisations  :  4160
 total energy-change (2. order) :-0.2196486E+02  (-0.2186658E+02)
 number of electron     448.0000000 magnetization 
 augmentation part      448.0000000 magnetization 

 Free energy of the ion-electron system (eV)
  ---------------------------------------------------
  alpha Z        PSCENC =       751.52672365
  Ewald energy   TEWEN  =    -22871.33825301
  -Hartree energ DENC   =     -8992.24831915
  -exchange      EXHF   =         0.00000000
  -V(xc)+E(xc)   XCENC  =      1456.53426699
  PAW double counting   =     26466.43774078   -29286.08056155
  entropy T*S    EENTRO =        -0.00000000
  eigenvalues    EBANDS =     -5285.20506059
  atomic energy  EATOM  =     37532.17946992
  Solvation  Ediel_sol  =         0.00000000
  ---------------------------------------------------
  free energy    TOTEN  =      -228.19399294 eV

  energy without entropy =     -228.19399294  energy(sigma->0) =     -228.19399294


--------------------------------------------------------------------------------------------------------




--------------------------------------- Iteration      1(   5)  ---------------------------------------


     EDDAV:  cpu time      8.4864: real time      8.5337
       DOS:  cpu time      0.0002: real time      0.0002
    CHARGE:  cpu time      0.2682: real time      0.2695
    MIXING:  cpu time      0.0010: real time      0.0010
    --------------------------------------------
      LOOP:  cpu time      8.7558: real time      8.8044

 eigenvalue-minimisations  :  4320
 total energy-change (2. order) :-0.8105567E+00  (-0.8091492E+00)
 number of electron     448.0000022 magnetization 
 augmentation part      111.6449306 magnetization 

 Broyden mixing:
  rms(total) = 0.10607E+01    rms(broyden)= 0.10603E+01
  rms(prec ) = 0.14937E+01
  weight for this iteration     100.00

 Free energy of the ion-electron system (eV)
  ---------------------------------------------------
  alpha Z        PSCENC =       751.52672365
  Ewald energy   TEWEN  =    -22871.33825301
  -Hartree energ DENC   =     -8992.24831915
  -exchange      EXHF   =         0.00000000
  -V(xc)+E(xc)   XCENC  =      1456.53426699
  PAW double counting   =     26466.43774078   -29286.08056155
  entropy T*S    EENTRO =        -0.00000000
  eigenvalues    EBANDS =     -5286.01561726
  atomic energy  EATOM  =     37532.17946992
  Solvation  Ediel_sol  =         0.00000000
  ---------------------------------------------------
  free energy    TOTEN  =      -229.00454961 eV

  energy without entropy =     -229.00454961  energy(sigma->0) =     -229.00454961


--------------------------------------------------------------------------------------------------------




--------------------------------------- Iteration      1(   6)  ---------------------------------------


    POTLOK:  cpu time      0.0368: real time      0.0377
    SETDIJ:  cpu time      0.0297: real time      0.0301
     EDDAV:  cpu time      8.4122: real time      8.4590
       DOS:  cpu time      0.0005: real time      0.0005
    CHARGE:  cpu time      0.2675: real time      0.2691
    MIXING:  cpu time      0.0012: real time      0.0012
    --------------------------------------------
      LOOP:  cpu time      8.7479: real time      8.7975

 eigenvalue-minimisations  :  4288
 total energy-change (2. order) : 0.4865997E+01  (-0.9480103E+00)
 number of electron     448.0000022 magnetization 
 augmentation part      112.4572886 magnetization 

 Broyden mixing:
  rms(total) = 0.77578E+00    rms(broyden)= 0.77573E+00
  rms(prec ) = 0.89183E+00
  weight for this iteration     100.00

 eigenvalues of (default mixing * dielectric matrix)
  average eigenvalue GAMMA=   1.0752
  1.0752

 Free energy of the ion-electron system (eV)
  ---------------------------------------------------
  alpha Z        PSCENC =       751.52672365
  Ewald energy   TEWEN  =    -22871.33825301
  -Hartree energ DENC   =     -9061.81351052
  -exchange      EXHF   =         0.00000000
  -V(xc)+E(xc)   XCENC  =      1465.43320462
  PAW double counting   =     27290.79949160   -30102.80502937
  entropy T*S    EENTRO =        -0.00000000
  eigenvalues    EBANDS =     -5228.12064928
  atomic energy  EATOM  =     37532.17946992
  Solvation  Ediel_sol  =         0.00000000
  ---------------------------------------------------
  free energy    TOTEN  =      -224.13855237 eV

  energy without entropy =     -224.13855237  energy(sigma->0) =     -224.13855237


--------------------------------------------------------------------------------------------------------




--------------------------------------- Iteration      1(   7)  ---------------------------------------


    POTLOK:  cpu time      0.0361: real time      0.0363
    SETDIJ:  cpu time      0.0299: real time      0.0301
     EDDAV:  cpu time      9.0800: real time      9.1320
       DOS:  cpu time      0.0006: real time      0.0006
    CHARGE:  cpu time      0.2656: real time      0.2671
    MIXING:  cpu time      0.0012: real time      0.0012
    --------------------------------------------
      LOOP:  cpu time      9.4134: real time      9.4673

 eigenvalue-minimisations  :  4704
 total energy-change (2. order) : 0.3611850E+00  (-0.2068137E+00)
 number of electron     448.0000022 magnetization 
 augmentation part      112.8272838 magnetization 

 Broyden mixing:
  rms(total) = 0.53324E+00    rms(broyden)= 0.53321E+00
  rms(prec ) = 0.56322E+00
  weight for this iteration     100.00

 eigenvalues of (default mixing * dielectric matrix)
  average eigenvalue GAMMA=   2.1557
  1.4396  2.8718

 Free energy of the ion-electron system (eV)
  ---------------------------------------------------
  alpha Z        PSCENC =       751.52672365
  Ewald energy   TEWEN  =    -22871.33825301
  -Hartree energ DENC   =     -9085.84802180
  -exchange      EXHF   =         0.00000000
  -V(xc)+E(xc)   XCENC  =      1470.12695631
  PAW double counting   =     28329.42855884   -31142.15323892
  entropy T*S    EENTRO =        -0.00000000
  eigenvalues    EBANDS =     -5207.69956240
  atomic energy  EATOM  =     37532.17946992
  Solvation  Ediel_sol  =         0.00000000
  ---------------------------------------------------
  free energy    TOTEN  =      -223.77736741 eV

  energy without entropy =     -223.77736741  energy(sigma->0) =     -223.77736741


--------------------------------------------------------------------------------------------------------




--------------------------------------- Iteration      1(   8)  ---------------------------------------


    POTLOK:  cpu time      0.0362: real time      0.0377
    SETDIJ:  cpu time      0.0294: real time      0.0296
     EDDAV:  cpu time      7.9609: real time      8.0050
       DOS:  cpu time      0.0005: real time      0.0005
    CHARGE:  cpu time      0.2627: real time      0.2640
    MIXING:  cpu time      0.0012: real time      0.0012
    --------------------------------------------
      LOOP:  cpu time      8.2910: real time      8.3380

 eigenvalue-minimisations  :  4000
 total energy-change (2. order) :-0.1252953E+00  (-0.2667305E-01)
 number of electron     448.0000022 magnetization 
 augmentation part      112.8093380 magnetization 

 Broyden mixing:
  rms(total) = 0.14210E+00    rms(broyden)= 0.14210E+00
  rms(prec ) = 0.14499E+00
  weight for this iteration     100.00

 eigenvalues of (default mixing * dielectric matrix)
  average eigenvalue GAMMA=   1.5552
  2.5264  1.3872  0.7520

 Free energy of the ion-electron system (eV)
  ---------------------------------------------------
  alpha Z        PSCENC =       751.52672365
  Ewald energy   TEWEN  =    -22871.33825301
  -Hartree energ DENC   =     -9075.20357542
  -exchange      EXHF   =         0.00000000
  -V(xc)+E(xc)   XCENC  =      1472.33931306
  PAW double counting   =     29810.19461749   -32630.04281035
  entropy T*S    EENTRO =        -0.00000000
  eigenvalues    EBANDS =     -5213.55814810
  atomic energy  EATOM  =     37532.17946992
  Solvation  Ediel_sol  =         0.00000000
  ---------------------------------------------------
  free energy    TOTEN  =      -223.90266276 eV

  energy without entropy =     -223.90266276  energy(sigma->0) =     -223.90266276


--------------------------------------------------------------------------------------------------------




--------------------------------------- Iteration      1(   9)  ---------------------------------------


    POTLOK:  cpu time      0.0359: real time      0.0364
    SETDIJ:  cpu time      0.0303: real time      0.0304
     EDDAV:  cpu time      8.3770: real time      8.4235
       DOS:  cpu time      0.0005: real time      0.0005
    CHARGE:  cpu time      0.2643: real time      0.2657
    MIXING:  cpu time      0.0012: real time      0.0012
    --------------------------------------------
      LOOP:  cpu time      8.7092: real time      8.7576

 eigenvalue-minimisations  :  4256
 total energy-change (2. order) : 0.5534511E-02  (-0.1128512E-02)
 number of electron     448.0000022 magnetization 
 augmentation part      112.8311448 magnetization 

 Broyden mixing:
  rms(total) = 0.60837E-01    rms(broyden)= 0.60837E-01
  rms(prec ) = 0.62886E-01
  weight for this iteration     100.00

 eigenvalues of (default mixing * dielectric matrix)
  average eigenvalue GAMMA=   2.0040
  2.8118  2.8118  0.9988  1.3935

 Free energy of the ion-electron system (eV)
  ---------------------------------------------------
  alpha Z        PSCENC =       751.52672365
  Ewald energy   TEWEN  =    -22871.33825301
  -Hartree energ DENC   =     -9077.92234486
  -exchange      EXHF   =         0.00000000
  -V(xc)+E(xc)   XCENC  =      1472.35699353
  PAW double counting   =     29631.64315154   -32450.65023448
  entropy T*S    EENTRO =        -0.00000000
  eigenvalues    EBANDS =     -5211.69263454
  atomic energy  EATOM  =     37532.17946992
  Solvation  Ediel_sol  =         0.00000000
  ---------------------------------------------------
  free energy    TOTEN  =      -223.89712824 eV

  energy without entropy =     -223.89712824  energy(sigma->0) =     -223.89712824


--------------------------------------------------------------------------------------------------------




--------------------------------------- Iteration      1(  10)  ---------------------------------------


    POTLOK:  cpu time      0.0367: real time      0.0408
    SETDIJ:  cpu time      0.0299: real time      0.0300
     EDDAV:  cpu time      8.0299: real time      8.0740
       DOS:  cpu time      0.0006: real time      0.0006
    CHARGE:  cpu time      0.2691: real time      0.2707
    MIXING:  cpu time      0.0021: real time      0.0021
    --------------------------------------------
      LOOP:  cpu time      8.3682: real time      8.4182

 eigenvalue-minimisations  :  4032
 total energy-change (2. order) :-0.4269175E-02  (-0.1849800E-02)
 number of electron     448.0000022 magnetization 
 augmentation part      112.8609186 magnetization 

 Broyden mixing:
  rms(total) = 0.28725E-01    rms(broyden)= 0.28723E-01
  rms(prec ) = 0.30799E-01
  weight for this iteration     100.00

 eigenvalues of (default mixing * dielectric matrix)
  average eigenvalue GAMMA=   1.7110
  2.9407  2.5105  1.2947  1.0214  0.7877

 Free energy of the ion-electron system (eV)
  ---------------------------------------------------
  alpha Z        PSCENC =       751.52672365
  Ewald energy   TEWEN  =    -22871.33825301
  -Hartree energ DENC   =     -9079.44522980
  -exchange      EXHF   =         0.00000000
  -V(xc)+E(xc)   XCENC  =      1472.60633983
  PAW double counting   =     29455.96903990   -32275.19850990
  entropy T*S    EENTRO =        -0.00000000
  eigenvalues    EBANDS =     -5210.20097802
  atomic energy  EATOM  =     37532.17946992
  Solvation  Ediel_sol  =         0.00000000
  ---------------------------------------------------
  free energy    TOTEN  =      -223.90139742 eV

  energy without entropy =     -223.90139742  energy(sigma->0) =     -223.90139742


--------------------------------------------------------------------------------------------------------




--------------------------------------- Iteration      1(  11)  ---------------------------------------


    POTLOK:  cpu time      0.0357: real time      0.0359
    SETDIJ:  cpu time      0.0304: real time      0.0306
     EDDAV:  cpu time      8.7997: real time      8.8481
       DOS:  cpu time      0.0003: real time      0.0003
    CHARGE:  cpu time      0.2641: real time      0.2655
    MIXING:  cpu time      0.0015: real time      0.0015
    --------------------------------------------
      LOOP:  cpu time      9.1318: real time      9.1819

 eigenvalue-minimisations  :  4512
 total energy-change (2. order) : 0.7296977E-03  (-0.1604586E-03)
 number of electron     448.0000022 magnetization 
 augmentation part      112.8516786 magnetization 

 Broyden mixing:
  rms(total) = 0.88280E-02    rms(broyden)= 0.88279E-02
  rms(prec ) = 0.92677E-02
  weight for this iteration     100.00

 eigenvalues of (default mixing * dielectric matrix)
  average eigenvalue GAMMA=   1.5580
  2.9185  2.4523  1.3179  1.0105  0.8245  0.8245

 Free energy of the ion-electron system (eV)
  ---------------------------------------------------
  alpha Z        PSCENC =       751.52672365
  Ewald energy   TEWEN  =    -22871.33825301
  -Hartree energ DENC   =     -9078.34327330
  -exchange      EXHF   =         0.00000000
  -V(xc)+E(xc)   XCENC  =      1472.52968114
  PAW double counting   =     29487.12747886   -32306.50247433
  entropy T*S    EENTRO =        -0.00000000
  eigenvalues    EBANDS =     -5211.08002066
  atomic energy  EATOM  =     37532.17946992
  Solvation  Ediel_sol  =         0.00000000
  ---------------------------------------------------
  free energy    TOTEN  =      -223.90066772 eV

  energy without entropy =     -223.90066772  energy(sigma->0) =     -223.90066772


--------------------------------------------------------------------------------------------------------




--------------------------------------- Iteration      1(  12)  ---------------------------------------


    POTLOK:  cpu time      0.0358: real time      0.0361
    SETDIJ:  cpu time      0.0302: real time      0.0303
     EDDAV:  cpu time      8.7110: real time      8.7591
       DOS:  cpu time      0.0004: real time      0.0004
    CHARGE:  cpu time      0.2627: real time      0.2642
    MIXING:  cpu time      0.0015: real time      0.0016
    --------------------------------------------
      LOOP:  cpu time      9.0417: real time      9.0917

 eigenvalue-minimisations  :  4448
 total energy-change (2. order) : 0.3726997E-04  (-0.1389045E-04)
 number of electron     448.0000022 magnetization 
 augmentation part      112.8490805 magnetization 

 Broyden mixing:
  rms(total) = 0.19503E-02    rms(broyden)= 0.19498E-02
  rms(prec ) = 0.22306E-02
  weight for this iteration     100.00

 eigenvalues of (default mixing * dielectric matrix)
  average eigenvalue GAMMA=   1.5751
  2.8881  2.4147  1.4519  1.2187  1.2187  1.0541  0.7798

 Free energy of the ion-electron system (eV)
  ---------------------------------------------------
  alpha Z        PSCENC =       751.52672365
  Ewald energy   TEWEN  =    -22871.33825301
  -Hartree energ DENC   =     -9078.20074287
  -exchange      EXHF   =         0.00000000
  -V(xc)+E(xc)   XCENC  =      1472.51955658
  PAW double counting   =     29497.55842510   -32316.93280326
  entropy T*S    EENTRO =        -0.00000000
  eigenvalues    EBANDS =     -5211.21300656
  atomic energy  EATOM  =     37532.17946992
  Solvation  Ediel_sol  =         0.00000000
  ---------------------------------------------------
  free energy    TOTEN  =      -223.90063045 eV

  energy without entropy =     -223.90063045  energy(sigma->0) =     -223.90063045


--------------------------------------------------------------------------------------------------------




--------------------------------------- Iteration      1(  13)  ---------------------------------------


    POTLOK:  cpu time      0.0362: real time      0.0370
    SETDIJ:  cpu time      0.0303: real time      0.0304
     EDDAV:  cpu time      8.2514: real time      8.2974
       DOS:  cpu time      0.0004: real time      0.0004
    CHARGE:  cpu time      0.2746: real time      0.2763
    MIXING:  cpu time      0.0014: real time      0.0014
    --------------------------------------------
      LOOP:  cpu time      8.5943: real time      8.6428

 eigenvalue-minimisations  :  4160
 total energy-change (2. order) : 0.2432935E-05  (-0.2705239E-05)
 number of electron     448.0000022 magnetization 
 augmentation part      112.8478061 magnetization 

 Broyden mixing:
  rms(total) = 0.35581E-03    rms(broyden)= 0.35509E-03
  rms(prec ) = 0.42502E-03
  weight for this iteration     100.00

 eigenvalues of (default mixing * dielectric matrix)
  average eigenvalue GAMMA=   1.6123
  2.9778  2.3258  2.3258  1.2172  1.0660  0.9698  1.0079  1.0079

 Free energy of the ion-electron system (eV)
  ---------------------------------------------------
  alpha Z        PSCENC =       751.52672365
  Ewald energy   TEWEN  =    -22871.33825301
  -Hartree energ DENC   =     -9078.11420069
  -exchange      EXHF   =         0.00000000
  -V(xc)+E(xc)   XCENC  =      1472.51090322
  PAW double counting   =     29498.74799173   -32318.12256713
  entropy T*S    EENTRO =        -0.00000000
  eigenvalues    EBANDS =     -5211.29069572
  atomic energy  EATOM  =     37532.17946992
  Solvation  Ediel_sol  =         0.00000000
  ---------------------------------------------------
  free energy    TOTEN  =      -223.90062802 eV

  energy without entropy =     -223.90062802  energy(sigma->0) =     -223.90062802


--------------------------------------------------------------------------------------------------------




--------------------------------------- Iteration      1(  14)  ---------------------------------------


    POTLOK:  cpu time      0.0362: real time      0.0365
    SETDIJ:  cpu time      0.0304: real time      0.0305
     EDDAV:  cpu time      8.1643: real time      8.2091
       DOS:  cpu time      0.0004: real time      0.0004
    CHARGE:  cpu time      0.2655: real time      0.2670
    MIXING:  cpu time      0.0016: real time      0.0016
    --------------------------------------------
      LOOP:  cpu time      8.4984: real time      8.5451

 eigenvalue-minimisations  :  4096
 total energy-change (2. order) :-0.1429216E-05  (-0.2401431E-06)
 number of electron     448.0000022 magnetization 
 augmentation part      112.8477095 magnetization 

 Broyden mixing:
  rms(total) = 0.85545E-03    rms(broyden)= 0.85541E-03
  rms(prec ) = 0.87611E-03
  weight for this iteration     100.00

 eigenvalues of (default mixing * dielectric matrix)
  average eigenvalue GAMMA=   1.6501
  3.0279  2.6097  2.6097  1.4097  1.2240  1.2240  0.9648  0.9648  0.8163

 Free energy of the ion-electron system (eV)
  ---------------------------------------------------
  alpha Z        PSCENC =       751.52672365
  Ewald energy   TEWEN  =    -22871.33825301
  -Hartree energ DENC   =     -9078.12535297
  -exchange      EXHF   =         0.00000000
  -V(xc)+E(xc)   XCENC  =      1472.51234298
  PAW double counting   =     29500.05305008   -32319.42266996
  entropy T*S    EENTRO =        -0.00000000
  eigenvalues    EBANDS =     -5211.28594015
  atomic energy  EATOM  =     37532.17946992
  Solvation  Ediel_sol  =         0.00000000
  ---------------------------------------------------
  free energy    TOTEN  =      -223.90062945 eV

  energy without entropy =     -223.90062945  energy(sigma->0) =     -223.90062945


--------------------------------------------------------------------------------------------------------




--------------------------------------- Iteration      1(  15)  ---------------------------------------


    POTLOK:  cpu time      0.0364: real time      0.0376
    SETDIJ:  cpu time      0.0306: real time      0.0307
     EDDAV:  cpu time      8.2164: real time      8.2621
       DOS:  cpu time      0.0005: real time      0.0005
    CHARGE:  cpu time      0.2665: real time      0.2682
    MIXING:  cpu time      0.0014: real time      0.0014
    --------------------------------------------
      LOOP:  cpu time      8.5519: real time      8.6005

 eigenvalue-minimisations  :  4128
 total energy-change (2. order) :-0.1163120E-05  (-0.3628557E-07)
 number of electron     448.0000022 magnetization 
 augmentation part      112.8477598 magnetization 

 Broyden mixing:
  rms(total) = 0.38028E-03    rms(broyden)= 0.38025E-03
  rms(prec ) = 0.39155E-03
  weight for this iteration     100.00

 eigenvalues of (default mixing * dielectric matrix)
  average eigenvalue GAMMA=   1.6053
  3.0955  2.6410  2.5485  1.4579  1.3075  1.3075  0.9354  0.9354  0.9548  0.8698

 Free energy of the ion-electron system (eV)
  ---------------------------------------------------
  alpha Z        PSCENC =       751.52672365
  Ewald energy   TEWEN  =    -22871.33825301
  -Hartree energ DENC   =     -9078.15036848
  -exchange      EXHF   =         0.00000000
  -V(xc)+E(xc)   XCENC  =      1472.51289392
  PAW double counting   =     29499.05091365   -32318.41640776
  entropy T*S    EENTRO =        -0.00000000
  eigenvalues    EBANDS =     -5211.26560250
  atomic energy  EATOM  =     37532.17946992
  Solvation  Ediel_sol  =         0.00000000
  ---------------------------------------------------
  free energy    TOTEN  =      -223.90063061 eV

  energy without entropy =     -223.90063061  energy(sigma->0) =     -223.90063061


--------------------------------------------------------------------------------------------------------




--------------------------------------- Iteration      1(  16)  ---------------------------------------


    POTLOK:  cpu time      0.0357: real time      0.0360
    SETDIJ:  cpu time      0.0302: real time      0.0304
     EDDAV:  cpu time      8.2958: real time      8.3413
       DOS:  cpu time      0.0005: real time      0.0005
    CHARGE:  cpu time      0.2628: real time      0.2642
    MIXING:  cpu time      0.0016: real time      0.0016
    --------------------------------------------
      LOOP:  cpu time      8.6266: real time      8.6739

 eigenvalue-minimisations  :  4192
 total energy-change (2. order) :-0.5197217E-06  (-0.1444339E-07)
 number of electron     448.0000022 magnetization 
 augmentation part      112.8478381 magnetization 

 Broyden mixing:
  rms(total) = 0.95366E-04    rms(broyden)= 0.95258E-04
  rms(prec ) = 0.10117E-03
  weight for this iteration     100.00

 eigenvalues of (default mixing * dielectric matrix)
  average eigenvalue GAMMA=   1.5710
  3.1131  2.5729  2.5729  1.3477  1.3477  1.3799  1.1447  1.1447  0.9234  0.8670
  0.8670

 Free energy of the ion-electron system (eV)
  ---------------------------------------------------
  alpha Z        PSCENC =       751.52672365
  Ewald energy   TEWEN  =    -22871.33825301
  -Hartree energ DENC   =     -9078.16014348
  -exchange      EXHF   =         0.00000000
  -V(xc)+E(xc)   XCENC  =      1472.51331486
  PAW double counting   =     29498.47319792   -32317.83821806
  entropy T*S    EENTRO =        -0.00000000
  eigenvalues    EBANDS =     -5211.25672294
  atomic energy  EATOM  =     37532.17946992
  Solvation  Ediel_sol  =         0.00000000
  ---------------------------------------------------
  free energy    TOTEN  =      -223.90063113 eV

  energy without entropy =     -223.90063113  energy(sigma->0) =     -223.90063113


--------------------------------------------------------------------------------------------------------




--------------------------------------- Iteration      1(  17)  ---------------------------------------


    POTLOK:  cpu time      0.0370: real time      0.0408
    SETDIJ:  cpu time      0.0304: real time      0.0306
     EDDAV:  cpu time      6.0627: real time      6.0964
       DOS:  cpu time      0.0004: real time      0.0004
    CHARGE:  cpu time      0.2660: real time      0.2673
    MIXING:  cpu time      0.0015: real time      0.0015
    --------------------------------------------
      LOOP:  cpu time      6.3981: real time      6.4371

 eigenvalue-minimisations  :  2752
 total energy-change (2. order) :-0.5524635E-07  (-0.1004017E-08)
 number of electron     448.0000022 magnetization 
 augmentation part      112.8478482 magnetization 

 Broyden mixing:
  rms(total) = 0.36083E-04    rms(broyden)= 0.35819E-04
  rms(prec ) = 0.41560E-04
  weight for this iteration     100.00

 eigenvalues of (default mixing * dielectric matrix)
  average eigenvalue GAMMA=   1.6113
  3.1836  2.8920  2.1925  2.1185  1.3831  1.3831  1.2210  1.2210  0.9633  0.9633
  0.8590  0.9546

 Free energy of the ion-electron system (eV)
  ---------------------------------------------------
  alpha Z        PSCENC =       751.52672365
  Ewald energy   TEWEN  =    -22871.33825301
  -Hartree energ DENC   =     -9078.16182528
  -exchange      EXHF   =         0.00000000
  -V(xc)+E(xc)   XCENC  =      1472.51337936
  PAW double counting   =     29498.34626950   -32317.71125082
  entropy T*S    EENTRO =        -0.00000000
  eigenvalues    EBANDS =     -5211.25514451
  atomic energy  EATOM  =     37532.17946992
  Solvation  Ediel_sol  =         0.00000000
  ---------------------------------------------------
  free energy    TOTEN  =      -223.90063119 eV

  energy without entropy =     -223.90063119  energy(sigma->0) =     -223.90063119


--------------------------------------------------------------------------------------------------------




--------------------------------------- Iteration      1(  18)  ---------------------------------------


    POTLOK:  cpu time      0.0363: real time      0.0366
    SETDIJ:  cpu time      0.0300: real time      0.0302
     EDDAV:  cpu time      6.2629: real time      6.2975
       DOS:  cpu time      0.0004: real time      0.0004
    CHARGE:  cpu time      0.2665: real time      0.2679
    MIXING:  cpu time      0.0015: real time      0.0015
    --------------------------------------------
      LOOP:  cpu time      6.5977: real time      6.6340

 eigenvalue-minimisations  :  2880
 total energy-change (2. order) :-0.1426306E-06  (-0.1433059E-08)
 number of electron     448.0000022 magnetization 
 augmentation part      112.8478668 magnetization 

 Broyden mixing:
  rms(total) = 0.50218E-04    rms(broyden)= 0.50028E-04
  rms(prec ) = 0.52376E-04
  weight for this iteration     100.00

 eigenvalues of (default mixing * dielectric matrix)
  average eigenvalue GAMMA=   1.5441
  3.1911  2.9086  2.2534  2.2534  1.0670  1.0670  1.1830  1.1830  1.2024  1.2024
  0.9337  0.8263  0.8018

 Free energy of the ion-electron system (eV)
  ---------------------------------------------------
  alpha Z        PSCENC =       751.52672365
  Ewald energy   TEWEN  =    -22871.33825301
  -Hartree energ DENC   =     -9078.16603626
  -exchange      EXHF   =         0.00000000
  -V(xc)+E(xc)   XCENC  =      1472.51352424
  PAW double counting   =     29498.19958301   -32317.56431109
  entropy T*S    EENTRO =        -0.00000000
  eigenvalues    EBANDS =     -5211.25133180
  atomic energy  EATOM  =     37532.17946992
  Solvation  Ediel_sol  =         0.00000000
  ---------------------------------------------------
  free energy    TOTEN  =      -223.90063133 eV

  energy without entropy =     -223.90063133  energy(sigma->0) =     -223.90063133


--------------------------------------------------------------------------------------------------------




--------------------------------------- Iteration      1(  19)  ---------------------------------------


    POTLOK:  cpu time      0.0356: real time      0.0360
    SETDIJ:  cpu time      0.0301: real time      0.0302
     EDDAV:  cpu time      5.3027: real time      5.3314
       DOS:  cpu time      0.0005: real time      0.0005
    CHARGE:  cpu time      0.2637: real time      0.2652
    MIXING:  cpu time      0.0015: real time      0.0015
    --------------------------------------------
      LOOP:  cpu time      5.6341: real time      5.6649

 eigenvalue-minimisations  :  2272
 total energy-change (2. order) : 0.1749868E-07  (-0.5896476E-09)
 number of electron     448.0000022 magnetization 
 augmentation part      112.8478660 magnetization 

 Broyden mixing:
  rms(total) = 0.43918E-04    rms(broyden)= 0.43702E-04
  rms(prec ) = 0.45475E-04
  weight for this iteration     100.00

 eigenvalues of (default mixing * dielectric matrix)
  average eigenvalue GAMMA=   1.5672
  3.2501  2.9342  2.3799  2.3799  1.3275  1.3275  1.2089  1.2089  1.2631  1.0448
  0.9923  0.8564  0.8838  0.8838

 Free energy of the ion-electron system (eV)
  ---------------------------------------------------
  alpha Z        PSCENC =       751.52672365
  Ewald energy   TEWEN  =    -22871.33825301
  -Hartree energ DENC   =     -9078.16583774
  -exchange      EXHF   =         0.00000000
  -V(xc)+E(xc)   XCENC  =      1472.51351548
  PAW double counting   =     29498.21589403   -32317.58056766
  entropy T*S    EENTRO =        -0.00000000
  eigenvalues    EBANDS =     -5211.25157599
  atomic energy  EATOM  =     37532.17946992
  Solvation  Ediel_sol  =         0.00000000
  ---------------------------------------------------
  free energy    TOTEN  =      -223.90063131 eV

  energy without entropy =     -223.90063131  energy(sigma->0) =     -223.90063131


--------------------------------------------------------------------------------------------------------




--------------------------------------- Iteration      1(  20)  ---------------------------------------


    POTLOK:  cpu time      0.0359: real time      0.0362
    SETDIJ:  cpu time      0.0300: real time      0.0301
     EDDAV:  cpu time      5.5079: real time      5.5381
       DOS:  cpu time      0.0004: real time      0.0004
    CHARGE:  cpu time      0.2650: real time      0.2665
    MIXING:  cpu time      0.0013: real time      0.0013
    --------------------------------------------
      LOOP:  cpu time      5.8404: real time      5.8726

 eigenvalue-minimisations  :  2400
 total energy-change (2. order) : 0.7829658E-07  (-0.2496469E-09)
 number of electron     448.0000022 magnetization 
 augmentation part      112.8478614 magnetization 

 Broyden mixing:
  rms(total) = 0.15465E-04    rms(broyden)= 0.14842E-04
  rms(prec ) = 0.15770E-04
  weight for this iteration     100.00

 eigenvalues of (default mixing * dielectric matrix)
  average eigenvalue GAMMA=   1.6274
  3.6558  2.9501  2.5258  2.5258  1.8531  1.3353  1.3353  1.2515  1.2515  1.0278
  1.0278  0.9507  0.9507  0.8847  0.8847

 Free energy of the ion-electron system (eV)
  ---------------------------------------------------
  alpha Z        PSCENC =       751.52672365
  Ewald energy   TEWEN  =    -22871.33825301
  -Hartree energ DENC   =     -9078.16476055
  -exchange      EXHF   =         0.00000000
  -V(xc)+E(xc)   XCENC  =      1472.51347013
  PAW double counting   =     29498.28302335   -32317.64762326
  entropy T*S    EENTRO =        -0.00000000
  eigenvalues    EBANDS =     -5211.25268147
  atomic energy  EATOM  =     37532.17946992
  Solvation  Ediel_sol  =         0.00000000
  ---------------------------------------------------
  free energy    TOTEN  =      -223.90063123 eV

  energy without entropy =     -223.90063123  energy(sigma->0) =     -223.90063123


--------------------------------------------------------------------------------------------------------




--------------------------------------- Iteration      1(  21)  ---------------------------------------


    POTLOK:  cpu time      0.0359: real time      0.0362
    SETDIJ:  cpu time      0.0301: real time      0.0302
     EDDAV:  cpu time      5.2496: real time      5.2784
       DOS:  cpu time      0.0004: real time      0.0004
    CHARGE:  cpu time      0.2633: real time      0.2650
    MIXING:  cpu time      0.0016: real time      0.0016
    --------------------------------------------
      LOOP:  cpu time      5.5810: real time      5.6119

 eigenvalue-minimisations  :  2240
 total energy-change (2. order) : 0.2774323E-07  (-0.2131888E-09)
 number of electron     448.0000022 magnetization 
 augmentation part      112.8478580 magnetization 

 Broyden mixing:
  rms(total) = 0.11122E-04    rms(broyden)= 0.10237E-04
  rms(prec ) = 0.10844E-04
  weight for this iteration     100.00

 eigenvalues of (default mixing * dielectric matrix)
  average eigenvalue GAMMA=   1.6090
  3.8345  2.9708  2.7404  2.4191  1.8514  1.2915  1.2915  1.3079  1.3079  1.0973
  1.0973  0.9691  0.9691  0.9317  0.9317  0.7335

 Free energy of the ion-electron system (eV)
  ---------------------------------------------------
  alpha Z        PSCENC =       751.52672365
  Ewald energy   TEWEN  =    -22871.33825301
  -Hartree energ DENC   =     -9078.16398907
  -exchange      EXHF   =         0.00000000
  -V(xc)+E(xc)   XCENC  =      1472.51343042
  PAW double counting   =     29498.29737393   -32317.66198872
  entropy T*S    EENTRO =        -0.00000000
  eigenvalues    EBANDS =     -5211.25339834
  atomic energy  EATOM  =     37532.17946992
  Solvation  Ediel_sol  =         0.00000000
  ---------------------------------------------------
  free energy    TOTEN  =      -223.90063120 eV

  energy without entropy =     -223.90063120  energy(sigma->0) =     -223.90063120


--------------------------------------------------------------------------------------------------------




--------------------------------------- Iteration      1(  22)  ---------------------------------------


    POTLOK:  cpu time      0.0361: real time      0.0370
    SETDIJ:  cpu time      0.0300: real time      0.0301
     EDDAV:  cpu time      5.3600: real time      5.3896
       DOS:  cpu time      0.0004: real time      0.0004
    --------------------------------------------
      LOOP:  cpu time      5.4265: real time      5.4571

 eigenvalue-minimisations  :  2304
 total energy-change (2. order) :-0.3026798E-08  (-0.8624784E-10)
 number of electron     448.0000022 magnetization 
 augmentation part      112.8478580 magnetization 

 Free energy of the ion-electron system (eV)
  ---------------------------------------------------
  alpha Z        PSCENC =       751.52672365
  Ewald energy   TEWEN  =    -22871.33825301
  -Hartree energ DENC   =     -9078.16403492
[...]
         0         1         2         3         4         5         6         7         8         9
 total charge-density along one line
 
 pseudopotential strength for first ion, spin component:           1
-25.389  -0.000  -0.000   2.511   0.000   0.000   0.000   0.000
 -0.000 -25.389  -0.000   0.000   2.511   0.000   0.000   0.000
 -0.000  -0.000 -25.389   0.000   0.000   2.511   0.000   0.001
  2.511   0.000   0.000   6.528  -0.000  -0.000  -0.000   0.000
  0.000   2.511   0.000  -0.000   6.528  -0.000  -0.000   0.000
  0.000   0.000   2.511  -0.000  -0.000   6.528  -0.000  -0.000
  0.000   0.000   0.000  -0.000  -0.000  -0.000   1.428   6.993
  0.000   0.000   0.001   0.000   0.000  -0.000   6.993  33.989
 total augmentation occupancy for first ion, spin component:           1
  2.002   0.000   0.000   0.002   0.000   0.000  -0.000   0.000
  0.000   2.002   0.000   0.000   0.002   0.000  -0.000   0.000
  0.000   0.000   2.002   0.000   0.000   0.002  -0.001   0.000
  0.002   0.000   0.000   0.017   0.000   0.000  -0.000  -0.000
  0.000   0.002   0.000   0.000   0.017   0.000  -0.000  -0.000
  0.000   0.000   0.002   0.000   0.000   0.018  -0.003   0.000
 -0.000  -0.000  -0.001  -0.000  -0.000  -0.003   0.403  -0.001
  0.000   0.000   0.000  -0.000  -0.000   0.000  -0.001   0.000


------------------------ aborting loop because EDIFF is reached ----------------------------------------


    CHARGE:  cpu time      0.2642: real time      0.2656
    FORLOC:  cpu time      0.0115: real time      0.0115
    FORNL :  cpu time      1.6941: real time      1.7037
    STRESS:  cpu time      9.2379: real time      9.2838
    FORCOR:  cpu time      0.0434: real time      0.0435
    FORHAR:  cpu time      0.0171: real time      0.0171
    MIXING:  cpu time      0.0014: real time      0.0014
    OFIELD:  cpu time      0.0000: real time      0.0000

  FORCE on cell =-STRESS in cart. coord.  units (eV):
  Direction    XX          YY          ZZ          XY          YZ          ZX
  --------------------------------------------------------------------------------------
  Alpha Z   751.52672   751.52672   751.52672
  Ewald   -7623.63108 -7623.92225 -7623.92225    -0.00684     0.00451    -0.00684
  Hartree  3026.12070  3026.02176  3026.02176    -0.00644     0.00371    -0.00644
  E(xc)   -2014.34804 -2014.34817 -2014.34817    -0.00000     0.00000    -0.00000
  Local   -2025.14729 -2024.76460 -2024.76460     0.01326    -0.00823     0.01326
  n-local  1887.63151  1887.51939  1887.72170     0.00001     0.00000     0.00001
  augment   687.00903   687.00941   687.00911    -0.00001    -0.00009    -0.00011
  Kinetic  5310.52628  5310.26910  5310.77978     0.00011    -0.00004     0.00011
  Fock        0.00000     0.00000     0.00000     0.00000     0.00000     0.00000
  -------------------------------------------------------------------------------------
  Total      -0.31216    -0.33230    -0.33230     0.00003    -0.00013     0.00003
  in kB      -0.35561    -0.37855    -0.37855     0.00004    -0.00015     0.00004
  external pressure =       -0.37 kB  Pullay stress =        0.00 kB


 VOLUME and BASIS-vectors are now :
 -----------------------------------------------------------------------------
  energy-cutoff  :      341.21
  volume of cell :     1406.43
      direct lattice vectors                 reciprocal lattice vectors
    11.204002360  0.000000000  0.000000000     0.089253819  0.000000000  0.000000000
     0.000000000 11.204002360  0.000000000     0.000000000  0.089253819  0.000000000
     0.000000000  0.000000000 11.204002360     0.000000000  0.000000000  0.089253819

  length of vectors
    11.204002360 11.204002360 11.204002360     0.089253819  0.089253819  0.089253819


 FORCES acting on ions
    electron-ion (+dipol)            ewald-force                    non-local-force                 convergence-correction
 -----------------------------------------------------------------------------------------------
   -.409E+01 -.165E+00 -.165E+00   0.404E+01 0.157E+00 0.157E+00   0.116E+00 0.600E-02 0.600E-02   0.733E-05 -.214E-05 -.214E-05
   0.121E+01 0.438E+00 -.159E-01   -.117E+01 -.470E+00 0.153E-01   -.346E-01 0.268E-01 0.777E-03   0.409E-05 -.196E-05 -.279E-06
   0.121E+01 -.159E-01 0.438E+00   -.117E+01 0.153E-01 -.470E+00   -.346E-01 0.777E-03 0.268E-01   0.409E-05 -.279E-06 -.196E-05
   -.242E+01 0.246E-02 0.247E-02   0.230E+01 -.259E-02 -.259E-02   0.132E+00 0.106E-03 0.106E-03   0.153E-05 -.745E-07 -.745E-07
   -.229E+00 -.166E+00 0.166E+00   0.228E+00 0.159E+00 -.159E+00   0.803E-03 0.604E-02 -.603E-02   0.486E-06 -.197E-05 0.221E-05
   0.970E+00 0.395E-01 0.160E-01   -.927E+00 -.391E-01 -.153E-01   -.377E-01 -.406E-03 -.787E-03   0.369E-05 0.959E-07 0.423E-06
   0.358E+00 -.388E-03 -.438E+00   -.360E+00 0.398E-03 0.470E+00   0.301E-03 -.940E-05 -.268E-01   0.228E-06 0.745E-06 0.169E-05
   -.317E+00 0.248E-02 -.247E-02   0.327E+00 -.259E-02 0.259E-02   -.734E-02 0.897E-04 -.996E-04   0.163E-05 -.123E-06 -.150E-06
   -.229E+00 0.166E+00 -.166E+00   0.228E+00 -.159E+00 0.159E+00   0.803E-03 -.603E-02 0.604E-02   0.486E-06 0.221E-05 -.197E-05
   0.358E+00 -.438E+00 -.388E-03   -.360E+00 0.470E+00 0.398E-03   0.301E-03 -.268E-01 -.940E-05   0.228E-06 0.169E-05 0.745E-06
   0.970E+00 0.160E-01 0.395E-01   -.927E+00 -.153E-01 -.391E-01   -.377E-01 -.787E-03 -.406E-03   0.369E-05 0.423E-06 0.959E-07
   -.317E+00 -.247E-02 0.248E-02   0.327E+00 0.259E-02 -.259E-02   -.734E-02 -.996E-04 0.897E-04   0.163E-05 -.150E-06 -.123E-06
   -.130E+00 0.166E+00 0.166E+00   0.132E+00 -.159E+00 -.159E+00   -.153E-02 -.604E-02 -.604E-02   0.241E-06 0.182E-05 0.182E-05
   0.122E+00 -.395E-01 0.387E-03   -.118E+00 0.391E-01 -.398E-03   -.277E-02 0.407E-03 0.101E-04   0.408E-07 0.208E-06 -.761E-06
   0.122E+00 0.387E-03 -.395E-01   -.118E+00 -.398E-03 0.391E-01   -.277E-02 0.101E-04 0.407E-03   0.408E-07 -.761E-06 0.208E-06
   -.303E+00 -.248E-02 -.248E-02   0.311E+00 0.259E-02 0.259E-02   -.647E-02 -.897E-04 -.897E-04   0.103E-05 -.314E-07 -.314E-07
   0.389E+00 0.168E+00 0.168E+00   -.454E+00 -.161E+00 -.161E+00   0.563E-01 -.608E-02 -.608E-02   -.422E-05 0.204E-05 0.204E-05
   -.572E-01 -.445E+00 0.159E-02   0.343E-01 0.479E+00 -.158E-02   0.185E-01 -.273E-01 -.985E-05   -.518E-05 0.217E-05 -.782E-07
   -.572E-01 0.159E-02 -.445E+00   0.343E-01 -.158E-02 0.479E+00   0.185E-01 -.985E-05 -.273E-01   -.518E-05 -.782E-07 0.217E-05
   -.201E+01 -.739E-03 -.739E-03   0.188E+01 0.777E-03 0.777E-03   0.149E+00 -.308E-04 -.308E-04   0.295E-06 -.155E-06 -.155E-06
   0.647E-01 0.168E+00 -.168E+00   -.668E-01 -.161E+00 0.161E+00   0.162E-02 -.608E-02 0.608E-02   -.636E-06 0.134E-05 -.187E-05
   -.292E+00 -.397E-01 -.159E-02   0.274E+00 0.392E-01 0.158E-02   0.155E-01 0.428E-03 0.979E-05   -.373E-05 0.203E-06 0.710E-07
   0.145E+00 0.289E-03 0.445E+00   -.153E+00 -.274E-03 -.479E+00   0.588E-02 -.130E-04 0.273E-01   -.801E-06 0.142E-06 -.215E-05
   0.152E+00 -.753E-03 0.747E-03   -.157E+00 0.777E-03 -.777E-03   0.459E-02 -.200E-04 0.248E-04   -.272E-05 0.300E-06 0.347E-06
   0.647E-01 -.168E+00 0.168E+00   -.668E-01 0.161E+00 -.161E+00   0.162E-02 0.608E-02 -.608E-02   -.636E-06 -.187E-05 0.134E-05
   0.145E+00 0.445E+00 0.289E-03   -.153E+00 -.479E+00 -.274E-03   0.588E-02 0.273E-01 -.130E-04   -.801E-06 -.215E-05 0.142E-06
   -.292E+00 -.159E-02 -.397E-01   0.274E+00 0.158E-02 0.392E-01   0.155E-01 0.979E-05 0.428E-03   -.373E-05 0.710E-07 0.203E-06
   0.152E+00 0.747E-03 -.753E-03   -.157E+00 -.777E-03 0.777E-03   0.459E-02 0.248E-04 -.200E-04   -.272E-05 0.347E-06 0.300E-06
   -.149E-02 -.168E+00 -.168E+00   -.161E-02 0.161E+00 0.161E+00   0.243E-02 0.608E-02 0.608E-02   -.494E-06 -.184E-05 -.184E-05
   -.899E-01 0.397E-01 -.289E-03   0.864E-01 -.392E-01 0.274E-03   0.286E-02 -.428E-03 0.128E-04   -.505E-06 -.126E-06 -.178E-06
   -.899E-01 -.289E-03 0.397E-01   0.864E-01 0.274E-03 -.392E-01   0.286E-02 0.128E-04 -.428E-03   -.505E-06 -.178E-06 -.126E-06
   0.165E+00 0.753E-03 0.753E-03   -.172E+00 -.777E-03 -.777E-03   0.550E-02 0.201E-04 0.201E-04   -.680E-06 -.124E-06 -.124E-06
   0.409E+01 0.155E+00 0.155E+00   -.404E+01 -.157E+00 -.157E+00   -.121E+00 0.323E-02 0.323E-02   0.640E-05 -.521E-06 -.521E-06
   -.116E+01 -.478E+00 0.152E-01   0.117E+01 0.470E+00 -.153E-01   -.733E-02 0.137E-01 -.415E-04   0.859E-06 -.190E-05 -.120E-06
   -.116E+01 0.152E-01 -.478E+00   0.117E+01 -.153E-01 0.470E+00   -.733E-02 -.415E-04 0.137E-01   0.859E-06 -.120E-06 -.190E-05
   0.229E+01 -.263E-02 -.264E-02   -.230E+01 0.259E-02 0.259E-02   -.850E-02 0.655E-04 0.655E-04   0.126E-06 -.458E-07 -.458E-07
   0.230E+00 0.157E+00 -.157E+00   -.228E+00 -.159E+00 0.159E+00   -.332E-02 0.325E-02 -.325E-02   0.524E-06 -.504E-06 0.406E-06
   -.916E+00 -.399E-01 -.152E-01   0.927E+00 0.391E-01 0.153E-01   -.166E-01 0.143E-02 0.441E-04   0.599E-06 -.125E-05 0.268E-06
   -.364E+00 0.383E-03 0.478E+00   0.360E+00 -.398E-03 -.470E+00   0.769E-02 0.255E-04 -.137E-01   -.130E-05 -.542E-07 0.197E-05
   0.330E+00 -.264E-02 0.264E-02   -.327E+00 0.259E-02 -.259E-02   -.627E-02 0.737E-04 -.743E-04   0.112E-05 0.477E-06 -.612E-06
   0.230E+00 -.157E+00 0.157E+00   -.228E+00 0.159E+00 -.159E+00   -.332E-02 -.325E-02 0.325E-02   0.524E-06 0.406E-06 -.504E-06
   -.364E+00 0.478E+00 0.383E-03   0.360E+00 -.470E+00 -.398E-03   0.769E-02 -.137E-01 0.255E-04   -.130E-05 0.197E-05 -.542E-07
   -.916E+00 -.152E-01 -.399E-01   0.927E+00 0.153E-01 0.391E-01   -.166E-01 0.441E-04 0.143E-02   0.599E-06 0.268E-06 -.125E-05
   0.330E+00 0.264E-02 -.264E-02   -.327E+00 -.259E-02 0.259E-02   -.627E-02 -.743E-04 0.737E-04   0.112E-05 -.612E-06 0.477E-06
   0.132E+00 -.157E+00 -.157E+00   -.132E+00 0.159E+00 0.159E+00   -.724E-03 -.325E-02 -.325E-02   -.271E-05 0.532E-06 0.532E-06
   -.117E+00 0.399E-01 -.382E-03   0.118E+00 -.391E-01 0.398E-03   -.161E-02 -.143E-02 -.259E-04   -.400E-06 0.117E-05 0.270E-07
   -.117E+00 -.382E-03 0.399E-01   0.118E+00 0.398E-03 -.391E-01   -.161E-02 -.259E-04 -.143E-02   -.400E-06 0.270E-07 0.117E-05
   0.314E+00 0.263E-02 0.263E-02   -.311E+00 -.259E-02 -.259E-02   -.589E-02 -.725E-04 -.725E-04   0.204E-05 -.305E-07 -.305E-07
   -.460E+00 -.159E+00 -.159E+00   0.454E+00 0.161E+00 0.161E+00   0.101E-01 -.330E-02 -.330E-02   -.393E-05 0.136E-05 0.136E-05
   0.247E-01 0.487E+00 -.156E-02   -.343E-01 -.479E+00 0.158E-02   0.164E-01 -.140E-01 -.290E-04   -.142E-05 0.306E-05 0.872E-06
   0.247E-01 -.156E-02 0.487E+00   -.343E-01 0.158E-02 -.479E+00   0.164E-01 -.290E-04 -.140E-01   -.142E-05 0.872E-06 0.306E-05
   0.187E+01 0.783E-03 0.781E-03   -.188E+01 -.777E-03 -.777E-03   -.379E-02 -.691E-05 -.691E-05   0.218E-06 -.368E-07 -.368E-07
   -.702E-01 -.159E+00 0.159E+00   0.668E-01 0.161E+00 -.161E+00   0.550E-02 -.330E-02 0.330E-02   0.114E-07 0.629E-06 -.139E-05
   0.270E+00 0.401E-01 0.156E-02   -.274E+00 -.392E-01 -.158E-02   0.699E-02 -.145E-02 0.283E-04   -.818E-06 0.202E-05 -.539E-06
   -.160E+00 -.272E-03 -.487E+00   0.153E+00 0.274E-03 0.479E+00   0.110E-01 -.353E-05 0.140E-01   -.126E-06 0.900E-06 -.252E-05
   -.159E+00 0.778E-03 -.782E-03   0.157E+00 -.777E-03 0.777E-03   0.347E-02 -.552E-05 0.814E-05   -.301E-06 0.948E-06 -.168E-06
   -.702E-01 0.159E+00 -.159E+00   0.668E-01 -.161E+00 0.161E+00   0.550E-02 0.330E-02 -.330E-02   0.114E-07 -.139E-05 0.629E-06
   -.160E+00 -.487E+00 -.272E-03   0.153E+00 0.479E+00 0.274E-03   0.110E-01 0.140E-01 -.353E-05   -.126E-06 -.252E-05 0.900E-06
   0.270E+00 0.156E-02 0.401E-01   -.274E+00 -.158E-02 -.392E-01   0.699E-02 0.283E-04 -.145E-02   -.818E-06 -.539E-06 0.202E-05
   -.159E+00 -.782E-03 0.778E-03   0.157E+00 0.777E-03 -.777E-03   0.347E-02 0.814E-05 -.552E-05   -.301E-06 -.168E-06 0.948E-06
   -.276E-02 0.159E+00 0.159E+00   0.161E-02 -.161E+00 -.161E+00   0.189E-02 0.330E-02 0.330E-02   0.324E-05 -.629E-06 -.629E-06
   0.854E-01 -.401E-01 0.274E-03   -.864E-01 0.392E-01 -.274E-03   0.155E-02 0.145E-02 0.173E-05   0.230E-06 -.210E-05 -.773E-06
   0.854E-01 0.274E-03 -.401E-01   -.864E-01 -.274E-03 0.392E-01   0.155E-02 0.173E-05 0.145E-02   0.230E-06 -.773E-06 -.210E-05
   -.174E+00 -.779E-03 -.779E-03   0.172E+00 0.777E-03 0.777E-03   0.390E-02 0.631E-05 0.631E-05   -.742E-06 -.745E-06 -.745E-06
 -----------------------------------------------------------------------------------------------
   -.300E+00 0.640E-04 0.616E-04   0.775E-13 0.304E-13 0.682E-13   0.300E+00 -.648E-04 -.648E-04   0.838E-06 0.517E-06 0.517E-06
 
 
 POSITION                                       TOTAL-FORCE (eV/Angst)
 -----------------------------------------------------------------------------------
     11.17400      0.00000      0.00000         0.062560     -0.001274     -0.001274
      2.80100      2.80100      0.00000         0.003502     -0.005802      0.000091
      2.80100      0.00000      2.80100         0.003502      0.000091     -0.005802
      0.00000      2.80100      2.80100         0.017867     -0.000022     -0.000022
      0.00000      0.00000      5.60200        -0.000184     -0.001291      0.001290
      2.80100      2.80100      5.60200         0.005038      0.000073     -0.000089
      2.80100      0.00000      8.40300        -0.000901      0.000002      0.005802
      0.00000      2.80100      8.40300         0.001817     -0.000019      0.000021
      0.00000      5.60200      0.00000        -0.000184      0.001290     -0.001291
      2.80100      8.40300      0.00000        -0.000901      0.005802      0.000002
      2.80100      5.60200      2.80100         0.005038     -0.000089      0.000073
      0.00000      8.40300      2.80100         0.001817      0.000021     -0.000019
      0.00000      5.60200      5.60200         0.000218      0.001291      0.001291
      2.80100      8.40300      5.60200         0.000629     -0.000073     -0.000002
      2.80100      5.60200      8.40300         0.000629     -0.000002     -0.000073
      0.00000      8.40300      8.40300         0.001661      0.000020      0.000020
      5.60200      0.00000      0.00000        -0.009128      0.001295      0.001295
      8.40300      2.80100      0.00000        -0.004348      0.005926      0.000003
      8.40300      0.00000      2.80100        -0.004348      0.000003      0.005926
      5.60200      2.80100      2.80100         0.019111      0.000007      0.000007
      5.60200      0.00000      5.60200        -0.000523      0.001299     -0.001298
      8.40300      2.80100      5.60200        -0.002803     -0.000078     -0.000003
      8.40300      0.00000      8.40300        -0.002183      0.000003     -0.005926
      5.60200      2.80100      8.40300        -0.000996      0.000004     -0.000005
      5.60200      5.60200      0.00000        -0.000523     -0.001298      0.001299
      8.40300      8.40300      0.00000        -0.002183     -0.005926      0.000003
      8.40300      5.60200      2.80100        -0.002803     -0.000003     -0.000078
      5.60200      8.40300      2.80100        -0.000996     -0.000005      0.000004
      5.60200      5.60200      5.60200        -0.000655     -0.001299     -0.001299
      8.40300      8.40300      5.60200        -0.000637      0.000078     -0.000003
      8.40300      5.60200      8.40300        -0.000637     -0.000003      0.000078
      5.60200      8.40300      8.40300        -0.001159     -0.000004     -0.000004
      2.83100      2.80100      2.80100        -0.075786      0.001276      0.001276
      0.00000      0.00000      2.80100        -0.001139      0.005727     -0.000117
      0.00000      2.80100      0.00000        -0.001139     -0.000117      0.005727
      2.80100      0.00000      0.00000        -0.018515      0.000024      0.000024
      2.80100      2.80100      8.40300        -0.001307      0.001283     -0.001284
      0.00000      0.00000      8.40300        -0.005037      0.000568      0.000122
      0.00000      2.80100      5.60200         0.003266      0.000010     -0.005737
      2.80100      0.00000      5.60200        -0.002477      0.000031     -0.000030
      2.80100      8.40300      2.80100        -0.001307     -0.001284      0.001283
      0.00000      5.60200      2.80100         0.003266     -0.005737      0.000010
      0.00000      8.40300      0.00000        -0.005037      0.000122      0.000568
      2.80100      5.60200      0.00000        -0.002477     -0.000030      0.000031
      2.80100      8.40300      8.40300        -0.000278     -0.001284     -0.001284
      0.00000      5.60200      8.40300        -0.000636     -0.000567     -0.000010
      0.00000      8.40300      5.60200        -0.000636     -0.000010     -0.000567
      2.80100      5.60200      5.60200        -0.002327     -0.000032     -0.000032
      8.40300      2.80100      2.80100         0.004062     -0.001306     -0.001306
      5.60200      0.00000      2.80100         0.006753     -0.005881     -0.000014
      5.60200      2.80100      0.00000         0.006753     -0.000014     -0.005881
      8.40300      0.00000      0.00000        -0.018684     -0.000002     -0.000002
      8.40300      2.80100      8.40300         0.002179     -0.001306      0.001306
      5.60200      0.00000      8.40300         0.002782     -0.000576      0.000012
      5.60200      2.80100      5.60200         0.004591     -0.000001      0.005885
      8.40300      0.00000      5.60200         0.001376     -0.000004      0.000003
      8.40300      8.40300      2.80100         0.002179      0.001306     -0.001306
      5.60200      5.60200      2.80100         0.004591      0.005885     -0.000001
      5.60200      8.40300      0.00000         0.002782      0.000012     -0.000576
      8.40300      5.60200      0.00000         0.001376      0.000003     -0.000004
      8.40300      8.40300      8.40300         0.000747      0.001306      0.001306
      5.60200      5.60200      8.40300         0.000618      0.000575      0.000001
      5.60200      8.40300      5.60200         0.000618      0.000001      0.000575
      8.40300      5.60200      5.60200         0.001548      0.000004      0.000004
 -----------------------------------------------------------------------------------
    total drift:                               -0.000374     -0.000000     -0.000003


--------------------------------------------------------------------------------------------------------



  FREE ENERGIE OF THE ION-ELECTRON SYSTEM (eV)
  ---------------------------------------------------
  free  energy   TOTEN  =      -223.90063121 eV

  energy  without entropy=     -223.90063121  energy(sigma->0) =     -223.90063121
 


--------------------------------------------------------------------------------------------------------


    POTLOK:  cpu time      0.0685: real time      0.0691


--------------------------------------------------------------------------------------------------------


     LOOP+:  cpu time    182.9884: real time    184.0238
    4ORBIT:  cpu time      0.0000: real time      0.0000

 total amount of memory used by VASP MPI-rank0   118439. kBytes
=======================================================================

   base      :      30000. kBytes
   nonl-proj :      36470. kBytes
   fftplans  :      14405. kBytes
   grid      :      19342. kBytes
   one-center:        196. kBytes
   wavefun   :      18026. kBytes
 
  
  
 General timing and accounting informations for this job:
 ========================================================
  
                  Total CPU time used (sec):      186.506
                            User time (sec):      185.935
                          System time (sec):        0.571
                         Elapsed time (sec):      187.968
  
                   Maximum memory used (kb):      306332.
                   Average memory used (kb):          N/A
  
                          Minor page faults:       123010
                          Major page faults:            0
                 Voluntary context switches:          878
