<?xml version="1.0" encoding="ISO-8859-1"?>
<modeling>
 <generator>
  <i name="program" type="string">vasp </i>
  <i name="version" type="string">6.3.2  </i>
  <i name="subversion" type="string">27Jun22 (build Oct 14 2022 12:13:54) complex                          parallel </i>
  <i name="platform" type="string">LinuxIFC </i>
  <i name="date" type="string">2025 08 28 </i>
  <i name="time" type="string">22:00:53 </i>
 </generator>
 <incar>
  <i type="string" name="PREC">Accurate</i>
  <i type="int" name="IALGO">    38</i>
  <i type="logical" name="ADDGRID"> T  </i>
  <i type="int" name="NELMIN">     5</i>
  <i type="int" name="IBRION">    -1</i>
  <i name="EDIFF">      0.00000001</i>
  <i name="ENCUT">    341.21360000</i>
  <i type="logical" name="LREAL"> F  </i>
  <i type="int" name="ISMEAR">     0</i>
  <i name="SIGMA">      0.02000000</i>
  <i type="logical" name="LWAVE"> F  </i>
  <i type="logical" name="LCHARG"> F  </i>
  <i type="string" name="GGA">PS</i>
 </incar>
 <primitive_cell>
  <structure name="primitive_cell" >
   <crystal>
    <varray name="basis" >
     <v>      11.20400236       0.00000000       0.00000000 </v>
     <v>       0.00000000      11.20400236       0.00000000 </v>
     <v>       0.00000000       0.00000000      11.20400236 </v>
    </varray>
    <i name="volume">   1406.43470641 </i>
    <varray name="rec_basis" >
     <v>       0.08925382       0.00000000       0.00000000 </v>
     <v>       0.00000000       0.08925382       0.00000000 </v>
     <v>       0.00000000       0.00000000       0.08925382 </v>
    </varray>
   </crystal>
   <varray name="positions" >
    <v>       0.99732239       0.00000000       0.00000000 </v>
    <v>       0.25000000       0.25000000       0.00000000 </v>
    <v>       0.25000000       0.00000000       0.25000000 </v>
    <v>       0.00000000       0.25000000       0.25000000 </v>
    <v>       0.00000000       0.00000000       0.50000000 </v>
    <v>       0.25000000       0.25000000       0.50000000 </v>
    <v>       0.25000000       0.00000000       0.75000000 </v>
    <v>       0.00000000       0.25000000       0.75000000 </v>
    <v>       0.00000000       0.50000000       0.00000000 </v>
    <v>       0.25000000       0.75000000       0.00000000 </v>
    <v>       0.25000000       0.50000000       0.25000000 </v>
    <v>       0.00000000       0.75000000       0.25000000 </v>
    <v>       0.00000000       0.50000000       0.50000000 </v>
    <v>       0.25000000       0.75000000       0.50000000 </v>
    <v>       0.25000000       0.50000000       0.75000000 </v>
    <v>       0.00000000       0.75000000       0.75000000 </v>
    <v>       0.50000000       0.00000000       0.00000000 </v>
    <v>       0.75000000       0.25000000       0.00000000 </v>
    <v>       0.75000000       0.00000000       0.25000000 </v>
    <v>       0.50000000       0.25000000       0.25000000 </v>
    <v>       0.50000000       0.00000000       0.50000000 </v>
    <v>       0.75000000       0.25000000       0.50000000 </v>
    <v>       0.75000000       0.00000000       0.75000000 </v>
    <v>       0.50000000       0.25000000       0.75000000 </v>
    <v>       0.50000000       0.50000000       0.00000000 </v>
    <v>       0.75000000       0.75000000       0.00000000 </v>
    <v>       0.75000000       0.50000000       0.25000000 </v>
    <v>       0.50000000       0.75000000       0.25000000 </v>
    <v>       0.50000000       0.50000000       0.50000000 </v>
    <v>       0.75000000       0.75000000       0.50000000 </v>
    <v>       0.75000000       0.50000000       0.75000000 </v>
    <v>       0.50000000       0.75000000       0.75000000 </v>
    <v>       0.25267761       0.25000000       0.25000000 </v>
    <v>       0.00000000       0.00000000       0.25000000 </v>
    <v>       0.00000000       0.25000000       0.00000000 </v>
    <v>       0.25000000       0.00000000       0.00000000 </v>
    <v>       0.25000000       0.25000000       0.75000000 </v>
    <v>       0.00000000       0.00000000       0.75000000 </v>
    <v>       0.00000000       0.25000000       0.50000000 </v>
    <v>       0.25000000       0.00000000       0.50000000 </v>
    <v>       0.25000000       0.75000000       0.25000000 </v>
    <v>       0.00000000       0.50000000       0.25000000 </v>
    <v>       0.00000000       0.75000000       0.00000000 </v>
    <v>       0.25000000       0.50000000       0.00000000 </v>
    <v>       0.25000000       0.75000000       0.75000000 </v>
    <v>       0.00000000       0.50000000       0.75000000 </v>
    <v>       0.00000000       0.75000000       0.50000000 </v>
    <v>       0.25000000       0.50000000       0.50000000 </v>
    <v>       0.75000000       0.25000000       0.25000000 </v>
    <v>       0.50000000       0.00000000       0.25000000 </v>
    <v>       0.50000000       0.25000000       0.00000000 </v>
    <v>       0.75000000       0.00000000       0.00000000 </v>
    <v>       0.75000000       0.25000000       0.75000000 </v>
    <v>       0.50000000       0.00000000       0.75000000 </v>
    <v>       0.50000000       0.25000000       0.50000000 </v>
    <v>       0.75000000       0.00000000       0.50000000 </v>
    <v>       0.75000000       0.75000000       0.25000000 </v>
    <v>       0.50000000       0.50000000       0.25000000 </v>
    <v>       0.50000000       0.75000000       0.00000000 </v>
    <v>       0.75000000       0.50000000       0.00000000 </v>
    <v>       0.75000000       0.75000000       0.75000000 </v>
    <v>       0.50000000       0.50000000       0.75000000 </v>
    <v>       0.50000000       0.75000000       0.50000000 </v>
    <v>       0.75000000       0.50000000       0.50000000 </v>
   </varray>
  </structure>
  <varray name="primitive_index" >
   <v type="int" >        1 </v>
   <v type="int" >        2 </v>
   <v type="int" >        3 </v>
   <v type="int" >        4 </v>
   <v type="int" >        5 </v>
   <v type="int" >        6 </v>
   <v type="int" >        7 </v>
   <v type="int" >        8 </v>
   <v type="int" >        9 </v>
   <v type="int" >       10 </v>
   <v type="int" >       11 </v>
   <v type="int" >       12 </v>
   <v type="int" >       13 </v>
   <v type="int" >       14 </v>
   <v type="int" >       15 </v>
   <v type="int" >       16 </v>
   <v type="int" >       17 </v>
   <v type="int" >       18 </v>
   <v type="int" >       19 </v>
   <v type="int" >       20 </v>
   <v type="int" >       21 </v>
   <v type="int" >       22 </v>
   <v type="int" >       23 </v>
   <v type="int" >       24 </v>
   <v type="int" >       25 </v>
   <v type="int" >       26 </v>
   <v type="int" >       27 </v>
   <v type="int" >       28 </v>
   <v type="int" >       29 </v>
   <v type="int" >       30 </v>
   <v type="int" >       31 </v>
   <v type="int" >       32 </v>
   <v type="int" >       33 </v>
   <v type="int" >       34 </v>
   <v type="int" >       35 </v>
   <v type="int" >       36 </v>
   <v type="int" >       37 </v>
   <v type="int" >       38 </v>
   <v type="int" >       39 </v>
   <v type="int" >       40 </v>
   <v type="int" >       41 </v>
   <v type="int" >       42 </v>
   <v type="int" >       43 </v>
   <v type="int" >       44 </v>
   <v type="int" >       45 </v>
   <v type="int" >       46 </v>
   <v type="int" >       47 </v>
   <v type="int" >       48 </v>
   <v type="int" >       49 </v>
   <v type="int" >       50 </v>
   <v type="int" >       51 </v>
   <v type="int" >       52 </v>
   <v type="int" >       53 </v>
   <v type="int" >       54 </v>
   <v type="int" >       55 </v>
   <v type="int" >       56 </v>
   <v type="int" >       57 </v>
   <v type="int" >       58 </v>
   <v type="int" >       59 </v>
   <v type="int" >       60 </v>
   <v type="int" >       61 </v>
   <v type="int" >       62 </v>
   <v type="int" >       63 </v>
   <v type="int" >       64 </v>
  </varray>
 </primitive_cell>
 <kpoints>
  <generation param="Gamma">
   <v type="int" name="divisions">       2        2        2 </v>
   <v name="usershift">      0.00000000       0.00000000       0.00000000 </v>
   <v name="genvec1">      0.50000000       0.00000000       0.00000000 </v>
   <v name="genvec2">      0.00000000       0.50000000       0.00000000 </v>
   <v name="genvec3">      0.00000000       0.00000000       0.50000000 </v>
   <v name="shift">      0.00000000       0.00000000       0.00000000 </v>
  </generation>
  <varray name="kpointlist" >
   <v>       0.00000000       0.00000000       0.00000000 </v>
   <v>       0.50000000       0.00000000       0.00000000 </v>
   <v>       0.00000000       0.50000000       0.00000000 </v>
   <v>       0.50000000       0.50000000       0.00000000 </v>
   <v>       0.00000000       0.50000000       0.50000000 </v>
   <v>       0.50000000       0.50000000       0.50000000 </v>
  </varray>
  <varray name="weights" >
   <v>       0.12500000 </v>
   <v>       0.12500000 </v>
   <v>       0.25000000 </v>
   <v>       0.25000000 </v>
   <v>       0.12500000 </v>
   <v>       0.12500000 </v>
  </varray>
 </kpoints>
 <parameters>
  <separator name="general" >
   <i type="string" name="SYSTEM">unknown system</i>
   <i type="logical" name="LCOMPAT"> F  </i>
  </separator>
  <separator name="electronic" >
   <i type="string" name="PREC">accura</i>
   <i name="ENMAX">    341.21360000</i>
   <i name="ENAUG">    368.05600000</i>
   <i name="EDIFF">      0.00000001</i>
   <i type="int" name="IALGO">    38</i>
   <i type="int" name="IWAVPR">    10</i>
   <i type="int" name="NBANDS">   288</i>
   <i type="int" name="NBANDSLOW">    -1</i>
   <i type="int" name="NBANDSHIGH">    -1</i>
   <i name="NELECT">    448.00000000</i>
   <i type="int" name="TURBO">     0</i>
   <i type="int" name="IRESTART">     0</i>
   <i type="int" name="NREBOOT">     0</i>
   <i type="int" name="NMIN">     0</i>
   <i name="EREF">      0.00000000</i>
   <separator name="electronic smearing" >
    <i type="int" name="ISMEAR">     0</i>
    <i name="SIGMA">      0.02000000</i>
    <i name="KSPACING">      0.50000000</i>
    <i type="logical" name="KGAMMA"> T  </i>
    <i type="logical" name="KBLOWUP"> T  </i>
   </separator>
   <separator name="electronic projectors" >
    <i type="logical" name="LREAL"> F  </i>
    <v name="ROPT">      0.00000000      0.00000000</v>
    <i type="int" name="LMAXPAW">  -100</i>
    <i type="int" name="LMAXMIX">     2</i>
    <i type="logical" name="NLSPLINE"> F  </i>
   </separator>
   <separator name="electronic startup" >
    <i type="int" name="ISTART">     0</i>
    <i type="int" name="ICHARG">     2</i>
    <i type="int" name="INIWAV">     1</i>
   </separator>
   <separator name="electronic spin" >
    <i type="int" name="ISPIN">     1</i>
    <i type="logical" name="LNONCOLLINEAR"> F  </i>
    <v name="MAGMOM">      1.00000000      1.00000000      1.00000000      1.00000000      1.00000000      1.00000000      1.00000000      1.00000000      1.00000000      1.00000000      1.00000000      1.00000000      1.00000000      1.00000000      1.00000000      1.00000000      1.00000000      1.00000000      1.00000000      1.00000000
      1.00000000      1.00000000      1.00000000      1.00000000      1.00000000      1.00000000      1.00000000      1.00000000      1.00000000      1.00000000      1.00000000      1.00000000      1.00000000      1.00000000      1.00000000      1.00000000      1.00000000      1.00000000      1.00000000      1.00000000
      1.00000000      1.00000000      1.00000000      1.00000000      1.00000000      1.00000000      1.00000000      1.00000000      1.00000000      1.00000000      1.00000000      1.00000000      1.00000000      1.00000000      1.00000000      1.00000000      1.00000000      1.00000000      1.00000000      1.00000000
      1.00000000      1.00000000      1.00000000      1.00000000</v>
    <i name="NUPDOWN">     -1.00000000</i>
    <i type="logical" name="LSORBIT"> F  </i>
    <v name="SAXIS">      0.00000000      0.00000000      1.00000000</v>
    <i type="logical" name="LSPIRAL"> F  </i>
    <v name="QSPIRAL">      0.00000000      0.00000000      0.00000000</v>
    <i type="logical" name="LZEROZ"> F  </i>
   </separator>
   <separator name="electronic exchange-correlation" >
    <i type="logical" name="LASPH"> F  </i>
    <i type="logical" name="LMETAGGA"> F  </i>
   </separator>
   <separator name="electronic convergence" >
    <i type="int" name="NELM">    60</i>
    <i type="int" name="NELMDL">    -5</i>
    <i type="int" name="NELMIN">     5</i>
    <i name="ENINI">    341.21360000</i>
    <separator name="electronic convergence detail" >
     <i type="logical" name="LDIAG"> T  </i>
     <i type="logical" name="LSUBROT"> F  </i>
     <i name="WEIMIN">      0.00000000</i>
     <i name="EBREAK">      0.00000000</i>
     <i name="DEPER">      0.30000000</i>
     <i type="int" name="NRMM">     4</i>
     <i name="TIME">      0.40000000</i>
    </separator>
   </separator>
   <separator name="electronic mixer" >
    <i name="AMIX">      0.40000000</i>
    <i name="BMIX">      1.00000000</i>
    <i name="AMIN">      0.10000000</i>
    <i name="AMIX_MAG">      1.60000000</i>
    <i name="BMIX_MAG">      1.00000000</i>
    <separator name="electronic mixer details" >
     <i type="int" name="IMIX">     4</i>
     <i type="logical" name="MIXFIRST"> F  </i>
     <i type="int" name="MAXMIX">   -45</i>
     <i name="WC">    100.00000000</i>
     <i type="int" name="INIMIX">     1</i>
     <i type="int" name="MIXPRE">     1</i>
     <i type="int" name="MREMOVE">     5</i>
    </separator>
   </separator>
   <separator name="electronic dipolcorrection" >
    <i type="logical" name="LDIPOL"> F  </i>
    <i type="logical" name="LMONO"> F  </i>
    <i type="int" name="IDIPOL">     0</i>
    <i name="EPSILON">      1.00000000</i>
    <v name="DIPOL">   -100.00000000   -100.00000000   -100.00000000</v>
    <i name="EFIELD">      0.00000000</i>
   </separator>
  </separator>
  <separator name="grids" >
   <i type="int" name="NGX">    70</i>
   <i type="int" name="NGY">    70</i>
   <i type="int" name="NGZ">    70</i>
   <i type="int" name="NGXF">   140</i>
   <i type="int" name="NGYF">   140</i>
   <i type="int" name="NGZF">   140</i>
   <i type="logical" name="ADDGRID"> T  </i>
  </separator>
  <separator name="ionic" >
   <i type="int" name="NSW">     0</i>
   <i type="int" name="IBRION">    -1</i>
   <i type="int" name="MDALGO">     0</i>
   <i type="int" name="ISIF">     2</i>
   <i name="PSTRESS">      0.00000000</i>
   <i name="EDIFFG">      0.00000010</i>
   <i type="int" name="NFREE">     0</i>
   <i name="POTIM">      0.50000000</i>
   <i name="SMASS">     -3.00000000</i>
   <i name="SCALEE">      1.00000000</i>
  </separator>
  <separator name="ionic md" >
   <i name="TEBEG">      0.00010000</i>
   <i name="TEEND">      0.00010000</i>
   <i type="int" name="NBLOCK">     1</i>
   <i type="int" name="KBLOCK">     1</i>
   <i type="int" name="NPACO">   256</i>
   <i name="APACO">     10.00000000</i>
  </separator>
  <separator name="symmetry" >
   <i type="int" name="ISYM">     2</i>
   <i name="SYMPREC">      0.00001000</i>
  </separator>
  <separator name="dos" >
   <i type="int" name="LORBIT">     0</i>
   <v name="RWIGS">     -1.00000000     -1.00000000</v>
   <i type="int" name="NEDOS">   301</i>
   <i name="EMIN">     10.00000000</i>
   <i name="EMAX">    -10.00000000</i>
   <i name="EFERMI">      0.00000000</i>
  </separator>
  <separator name="writing" >
   <i type="int" name="NWRITE">     2</i>
   <i type="logical" name="LWAVE"> F  </i>
   <i type="logical" name="LDOWNSAMPLE"> F  </i>
   <i type="logical" name="LCHARG"> F  </i>
   <i type="logical" name="LPARD"> F  </i>
   <i type="logical" name="LVTOT"> F  </i>
   <i type="logical" name="LVHAR"> F  </i>
   <i type="logical" name="LELF"> F  </i>
   <i type="logical" name="LOPTICS"> F  </i>
   <v name="STM">      0.00000000      0.00000000      0.00000000      0.00000000      0.00000000      0.00000000      0.00000000</v>
  </separator>
  <separator name="performance" >
   <i type="int" name="NPAR">    32</i>
   <i type="int" name="NSIM">     4</i>
   <i type="int" name="NBLK">    -1</i>
   <i type="logical" name="LPLANE"> T  </i>
   <i type="logical" name="LSCALAPACK"> T  </i>
   <i type="logical" name="LSCAAWARE"> F  </i>
   <i type="logical" name="LSCALU"> F  </i>
   <i type="logical" name="LASYNC"> F  </i>
   <i type="logical" name="LORBITALREAL"> F  </i>
  </separator>
  <separator name="miscellaneous" >
   <i type="int" name="IDIOT">     3</i>
   <i type="int" name="PHON_NSTRUCT">    -1</i>
   <i type="logical" name="LMUSIC"> F  </i>
   <v name="POMASS">     22.99000000     35.45300000</v>
   <v name="DARWINR">      0.00000000      0.00000000</v>
   <v name="DARWINV">      1.00000000      1.00000000</v>
   <i type="logical" name="LCORR"> T  </i>
  </separator>
  <i type="logical" name="GGA_COMPAT"> T  </i>
  <i type="logical" name="LBERRY"> F  </i>
  <i type="int" name="ICORELEVEL">     0</i>
  <i type="logical" name="LDAU"> F  </i>
  <i type="int" name="I_CONSTRAINED_M">     0</i>
  <separator name="electronic exchange-correlation" >
   <i type="string" name="GGA">PS</i>
   <i type="int" name="VOSKOWN">     0</i>
   <i type="logical" name="LHFCALC"> F  </i>
   <i type="string" name="PRECFOCK"></i>
   <i type="logical" name="LSYMGRAD"> F  </i>
   <i type="logical" name="LHFONE"> F  </i>
   <i type="logical" name="LRHFCALC"> F  </i>
   <i type="logical" name="LTHOMAS"> F  </i>
   <i type="logical" name="LMODELHF"> F  </i>
   <i type="logical" name="LFOCKACE"> F  </i>
   <i name="ENCUT4O">     -1.00000000</i>
   <i type="int" name="EXXOEP">     0</i>
   <i type="int" name="FOURORBIT">     0</i>
   <i name="AEXX">      0.00000000</i>
   <i name="HFALPHA">      0.00000000</i>
   <i name="MCALPHA">      0.00000000</i>
   <i name="ALDAX">      1.00000000</i>
   <i name="AGGAX">      1.00000000</i>
   <i name="ALDAC">      1.00000000</i>
   <i name="AGGAC">      1.00000000</i>
   <i type="int" name="NKREDX">     1</i>
   <i type="int" name="NKREDY">     1</i>
   <i type="int" name="NKREDZ">     1</i>
   <i type="logical" name="SHIFTRED"> F  </i>
   <i type="logical" name="ODDONLY"> F  </i>
   <i type="logical" name="EVENONLY"> F  </i>
   <i type="int" name="LMAXFOCK">     0</i>
   <i type="int" name="NMAXFOCKAE">     0</i>
   <i type="logical" name="LFOCKAEDFT"> F  </i>
   <i name="HFSCREEN">      0.00000000</i>
   <i name="HFSCREENC">      0.00000000</i>
   <i type="int" name="NBANDSGWLOW">     0</i>
  </separator>
  <separator name="vdW DFT" >
   <i type="logical" name="LUSE_VDW"> F  </i>
   <i name="Zab_VDW">     -0.84910000</i>
   <i name="PARAM1">      0.12340000</i>
   <i name="PARAM2">      1.00000000</i>
   <i name="PARAM3">      0.00000000</i>
  </separator>
  <separator name="model GW" >
   <i type="int" name="MODEL_GW">     0</i>
   <i name="MODEL_EPS0">     13.18532537</i>
   <i name="MODEL_ALPHA">      1.00000000</i>
  </separator>
  <separator name="linear response parameters" >
   <i type="logical" name="LEPSILON"> F  </i>
   <i type="logical" name="LRPA"> F  </i>
   <i type="logical" name="LNABLA"> F  </i>
   <i type="logical" name="LVEL"> F  </i>
   <i name="CSHIFT">      0.10000000</i>
   <i name="OMEGAMAX">     -1.00000000</i>
   <i name="DEG_THRESHOLD">      0.00200000</i>
   <i name="RTIME">     -0.10000000</i>
   <i name="WPLASMAI">      0.00000000</i>
   <v name="DFIELD">      0.00000000      0.00000000      0.00000000</v>
   <v name="WPLASMA">      0.00000000      0.00000000      0.00000000      0.00000000      0.00000000      0.00000000      0.00000000      0.00000000      0.00000000</v>
  </separator>
  <separator name="orbital magnetization" >
   <i type="logical" name="NUCIND"> F  </i>
   <v name="MAGPOS">      0.00000000      0.00000000      0.00000000</v>
   <i type="logical" name="LNICSALL"> T  </i>
   <i type="logical" name="ORBITALMAG"> F  </i>
   <i type="logical" name="LMAGBLOCH"> F  </i>
   <i type="logical" name="LCHIMAG"> F  </i>
   <i type="logical" name="LGAUGE"> T  </i>
   <i type="int" name="MAGATOM">     0</i>
   <v name="MAGDIPOL">      0.00000000      0.00000000      0.00000000</v>
   <v name="AVECCONST">      0.00000000      0.00000000      0.00000000</v>
  </separator>
  <separator name="response functions" >
   <i type="logical" name="LFINITE_TEMPERATURE"> F  </i>
   <i type="logical" name="LADDER"> F  </i>
   <i type="logical" name="LRPAFORCE"> F  </i>
   <i type="logical" name="LFXC"> F  </i>
   <i type="logical" name="LHARTREE"> T  </i>
   <i type="int" name="IBSE">     0</i>
   <v type="int" name="KPOINT">    -1     0     0     0</v>
   <i type="logical" name="LTCTC"> F  </i>
   <i type="logical" name="LTCTE"> F  </i>
   <i type="logical" name="LTETE"> F  </i>
   <i type="logical" name="LTRIPLET"> F  </i>
   <i type="logical" name="LFXCEPS"> F  </i>
   <i type="logical" name="LFXHEG"> F  </i>
   <i type="int" name="NATURALO">     2</i>
   <i type="logical" name="LHOLEGF"> F  </i>
   <i type="logical" name="L2ORDER"> F  </i>
   <i type="logical" name="LDMP1"> F  </i>
   <i type="logical" name="LMP2LT"> F  </i>
   <i type="logical" name="LSMP2LT"> F  </i>
   <i type="logical" name="LGWLF"> F  </i>
   <i name="ENCUTGW">     -2.00000000</i>
   <i name="ENCUTGWSOFT">     -2.00000000</i>
   <i name="ENCUTLF">     -1.00000000</i>
   <i type="logical" name="LESF_SPLINES"> F  </i>
   <i type="int" name="LMAXMP2">    -1</i>
   <i name="SCISSOR">      0.00000000</i>
   <i type="int" name="NOMEGA">     0</i>
   <i type="int" name="NOMEGAR">     0</i>
   <i type="int" name="NBANDSGW">    -1</i>
   <i type="int" name="NBANDSO">    -1</i>
   <i type="int" name="NBANDSV">    -1</i>
   <i type="int" name="NELMGW">     1</i>
   <i type="int" name="NELMHF">     1</i>
   <i type="int" name="DIM">     3</i>
   <i type="int" name="IESPILON">     4</i>
   <i type="int" name="ANTIRES">     0</i>
   <i name="OMEGAMAX">    -30.00000000</i>
   <i name="OMEGAMIN">    -30.00000000</i>
   <i name="OMEGATL">   -200.00000000</i>
   <i type="int" name="OMEGAGRID">     0</i>
   <i name="CSHIFT">     -0.10000000</i>
   <i type="logical" name="LSELFENERGY"> F  </i>
   <i type="logical" name="LSPECTRAL"> F  </i>
   <i type="logical" name="LSPECTRALGW"> F  </i>
   <i type="logical" name="LSINGLES"> F  </i>
   <i type="logical" name="LFERMIGW"> F  </i>
   <i type="logical" name="ODDONLYGW"> F  </i>
   <i type="logical" name="EVENONLYGW"> F  </i>
   <i type="int" name="NKREDLFX">     1</i>
   <i type="int" name="NKREDLFY">     1</i>
   <i type="int" name="NKREDLFZ">     1</i>
   <i type="int" name="MAXMEM">  2800</i>
   <i type="int" name="TELESCOPE">     0</i>
   <i type="int" name="NTAUPAR">    -1</i>
   <i type="int" name="NOMEGAPAR">    -1</i>
   <i name="DAMP_NEWTON">      0.80000001</i>
   <i name="LAMBDA">      1.00000000</i>
  </separator>
  <separator name="External order field" >
   <i name="OFIELD_KAPPA">      0.00000000</i>
   <v name="OFIELD_K">      0.00000000      0.00000000      0.00000000</v>
   <i name="OFIELD_Q6_NEAR">      0.00000000</i>
   <i name="OFIELD_Q6_FAR">      0.00000000</i>
   <i name="OFIELD_A">      0.00000000</i>
  </separator>
  <separator name="optional k-points parameters" >
   <i type="int" name="KPOINTS_OPT_MODE">     1</i>
   <i type="logical" name="LKPOINTS_OPT"> F  </i>
  </separator>
 </parameters>
 <atominfo>
  <atoms>      64 </atoms>
  <types>       2 </types>
  <array name="atoms" >
   <dimension dim="1">ion</dimension>
   <field type="string">element</field>
   <field type="int">atomtype</field>
   <set>
    <rc><c>Na</c><c>   1</c></rc>
    <rc><c>Na</c><c>   1</c></rc>
    <rc><c>Na</c><c>   1</c></rc>
    <rc><c>Na</c><c>   1</c></rc>
    <rc><c>Na</c><c>   1</c></rc>
    <rc><c>Na</c><c>   1</c></rc>
    <rc><c>Na</c><c>   1</c></rc>
    <rc><c>Na</c><c>   1</c></rc>
    <rc><c>Na</c><c>   1</c></rc>
    <rc><c>Na</c><c>   1</c></rc>
    <rc><c>Na</c><c>   1</c></rc>
    <rc><c>Na</c><c>   1</c></rc>
    <rc><c>Na</c><c>   1</c></rc>
    <rc><c>Na</c><c>   1</c></rc>
    <rc><c>Na</c><c>   1</c></rc>
    <rc><c>Na</c><c>   1</c></rc>
    <rc><c>Na</c><c>   1</c></rc>
    <rc><c>Na</c><c>   1</c></rc>
    <rc><c>Na</c><c>   1</c></rc>
    <rc><c>Na</c><c>   1</c></rc>
    <rc><c>Na</c><c>   1</c></rc>
    <rc><c>Na</c><c>   1</c></rc>
    <rc><c>Na</c><c>   1</c></rc>
    <rc><c>Na</c><c>   1</c></rc>
    <rc><c>Na</c><c>   1</c></rc>
    <rc><c>Na</c><c>   1</c></rc>
    <rc><c>Na</c><c>   1</c></rc>
    <rc><c>Na</c><c>   1</c></rc>
    <rc><c>Na</c><c>   1</c></rc>
    <rc><c>Na</c><c>   1</c></rc>
    <rc><c>Na</c><c>   1</c></rc>
    <rc><c>Na</c><c>   1</c></rc>
    <rc><c>Cl</c><c>   2</c></rc>
    <rc><c>Cl</c><c>   2</c></rc>
    <rc><c>Cl</c><c>   2</c></rc>
    <rc><c>Cl</c><c>   2</c></rc>
    <rc><c>Cl</c><c>   2</c></rc>
    <rc><c>Cl</c><c>   2</c></rc>
    <rc><c>Cl</c><c>   2</c></rc>
    <rc><c>Cl</c><c>   2</c></rc>
    <rc><c>Cl</c><c>   2</c></rc>
    <rc><c>Cl</c><c>   2</c></rc>
    <rc><c>Cl</c><c>   2</c></rc>
    <rc><c>Cl</c><c>   2</c></rc>
    <rc><c>Cl</c><c>   2</c></rc>
    <rc><c>Cl</c><c>   2</c></rc>
    <rc><c>Cl</c><c>   2</c></rc>
    <rc><c>Cl</c><c>   2</c></rc>
    <rc><c>Cl</c><c>   2</c></rc>
    <rc><c>Cl</c><c>   2</c></rc>
    <rc><c>Cl</c><c>   2</c></rc>
    <rc><c>Cl</c><c>   2</c></rc>
    <rc><c>Cl</c><c>   2</c></rc>
    <rc><c>Cl</c><c>   2</c></rc>
    <rc><c>Cl</c><c>   2</c></rc>
    <rc><c>Cl</c><c>   2</c></rc>
    <rc><c>Cl</c><c>   2</c></rc>
    <rc><c>Cl</c><c>   2</c></rc>
    <rc><c>Cl</c><c>   2</c></rc>
    <rc><c>Cl</c><c>   2</c></rc>
    <rc><c>Cl</c><c>   2</c></rc>
    <rc><c>Cl</c><c>   2</c></rc>
    <rc><c>Cl</c><c>   2</c></rc>
    <rc><c>Cl</c><c>   2</c></rc>
   </set>
  </array>
  <array name="atomtypes" >
   <dimension dim="1">type</dimension>
   <field type="int">atomspertype</field>
   <field type="string">element</field>
   <field>mass</field>
   <field>valence</field>
   <field type="string">pseudopotential</field>
   <set>
    <rc><c>  32</c><c>Na</c><c>     22.99000000</c><c>      7.00000000</c><c>  PAW_PBE Na_pv 19Sep2006               </c></rc>
    <rc><c>  32</c><c>Cl</c><c>     35.45300000</c><c>      7.00000000</c><c>  PAW_PBE Cl 06Sep2000                  </c></rc>
   </set>
  </array>
 </atominfo>
 <structure name="initialpos" >
  <crystal>
   <varray name="basis" >
    <v>      11.20400236       0.00000000       0.00000000 </v>
    <v>       0.00000000      11.20400236       0.00000000 </v>
    <v>       0.00000000       0.00000000      11.20400236 </v>
   </varray>
   <i name="volume">   1406.43470641 </i>
   <varray name="rec_basis" >
    <v>       0.08925382       0.00000000       0.00000000 </v>
    <v>       0.00000000       0.08925382       0.00000000 </v>
    <v>       0.00000000       0.00000000       0.08925382 </v>
   </varray>
  </crystal>
  <varray name="positions" >
   <v>       0.99732239       0.00000000       0.00000000 </v>
   <v>       0.25000000       0.25000000       0.00000000 </v>
   <v>       0.25000000       0.00000000       0.25000000 </v>
   <v>       0.00000000       0.25000000       0.25000000 </v>
   <v>       0.00000000       0.00000000       0.50000000 </v>
   <v>       0.25000000       0.25000000       0.50000000 </v>
   <v>       0.25000000       0.00000000       0.75000000 </v>
   <v>       0.00000000       0.25000000       0.75000000 </v>
   <v>       0.00000000       0.50000000       0.00000000 </v>
   <v>       0.25000000       0.75000000       0.00000000 </v>
   <v>       0.25000000       0.50000000       0.25000000 </v>
   <v>       0.00000000       0.75000000       0.25000000 </v>
   <v>       0.00000000       0.50000000       0.50000000 </v>
   <v>       0.25000000       0.75000000       0.50000000 </v>
   <v>       0.25000000       0.50000000       0.75000000 </v>
   <v>       0.00000000       0.75000000       0.75000000 </v>
   <v>       0.50000000       0.00000000       0.00000000 </v>
   <v>       0.75000000       0.25000000       0.00000000 </v>
   <v>       0.75000000       0.00000000       0.25000000 </v>
   <v>       0.50000000       0.25000000       0.25000000 </v>
   <v>       0.50000000       0.00000000       0.50000000 </v>
   <v>       0.75000000       0.25000000       0.50000000 </v>
   <v>       0.75000000       0.00000000       0.75000000 </v>
   <v>       0.50000000       0.25000000       0.75000000 </v>
   <v>       0.50000000       0.50000000       0.00000000 </v>
   <v>       0.75000000       0.75000000       0.00000000 </v>
   <v>       0.75000000       0.50000000       0.25000000 </v>
   <v>       0.50000000       0.75000000       0.25000000 </v>
   <v>       0.50000000       0.50000000       0.50000000 </v>
   <v>       0.75000000       0.75000000       0.50000000 </v>
   <v>       0.75000000       0.50000000       0.75000000 </v>
   <v>       0.50000000       0.75000000       0.75000000 </v>
   <v>       0.25267761       0.25000000       0.25000000 </v>
   <v>       0.00000000       0.00000000       0.25000000 </v>
   <v>       0.00000000       0.25000000       0.00000000 </v>
   <v>       0.25000000       0.00000000       0.00000000 </v>
   <v>       0.25000000       0.25000000       0.75000000 </v>
   <v>       0.00000000       0.00000000       0.75000000 </v>
   <v>       0.00000000       0.25000000       0.50000000 </v>
   <v>       0.25000000       0.00000000       0.50000000 </v>
   <v>       0.25000000       0.75000000       0.25000000 </v>
   <v>       0.00000000       0.50000000       0.25000000 </v>
   <v>       0.00000000       0.75000000       0.00000000 </v>
   <v>       0.25000000       0.50000000       0.00000000 </v>
   <v>       0.25000000       0.75000000       0.75000000 </v>
   <v>       0.00000000       0.50000000       0.75000000 </v>
   <v>       0.00000000       0.75000000       0.50000000 </v>
   <v>       0.25000000       0.50000000       0.50000000 </v>
   <v>       0.75000000       0.25000000       0.25000000 </v>
   <v>       0.50000000       0.00000000       0.25000000 </v>
   <v>       0.50000000       0.25000000       0.00000000 </v>
   <v>       0.75000000       0.00000000       0.00000000 </v>
   <v>       0.75000000       0.25000000       0.75000000 </v>
   <v>       0.50000000       0.00000000       0.75000000 </v>
   <v>       0.50000000       0.25000000       0.50000000 </v>
   <v>       0.75000000       0.00000000       0.50000000 </v>
   <v>       0.75000000       0.75000000       0.25000000 </v>
   <v>       0.50000000       0.50000000       0.25000000 </v>
   <v>       0.50000000       0.75000000       0.00000000 </v>
   <v>       0.75000000       0.50000000       0.00000000 </v>
   <v>       0.75000000       0.75000000       0.75000000 </v>
   <v>       0.50000000       0.50000000       0.75000000 </v>
   <v>       0.50000000       0.75000000       0.50000000 </v>
   <v>       0.75000000       0.50000000       0.50000000 </v>
  </varray>
 </structure>
 <calculation>
  <scstep>
   <time name="dav">    7.10    7.14</time>
   <time name="total">    7.17    7.22</time>
   <energy>
    <i name="alphaZ">    751.52672365 </i>
    <i name="ewald"> -22871.33825301 </i>
    <i name="hartreedc">  -8992.24831915 </i>
    <i name="XCdc">   1456.53426699 </i>
    <i name="pawpsdc">  26466.43774078 </i>
    <i name="pawaedc"> -29286.08056155 </i>
    <i name="eentropy">     -0.00309800 </i>
    <i name="bandstr">   -740.22631497 </i>
    <i name="atom">  37532.17946992 </i>
    <i name="e_fr_energy">   4316.78165468 </i>
    <i name="e_wo_entrp">   4316.78475267 </i>
    <i name="e_0_energy">   4316.78320368 </i>
   </energy>
  </scstep>
  <scstep>
   <time name="dav">    7.68    7.73</time>
   <time name="total">    7.68    7.73</time>
   <energy>
    <i name="e_fr_energy">    363.38620841 </i>
    <i name="e_wo_entrp">    363.38620841 </i>
    <i name="e_0_energy">    363.38620841 </i>
   </energy>
  </scstep>
  <scstep>
   <time name="dav">    8.31    8.36</time>
   <time name="total">    8.31    8.36</time>
   <energy>
    <i name="e_fr_energy">   -206.22913750 </i>
    <i name="e_wo_entrp">   -206.22913750 </i>
    <i name="e_0_energy">   -206.22913750 </i>
   </energy>
  </scstep>
  <scstep>
   <time name="dav">    8.23    8.28</time>
   <time name="total">    8.23    8.28</time>
   <energy>
    <i name="e_fr_energy">   -228.19399294 </i>
    <i name="e_wo_entrp">   -228.19399294 </i>
    <i name="e_0_energy">   -228.19399294 </i>
   </energy>
  </scstep>
  <scstep>
   <time name="dav">    8.49    8.53</time>
   <time name="total">    8.76    8.80</time>
   <energy>
    <i name="e_fr_energy">   -229.00454961 </i>
    <i name="e_wo_entrp">   -229.00454961 </i>
    <i name="e_0_energy">   -229.00454961 </i>
   </energy>
  </scstep>
  <scstep>
   <time name="dav">    8.41    8.46</time>
   <time name="total">    8.75    8.80</time>
   <energy>
    <i name="e_fr_energy">   -224.13855237 </i>
    <i name="e_wo_entrp">   -224.13855237 </i>
    <i name="e_0_energy">   -224.13855237 </i>
   </energy>
  </scstep>
  <scstep>
   <time name="dav">    9.08    9.13</time>
   <time name="total">    9.41    9.47</time>
   <energy>
    <i name="e_fr_energy">   -223.77736741 </i>
    <i name="e_wo_entrp">   -223.77736741 </i>
    <i name="e_0_energy">   -223.77736741 </i>
   </energy>
  </scstep>
  <scstep>
   <time name="dav">    7.96    8.00</time>
   <time name="total">    8.29    8.34</time>
   <energy>
    <i name="e_fr_energy">   -223.90266276 </i>
    <i name="e_wo_entrp">   -223.90266276 </i>
    <i name="e_0_energy">   -223.90266276 </i>
   </energy>
  </scstep>
  <scstep>
   <time name="dav">    8.38    8.42</time>
   <time name="total">    8.71    8.76</time>
   <energy>
    <i name="e_fr_energy">   -223.89712824 </i>
    <i name="e_wo_entrp">   -223.89712824 </i>
    <i name="e_0_energy">   -223.89712824 </i>
   </energy>
  </scstep>
  <scstep>
   <time name="dav">    8.03    8.07</time>
   <time name="total">    8.37    8.42</time>
   <energy>
    <i name="e_fr_energy">   -223.90139742 </i>
    <i name="e_wo_entrp">   -223.90139742 </i>
    <i name="e_0_energy">   -223.90139742 </i>
   </energy>
  </scstep>
  <scstep>
   <time name="dav">    8.80    8.85</time>
   <time name="total">    9.13    9.18</time>
   <energy>
    <i name="e_fr_energy">   -223.90066772 </i>
    <i name="e_wo_entrp">   -223.90066772 </i>
    <i name="e_0_energy">   -223.90066772 </i>
   </energy>
  </scstep>
  <scstep>
   <time name="dav">    8.71    8.76</time>
   <time name="total">    9.04    9.09</time>
   <energy>
    <i name="e_fr_energy">   -223.90063045 </i>
    <i name="e_wo_entrp">   -223.90063045 </i>
    <i name="e_0_energy">   -223.90063045 </i>
   </energy>
  </scstep>
  <scstep>
   <time name="dav">    8.25    8.30</time>
   <time name="total">    8.59    8.64</time>
   <energy>
    <i name="e_fr_energy">   -223.90062802 </i>
    <i name="e_wo_entrp">   -223.90062802 </i>
    <i name="e_0_energy">   -223.90062802 </i>
   </energy>
  </scstep>
  <scstep>
   <time name="dav">    8.16    8.21</time>
   <time name="total">    8.50    8.55</time>
   <energy>
    <i name="e_fr_energy">   -223.90062945 </i>
    <i name="e_wo_entrp">   -223.90062945 </i>
    <i name="e_0_energy">   -223.90062945 </i>
   </energy>
  </scstep>
  <scstep>
   <time name="dav">    8.22    8.26</time>
   <time name="total">    8.55    8.60</time>
   <energy>
    <i name="e_fr_energy">   -223.90063061 </i>
    <i name="e_wo_entrp">   -223.90063061 </i>
    <i name="e_0_energy">   -223.90063061 </i>
   </energy>
  </scstep>
  <scstep>
   <time name="dav">    8.30    8.34</time>
   <time name="total">    8.63    8.67</time>
   <energy>
    <i name="e_fr_energy">   -223.90063113 </i>
    <i name="e_wo_entrp">   -223.90063113 </i>
    <i name="e_0_energy">   -223.90063113 </i>
   </energy>
  </scstep>
  <scstep>
   <time name="dav">    6.06    6.10</time>
   <time name="total">    6.40    6.44</time>
   <energy>
    <i name="e_fr_energy">   -223.90063119 </i>
    <i name="e_wo_entrp">   -223.90063119 </i>
    <i name="e_0_energy">   -223.90063119 </i>
   </energy>
  </scstep>
  <scstep>
   <time name="dav">    6.26    6.30</time>
   <time name="total">    6.60    6.63</time>
   <energy>
    <i name="e_fr_energy">   -223.90063133 </i>
    <i name="e_wo_entrp">   -223.90063133 </i>
    <i name="e_0_energy">   -223.90063133 </i>
   </energy>
  </scstep>
  <scstep>
   <time name="dav">    5.30    5.33</time>
   <time name="total">    5.63    5.66</time>
   <energy>
    <i name="e_fr_energy">   -223.90063131 </i>
    <i name="e_wo_entrp">   -223.90063131 </i>
    <i name="e_0_energy">   -223.90063131 </i>
   </energy>
  </scstep>
  <scstep>
   <time name="dav">    5.51    5.54</time>
   <time name="total">    5.84    5.87</time>
   <energy>
    <i name="e_fr_energy">   -223.90063123 </i>
    <i name="e_wo_entrp">   -223.90063123 </i>
    <i name="e_0_energy">   -223.90063123 </i>
   </energy>
  </scstep>
  <scstep>
   <time name="dav">    5.25    5.28</time>
   <time name="total">    5.58    5.61</time>
   <energy>
    <i name="e_fr_energy">   -223.90063120 </i>
    <i name="e_wo_entrp">   -223.90063120 </i>
    <i name="e_0_energy">   -223.90063120 </i>
   </energy>
  </scstep>
  <scstep>
   <time name="dav">    5.36    5.39</time>
   <time name="total">    5.43    5.46</time>
   <energy>
    <i name="alphaZ">    751.52672365 </i>
    <i name="ewald"> -22871.33825301 </i>
    <i name="hartreedc">  -9078.16403492 </i>
    <i name="XCdc">   1472.51343500 </i>
    <i name="pawpsdc">  29498.29384920 </i>
    <i name="pawaedc"> -32317.65854839 </i>
    <i name="eentropy">     -0.00000000 </i>
    <i name="bandstr">  -5211.25327266 </i>
    <i name="atom">  37532.17946992 </i>
    <i name="e_fr_energy">   -223.90063121 </i>
    <i name="e_wo_entrp">   -223.90063121 </i>
    <i name="e_0_energy">   -223.90063121 </i>
   </energy>
  </scstep>
  <structure>
   <crystal>
    <varray name="basis" >
     <v>      11.20400236       0.00000000       0.00000000 </v>
     <v>       0.00000000      11.20400236       0.00000000 </v>
     <v>       0.00000000       0.00000000      11.20400236 </v>
    </varray>
    <i name="volume">   1406.43470641 </i>
    <varray name="rec_basis" >
     <v>       0.08925382       0.00000000       0.00000000 </v>
     <v>       0.00000000       0.08925382       0.00000000 </v>
     <v>       0.00000000       0.00000000       0.08925382 </v>
    </varray>
   </crystal>
   <varray name="positions" >
    <v>       0.99732239       0.00000000       0.00000000 </v>
    <v>       0.25000000       0.25000000       0.00000000 </v>
    <v>       0.25000000       0.00000000       0.25000000 </v>
    <v>       0.00000000       0.25000000       0.25000000 </v>
    <v>       0.00000000       0.00000000       0.50000000 </v>
    <v>       0.25000000       0.25000000       0.50000000 </v>
    <v>       0.25000000       0.00000000       0.75000000 </v>
    <v>       0.00000000       0.25000000       0.75000000 </v>
    <v>       0.00000000       0.50000000       0.00000000 </v>
    <v>       0.25000000       0.75000000       0.00000000 </v>
    <v>       0.25000000       0.50000000       0.25000000 </v>
    <v>       0.00000000       0.75000000       0.25000000 </v>
    <v>       0.00000000       0.50000000       0.50000000 </v>
    <v>       0.25000000       0.75000000       0.50000000 </v>
    <v>       0.25000000       0.50000000       0.75000000 </v>
    <v>       0.00000000       0.75000000       0.75000000 </v>
    <v>       0.50000000       0.00000000       0.00000000 </v>
    <v>       0.75000000       0.25000000       0.00000000 </v>
    <v>       0.75000000       0.00000000       0.25000000 </v>
    <v>       0.50000000       0.25000000       0.25000000 </v>
    <v>       0.50000000       0.00000000       0.50000000 </v>
    <v>       0.75000000       0.25000000       0.50000000 </v>
    <v>       0.75000000       0.00000000       0.75000000 </v>
    <v>       0.50000000       0.25000000       0.75000000 </v>
    <v>       0.50000000       0.50000000       0.00000000 </v>
    <v>       0.75000000       0.75000000       0.00000000 </v>
    <v>       0.75000000       0.50000000       0.25000000 </v>
    <v>       0.50000000       0.75000000       0.25000000 </v>
    <v>       0.50000000       0.50000000       0.50000000 </v>
    <v>       0.75000000       0.75000000       0.50000000 </v>
    <v>       0.75000000       0.50000000       0.75000000 </v>
    <v>       0.50000000       0.75000000       0.75000000 </v>
    <v>       0.25267761       0.25000000       0.25000000 </v>
    <v>       0.00000000       0.00000000       0.25000000 </v>
    <v>       0.00000000       0.25000000       0.00000000 </v>
    <v>       0.25000000       0.00000000       0.00000000 </v>
    <v>       0.25000000       0.25000000       0.75000000 </v>
    <v>       0.00000000       0.00000000       0.75000000 </v>
    <v>       0.00000000       0.25000000       0.50000000 </v>
    <v>       0.25000000       0.00000000       0.50000000 </v>
    <v>       0.25000000       0.75000000       0.25000000 </v>
    <v>       0.00000000       0.50000000       0.25000000 </v>
    <v>       0.00000000       0.75000000       0.00000000 </v>
    <v>       0.25000000       0.50000000       0.00000000 </v>
    <v>       0.25000000       0.75000000       0.75000000 </v>
    <v>       0.00000000       0.50000000       0.75000000 </v>
    <v>       0.00000000       0.75000000       0.50000000 </v>
    <v>       0.25000000       0.50000000       0.50000000 </v>
    <v>       0.75000000       0.25000000       0.25000000 </v>
    <v>       0.50000000       0.00000000       0.25000000 </v>
    <v>       0.50000000       0.25000000       0.00000000 </v>
    <v>       0.75000000       0.00000000       0.00000000 </v>
    <v>       0.75000000       0.25000000       0.75000000 </v>
    <v>       0.50000000       0.00000000       0.75000000 </v>
    <v>       0.50000000       0.25000000       0.50000000 </v>
    <v>       0.75000000       0.00000000       0.50000000 </v>
    <v>       0.75000000       0.75000000       0.25000000 </v>
    <v>       0.50000000       0.50000000       0.25000000 </v>
    <v>       0.50000000       0.75000000       0.00000000 </v>
    <v>       0.75000000       0.50000000       0.00000000 </v>
    <v>       0.75000000       0.75000000       0.75000000 </v>
    <v>       0.50000000       0.50000000       0.75000000 </v>
    <v>       0.50000000       0.75000000       0.50000000 </v>
    <v>       0.75000000       0.50000000       0.50000000 </v>
   </varray>
  </structure>
  <varray name="forces" >
   <v>       0.06256015      -0.00127380      -0.00127380 </v>
   <v>       0.00350168      -0.00580195       0.00009102 </v>
   <v>       0.00350168       0.00009102      -0.00580195 </v>
   <v>       0.01786745      -0.00002228      -0.00002228 </v>
   <v>      -0.00018361      -0.00129134       0.00128980 </v>
   <v>       0.00503771       0.00007277      -0.00008941 </v>
   <v>      -0.00090088       0.00000204       0.00580210 </v>
   <v>       0.00181680      -0.00001949       0.00002126 </v>
   <v>      -0.00018361       0.00128980      -0.00129134 </v>
   <v>      -0.00090088       0.00580210       0.00000204 </v>
   <v>       0.00503771      -0.00008941       0.00007277 </v>
   <v>       0.00181680       0.00002126      -0.00001949 </v>
   <v>       0.00021818       0.00129140       0.00129140 </v>
   <v>       0.00062871      -0.00007300      -0.00000208 </v>
   <v>       0.00062871      -0.00000208      -0.00007300 </v>
   <v>       0.00166072       0.00001962       0.00001962 </v>
   <v>      -0.00912848       0.00129510       0.00129510 </v>
   <v>      -0.00434766       0.00592642       0.00000274 </v>
   <v>      -0.00434766       0.00000274       0.00592642 </v>
   <v>       0.01911084       0.00000720       0.00000720 </v>
   <v>      -0.00052308       0.00129930      -0.00129846 </v>
   <v>      -0.00280323      -0.00007751      -0.00000264 </v>
   <v>      -0.00218340       0.00000303      -0.00592643 </v>
   <v>      -0.00099583       0.00000441      -0.00000514 </v>
   <v>      -0.00052308      -0.00129846       0.00129930 </v>
   <v>      -0.00218340      -0.00592643       0.00000303 </v>
   <v>      -0.00280323      -0.00000264      -0.00007751 </v>
   <v>      -0.00099583      -0.00000514       0.00000441 </v>
   <v>      -0.00065520      -0.00129932      -0.00129932 </v>
   <v>      -0.00063678       0.00007759      -0.00000298 </v>
   <v>      -0.00063678      -0.00000298       0.00007759 </v>
   <v>      -0.00115872      -0.00000437      -0.00000437 </v>
   <v>      -0.07578553       0.00127560       0.00127560 </v>
   <v>      -0.00113943       0.00572724      -0.00011652 </v>
   <v>      -0.00113943      -0.00011652       0.00572724 </v>
   <v>      -0.01851506       0.00002377       0.00002377 </v>
   <v>      -0.00130734       0.00128334      -0.00128363 </v>
   <v>      -0.00503749       0.00056785       0.00012239 </v>
   <v>       0.00326600       0.00001037      -0.00573745 </v>
   <v>      -0.00247719       0.00003076      -0.00003002 </v>
   <v>      -0.00130734      -0.00128363       0.00128334 </v>
   <v>       0.00326600      -0.00573745       0.00001037 </v>
   <v>      -0.00503749       0.00012239       0.00056785 </v>
   <v>      -0.00247719      -0.00003002       0.00003076 </v>
   <v>      -0.00027841      -0.00128357      -0.00128357 </v>
   <v>      -0.00063550      -0.00056679      -0.00001003 </v>
   <v>      -0.00063550      -0.00001003      -0.00056679 </v>
   <v>      -0.00232701      -0.00003165      -0.00003165 </v>
   <v>       0.00406178      -0.00130563      -0.00130563 </v>
   <v>       0.00675258      -0.00588058      -0.00001423 </v>
   <v>       0.00675258      -0.00001423      -0.00588058 </v>
   <v>      -0.01868365      -0.00000193      -0.00000193 </v>
   <v>       0.00217875      -0.00130564       0.00130583 </v>
   <v>       0.00278202      -0.00057558       0.00001174 </v>
   <v>       0.00459137      -0.00000070       0.00588465 </v>
   <v>       0.00137640      -0.00000409       0.00000306 </v>
   <v>       0.00217875       0.00130583      -0.00130564 </v>
   <v>       0.00459137       0.00588465      -0.00000070 </v>
   <v>       0.00278202       0.00001174      -0.00057558 </v>
   <v>       0.00137640       0.00000306      -0.00000409 </v>
   <v>       0.00074719       0.00130551       0.00130551 </v>
   <v>       0.00061818       0.00057535       0.00000112 </v>
   <v>       0.00061818       0.00000112       0.00057535 </v>
   <v>       0.00154819       0.00000384       0.00000384 </v>
  </varray>
  <varray name="stress" >
   <v>      -0.35560735       0.00003611       0.00003611 </v>
   <v>       0.00003612      -0.37855171      -0.00015152 </v>
   <v>       0.00003612      -0.00015152      -0.37855171 </v>
  </varray>
  <energy>
   <i name="e_fr_energy">   -223.90063121 </i>
   <i name="e_wo_entrp">   -223.90063121 </i>
   <i name="e_0_energy">   -223.90063121 </i>
  </energy>
  <time name="totalsc">  182.99  184.02</time>
  <eigenvalues>
   <array>
    <dimension dim="1">band</dimension>
    <dimension dim="2">kpoint</dimension>
    <dimension dim="3">spin</dimension>
    <field>eigene</field>
    <field>occ</field>
    <set>
     <set comment="spin 1">
      <set comment="kpoint 1">
       <r>  -21.3091    1.0000 </r>
       <r>  -21.3090    1.0000 </r>
       <r>  -21.3087    1.0000 </r>
       <r>  -21.3047    1.0000 </r>
       <r>  -21.3013    1.0000 </r>
       <r>  -21.3001    1.0000 </r>
       <r>  -21.3001    1.0000 </r>
       <r>  -21.2950    1.0000 </r>
       <r>  -21.2947    1.0000 </r>
       <r>  -21.2943    1.0000 </r>
       <r>  -21.2940    1.0000 </r>
       <r>  -21.2940    1.0000 </r>
       <r>  -21.2939    1.0000 </r>
       <r>  -21.2932    1.0000 </r>
       <r>  -21.2931    1.0000 </r>
       <r>  -21.2928    1.0000 </r>
       <r>  -21.2919    1.0000 </r>
       <r>  -21.2916    1.0000 </r>
       <r>  -21.2913    1.0000 </r>
       <r>  -21.2905    1.0000 </r>
       <r>  -21.2904    1.0000 </r>
       <r>  -21.2887    1.0000 </r>
       <r>  -21.2878    1.0000 </r>
       <r>  -21.2877    1.0000 </r>
       <r>  -21.2866    1.0000 </r>
       <r>  -21.2864    1.0000 </r>
       <r>  -21.2863    1.0000 </r>
       <r>  -21.2861    1.0000 </r>
       <r>  -21.2856    1.0000 </r>
       <r>  -21.2851    1.0000 </r>
       <r>  -21.2850    1.0000 </r>
       <r>  -21.2839    1.0000 </r>
       <r>  -21.2838    1.0000 </r>
       <r>  -21.2836    1.0000 </r>
       <r>  -21.2834    1.0000 </r>
       <r>  -21.2834    1.0000 </r>
       <r>  -21.2831    1.0000 </r>
       <r>  -21.2830    1.0000 </r>
       <r>  -21.2828    1.0000 </r>
       <r>  -21.2827    1.0000 </r>
       <r>  -21.2821    1.0000 </r>
       <r>  -21.2819    1.0000 </r>
       <r>  -21.2819    1.0000 </r>
       <r>  -21.2814    1.0000 </r>
       <r>  -21.2813    1.0000 </r>
       <r>  -21.2812    1.0000 </r>
       <r>  -21.2809    1.0000 </r>
       <r>  -21.2804    1.0000 </r>
       <r>  -21.2804    1.0000 </r>
       <r>  -21.2803    1.0000 </r>
       <r>  -21.2800    1.0000 </r>
       <r>  -21.2799    1.0000 </r>
       <r>  -21.2799    1.0000 </r>
       <r>  -21.2789    1.0000 </r>
       <r>  -21.2788    1.0000 </r>
       <r>  -21.2780    1.0000 </r>
       <r>  -21.2778    1.0000 </r>
       <r>  -21.2769    1.0000 </r>
       <r>  -21.2766    1.0000 </r>
       <r>  -21.2765    1.0000 </r>
       <r>  -21.2762    1.0000 </r>
       <r>  -21.2758    1.0000 </r>
       <r>  -21.2758    1.0000 </r>
       <r>  -21.2756    1.0000 </r>
       <r>  -21.2753    1.0000 </r>
       <r>  -21.2753    1.0000 </r>
       <r>  -21.2751    1.0000 </r>
       <r>  -21.2750    1.0000 </r>
       <r>  -21.2748    1.0000 </r>
       <r>  -21.2745    1.0000 </r>
       <r>  -21.2744    1.0000 </r>
       <r>  -21.2735    1.0000 </r>
       <r>  -21.2732    1.0000 </r>
       <r>  -21.2725    1.0000 </r>
       <r>  -21.2725    1.0000 </r>
       <r>  -21.2716    1.0000 </r>
       <r>  -21.2715    1.0000 </r>
       <r>  -21.2714    1.0000 </r>
       <r>  -21.2713    1.0000 </r>
       <r>  -21.2712    1.0000 </r>
       <r>  -21.2710    1.0000 </r>
       <r>  -21.2708    1.0000 </r>
       <r>  -21.2706    1.0000 </r>
       <r>  -21.2703    1.0000 </r>
       <r>  -21.2702    1.0000 </r>
       <r>  -21.2699    1.0000 </r>
       <r>  -21.2697    1.0000 </r>
       <r>  -21.2694    1.0000 </r>
       <r>  -21.2686    1.0000 </r>
       <r>  -21.2679    1.0000 </r>
       <r>  -21.2677    1.0000 </r>
       <r>  -21.2676    1.0000 </r>
       <r>  -21.2674    1.0000 </r>
       <r>  -21.2557    1.0000 </r>
       <r>  -21.2556    1.0000 </r>
       <r>  -21.2554    1.0000 </r>
       <r>  -13.3581    1.0000 </r>
       <r>  -13.1426    1.0000 </r>
       <r>  -13.1387    1.0000 </r>
       <r>  -13.1374    1.0000 </r>
       <r>  -13.1374    1.0000 </r>
       <r>  -13.1361    1.0000 </r>
       <r>  -13.1335    1.0000 </r>
       <r>  -13.0215    1.0000 </r>
       <r>  -13.0145    1.0000 </r>
       <r>  -13.0145    1.0000 </r>
       <r>  -13.0126    1.0000 </r>
       <r>  -13.0114    1.0000 </r>
       <r>  -13.0113    1.0000 </r>
       <r>  -13.0112    1.0000 </r>
       <r>  -13.0111    1.0000 </r>
       <r>  -13.0100    1.0000 </r>
       <r>  -13.0087    1.0000 </r>
       <r>  -13.0087    1.0000 </r>
       <r>  -13.0044    1.0000 </r>
       <r>  -12.9896    1.0000 </r>
       <r>  -12.9893    1.0000 </r>
       <r>  -12.9891    1.0000 </r>
       <r>  -12.9885    1.0000 </r>
       <r>  -12.9416    1.0000 </r>
       <r>  -12.9412    1.0000 </r>
       <r>  -12.9402    1.0000 </r>
       <r>  -12.9244    1.0000 </r>
       <r>  -12.9230    1.0000 </r>
       <r>  -12.9213    1.0000 </r>
       <r>  -12.9212    1.0000 </r>
       <r>  -12.9188    1.0000 </r>
       <r>  -12.9151    1.0000 </r>
       <r>   -2.7000    1.0000 </r>
       <r>   -2.7000    1.0000 </r>
       <r>   -2.7000    1.0000 </r>
       <r>   -2.6999    1.0000 </r>
       <r>   -2.4240    1.0000 </r>
       <r>   -2.4240    1.0000 </r>
       <r>   -2.4240    1.0000 </r>
       <r>   -2.2075    1.0000 </r>
       <r>   -2.2074    1.0000 </r>
       <r>   -2.2057    1.0000 </r>
       <r>   -2.2047    1.0000 </r>
       <r>   -2.2045    1.0000 </r>
       <r>   -2.2044    1.0000 </r>
       <r>   -2.2042    1.0000 </r>
       <r>   -2.2040    1.0000 </r>
       <r>   -2.2038    1.0000 </r>
       <r>   -2.2029    1.0000 </r>
       <r>   -2.2013    1.0000 </r>
       <r>   -2.2012    1.0000 </r>
       <r>   -1.9283    1.0000 </r>
       <r>   -1.9283    1.0000 </r>
       <r>   -1.9260    1.0000 </r>
       <r>   -1.9259    1.0000 </r>
       <r>   -1.9249    1.0000 </r>
       <r>   -1.9249    1.0000 </r>
       <r>   -1.9244    1.0000 </r>
       <r>   -1.9244    1.0000 </r>
       <r>   -1.9235    1.0000 </r>
       <r>   -1.9234    1.0000 </r>
       <r>   -1.9212    1.0000 </r>
       <r>   -1.9211    1.0000 </r>
       <r>   -1.7977    1.0000 </r>
       <r>   -1.7967    1.0000 </r>
       <r>   -1.7966    1.0000 </r>
       <r>   -1.7966    1.0000 </r>
       <r>   -1.7966    1.0000 </r>
       <r>   -1.7955    1.0000 </r>
       <r>   -1.5087    1.0000 </r>
       <r>   -1.5086    1.0000 </r>
       <r>   -1.5062    1.0000 </r>
       <r>   -1.5059    1.0000 </r>
       <r>   -1.5059    1.0000 </r>
       <r>   -1.5057    1.0000 </r>
       <r>   -1.5057    1.0000 </r>
       <r>   -1.5052    1.0000 </r>
       <r>   -1.5046    1.0000 </r>
       <r>   -1.5046    1.0000 </r>
       <r>   -1.5021    1.0000 </r>
       <r>   -1.5020    1.0000 </r>
       <r>   -1.4643    1.0000 </r>
       <r>   -1.4636    1.0000 </r>
       <r>   -1.4627    1.0000 </r>
       <r>   -1.4626    1.0000 </r>
       <r>   -1.4620    1.0000 </r>
       <r>   -1.4606    1.0000 </r>
       <r>   -1.2948    1.0000 </r>
       <r>   -1.2948    1.0000 </r>
       <r>   -1.2946    1.0000 </r>
       <r>   -1.2946    1.0000 </r>
       <r>   -1.2946    1.0000 </r>
       <r>   -1.2946    1.0000 </r>
       <r>   -1.0044    1.0000 </r>
       <r>   -1.0043    1.0000 </r>
       <r>   -1.0035    1.0000 </r>
       <r>   -1.0031    1.0000 </r>
       <r>   -1.0024    1.0000 </r>
       <r>   -1.0009    1.0000 </r>
       <r>   -1.0009    1.0000 </r>
       <r>   -1.0007    1.0000 </r>
       <r>   -0.9986    1.0000 </r>
       <r>   -0.9985    1.0000 </r>
       <r>   -0.9975    1.0000 </r>
       <r>   -0.9974    1.0000 </r>
       <r>   -0.9528    1.0000 </r>
       <r>   -0.9526    1.0000 </r>
       <r>   -0.9523    1.0000 </r>
       <r>   -0.9512    1.0000 </r>
       <r>   -0.9493    1.0000 </r>
       <r>   -0.9480    1.0000 </r>
       <r>   -0.9476    1.0000 </r>
       <r>   -0.9475    1.0000 </r>
       <r>   -0.9473    1.0000 </r>
       <r>   -0.9472    1.0000 </r>
       <r>   -0.9470    1.0000 </r>
       <r>   -0.9467    1.0000 </r>
       <r>   -0.9457    1.0000 </r>
       <r>   -0.9456    1.0000 </r>
       <r>   -0.9445    1.0000 </r>
       <r>   -0.9441    1.0000 </r>
       <r>   -0.9425    1.0000 </r>
       <r>   -0.9417    1.0000 </r>
       <r>   -0.9409    1.0000 </r>
       <r>   -0.9408    1.0000 </r>
       <r>   -0.6649    1.0000 </r>
       <r>   -0.6648    1.0000 </r>
       <r>   -0.6648    1.0000 </r>
       <r>    4.3403    0.0000 </r>
       <r>    6.3610    0.0000 </r>
       <r>    6.3655    0.0000 </r>
       <r>    6.3680    0.0000 </r>
       <r>    6.3682    0.0000 </r>
       <r>    6.3706    0.0000 </r>
       <r>    6.3748    0.0000 </r>
       <r>    6.4446    0.0000 </r>
       <r>    6.4446    0.0000 </r>
       <r>    6.4448    0.0000 </r>
       <r>    6.4449    0.0000 </r>
       <r>    6.8279    0.0000 </r>
       <r>    6.8280    0.0000 </r>
       <r>    6.8281    0.0000 </r>
       <r>    7.2068    0.0000 </r>
       <r>    7.2068    0.0000 </r>
       <r>    7.2069    0.0000 </r>
       <r>    7.4544    0.0000 </r>
       <r>    7.4587    0.0000 </r>
       <r>    7.4589    0.0000 </r>
       <r>    7.4619    0.0000 </r>
       <r>    7.4629    0.0000 </r>
       <r>    7.4642    0.0000 </r>
       <r>    7.4642    0.0000 </r>
       <r>    7.4655    0.0000 </r>
       <r>    7.4665    0.0000 </r>
       <r>    7.4695    0.0000 </r>
       <r>    7.4698    0.0000 </r>
       <r>    7.4734    0.0000 </r>
       <r>    8.1629    0.0000 </r>
       <r>    8.1665    0.0000 </r>
       <r>    8.1682    0.0000 </r>
       <r>    8.1684    0.0000 </r>
       <r>    8.1701    0.0000 </r>
       <r>    8.1740    0.0000 </r>
       <r>    8.2761    0.0000 </r>
       <r>    8.2786    0.0000 </r>
       <r>    8.2795    0.0000 </r>
       <r>    8.2797    0.0000 </r>
       <r>    8.2805    0.0000 </r>
       <r>    8.2831    0.0000 </r>
       <r>    8.8904    0.0000 </r>
       <r>    8.8931    0.0000 </r>
       <r>    8.8962    0.0000 </r>
       <r>    8.8971    0.0000 </r>
       <r>    8.8976    0.0000 </r>
       <r>    8.9007    0.0000 </r>
       <r>    8.9009    0.0000 </r>
       <r>    8.9020    0.0000 </r>
       <r>    8.9025    0.0000 </r>
       <r>    8.9031    0.0000 </r>
       <r>    8.9054    0.0000 </r>
       <r>    8.9064    0.0000 </r>
       <r>    8.9114    0.0000 </r>
       <r>    8.9130    0.0000 </r>
       <r>    8.9141    0.0000 </r>
       <r>    8.9152    0.0000 </r>
       <r>    8.9165    0.0000 </r>
       <r>    8.9167    0.0000 </r>
       <r>    8.9180    0.0000 </r>
       <r>    8.9196    0.0000 </r>
       <r>    8.9211    0.0000 </r>
       <r>    8.9269    0.0000 </r>
       <r>    8.9284    0.0000 </r>
      </set>
      <set comment="kpoint 2">
       <r>  -21.3084    1.0000 </r>
       <r>  -21.3084    1.0000 </r>
       <r>  -21.3079    1.0000 </r>
       <r>  -21.3025    1.0000 </r>
       <r>  -21.3003    1.0000 </r>
       <r>  -21.2982    1.0000 </r>
       <r>  -21.2981    1.0000 </r>
       <r>  -21.2968    1.0000 </r>
       <r>  -21.2963    1.0000 </r>
       <r>  -21.2963    1.0000 </r>
       <r>  -21.2960    1.0000 </r>
       <r>  -21.2937    1.0000 </r>
       <r>  -21.2935    1.0000 </r>
       <r>  -21.2928    1.0000 </r>
       <r>  -21.2927    1.0000 </r>
       <r>  -21.2926    1.0000 </r>
       <r>  -21.2924    1.0000 </r>
       <r>  -21.2920    1.0000 </r>
       <r>  -21.2917    1.0000 </r>
       <r>  -21.2909    1.0000 </r>
       <r>  -21.2909    1.0000 </r>
       <r>  -21.2894    1.0000 </r>
       <r>  -21.2888    1.0000 </r>
       <r>  -21.2887    1.0000 </r>
       <r>  -21.2882    1.0000 </r>
       <r>  -21.2879    1.0000 </r>
       <r>  -21.2878    1.0000 </r>
       <r>  -21.2875    1.0000 </r>
       <r>  -21.2869    1.0000 </r>
       <r>  -21.2868    1.0000 </r>
       <r>  -21.2867    1.0000 </r>
       <r>  -21.2866    1.0000 </r>
       <r>  -21.2861    1.0000 </r>
       <r>  -21.2855    1.0000 </r>
       <r>  -21.2844    1.0000 </r>
       <r>  -21.2843    1.0000 </r>
       <r>  -21.2840    1.0000 </r>
       <r>  -21.2832    1.0000 </r>
       <r>  -21.2830    1.0000 </r>
       <r>  -21.2829    1.0000 </r>
       <r>  -21.2815    1.0000 </r>
       <r>  -21.2815    1.0000 </r>
       <r>  -21.2805    1.0000 </r>
       <r>  -21.2805    1.0000 </r>
       <r>  -21.2800    1.0000 </r>
       <r>  -21.2793    1.0000 </r>
       <r>  -21.2786    1.0000 </r>
       <r>  -21.2783    1.0000 </r>
       <r>  -21.2782    1.0000 </r>
       <r>  -21.2779    1.0000 </r>
       <r>  -21.2777    1.0000 </r>
       <r>  -21.2776    1.0000 </r>
       <r>  -21.2774    1.0000 </r>
       <r>  -21.2771    1.0000 </r>
       <r>  -21.2770    1.0000 </r>
       <r>  -21.2769    1.0000 </r>
       <r>  -21.2769    1.0000 </r>
       <r>  -21.2766    1.0000 </r>
       <r>  -21.2766    1.0000 </r>
       <r>  -21.2762    1.0000 </r>
       <r>  -21.2759    1.0000 </r>
       <r>  -21.2759    1.0000 </r>
       <r>  -21.2755    1.0000 </r>
       <r>  -21.2754    1.0000 </r>
       <r>  -21.2753    1.0000 </r>
       <r>  -21.2752    1.0000 </r>
       <r>  -21.2749    1.0000 </r>
       <r>  -21.2748    1.0000 </r>
       <r>  -21.2745    1.0000 </r>
       <r>  -21.2745    1.0000 </r>
       <r>  -21.2743    1.0000 </r>
       <r>  -21.2734    1.0000 </r>
       <r>  -21.2733    1.0000 </r>
       <r>  -21.2733    1.0000 </r>
       <r>  -21.2732    1.0000 </r>
       <r>  -21.2727    1.0000 </r>
       <r>  -21.2724    1.0000 </r>
       <r>  -21.2724    1.0000 </r>
       <r>  -21.2723    1.0000 </r>
       <r>  -21.2720    1.0000 </r>
       <r>  -21.2718    1.0000 </r>
       <r>  -21.2712    1.0000 </r>
       <r>  -21.2710    1.0000 </r>
       <r>  -21.2704    1.0000 </r>
       <r>  -21.2703    1.0000 </r>
       <r>  -21.2700    1.0000 </r>
       <r>  -21.2699    1.0000 </r>
       <r>  -21.2697    1.0000 </r>
       <r>  -21.2696    1.0000 </r>
       <r>  -21.2679    1.0000 </r>
       <r>  -21.2679    1.0000 </r>
       <r>  -21.2678    1.0000 </r>
       <r>  -21.2674    1.0000 </r>
       <r>  -21.2557    1.0000 </r>
       <r>  -21.2556    1.0000 </r>
       <r>  -21.2555    1.0000 </r>
       <r>  -13.2944    1.0000 </r>
       <r>  -13.2882    1.0000 </r>
       <r>  -13.1050    1.0000 </r>
       <r>  -13.0995    1.0000 </r>
       <r>  -13.0992    1.0000 </r>
       <r>  -13.0988    1.0000 </r>
       <r>  -13.0950    1.0000 </r>
       <r>  -13.0946    1.0000 </r>
       <r>  -13.0943    1.0000 </r>
       <r>  -13.0906    1.0000 </r>
       <r>  -13.0093    1.0000 </r>
       <r>  -13.0050    1.0000 </r>
       <r>  -13.0050    1.0000 </r>
       <r>  -13.0033    1.0000 </r>
       <r>  -12.9989    1.0000 </r>
       <r>  -12.9976    1.0000 </r>
       <r>  -12.9962    1.0000 </r>
       <r>  -12.9962    1.0000 </r>
       <r>  -12.9954    1.0000 </r>
       <r>  -12.9902    1.0000 </r>
       <r>  -12.9506    1.0000 </r>
       <r>  -12.9468    1.0000 </r>
       <r>  -12.9467    1.0000 </r>
       <r>  -12.9459    1.0000 </r>
       <r>  -12.9415    1.0000 </r>
       <r>  -12.9414    1.0000 </r>
       <r>  -12.9403    1.0000 </r>
       <r>  -12.9377    1.0000 </r>
       <r>  -12.9351    1.0000 </r>
       <r>  -12.9347    1.0000 </r>
       <r>  -12.9264    1.0000 </r>
       <r>  -12.9236    1.0000 </r>
       <r>   -2.5081    1.0000 </r>
       <r>   -2.5081    1.0000 </r>
       <r>   -2.5081    1.0000 </r>
       <r>   -2.5067    1.0000 </r>
       <r>   -2.5019    1.0000 </r>
       <r>   -2.5007    1.0000 </r>
       <r>   -2.5007    1.0000 </r>
       <r>   -2.5007    1.0000 </r>
       <r>   -2.2905    1.0000 </r>
       <r>   -2.2905    1.0000 </r>
       <r>   -2.2849    1.0000 </r>
       <r>   -2.2848    1.0000 </r>
       <r>   -2.2775    1.0000 </r>
       <r>   -2.2709    1.0000 </r>
       <r>   -2.1417    1.0000 </r>
       <r>   -2.1391    1.0000 </r>
       <r>   -2.1371    1.0000 </r>
       <r>   -2.1370    1.0000 </r>
       <r>   -2.1358    1.0000 </r>
       <r>   -2.1357    1.0000 </r>
       <r>   -2.1337    1.0000 </r>
       <r>   -2.1314    1.0000 </r>
       <r>   -1.9880    1.0000 </r>
       <r>   -1.9880    1.0000 </r>
       <r>   -1.9866    1.0000 </r>
       <r>   -1.9863    1.0000 </r>
       <r>   -1.9843    1.0000 </r>
       <r>   -1.9842    1.0000 </r>
       <r>   -1.9829    1.0000 </r>
       <r>   -1.9829    1.0000 </r>
       <r>   -1.8128    1.0000 </r>
       <r>   -1.8127    1.0000 </r>
       <r>   -1.8107    1.0000 </r>
       <r>   -1.8103    1.0000 </r>
       <r>   -1.8072    1.0000 </r>
       <r>   -1.8068    1.0000 </r>
       <r>   -1.8048    1.0000 </r>
       <r>   -1.8048    1.0000 </r>
       <r>   -1.5017    1.0000 </r>
       <r>   -1.5017    1.0000 </r>
       <r>   -1.4937    1.0000 </r>
       <r>   -1.4937    1.0000 </r>
       <r>   -1.3859    1.0000 </r>
       <r>   -1.3844    1.0000 </r>
       <r>   -1.3763    1.0000 </r>
       <r>   -1.3753    1.0000 </r>
       <r>   -1.2155    1.0000 </r>
       <r>   -1.2155    1.0000 </r>
       <r>   -1.2096    1.0000 </r>
       <r>   -1.2096    1.0000 </r>
       <r>   -1.1953    1.0000 </r>
       <r>   -1.1934    1.0000 </r>
       <r>   -1.1932    1.0000 </r>
       <r>   -1.1914    1.0000 </r>
       <r>   -1.1910    1.0000 </r>
       <r>   -1.1906    1.0000 </r>
       <r>   -1.1890    1.0000 </r>
       <r>   -1.1884    1.0000 </r>
       <r>   -1.1800    1.0000 </r>
       <r>   -1.1783    1.0000 </r>
       <r>   -1.1781    1.0000 </r>
       <r>   -1.1768    1.0000 </r>
       <r>   -1.1704    1.0000 </r>
       <r>   -1.1702    1.0000 </r>
       <r>   -1.1700    1.0000 </r>
       <r>   -1.1677    1.0000 </r>
       <r>   -1.1638    1.0000 </r>
       <r>   -1.1638    1.0000 </r>
       <r>   -1.1630    1.0000 </r>
       <r>   -1.1629    1.0000 </r>
       <r>   -1.1555    1.0000 </r>
       <r>   -1.1553    1.0000 </r>
       <r>   -1.1549    1.0000 </r>
       <r>   -1.1548    1.0000 </r>
       <r>   -1.0866    1.0000 </r>
       <r>   -1.0796    1.0000 </r>
       <r>   -0.9518    1.0000 </r>
       <r>   -0.9517    1.0000 </r>
       <r>   -0.9515    1.0000 </r>
       <r>   -0.9510    1.0000 </r>
       <r>   -0.9426    1.0000 </r>
       <r>   -0.9424    1.0000 </r>
       <r>   -0.9422    1.0000 </r>
       <r>   -0.9421    1.0000 </r>
       <r>   -0.9384    1.0000 </r>
       <r>   -0.9341    1.0000 </r>
       <r>   -0.9340    1.0000 </r>
       <r>   -0.9331    1.0000 </r>
       <r>   -0.9313    1.0000 </r>
       <r>   -0.9307    1.0000 </r>
       <r>   -0.9303    1.0000 </r>
       <r>   -0.9256    1.0000 </r>
       <r>   -0.7720    1.0000 </r>
       <r>   -0.7720    1.0000 </r>
       <r>   -0.7645    1.0000 </r>
       <r>   -0.7645    1.0000 </r>
       <r>    5.0183    0.0000 </r>
       <r>    5.0263    0.0000 </r>
       <r>    6.7097    0.0000 </r>
       <r>    6.7136    0.0000 </r>
       <r>    6.7145    0.0000 </r>
       <r>    6.7162    0.0000 </r>
       <r>    6.7206    0.0000 </r>
       <r>    6.7219    0.0000 </r>
       <r>    6.7226    0.0000 </r>
       <r>    6.7262    0.0000 </r>
       <r>    6.8383    0.0000 </r>
       <r>    6.8384    0.0000 </r>
       <r>    6.8390    0.0000 </r>
       <r>    6.8403    0.0000 </r>
       <r>    6.8462    0.0000 </r>
       <r>    6.8471    0.0000 </r>
       <r>    6.8484    0.0000 </r>
       <r>    6.8484    0.0000 </r>
       <r>    6.9680    0.0000 </r>
       <r>    6.9745    0.0000 </r>
       <r>    7.3562    0.0000 </r>
       <r>    7.3591    0.0000 </r>
       <r>    7.3660    0.0000 </r>
       <r>    7.3689    0.0000 </r>
       <r>    7.4771    0.0000 </r>
       <r>    7.4834    0.0000 </r>
       <r>    7.7099    0.0000 </r>
       <r>    7.7100    0.0000 </r>
       <r>    7.7193    0.0000 </r>
       <r>    7.7193    0.0000 </r>
       <r>    8.2556    0.0000 </r>
       <r>    8.2624    0.0000 </r>
       <r>    8.2635    0.0000 </r>
       <r>    8.2637    0.0000 </r>
       <r>    8.2680    0.0000 </r>
       <r>    8.2683    0.0000 </r>
       <r>    8.2693    0.0000 </r>
       <r>    8.2752    0.0000 </r>
       <r>    8.5293    0.0000 </r>
       <r>    8.5293    0.0000 </r>
       <r>    8.5310    0.0000 </r>
       <r>    8.5344    0.0000 </r>
       <r>    8.5352    0.0000 </r>
       <r>    8.5362    0.0000 </r>
       <r>    8.5363    0.0000 </r>
       <r>    8.5363    0.0000 </r>
       <r>    8.5384    0.0000 </r>
       <r>    8.5389    0.0000 </r>
       <r>    8.5408    0.0000 </r>
       <r>    8.5424    0.0000 </r>
       <r>    8.5427    0.0000 </r>
       <r>    8.5463    0.0000 </r>
       <r>    8.5494    0.0000 </r>
       <r>    8.5497    0.0000 </r>
       <r>    8.9444    0.0000 </r>
       <r>    8.9467    0.0000 </r>
       <r>    8.9480    0.0000 </r>
       <r>    8.9485    0.0000 </r>
       <r>    8.9534    0.0000 </r>
       <r>    8.9539    0.0000 </r>
       <r>    8.9554    0.0000 </r>
       <r>    8.9576    0.0000 </r>
       <r>    9.4852    0.0000 </r>
       <r>    9.5055    0.0000 </r>
      </set>
      <set comment="kpoint 3">
       <r>  -21.3082    1.0000 </r>
       <r>  -21.3079    1.0000 </r>
       <r>  -21.3077    1.0000 </r>
       <r>  -21.3010    1.0000 </r>
       <r>  -21.3002    1.0000 </r>
       <r>  -21.2999    1.0000 </r>
       <r>  -21.2999    1.0000 </r>
       <r>  -21.2998    1.0000 </r>
       <r>  -21.2971    1.0000 </r>
       <r>  -21.2967    1.0000 </r>
       <r>  -21.2949    1.0000 </r>
       <r>  -21.2939    1.0000 </r>
       <r>  -21.2930    1.0000 </r>
       <r>  -21.2924    1.0000 </r>
       <r>  -21.2923    1.0000 </r>
       <r>  -21.2921    1.0000 </r>
       <r>  -21.2910    1.0000 </r>
       <r>  -21.2908    1.0000 </r>
       <r>  -21.2907    1.0000 </r>
       <r>  -21.2905    1.0000 </r>
       <r>  -21.2904    1.0000 </r>
       <r>  -21.2897    1.0000 </r>
       <r>  -21.2896    1.0000 </r>
       <r>  -21.2887    1.0000 </r>
       <r>  -21.2885    1.0000 </r>
       <r>  -21.2884    1.0000 </r>
       <r>  -21.2881    1.0000 </r>
       <r>  -21.2877    1.0000 </r>
       <r>  -21.2870    1.0000 </r>
       <r>  -21.2865    1.0000 </r>
       <r>  -21.2862    1.0000 </r>
       <r>  -21.2850    1.0000 </r>
       <r>  -21.2843    1.0000 </r>
       <r>  -21.2842    1.0000 </r>
       <r>  -21.2841    1.0000 </r>
       <r>  -21.2840    1.0000 </r>
       <r>  -21.2838    1.0000 </r>
       <r>  -21.2837    1.0000 </r>
       <r>  -21.2828    1.0000 </r>
       <r>  -21.2824    1.0000 </r>
       <r>  -21.2824    1.0000 </r>
       <r>  -21.2813    1.0000 </r>
       <r>  -21.2812    1.0000 </r>
       <r>  -21.2809    1.0000 </r>
       <r>  -21.2806    1.0000 </r>
       <r>  -21.2804    1.0000 </r>
       <r>  -21.2801    1.0000 </r>
       <r>  -21.2795    1.0000 </r>
       <r>  -21.2793    1.0000 </r>
       <r>  -21.2791    1.0000 </r>
       <r>  -21.2781    1.0000 </r>
       <r>  -21.2779    1.0000 </r>
       <r>  -21.2777    1.0000 </r>
       <r>  -21.2777    1.0000 </r>
       <r>  -21.2771    1.0000 </r>
       <r>  -21.2770    1.0000 </r>
       <r>  -21.2769    1.0000 </r>
       <r>  -21.2767    1.0000 </r>
       <r>  -21.2767    1.0000 </r>
       <r>  -21.2765    1.0000 </r>
       <r>  -21.2764    1.0000 </r>
       <r>  -21.2762    1.0000 </r>
       <r>  -21.2758    1.0000 </r>
       <r>  -21.2756    1.0000 </r>
       <r>  -21.2755    1.0000 </r>
       <r>  -21.2752    1.0000 </r>
       <r>  -21.2748    1.0000 </r>
       <r>  -21.2745    1.0000 </r>
       <r>  -21.2745    1.0000 </r>
       <r>  -21.2736    1.0000 </r>
       <r>  -21.2735    1.0000 </r>
       <r>  -21.2731    1.0000 </r>
       <r>  -21.2729    1.0000 </r>
       <r>  -21.2727    1.0000 </r>
       <r>  -21.2725    1.0000 </r>
       <r>  -21.2723    1.0000 </r>
       <r>  -21.2721    1.0000 </r>
       <r>  -21.2717    1.0000 </r>
       <r>  -21.2716    1.0000 </r>
       <r>  -21.2713    1.0000 </r>
       <r>  -21.2710    1.0000 </r>
       <r>  -21.2708    1.0000 </r>
       <r>  -21.2707    1.0000 </r>
       <r>  -21.2705    1.0000 </r>
       <r>  -21.2702    1.0000 </r>
       <r>  -21.2700    1.0000 </r>
       <r>  -21.2699    1.0000 </r>
       <r>  -21.2694    1.0000 </r>
       <r>  -21.2689    1.0000 </r>
       <r>  -21.2688    1.0000 </r>
       <r>  -21.2686    1.0000 </r>
       <r>  -21.2683    1.0000 </r>
       <r>  -21.2681    1.0000 </r>
       <r>  -21.2558    1.0000 </r>
       <r>  -21.2557    1.0000 </r>
       <r>  -21.2554    1.0000 </r>
       <r>  -13.2916    1.0000 </r>
       <r>  -13.2912    1.0000 </r>
       <r>  -13.1042    1.0000 </r>
       <r>  -13.0984    1.0000 </r>
       <r>  -13.0978    1.0000 </r>
       <r>  -13.0970    1.0000 </r>
       <r>  -13.0969    1.0000 </r>
       <r>  -13.0961    1.0000 </r>
       <r>  -13.0954    1.0000 </r>
       <r>  -13.0914    1.0000 </r>
       <r>  -13.0063    1.0000 </r>
       <r>  -13.0017    1.0000 </r>
       <r>  -13.0011    1.0000 </r>
       <r>  -13.0007    1.0000 </r>
       <r>  -13.0006    1.0000 </r>
       <r>  -13.0006    1.0000 </r>
       <r>  -13.0005    1.0000 </r>
       <r>  -13.0002    1.0000 </r>
       <r>  -12.9952    1.0000 </r>
       <r>  -12.9920    1.0000 </r>
       <r>  -12.9497    1.0000 </r>
       <r>  -12.9455    1.0000 </r>
       <r>  -12.9452    1.0000 </r>
       <r>  -12.9439    1.0000 </r>
       <r>  -12.9435    1.0000 </r>
       <r>  -12.9426    1.0000 </r>
       <r>  -12.9423    1.0000 </r>
       <r>  -12.9387    1.0000 </r>
       <r>  -12.9311    1.0000 </r>
       <r>  -12.9308    1.0000 </r>
       <r>  -12.9297    1.0000 </r>
       <r>  -12.9257    1.0000 </r>
       <r>   -2.5051    1.0000 </r>
       <r>   -2.5050    1.0000 </r>
       <r>   -2.5049    1.0000 </r>
       <r>   -2.5045    1.0000 </r>
       <r>   -2.5043    1.0000 </r>
       <r>   -2.5040    1.0000 </r>
       <r>   -2.5038    1.0000 </r>
       <r>   -2.5037    1.0000 </r>
       <r>   -2.2878    1.0000 </r>
       <r>   -2.2877    1.0000 </r>
       <r>   -2.2876    1.0000 </r>
       <r>   -2.2876    1.0000 </r>
       <r>   -2.2743    1.0000 </r>
       <r>   -2.2741    1.0000 </r>
       <r>   -2.1409    1.0000 </r>
       <r>   -2.1374    1.0000 </r>
       <r>   -2.1365    1.0000 </r>
       <r>   -2.1364    1.0000 </r>
       <r>   -2.1363    1.0000 </r>
       <r>   -2.1363    1.0000 </r>
       <r>   -2.1354    1.0000 </r>
       <r>   -2.1319    1.0000 </r>
       <r>   -1.9867    1.0000 </r>
       <r>   -1.9867    1.0000 </r>
       <r>   -1.9860    1.0000 </r>
       <r>   -1.9859    1.0000 </r>
       <r>   -1.9852    1.0000 </r>
       <r>   -1.9850    1.0000 </r>
       <r>   -1.9841    1.0000 </r>
       <r>   -1.9841    1.0000 </r>
       <r>   -1.8124    1.0000 </r>
       <r>   -1.8095    1.0000 </r>
       <r>   -1.8089    1.0000 </r>
       <r>   -1.8088    1.0000 </r>
       <r>   -1.8087    1.0000 </r>
       <r>   -1.8086    1.0000 </r>
       <r>   -1.8079    1.0000 </r>
       <r>   -1.8051    1.0000 </r>
       <r>   -1.4979    1.0000 </r>
       <r>   -1.4978    1.0000 </r>
       <r>   -1.4978    1.0000 </r>
       <r>   -1.4977    1.0000 </r>
       <r>   -1.3808    1.0000 </r>
       <r>   -1.3804    1.0000 </r>
       <r>   -1.3804    1.0000 </r>
       <r>   -1.3803    1.0000 </r>
       <r>   -1.2141    1.0000 </r>
       <r>   -1.2127    1.0000 </r>
       <r>   -1.2126    1.0000 </r>
       <r>   -1.2123    1.0000 </r>
       <r>   -1.1934    1.0000 </r>
       <r>   -1.1930    1.0000 </r>
       <r>   -1.1927    1.0000 </r>
       <r>   -1.1914    1.0000 </r>
       <r>   -1.1910    1.0000 </r>
       <r>   -1.1905    1.0000 </r>
       <r>   -1.1897    1.0000 </r>
       <r>   -1.1892    1.0000 </r>
       <r>   -1.1769    1.0000 </r>
       <r>   -1.1749    1.0000 </r>
       <r>   -1.1746    1.0000 </r>
       <r>   -1.1743    1.0000 </r>
       <r>   -1.1742    1.0000 </r>
       <r>   -1.1735    1.0000 </r>
       <r>   -1.1726    1.0000 </r>
       <r>   -1.1716    1.0000 </r>
       <r>   -1.1619    1.0000 </r>
       <r>   -1.1601    1.0000 </r>
       <r>   -1.1597    1.0000 </r>
       <r>   -1.1594    1.0000 </r>
       <r>   -1.1592    1.0000 </r>
       <r>   -1.1586    1.0000 </r>
       <r>   -1.1579    1.0000 </r>
       <r>   -1.1564    1.0000 </r>
       <r>   -1.0833    1.0000 </r>
       <r>   -1.0831    1.0000 </r>
       <r>   -0.9486    1.0000 </r>
       <r>   -0.9471    1.0000 </r>
       <r>   -0.9470    1.0000 </r>
       <r>   -0.9469    1.0000 </r>
       <r>   -0.9468    1.0000 </r>
       <r>   -0.9467    1.0000 </r>
       <r>   -0.9464    1.0000 </r>
       <r>   -0.9455    1.0000 </r>
       <r>   -0.9368    1.0000 </r>
       <r>   -0.9346    1.0000 </r>
       <r>   -0.9337    1.0000 </r>
       <r>   -0.9324    1.0000 </r>
       <r>   -0.9322    1.0000 </r>
       <r>   -0.9306    1.0000 </r>
       <r>   -0.9298    1.0000 </r>
       <r>   -0.9275    1.0000 </r>
       <r>   -0.7683    1.0000 </r>
       <r>   -0.7683    1.0000 </r>
       <r>   -0.7681    1.0000 </r>
       <r>   -0.7679    1.0000 </r>
       <r>    5.0223    0.0000 </r>
       <r>    5.0224    0.0000 </r>
       <r>    6.7093    0.0000 </r>
       <r>    6.7149    0.0000 </r>
       <r>    6.7165    0.0000 </r>
       <r>    6.7178    0.0000 </r>
       <r>    6.7187    0.0000 </r>
       <r>    6.7200    0.0000 </r>
       <r>    6.7213    0.0000 </r>
       <r>    6.7261    0.0000 </r>
       <r>    6.8395    0.0000 </r>
       <r>    6.8397    0.0000 </r>
       <r>    6.8417    0.0000 </r>
       <r>    6.8429    0.0000 </r>
       <r>    6.8435    0.0000 </r>
       <r>    6.8448    0.0000 </r>
       <r>    6.8471    0.0000 </r>
       <r>    6.8472    0.0000 </r>
       <r>    6.9711    0.0000 </r>
       <r>    6.9712    0.0000 </r>
       <r>    7.3625    0.0000 </r>
       <r>    7.3625    0.0000 </r>
       <r>    7.3626    0.0000 </r>
       <r>    7.3627    0.0000 </r>
       <r>    7.4802    0.0000 </r>
       <r>    7.4803    0.0000 </r>
       <r>    7.7145    0.0000 </r>
       <r>    7.7146    0.0000 </r>
       <r>    7.7146    0.0000 </r>
       <r>    7.7146    0.0000 </r>
       <r>    8.2595    0.0000 </r>
       <r>    8.2633    0.0000 </r>
       <r>    8.2647    0.0000 </r>
       <r>    8.2657    0.0000 </r>
       <r>    8.2661    0.0000 </r>
       <r>    8.2670    0.0000 </r>
       <r>    8.2684    0.0000 </r>
       <r>    8.2722    0.0000 </r>
       <r>    8.5284    0.0000 </r>
       <r>    8.5316    0.0000 </r>
       <r>    8.5337    0.0000 </r>
       <r>    8.5347    0.0000 </r>
       <r>    8.5370    0.0000 </r>
       <r>    8.5372    0.0000 </r>
       <r>    8.5380    0.0000 </r>
       <r>    8.5384    0.0000 </r>
       <r>    8.5384    0.0000 </r>
       <r>    8.5390    0.0000 </r>
       <r>    8.5395    0.0000 </r>
       <r>    8.5403    0.0000 </r>
       <r>    8.5427    0.0000 </r>
       <r>    8.5431    0.0000 </r>
       <r>    8.5457    0.0000 </r>
       <r>    8.5483    0.0000 </r>
       <r>    8.9422    0.0000 </r>
       <r>    8.9454    0.0000 </r>
       <r>    8.9503    0.0000 </r>
       <r>    8.9506    0.0000 </r>
       <r>    8.9512    0.0000 </r>
       <r>    8.9515    0.0000 </r>
       <r>    8.9565    0.0000 </r>
       <r>    8.9597    0.0000 </r>
       <r>    9.4876    0.0000 </r>
       <r>    9.4934    0.0000 </r>
      </set>
      <set comment="kpoint 4">
       <r>  -21.3079    1.0000 </r>
       <r>  -21.3077    1.0000 </r>
       <r>  -21.3074    1.0000 </r>
       <r>  -21.2998    1.0000 </r>
       <r>  -21.2987    1.0000 </r>
       <r>  -21.2982    1.0000 </r>
       <r>  -21.2979    1.0000 </r>
       <r>  -21.2977    1.0000 </r>
       <r>  -21.2965    1.0000 </r>
       <r>  -21.2956    1.0000 </r>
       <r>  -21.2949    1.0000 </r>
       <r>  -21.2941    1.0000 </r>
       <r>  -21.2937    1.0000 </r>
       <r>  -21.2935    1.0000 </r>
       <r>  -21.2933    1.0000 </r>
       <r>  -21.2933    1.0000 </r>
       <r>  -21.2930    1.0000 </r>
       <r>  -21.2925    1.0000 </r>
       <r>  -21.2924    1.0000 </r>
       <r>  -21.2918    1.0000 </r>
       <r>  -21.2916    1.0000 </r>
       <r>  -21.2914    1.0000 </r>
       <r>  -21.2911    1.0000 </r>
       <r>  -21.2905    1.0000 </r>
       <r>  -21.2904    1.0000 </r>
       <r>  -21.2898    1.0000 </r>
       <r>  -21.2882    1.0000 </r>
       <r>  -21.2879    1.0000 </r>
       <r>  -21.2873    1.0000 </r>
       <r>  -21.2869    1.0000 </r>
       <r>  -21.2864    1.0000 </r>
       <r>  -21.2858    1.0000 </r>
       <r>  -21.2845    1.0000 </r>
       <r>  -21.2841    1.0000 </r>
       <r>  -21.2837    1.0000 </r>
       <r>  -21.2822    1.0000 </r>
       <r>  -21.2818    1.0000 </r>
[...]
      </set>
     </set>
    </set>
   </array>
  </eigenvalues>
  <separator name="orbital magnetization" >
   <v name="MAGDIPOLOUT">      0.00000000      0.00000000      0.00000000</v>
  </separator>
  <dos>
   <i name="efermi">     -0.56315064 </i>
   <total>
    <array>
     <dimension dim="1">gridpoints</dimension>
     <dimension dim="2">spin</dimension>
     <field>energy</field>
     <field>total</field>
     <field>integrated</field>
     <set>
      <set comment="spin 1">
       <r>   -22.8499     0.0000     0.0000 </r>
       <r>   -22.7369     0.0000     0.0000 </r>
       <r>   -22.6239     0.0000     0.0000 </r>
       <r>   -22.5109     0.0000     0.0000 </r>
       <r>   -22.3979     0.0000     0.0000 </r>
       <r>   -22.2849     0.0000     0.0000 </r>
       <r>   -22.1719     0.0000     0.0000 </r>
       <r>   -22.0590     0.0000     0.0000 </r>
       <r>   -21.9460     0.0000     0.0000 </r>
       <r>   -21.8330     0.0000     0.0000 </r>
       <r>   -21.7200     0.0000     0.0000 </r>
       <r>   -21.6070     0.0000     0.0000 </r>
       <r>   -21.4940     0.0000     0.0000 </r>
       <r>   -21.3810     0.0000     0.0000 </r>
       <r>   -21.2680  1305.0094   147.4493 </r>
       <r>   -21.1551   394.2991   192.0000 </r>
       <r>   -21.0421     0.0000   192.0000 </r>
       <r>   -20.9291     0.0000   192.0000 </r>
       <r>   -20.8161     0.0000   192.0000 </r>
       <r>   -20.7031     0.0000   192.0000 </r>
       <r>   -20.5901     0.0000   192.0000 </r>
       <r>   -20.4771     0.0000   192.0000 </r>
       <r>   -20.3641     0.0000   192.0000 </r>
       <r>   -20.2512     0.0000   192.0000 </r>
       <r>   -20.1382     0.0000   192.0000 </r>
       <r>   -20.0252     0.0000   192.0000 </r>
       <r>   -19.9122     0.0000   192.0000 </r>
       <r>   -19.7992     0.0000   192.0000 </r>
       <r>   -19.6862     0.0000   192.0000 </r>
       <r>   -19.5732     0.0000   192.0000 </r>
       <r>   -19.4602     0.0000   192.0000 </r>
       <r>   -19.3473     0.0000   192.0000 </r>
       <r>   -19.2343     0.0000   192.0000 </r>
       <r>   -19.1213     0.0000   192.0000 </r>
       <r>   -19.0083     0.0000   192.0000 </r>
       <r>   -18.8953     0.0000   192.0000 </r>
       <r>   -18.7823     0.0000   192.0000 </r>
       <r>   -18.6693     0.0000   192.0000 </r>
       <r>   -18.5564     0.0000   192.0000 </r>
       <r>   -18.4434     0.0000   192.0000 </r>
       <r>   -18.3304     0.0000   192.0000 </r>
       <r>   -18.2174     0.0000   192.0000 </r>
       <r>   -18.1044     0.0000   192.0000 </r>
       <r>   -17.9914     0.0000   192.0000 </r>
       <r>   -17.8784     0.0000   192.0000 </r>
       <r>   -17.7654     0.0000   192.0000 </r>
       <r>   -17.6525     0.0000   192.0000 </r>
       <r>   -17.5395     0.0000   192.0000 </r>
       <r>   -17.4265     0.0000   192.0000 </r>
       <r>   -17.3135     0.0000   192.0000 </r>
       <r>   -17.2005     0.0000   192.0000 </r>
       <r>   -17.0875     0.0000   192.0000 </r>
       <r>   -16.9745     0.0000   192.0000 </r>
       <r>   -16.8615     0.0000   192.0000 </r>
       <r>   -16.7486     0.0000   192.0000 </r>
       <r>   -16.6356     0.0000   192.0000 </r>
       <r>   -16.5226     0.0000   192.0000 </r>
       <r>   -16.4096     0.0000   192.0000 </r>
       <r>   -16.2966     0.0000   192.0000 </r>
       <r>   -16.1836     0.0000   192.0000 </r>
       <r>   -16.0706     0.0000   192.0000 </r>
       <r>   -15.9576     0.0000   192.0000 </r>
       <r>   -15.8447     0.0000   192.0000 </r>
       <r>   -15.7317     0.0000   192.0000 </r>
       <r>   -15.6187     0.0000   192.0000 </r>
       <r>   -15.5057     0.0000   192.0000 </r>
       <r>   -15.3927     0.0000   192.0000 </r>
       <r>   -15.2797     0.0000   192.0000 </r>
       <r>   -15.1667     0.0000   192.0000 </r>
       <r>   -15.0538     0.0000   192.0000 </r>
       <r>   -14.9408     0.0000   192.0000 </r>
       <r>   -14.8278     0.0000   192.0000 </r>
       <r>   -14.7148     0.0000   192.0000 </r>
       <r>   -14.6018     0.0000   192.0000 </r>
       <r>   -14.4888     0.0000   192.0000 </r>
       <r>   -14.3758     0.0000   192.0000 </r>
       <r>   -14.2628     0.0000   192.0000 </r>
       <r>   -14.1499     0.0000   192.0000 </r>
       <r>   -14.0369     0.0000   192.0000 </r>
       <r>   -13.9239     0.0000   192.0000 </r>
       <r>   -13.8109     0.0000   192.0000 </r>
       <r>   -13.6979     0.0000   192.0000 </r>
       <r>   -13.5849     0.0000   192.0000 </r>
       <r>   -13.4719     0.0000   192.0000 </r>
       <r>   -13.3589     1.0528   192.1190 </r>
       <r>   -13.2460    18.7717   194.2399 </r>
       <r>   -13.1330    48.5938   199.7305 </r>
       <r>   -13.0200   124.2832   213.7731 </r>
       <r>   -12.9070   367.8649   255.3376 </r>
       <r>   -12.7940     5.8560   256.0000 </r>
       <r>   -12.6810     0.0000   256.0000 </r>
       <r>   -12.5680     0.0000   256.0000 </r>
       <r>   -12.4550     0.0000   256.0000 </r>
       <r>   -12.3421     0.0000   256.0000 </r>
       <r>   -12.2291     0.0000   256.0000 </r>
       <r>   -12.1161     0.0000   256.0000 </r>
       <r>   -12.0031     0.0000   256.0000 </r>
       <r>   -11.8901     0.0000   256.0000 </r>
       <r>   -11.7771     0.0000   256.0000 </r>
       <r>   -11.6641     0.0000   256.0000 </r>
       <r>   -11.5511     0.0000   256.0000 </r>
       <r>   -11.4382     0.0000   256.0000 </r>
       <r>   -11.3252     0.0000   256.0000 </r>
       <r>   -11.2122     0.0000   256.0000 </r>
       <r>   -11.0992     0.0000   256.0000 </r>
       <r>   -10.9862     0.0000   256.0000 </r>
       <r>   -10.8732     0.0000   256.0000 </r>
       <r>   -10.7602     0.0000   256.0000 </r>
       <r>   -10.6473     0.0000   256.0000 </r>
       <r>   -10.5343     0.0000   256.0000 </r>
       <r>   -10.4213     0.0000   256.0000 </r>
       <r>   -10.3083     0.0000   256.0000 </r>
       <r>   -10.1953     0.0000   256.0000 </r>
       <r>   -10.0823     0.0000   256.0000 </r>
       <r>    -9.9693     0.0000   256.0000 </r>
       <r>    -9.8563     0.0000   256.0000 </r>
       <r>    -9.7434     0.0000   256.0000 </r>
       <r>    -9.6304     0.0000   256.0000 </r>
       <r>    -9.5174     0.0000   256.0000 </r>
       <r>    -9.4044     0.0000   256.0000 </r>
       <r>    -9.2914     0.0000   256.0000 </r>
       <r>    -9.1784     0.0000   256.0000 </r>
       <r>    -9.0654     0.0000   256.0000 </r>
       <r>    -8.9524     0.0000   256.0000 </r>
       <r>    -8.8395     0.0000   256.0000 </r>
       <r>    -8.7265     0.0000   256.0000 </r>
       <r>    -8.6135     0.0000   256.0000 </r>
       <r>    -8.5005     0.0000   256.0000 </r>
       <r>    -8.3875     0.0000   256.0000 </r>
       <r>    -8.2745     0.0000   256.0000 </r>
       <r>    -8.1615     0.0000   256.0000 </r>
       <r>    -8.0485     0.0000   256.0000 </r>
       <r>    -7.9356     0.0000   256.0000 </r>
       <r>    -7.8226     0.0000   256.0000 </r>
       <r>    -7.7096     0.0000   256.0000 </r>
       <r>    -7.5966     0.0000   256.0000 </r>
       <r>    -7.4836     0.0000   256.0000 </r>
       <r>    -7.3706     0.0000   256.0000 </r>
       <r>    -7.2576     0.0000   256.0000 </r>
       <r>    -7.1447     0.0000   256.0000 </r>
       <r>    -7.0317     0.0000   256.0000 </r>
       <r>    -6.9187     0.0000   256.0000 </r>
       <r>    -6.8057     0.0000   256.0000 </r>
       <r>    -6.6927     0.0000   256.0000 </r>
       <r>    -6.5797     0.0000   256.0000 </r>
       <r>    -6.4667     0.0000   256.0000 </r>
       <r>    -6.3537     0.0000   256.0000 </r>
       <r>    -6.2408     0.0000   256.0000 </r>
       <r>    -6.1278     0.0000   256.0000 </r>
       <r>    -6.0148     0.0000   256.0000 </r>
       <r>    -5.9018     0.0000   256.0000 </r>
       <r>    -5.7888     0.0000   256.0000 </r>
       <r>    -5.6758     0.0000   256.0000 </r>
       <r>    -5.5628     0.0000   256.0000 </r>
       <r>    -5.4498     0.0000   256.0000 </r>
       <r>    -5.3369     0.0000   256.0000 </r>
       <r>    -5.2239     0.0000   256.0000 </r>
       <r>    -5.1109     0.0000   256.0000 </r>
       <r>    -4.9979     0.0000   256.0000 </r>
       <r>    -4.8849     0.0000   256.0000 </r>
       <r>    -4.7719     0.0000   256.0000 </r>
       <r>    -4.6589     0.0000   256.0000 </r>
       <r>    -4.5459     0.0000   256.0000 </r>
       <r>    -4.4330     0.0000   256.0000 </r>
       <r>    -4.3200     0.0000   256.0000 </r>
       <r>    -4.2070     0.0000   256.0000 </r>
       <r>    -4.0940     0.0000   256.0000 </r>
       <r>    -3.9810     0.0000   256.0000 </r>
       <r>    -3.8680     0.0000   256.0000 </r>
       <r>    -3.7550     0.0000   256.0000 </r>
       <r>    -3.6421     0.0000   256.0000 </r>
       <r>    -3.5291     0.0000   256.0000 </r>
       <r>    -3.4161     0.0000   256.0000 </r>
       <r>    -3.3031     0.0000   256.0000 </r>
       <r>    -3.1901     0.0000   256.0000 </r>
       <r>    -3.0771     0.0000   256.0000 </r>
       <r>    -2.9641     0.0000   256.0000 </r>
       <r>    -2.8511     0.0000   256.0000 </r>
       <r>    -2.7382     0.0310   256.0035 </r>
       <r>    -2.6252     8.8196   257.0000 </r>
       <r>    -2.5122    15.5434   258.7562 </r>
       <r>    -2.3992    88.2045   268.7222 </r>
       <r>    -2.2862    79.5073   277.7055 </r>
       <r>    -2.1732   158.3412   295.5962 </r>
       <r>    -2.0602    76.5912   304.2500 </r>
       <r>    -1.9472    54.4383   310.4008 </r>
       <r>    -1.8343    55.1101   316.6276 </r>
       <r>    -1.7213    80.7387   325.7500 </r>
       <r>    -1.6083     0.0000   325.7500 </r>
       <r>    -1.4953    48.8703   331.2717 </r>
       <r>    -1.3823   211.3208   355.1483 </r>
       <r>    -1.2693    31.4770   358.7047 </r>
       <r>    -1.1563   238.3332   385.6333 </r>
       <r>    -1.0433   149.1134   402.4813 </r>
       <r>    -0.9304   244.8456   430.1459 </r>
       <r>    -0.8174    73.6667   438.4694 </r>
       <r>    -0.7044    77.5252   447.2288 </r>
       <r>    -0.5914     6.8255   448.0000 </r>
       <r>    -0.4784     0.0000   448.0000 </r>
       <r>    -0.3654     0.0000   448.0000 </r>
       <r>    -0.2524     0.0000   448.0000 </r>
       <r>    -0.1394     0.0000   448.0000 </r>
       <r>    -0.0265     0.0000   448.0000 </r>
       <r>     0.0865     0.0000   448.0000 </r>
       <r>     0.1995     0.0000   448.0000 </r>
       <r>     0.3125     0.0000   448.0000 </r>
       <r>     0.4255     0.0000   448.0000 </r>
       <r>     0.5385     0.0000   448.0000 </r>
       <r>     0.6515     0.0000   448.0000 </r>
       <r>     0.7644     0.0000   448.0000 </r>
       <r>     0.8774     0.0000   448.0000 </r>
       <r>     0.9904     0.0000   448.0000 </r>
       <r>     1.1034     0.0000   448.0000 </r>
       <r>     1.2164     0.0000   448.0000 </r>
       <r>     1.3294     0.0000   448.0000 </r>
       <r>     1.4424     0.0000   448.0000 </r>
       <r>     1.5554     0.0000   448.0000 </r>
       <r>     1.6683     0.0000   448.0000 </r>
       <r>     1.7813     0.0000   448.0000 </r>
       <r>     1.8943     0.0000   448.0000 </r>
       <r>     2.0073     0.0000   448.0000 </r>
       <r>     2.1203     0.0000   448.0000 </r>
       <r>     2.2333     0.0000   448.0000 </r>
       <r>     2.3463     0.0000   448.0000 </r>
       <r>     2.4593     0.0000   448.0000 </r>
       <r>     2.5722     0.0000   448.0000 </r>
       <r>     2.6852     0.0000   448.0000 </r>
       <r>     2.7982     0.0000   448.0000 </r>
       <r>     2.9112     0.0000   448.0000 </r>
       <r>     3.0242     0.0000   448.0000 </r>
       <r>     3.1372     0.0000   448.0000 </r>
       <r>     3.2502     0.0000   448.0000 </r>
       <r>     3.3632     0.0000   448.0000 </r>
       <r>     3.4761     0.0000   448.0000 </r>
       <r>     3.5891     0.0000   448.0000 </r>
       <r>     3.7021     0.0000   448.0000 </r>
       <r>     3.8151     0.0000   448.0000 </r>
       <r>     3.9281     0.0000   448.0000 </r>
       <r>     4.0411     0.0000   448.0000 </r>
       <r>     4.1541     0.0000   448.0000 </r>
       <r>     4.2670     0.0000   448.0000 </r>
       <r>     4.3800     2.2072   448.2494 </r>
       <r>     4.4930     0.0055   448.2500 </r>
       <r>     4.6060     0.0000   448.2500 </r>
       <r>     4.7190     0.0000   448.2500 </r>
       <r>     4.8320     0.0000   448.2500 </r>
       <r>     4.9450     0.0000   448.2500 </r>
       <r>     5.0580    13.1904   449.7403 </r>
       <r>     5.1709     0.0855   449.7500 </r>
       <r>     5.2839     0.0000   449.7500 </r>
       <r>     5.3969     0.0000   449.7500 </r>
       <r>     5.5099     0.5856   449.8162 </r>
       <r>     5.6229    25.9661   452.7500 </r>
       <r>     5.7359     0.0000   452.7500 </r>
       <r>     5.8489    15.5161   454.5031 </r>
       <r>     5.9619     2.1850   454.7500 </r>
       <r>     6.0748     0.0000   454.7500 </r>
       <r>     6.1878     0.0000   454.7500 </r>
       <r>     6.3008     0.0000   454.7500 </r>
       <r>     6.4138    13.3907   456.2630 </r>
       <r>     6.5268     8.7348   457.2500 </r>
       <r>     6.6398    27.6031   460.3688 </r>
       <r>     6.7528    78.0722   469.1899 </r>
       <r>     6.8658    56.9967   475.6298 </r>
       <r>     6.9787    12.5981   477.0533 </r>
       <r>     7.0917     3.9539   477.5000 </r>
       <r>     7.2047     2.9279   477.8308 </r>
       <r>     7.3177     3.7354   478.2529 </r>
       <r>     7.4307    79.0321   487.1825 </r>
       <r>     7.5437   162.3369   505.5245 </r>
       <r>     7.6567    10.8456   506.7501 </r>
       <r>     7.7697    26.5492   509.7498 </r>
       <r>     7.8826     0.0132   509.7515 </r>
       <r>     7.9956    53.0891   515.7499 </r>
       <r>     8.1086     0.0003   515.7500 </r>
       <r>     8.2216    13.3482   517.2582 </r>
       <r>     8.3346    92.7089   527.7333 </r>
       <r>     8.4476     0.1470   527.7500 </r>
       <r>     8.5606   129.2117   542.3493 </r>
       <r>     8.6735    30.0984   545.7500 </r>
       <r>     8.7865     0.0000   545.7500 </r>
       <r>     8.8995    65.3649   553.1354 </r>
       <r>     9.0125   130.3406   567.8622 </r>
       <r>     9.1255    14.4945   569.5000 </r>
       <r>     9.2385    12.5917   570.9227 </r>
       <r>     9.3515    31.6611   574.5000 </r>
       <r>     9.4645     0.4763   574.5538 </r>
       <r>     9.5774    12.7995   576.0000 </r>
       <r>     9.6904     0.0000   576.0000 </r>
       <r>     9.8034     0.0000   576.0000 </r>
       <r>     9.9164     0.0000   576.0000 </r>
       <r>    10.0294     0.0000   576.0000 </r>
       <r>    10.1424     0.0000   576.0000 </r>
       <r>    10.2554     0.0000   576.0000 </r>
       <r>    10.3684     0.0000   576.0000 </r>
       <r>    10.4813     0.0000   576.0000 </r>
       <r>    10.5943     0.0000   576.0000 </r>
       <r>    10.7073     0.0000   576.0000 </r>
       <r>    10.8203     0.0000   576.0000 </r>
       <r>    10.9333     0.0000   576.0000 </r>
       <r>    11.0463     0.0000   576.0000 </r>
      </set>
     </set>
    </array>
   </total>
  </dos>
 </calculation>
 <structure name="finalpos" >
  <crystal>
   <varray name="basis" >
    <v>      11.20400236       0.00000000       0.00000000 </v>
    <v>       0.00000000      11.20400236       0.00000000 </v>
    <v>       0.00000000       0.00000000      11.20400236 </v>
   </varray>
   <i name="volume">   1406.43470641 </i>
   <varray name="rec_basis" >
    <v>       0.08925382       0.00000000       0.00000000 </v>
    <v>       0.00000000       0.08925382       0.00000000 </v>
    <v>       0.00000000       0.00000000       0.08925382 </v>
   </varray>
  </crystal>
  <varray name="positions" >
   <v>       0.99732239       0.00000000       0.00000000 </v>
   <v>       0.25000000       0.25000000       0.00000000 </v>
   <v>       0.25000000       0.00000000       0.25000000 </v>
   <v>       0.00000000       0.25000000       0.25000000 </v>
   <v>       0.00000000       0.00000000       0.50000000 </v>
   <v>       0.25000000       0.25000000       0.50000000 </v>
   <v>       0.25000000       0.00000000       0.75000000 </v>
   <v>       0.00000000       0.25000000       0.75000000 </v>
   <v>       0.00000000       0.50000000       0.00000000 </v>
   <v>       0.25000000       0.75000000       0.00000000 </v>
   <v>       0.25000000       0.50000000       0.25000000 </v>
   <v>       0.00000000       0.75000000       0.25000000 </v>
   <v>       0.00000000       0.50000000       0.50000000 </v>
   <v>       0.25000000       0.75000000       0.50000000 </v>
   <v>       0.25000000       0.50000000       0.75000000 </v>
   <v>       0.00000000       0.75000000       0.75000000 </v>
   <v>       0.50000000       0.00000000       0.00000000 </v>
   <v>       0.75000000       0.25000000       0.00000000 </v>
   <v>       0.75000000       0.00000000       0.25000000 </v>
   <v>       0.50000000       0.25000000       0.25000000 </v>
   <v>       0.50000000       0.00000000       0.50000000 </v>
   <v>       0.75000000       0.25000000       0.50000000 </v>
   <v>       0.75000000       0.00000000       0.75000000 </v>
   <v>       0.50000000       0.25000000       0.75000000 </v>
   <v>       0.50000000       0.50000000       0.00000000 </v>
   <v>       0.75000000       0.75000000       0.00000000 </v>
   <v>       0.75000000       0.50000000       0.25000000 </v>
   <v>       0.50000000       0.75000000       0.25000000 </v>
   <v>       0.50000000       0.50000000       0.50000000 </v>
   <v>       0.75000000       0.75000000       0.50000000 </v>
   <v>       0.75000000       0.50000000       0.75000000 </v>
   <v>       0.50000000       0.75000000       0.75000000 </v>
   <v>       0.25267761       0.25000000       0.25000000 </v>
   <v>       0.00000000       0.00000000       0.25000000 </v>
   <v>       0.00000000       0.25000000       0.00000000 </v>
   <v>       0.25000000       0.00000000       0.00000000 </v>
   <v>       0.25000000       0.25000000       0.75000000 </v>
   <v>       0.00000000       0.00000000       0.75000000 </v>
   <v>       0.00000000       0.25000000       0.50000000 </v>
   <v>       0.25000000       0.00000000       0.50000000 </v>
   <v>       0.25000000       0.75000000       0.25000000 </v>
   <v>       0.00000000       0.50000000       0.25000000 </v>
   <v>       0.00000000       0.75000000       0.00000000 </v>
   <v>       0.25000000       0.50000000       0.00000000 </v>
   <v>       0.25000000       0.75000000       0.75000000 </v>
   <v>       0.00000000       0.50000000       0.75000000 </v>
   <v>       0.00000000       0.75000000       0.50000000 </v>
   <v>       0.25000000       0.50000000       0.50000000 </v>
   <v>       0.75000000       0.25000000       0.25000000 </v>
   <v>       0.50000000       0.00000000       0.25000000 </v>
   <v>       0.50000000       0.25000000       0.00000000 </v>
   <v>       0.75000000       0.00000000       0.00000000 </v>
   <v>       0.75000000       0.25000000       0.75000000 </v>
   <v>       0.50000000       0.00000000       0.75000000 </v>
   <v>       0.50000000       0.25000000       0.50000000 </v>
   <v>       0.75000000       0.00000000       0.50000000 </v>
   <v>       0.75000000       0.75000000       0.25000000 </v>
   <v>       0.50000000       0.50000000       0.25000000 </v>
   <v>       0.50000000       0.75000000       0.00000000 </v>
   <v>       0.75000000       0.50000000       0.00000000 </v>
   <v>       0.75000000       0.75000000       0.75000000 </v>
   <v>       0.50000000       0.50000000       0.75000000 </v>
   <v>       0.50000000       0.75000000       0.50000000 </v>
   <v>       0.75000000       0.50000000       0.50000000 </v>
  </varray>
 </structure>
</modeling>
