  64  64   0   0
  0.2006348E+02  0.1086915E-08  0.1086915E-08  0.1086915E-08  0.5000000E-15
  1.000000000000000E-004
  CAR 
 unknown system                          
     10.09996597     -6.98197053  301      5.89353911      1.00000000
     -6.982  0.0000E+00  0.0000E+00
     -6.925  0.0000E+00  0.0000E+00
     -6.868  0.0000E+00  0.0000E+00
     -6.811  0.0000E+00  0.0000E+00
     -6.754  0.0000E+00  0.0000E+00
     -6.697  0.0000E+00  0.0000E+00
     -6.640  0.0000E+00  0.0000E+00
     -6.583  0.0000E+00  0.0000E+00
     -6.526  0.0000E+00  0.0000E+00
     -6.470  0.0000E+00  0.0000E+00
     -6.413  0.0000E+00  0.0000E+00
     -6.356  0.0000E+00  0.0000E+00
     -6.299  0.9759E-10  0.5557E-11
     -6.242  0.2284E-01  0.1300E-02
     -6.185  0.4053E+01  0.2321E+00
     -6.128  0.3143E+00  0.2500E+00
     -6.071  0.8807E-07  0.2500E+00
     -6.014  0.9202E-07  0.2500E+00
     -5.957  0.1015E+01  0.3078E+00
     -5.900  0.2501E+02  0.1732E+01
     -5.843  0.3180E+00  0.1750E+01
     -5.786  0.4521E-08  0.1750E+01
     -5.729  0.1057E-03  0.1750E+01
     -5.672  0.1454E+02  0.2578E+01
     -5.615  0.3813E+02  0.4749E+01
     -5.558  0.1643E-01  0.4750E+01
     -5.502  0.1172E-09  0.4750E+01
     -5.445  0.7251E-01  0.4754E+01
     -5.388  0.3051E+02  0.6491E+01
     -5.331  0.4543E+01  0.6750E+01
     -5.274  0.5128E-05  0.6750E+01
     -5.217  0.2733E-09  0.6750E+01
     -5.160  0.8890E-01  0.6755E+01
     -5.103  0.2364E+02  0.8101E+01
     -5.046  0.2618E+01  0.8250E+01
     -4.989  0.1665E-05  0.8250E+01
     -4.932  0.1781E-02  0.8250E+01
     -4.875  0.4549E+02  0.1084E+02
     -4.818  0.5987E+02  0.1425E+02
     -4.761  0.7397E-02  0.1425E+02
     -4.704  0.1362E-02  0.1425E+02
     -4.647  0.4308E+02  0.1670E+02
     -4.590  0.6229E+02  0.2025E+02
     -4.534  0.9376E-02  0.2025E+02
     -4.477  0.0000E+00  0.2025E+02
     -4.420  0.0000E+00  0.2025E+02
     -4.363  0.0000E+00  0.2025E+02
     -4.306  0.0000E+00  0.2025E+02
     -4.249  0.2127E-08  0.2025E+02
     -4.192  0.2777E+00  0.2027E+02
     -4.135  0.4810E+02  0.2300E+02
     -4.078  0.4316E+01  0.2325E+02
     -4.021  0.5738E+02  0.2652E+02
     -3.964  0.4798E+02  0.2925E+02
     -3.907  0.1168E-01  0.2925E+02
     -3.850  0.1347E+02  0.3002E+02
     -3.793  0.2535E+02  0.3146E+02
     -3.736  0.5071E+01  0.3175E+02
     -3.679  0.2629E-04  0.3175E+02
     -3.623  0.1216E+02  0.3244E+02
     -3.566  0.9293E+02  0.3773E+02
     -3.509  0.2148E+01  0.3786E+02
     -3.452  0.9962E+02  0.4353E+02
     -3.395  0.3890E+01  0.4375E+02
     -3.338  0.1352E+02  0.4452E+02
     -3.281  0.9162E+02  0.4974E+02
     -3.224  0.2281E+00  0.4975E+02
     -3.167  0.1297E-07  0.4975E+02
     -3.110  0.9803E+00  0.4981E+02
     -3.053  0.9892E+02  0.5544E+02
     -2.996  0.5473E+01  0.5575E+02
     -2.939  0.1072E-05  0.5575E+02
     -2.882  0.0000E+00  0.5575E+02
     -2.825  0.0000E+00  0.5575E+02
     -2.768  0.0000E+00  0.5575E+02
     -2.711  0.0000E+00  0.5575E+02
     -2.655  0.0000E+00  0.5575E+02
     -2.598  0.0000E+00  0.5575E+02
     -2.541  0.3189E-06  0.5575E+02
     -2.484  0.2409E+01  0.5589E+02
     -2.427  0.4974E+02  0.5872E+02
     -2.370  0.5332E+00  0.5875E+02
     -2.313  0.6355E-08  0.5875E+02
     -2.256  0.0000E+00  0.5875E+02
     -2.199  0.0000E+00  0.5875E+02
     -2.142  0.3371E-08  0.5875E+02
     -2.085  0.2628E+00  0.5876E+02
     -2.028  0.2482E+02  0.6018E+02
     -1.971  0.5453E+02  0.6328E+02
     -1.914  0.5283E+02  0.6629E+02
     -1.857  0.4991E+02  0.6913E+02
     -1.800  0.2054E+01  0.6925E+02
     -1.744  0.2570E-06  0.6925E+02
     -1.687  0.0000E+00  0.6925E+02
     -1.630  0.0000E+00  0.6925E+02
     -1.573  0.2220E-12  0.6925E+02
     -1.516  0.4774E-02  0.6925E+02
     -1.459  0.3200E+02  0.7107E+02
     -1.402  0.2068E+02  0.7225E+02
     -1.345  0.4723E-03  0.7225E+02
     -1.288  0.1509E-02  0.7225E+02
     -1.231  0.1056E+02  0.7285E+02
     -1.174  0.7003E+01  0.7325E+02
     -1.117  0.1730E-03  0.7325E+02
     -1.060  0.6561E+01  0.7362E+02
     -1.003  0.9808E+02  0.7921E+02
     -0.946  0.7328E+00  0.7925E+02
     -0.889  0.8233E-07  0.7925E+02
     -0.832  0.2066E+01  0.7937E+02
     -0.776  0.1004E+03  0.8509E+02
     -0.719  0.2862E+01  0.8525E+02
     -0.662  0.3320E+01  0.8544E+02
     -0.605  0.1963E+03  0.9661E+02
     -0.548  0.1115E+02  0.9725E+02
     -0.491  0.6677E-05  0.9725E+02
     -0.434  0.0000E+00  0.9725E+02
     -0.377  0.0000E+00  0.9725E+02
     -0.320  0.0000E+00  0.9725E+02
     -0.263  0.1055E-03  0.9725E+02
     -0.206  0.2349E+02  0.9859E+02
     -0.149  0.8181E+02  0.1032E+03
     -0.092  0.6637E-01  0.1032E+03
     -0.035  0.4635E-03  0.1033E+03
      0.022  0.1197E+02  0.1039E+03
      0.079  0.1437E+02  0.1047E+03
      0.136  0.1222E-02  0.1048E+03
      0.192  0.1042E-07  0.1048E+03
      0.249  0.6033E+00  0.1048E+03
      0.306  0.4975E+02  0.1076E+03
      0.363  0.2332E+01  0.1077E+03
      0.420  0.8818E-01  0.1078E+03
      0.477  0.8456E+02  0.1126E+03
      0.534  0.2073E+02  0.1137E+03
      0.591  0.6467E-04  0.1138E+03
      0.648  0.0000E+00  0.1138E+03
      0.705  0.0000E+00  0.1138E+03
      0.762  0.0000E+00  0.1138E+03
      0.819  0.0000E+00  0.1138E+03
      0.876  0.0000E+00  0.1138E+03
      0.933  0.0000E+00  0.1138E+03
      0.990  0.0000E+00  0.1138E+03
      1.047  0.0000E+00  0.1138E+03
      1.103  0.0000E+00  0.1138E+03
      1.160  0.0000E+00  0.1138E+03
      1.217  0.0000E+00  0.1138E+03
      1.274  0.0000E+00  0.1138E+03
      1.331  0.3576E-07  0.1138E+03
      1.388  0.1097E+01  0.1138E+03
      1.445  0.5259E+02  0.1168E+03
      1.502  0.1784E+03  0.1270E+03
      1.559  0.3138E+02  0.1287E+03
      1.616  0.2107E-03  0.1288E+03
      1.673  0.0000E+00  0.1288E+03
      1.730  0.1158E-08  0.1288E+03
      1.787  0.2037E+00  0.1288E+03
      1.844  0.3387E+02  0.1307E+03
      1.901  0.5273E+02  0.1337E+03
      1.958  0.8089E+01  0.1342E+03
      2.015  0.4550E+02  0.1367E+03
      2.071  0.1002E+00  0.1367E+03
      2.128  0.5797E-04  0.1368E+03
      2.185  0.1914E+02  0.1378E+03
      2.242  0.9306E+02  0.1431E+03
      2.299  0.1134E+03  0.1496E+03
      2.356  0.1301E+03  0.1570E+03
      2.413  0.9194E+02  0.1622E+03
      2.470  0.2064E+00  0.1622E+03
      2.527  0.2711E-09  0.1622E+03
      2.584  0.0000E+00  0.1622E+03
      2.641  0.0000E+00  0.1622E+03
      2.698  0.0000E+00  0.1622E+03
      2.755  0.0000E+00  0.1622E+03
      2.812  0.2671E-08  0.1623E+03
      2.869  0.2554E+00  0.1623E+03
      2.926  0.2487E+02  0.1637E+03
      2.982  0.5199E+02  0.1666E+03
      3.039  0.1442E+03  0.1749E+03
      3.096  0.6407E+02  0.1785E+03
      3.153  0.7404E+02  0.1827E+03
      3.210  0.8836E+02  0.1877E+03
      3.267  0.1015E+02  0.1883E+03
      3.324  0.1109E+03  0.1946E+03
      3.381  0.3704E+02  0.1967E+03
      3.438  0.1203E-01  0.1967E+03
      3.495  0.3281E-02  0.1968E+03
      3.552  0.5130E+02  0.1997E+03
      3.609  0.1483E+03  0.2081E+03
      3.666  0.1115E+02  0.2087E+03
      3.723  0.7547E-05  0.2088E+03
      3.780  0.3174E-07  0.2088E+03
      3.837  0.9366E+00  0.2088E+03
      3.894  0.5450E+02  0.2119E+03
      3.950  0.1014E+03  0.2177E+03
      4.007  0.1231E+01  0.2177E+03
      4.064  0.3464E-02  0.2178E+03
      4.121  0.3056E+02  0.2195E+03
      4.178  0.8667E+02  0.2244E+03
      4.235  0.4083E+02  0.2267E+03
      4.292  0.2807E+00  0.2268E+03
      4.349  0.9319E+02  0.2321E+03
      4.406  0.1346E+02  0.2328E+03
      4.463  0.7559E+02  0.2371E+03
      4.520  0.9750E+02  0.2427E+03
      4.577  0.3388E+02  0.2446E+03
      4.634  0.1101E+02  0.2452E+03
      4.691  0.1346E-03  0.2452E+03
      4.748  0.0000E+00  0.2452E+03
      4.805  0.0000E+00  0.2452E+03
      4.862  0.1057E-08  0.2453E+03
      4.918  0.2519E+00  0.2453E+03
      4.975  0.4923E+02  0.2481E+03
      5.032  0.7040E+02  0.2521E+03
      5.089  0.3055E+01  0.2522E+03
      5.146  0.5421E-06  0.2522E+03
      5.203  0.0000E+00  0.2522E+03
      5.260  0.0000E+00  0.2522E+03
      5.317  0.0000E+00  0.2522E+03
      5.374  0.1941E-11  0.2523E+03
      5.431  0.1358E-01  0.2523E+03
      5.488  0.3707E+02  0.2544E+03
      5.545  0.1561E+02  0.2552E+03
      5.602  0.1458E-03  0.2552E+03
      5.659  0.7312E-14  0.2552E+03
      5.716  0.4443E-03  0.2553E+03
      5.773  0.6802E+01  0.2556E+03
      5.829  0.6369E+01  0.2560E+03
      5.886  0.3131E-03  0.2560E+03
      5.943  0.0000E+00  0.2560E+03
      6.000  0.0000E+00  0.2560E+03
      6.057  0.0000E+00  0.2560E+03
      6.114  0.0000E+00  0.2560E+03
      6.171  0.2215E-12  0.2560E+03
      6.228  0.3455E-02  0.2560E+03
      6.285  0.1700E+02  0.2570E+03
      6.342  0.1058E+02  0.2576E+03
      6.399  0.2484E+02  0.2590E+03
      6.456  0.2642E+00  0.2590E+03
      6.513  0.3361E-08  0.2590E+03
      6.570  0.0000E+00  0.2590E+03
      6.627  0.0000E+00  0.2590E+03
      6.684  0.0000E+00  0.2590E+03
      6.741  0.2678E-04  0.2590E+03
      6.797  0.6005E+01  0.2593E+03
      6.854  0.3142E+02  0.2611E+03
      6.911  0.4158E+02  0.2635E+03
      6.968  0.3442E-01  0.2635E+03
      7.025  0.1014E-10  0.2635E+03
      7.082  0.1393E-10  0.2635E+03
      7.139  0.3416E-01  0.2635E+03
      7.196  0.8782E+02  0.2685E+03
      7.253  0.6021E+02  0.2719E+03
      7.310  0.1210E+01  0.2720E+03
      7.367  0.3142E-06  0.2720E+03
      7.424  0.0000E+00  0.2720E+03
      7.481  0.0000E+00  0.2720E+03
      7.538  0.2076E-08  0.2720E+03
      7.595  0.5063E+00  0.2720E+03
      7.652  0.1655E+03  0.2815E+03
      7.708  0.5750E+02  0.2847E+03
      7.765  0.4859E+02  0.2875E+03
      7.822  0.1038E+00  0.2875E+03
      7.879  0.1052E-02  0.2875E+03
      7.936  0.4176E+02  0.2899E+03
      7.993  0.6361E+02  0.2935E+03
      8.050  0.2640E+02  0.2950E+03
      8.107  0.8010E+02  0.2996E+03
      8.164  0.1448E+03  0.3078E+03
      8.221  0.1215E+02  0.3085E+03
      8.278  0.3324E+01  0.3087E+03
      8.335  0.1064E+03  0.3147E+03
      8.392  0.8800E+01  0.3152E+03
      8.449  0.3795E-05  0.3153E+03
      8.506  0.4709E-01  0.3153E+03
      8.563  0.7951E+02  0.3198E+03
      8.620  0.2581E+02  0.3212E+03
      8.676  0.1346E-03  0.3213E+03
      8.733  0.6539E+00  0.3213E+03
      8.790  0.1226E+03  0.3283E+03
      8.847  0.6102E+02  0.3317E+03
      8.904  0.1483E+00  0.3317E+03
      8.961  0.3435E-08  0.3318E+03
      9.018  0.1352E+00  0.3318E+03
      9.075  0.1242E+02  0.3325E+03
      9.132  0.6148E+00  0.3325E+03
      9.189  0.5755E-01  0.3325E+03
      9.246  0.2998E+02  0.3342E+03
      9.303  0.7511E+01  0.3346E+03
      9.360  0.2383E+02  0.3360E+03
      9.417  0.9751E-01  0.3360E+03
      9.474  0.3002E-09  0.3360E+03
      9.531  0.0000E+00  0.3360E+03
      9.588  0.0000E+00  0.3360E+03
      9.644  0.0000E+00  0.3360E+03
      9.701  0.0000E+00  0.3360E+03
      9.758  0.0000E+00  0.3360E+03
      9.815  0.0000E+00  0.3360E+03
      9.872  0.0000E+00  0.3360E+03
      9.929  0.0000E+00  0.3360E+03
      9.986  0.0000E+00  0.3360E+03
     10.043  0.0000E+00  0.3360E+03
     10.100  0.0000E+00  0.3360E+03
