       N       E                     dE             d eps       ncg     rms          rms(c)
DAV:   1     0.451012933053E+03    0.45101E+03   -0.72608E+04  2688   0.852E+02
DAV:   2    -0.322071766505E+03   -0.77308E+03   -0.73079E+03  3232   0.155E+02
DAV:   3    -0.373414550769E+03   -0.51343E+02   -0.50481E+02  3304   0.365E+01
DAV:   4    -0.374601332602E+03   -0.11868E+01   -0.11788E+01  3240   0.671E+00
DAV:   5    -0.374640664814E+03   -0.39332E-01   -0.39286E-01  3192   0.109E+00    0.285E+01
DAV:   6    -0.369721560893E+03    0.49191E+01   -0.25917E+00  3048   0.242E+00    0.172E+01
DAV:   7    -0.367490367680E+03    0.22312E+01   -0.52398E+00  3056   0.349E+00    0.996E-01
DAV:   8    -0.367497470435E+03   -0.71028E-02   -0.28323E-01  3056   0.970E-01    0.352E-01
DAV:   9    -0.367498957801E+03   -0.14874E-02   -0.72512E-03  3296   0.163E-01    0.310E-01
DAV:  10    -0.367499811992E+03   -0.85419E-03   -0.20824E-03  3000   0.831E-02    0.227E-01
DAV:  11    -0.367499849276E+03   -0.37285E-04   -0.87354E-05  3112   0.188E-02    0.911E-03
DAV:  12    -0.367499851668E+03   -0.23915E-05   -0.34543E-06  3232   0.362E-03    0.783E-03
DAV:  13    -0.367499850704E+03    0.96335E-06   -0.78632E-07  3000   0.188E-03    0.221E-03
DAV:  14    -0.367499850497E+03    0.20763E-06   -0.36444E-08  2776   0.416E-04    0.468E-04
DAV:  15    -0.367499850485E+03    0.11547E-07   -0.82016E-09  1808   0.169E-04    0.138E-04
DAV:  16    -0.367499850484E+03    0.98771E-09   -0.12333E-09  1744   0.768E-05
   1 F= -.36749985E+03 E0= -.36749985E+03  d E =-.378161E-18
