 vasp.6.3.2 27Jun22 (build Oct 14 2022 12:13:54) complex                        
  
 executed on             LinuxIFC date 2023.04.03  14:47:24
 running on   32 total cores
 distrk:  each k-point on   32 cores,    1 groups
 distr:  one band on NCORE=   4 cores,    8 groups


--------------------------------------------------------------------------------------------------------


 INCAR:
   ADDGRID = True
   EDIFF = 1e-08
   ENCUT = 318
   GGA = Ps
   IALGO = 38
   IBRION = -1
   ISMEAR = 0
   LCHARG = False
   LREAL = False
   LWAVE = False
   NELMIN = 5
   NPAR = 8
   PREC = Accurate
   SIGMA = 0.02

 POTCAR:    PAW_PBE Si 05Jan2001                  
 POTCAR:    PAW_PBE Si 05Jan2001                  
   SHA256 =  79d9987ad8750f624c4d6acb2a16d13abf6a777132adc04dc6c8399be72b42bb Si/POTCAR             
   COPYR  = (c) Copyright 05Jan2001 Georg Kresse                                                    
   COPYR  = This file is part of the software VASP. Any use, copying, and all other rights are regul
   COPYR  = If you do not have a valid VASP license, you may not use, copy or distribute this file. 
   VRHFIN =Si: s2p2                                                                                 
   LEXCH  = PE                                                                                      
   EATOM  =   103.0669 eV,    7.5752 Ry                                                             
                                                                                                    
   TITEL  = PAW_PBE Si 05Jan2001                                                                    
   LULTRA =        F    use ultrasoft PP ?                                                          
   IUNSCR =        1    unscreen: 0-lin 1-nonlin 2-no                                               
   RPACOR =    1.500    partial core radius                                                         
   POMASS =   28.085; ZVAL   =    4.000    mass and valenz                                          
   RCORE  =    1.900    outmost cutoff radius                                                       
   RWIGS  =    2.480; RWIGS  =    1.312    wigner-seitz radius (au A)                               
   ENMAX  =  245.345; ENMIN  =  184.009 eV                                                          
   ICORE  =        2    local potential                                                             
   LCOR   =        T    correct aug charges                                                         
   LPAW   =        T    paw PP                                                                      
   EAUG   =  322.069                                                                                
   DEXC   =    0.000                                                                                
   RMAX   =    1.950    core radius for proj-oper                                                   
   RAUG   =    1.300    factor for augmentation sphere                                              
   RDEP   =    1.993    radius for radial grids                                                     
   RDEPT  =    1.837    core radius for aug-charge                                                  
                                                                                                    
   Atomic configuration                                                                             
    6 entries                                                                                       
     n  l   j            E        occ.                                                              
     1  0  0.50     -1785.8828   2.0000                                                             
     2  0  0.50      -139.4969   2.0000                                                             
     2  1  1.50       -95.5546   6.0000                                                             
     3  0  0.50       -10.8127   2.0000                                                             
     3  1  0.50        -4.0811   2.0000                                                             
     3  2  1.50        -4.0817   0.0000                                                             
   Description                                                                                      
     l       E           TYP  RCUT    TYP  RCUT                                                     
     0    -10.8127223     23  1.900                                                                 
     0     -7.6451159     23  1.900                                                                 
     1     -4.0811372     23  1.900                                                                 
     1      2.4879257     23  1.900                                                                 
     2     -4.0817478      7  1.900                                                                 
  local pseudopotential read in
  partial core-charges read in
  partial kinetic energy density read in
  atomic valenz-charges read in
  non local Contribution for L=           0  read in
    real space projection operators read in
  non local Contribution for L=           0  read in
    real space projection operators read in
  non local Contribution for L=           1  read in
    real space projection operators read in
  non local Contribution for L=           1  read in
    real space projection operators read in
    PAW grid and wavefunctions read in
 
   number of l-projection  operators is LMAX  =           4
   number of lm-projection operators is LMMAX =           8
 
 -----------------------------------------------------------------------------
|                                                                             |
|               ----> ADVICE to this user running VASP <----                  |
|                                                                             |
|     You have a (more or less) 'large supercell' and for larger cells it     |
|     might be more efficient to use real-space projection operators.         |
|     Therefore, try LREAL= Auto in the INCAR file.                           |
|     Mind: For very accurate calculation, you might also keep the            |
|     reciprocal projection scheme (i.e. LREAL=.FALSE.).                      |
|                                                                             |
 -----------------------------------------------------------------------------

 -----------------------------------------------------------------------------
|                                                                             |
|               ----> ADVICE to this user running VASP <----                  |
|                                                                             |
|     You enforced a specific xc type in the INCAR file but a different       |
|     type was found in the POTCAR file.                                      |
|     I HOPE YOU KNOW WHAT YOU ARE DOING!                                     |
|                                                                             |
 -----------------------------------------------------------------------------

  PAW_PBE Si 05Jan2001                  :
 energy of atom  1       EATOM= -103.0669
 kinetic energy error for atom=    0.0016 (will be added to EATOM!!)
 
 
 POSCAR: Si
  positions in cartesian coordinates
  No initial velocities read in
 exchange correlation table for  LEXCH =       14
   RHO(1)=    0.500       N(1)  =     2000
   RHO(2)=  100.500       N(2)  =     4000
 


--------------------------------------------------------------------------------------------------------


 ion  position               nearest neighbor table
   1  0.249  0.250  0.250-  49 2.35  57 2.35  33 2.36  41 2.36
   2  0.750  0.250  0.250-  34 2.35  42 2.35  50 2.35  58 2.35
   3  0.250  0.750  0.250-  35 2.35  43 2.35  51 2.35  59 2.35
   4  0.750  0.750  0.250-  36 2.35  44 2.35  52 2.35  60 2.35
   5  0.250  0.250  0.750-  37 2.35  45 2.35  53 2.35  61 2.35
   6  0.750  0.250  0.750-  38 2.35  46 2.35  54 2.35  62 2.35
   7  0.250  0.750  0.750-  39 2.35  47 2.35  55 2.35  63 2.35
   8  0.750  0.750  0.750-  40 2.35  48 2.35  56 2.35  64 2.35
   9  0.250  0.000  0.000-  39 2.35  41 2.35  51 2.35  61 2.35
  10  0.750  0.000  0.000-  40 2.35  42 2.35  52 2.35  62 2.35
  11  0.250  0.500  0.000-  37 2.35  43 2.35  49 2.35  63 2.35
  12  0.750  0.500  0.000-  38 2.35  44 2.35  50 2.35  64 2.35
  13  0.250  0.000  0.500-  35 2.35  45 2.35  55 2.35  57 2.35
  14  0.750  0.000  0.500-  36 2.35  46 2.35  56 2.35  58 2.35
  15  0.250  0.500  0.500-  33 2.35  47 2.35  53 2.35  59 2.35
  16  0.750  0.500  0.500-  34 2.35  48 2.35  54 2.35  60 2.35
  17  0.001  0.250  0.000-  49 2.35  61 2.35  38 2.36  42 2.36
  18  0.500  0.250  0.000-  37 2.35  41 2.35  50 2.35  62 2.35
  19  0.000  0.750  0.000-  40 2.35  44 2.35  51 2.35  63 2.35
  20  0.500  0.750  0.000-  39 2.35  43 2.35  52 2.35  64 2.35
  21  0.000  0.250  0.500-  34 2.35  46 2.35  53 2.35  57 2.35
  22  0.500  0.250  0.500-  33 2.35  45 2.35  54 2.35  58 2.35
  23  0.000  0.750  0.500-  36 2.35  48 2.35  55 2.35  59 2.35
  24  0.500  0.750  0.500-  35 2.35  47 2.35  56 2.35  60 2.35
  25  0.000  0.000  0.250-  36 2.35  42 2.35  51 2.35  57 2.35
  26  0.500  0.000  0.250-  35 2.35  41 2.35  52 2.35  58 2.35
  27  0.000  0.500  0.250-  34 2.35  44 2.35  49 2.35  59 2.35
  28  0.500  0.500  0.250-  33 2.35  43 2.35  50 2.35  60 2.35
  29  0.000  0.000  0.750-  40 2.35  46 2.35  55 2.35  61 2.35
  30  0.500  0.000  0.750-  39 2.35  45 2.35  56 2.35  62 2.35
  31  0.000  0.500  0.750-  38 2.35  48 2.35  53 2.35  63 2.35
  32  0.500  0.500  0.750-  37 2.35  47 2.35  54 2.35  64 2.35
  33  0.375  0.375  0.375-  15 2.35  22 2.35  28 2.35   1 2.36
  34  0.875  0.375  0.375-   2 2.35  16 2.35  21 2.35  27 2.35
  35  0.375  0.875  0.375-   3 2.35  13 2.35  24 2.35  26 2.35
  36  0.875  0.875  0.375-   4 2.35  14 2.35  23 2.35  25 2.35
  37  0.375  0.375  0.875-   5 2.35  11 2.35  18 2.35  32 2.35
  38  0.875  0.375  0.875-   6 2.35  12 2.35  31 2.35  17 2.36
  39  0.375  0.875  0.875-   7 2.35   9 2.35  20 2.35  30 2.35
  40  0.875  0.875  0.875-   8 2.35  10 2.35  19 2.35  29 2.35
  41  0.375  0.125  0.125-   9 2.35  18 2.35  26 2.35   1 2.36
  42  0.875  0.125  0.125-   2 2.35  10 2.35  25 2.35  17 2.36
  43  0.375  0.625  0.125-   3 2.35  11 2.35  20 2.35  28 2.35
  44  0.875  0.625  0.125-   4 2.35  12 2.35  19 2.35  27 2.35
  45  0.375  0.125  0.625-   5 2.35  13 2.35  22 2.35  30 2.35
  46  0.875  0.125  0.625-   6 2.35  14 2.35  21 2.35  29 2.35
  47  0.375  0.625  0.625-   7 2.35  15 2.35  24 2.35  32 2.35
  48  0.875  0.625  0.625-   8 2.35  16 2.35  23 2.35  31 2.35
  49  0.125  0.375  0.125-   1 2.35  17 2.35  11 2.35  27 2.35
  50  0.625  0.375  0.125-   2 2.35  12 2.35  18 2.35  28 2.35
  51  0.125  0.875  0.125-   3 2.35   9 2.35  19 2.35  25 2.35
  52  0.625  0.875  0.125-   4 2.35  10 2.35  20 2.35  26 2.35
  53  0.125  0.375  0.625-   5 2.35  15 2.35  21 2.35  31 2.35
  54  0.625  0.375  0.625-   6 2.35  16 2.35  22 2.35  32 2.35
  55  0.125  0.875  0.625-   7 2.35  13 2.35  23 2.35  29 2.35
  56  0.625  0.875  0.625-   8 2.35  14 2.35  24 2.35  30 2.35
  57  0.125  0.125  0.375-   1 2.35  13 2.35  21 2.35  25 2.35
  58  0.625  0.125  0.375-   2 2.35  14 2.35  22 2.35  26 2.35
  59  0.125  0.625  0.375-   3 2.35  15 2.35  23 2.35  27 2.35
  60  0.625  0.625  0.375-   4 2.35  16 2.35  24 2.35  28 2.35
  61  0.125  0.125  0.875-  17 2.35   9 2.35   5 2.35  29 2.35
  62  0.625  0.125  0.875-   6 2.35  10 2.35  18 2.35  30 2.35
  63  0.125  0.625  0.875-   7 2.35  11 2.35  19 2.35  31 2.35
  64  0.625  0.625  0.875-   8 2.35  12 2.35  20 2.35  32 2.35
 
  LATTYP: Found a simple cubic cell.
 ALAT       =    10.8691451200
  
  Lattice vectors:
  
 A1 = (  10.8691451200,  -0.0000000000,  -0.0000000000)
 A2 = (  -0.0000000000,  10.8691451200,   0.0000000000)
 A3 = (   0.0000000000,   0.0000000000,  10.8691451200)


Analysis of symmetry for initial positions (statically):
=====================================================================
 Subroutine PRICEL returns:
 Original cell was already a primitive cell.
 

 Routine SETGRP: Setting up the symmetry group for a 
 simple cubic supercell.


 Subroutine GETGRP returns: Found  2 space group operations
 (whereof  1 operations were pure point group operations)
 out of a pool of 48 trial point group operations.


The static configuration has the point symmetry C_1 .
 The point group associated with its full space group is C_2 .


Analysis of symmetry for dynamics (positions and initial velocities):
=====================================================================
 Subroutine PRICEL returns:
 Original cell was already a primitive cell.
 

 Routine SETGRP: Setting up the symmetry group for a 
 simple cubic supercell.


 Subroutine GETGRP returns: Found  2 space group operations
 (whereof  1 operations were pure point group operations)
 out of a pool of 48 trial point group operations.


The dynamic configuration has the point symmetry C_1 .
 The point group associated with its full space group is C_2 .


 Subroutine INISYM returns: Found  2 space group operations
 (whereof  1 operations are pure point group operations),
 and found     1 'primitive' translations


----------------------------------------------------------------------------------------

                                     Primitive cell                                     

  volume of cell :    1284.0625

  direct lattice vectors                    reciprocal lattice vectors
    10.869145120 -0.000000000 -0.000000000     0.092003556  0.000000000 -0.000000000
    -0.000000000 10.869145120  0.000000000     0.000000000  0.092003556 -0.000000000
     0.000000000  0.000000000 10.869145120     0.000000000 -0.000000000  0.092003556

  length of vectors
    10.869145120 10.869145120 10.869145120     0.092003556  0.092003556  0.092003556

  position of ions in fractional coordinates (direct lattice)
     0.249079964  0.250000000  0.250000000
     0.750000000  0.250000000  0.250000000
     0.250000000  0.750000000  0.250000000
     0.750000000  0.750000000  0.250000000
     0.250000000  0.250000000  0.750000000
     0.750000000  0.250000000  0.750000000
     0.250000000  0.750000000  0.750000000
     0.750000000  0.750000000  0.750000000
     0.250000000  1.000000000  1.000000000
     0.750000000  1.000000000  1.000000000
     0.250000000  0.500000000  0.000000000
     0.750000000  0.500000000  1.000000000
     0.250000000  0.000000000  0.500000000
     0.750000000  1.000000000  0.500000000
     0.250000000  0.500000000  0.500000000
     0.750000000  0.500000000  0.500000000
     0.000920036  0.250000000  0.000000000
     0.500000000  0.250000000  1.000000000
     1.000000000  0.750000000  0.000000000
     0.500000000  0.750000000  0.000000000
     0.000000000  0.250000000  0.500000000
     0.500000000  0.250000000  0.500000000
     1.000000000  0.750000000  0.500000000
     0.500000000  0.750000000  0.500000000
     0.000000000  0.000000000  0.250000000
     0.500000000  1.000000000  0.250000000
     1.000000000  0.500000000  0.250000000
     0.500000000  0.500000000  0.250000000
     0.000000000  0.000000000  0.750000000
     0.500000000  0.000000000  0.750000000
     0.000000000  0.500000000  0.750000000
     0.500000000  0.500000000  0.750000000
     0.375000000  0.375000000  0.375000000
     0.875000000  0.375000000  0.375000000
     0.375000000  0.875000000  0.375000000
     0.875000000  0.875000000  0.375000000
     0.375000000  0.375000000  0.875000000
     0.875000000  0.375000000  0.875000000
     0.375000000  0.875000000  0.875000000
     0.875000000  0.875000000  0.875000000
     0.375000000  0.125000000  0.125000000
     0.875000000  0.125000000  0.125000000
     0.375000000  0.625000000  0.125000000
     0.875000000  0.625000000  0.125000000
     0.375000000  0.125000000  0.625000000
     0.875000000  0.125000000  0.625000000
     0.375000000  0.625000000  0.625000000
     0.875000000  0.625000000  0.625000000
     0.125000000  0.375000000  0.125000000
     0.625000000  0.375000000  0.125000000
     0.125000000  0.875000000  0.125000000
     0.625000000  0.875000000  0.125000000
     0.125000000  0.375000000  0.625000000
     0.625000000  0.375000000  0.625000000
     0.125000000  0.875000000  0.625000000
     0.625000000  0.875000000  0.625000000
     0.125000000  0.125000000  0.375000000
     0.625000000  0.125000000  0.375000000
     0.125000000  0.625000000  0.375000000
     0.625000000  0.625000000  0.375000000
     0.125000000  0.125000000  0.875000000
     0.625000000  0.125000000  0.875000000
     0.125000000  0.625000000  0.875000000
     0.625000000  0.625000000  0.875000000

  ion indices of the primitive-cell ions
   primitive index   ion index
                 1           1
                 2           2
                 3           3
                 4           4
                 5           5
                 6           6
                 7           7
                 8           8
                 9           9
                10          10
                11          11
                12          12
                13          13
                14          14
                15          15
                16          16
                17          17
                18          18
                19          19
                20          20
                21          21
                22          22
                23          23
                24          24
                25          25
                26          26
                27          27
                28          28
                29          29
                30          30
                31          31
                32          32
                33          33
                34          34
                35          35
                36          36
                37          37
                38          38
                39          39
                40          40
                41          41
                42          42
                43          43
                44          44
                45          45
                46          46
                47          47
                48          48
                49          49
                50          50
                51          51
                52          52
                53          53
                54          54
                55          55
                56          56
                57          57
                58          58
                59          59
                60          60
                61          61
                62          62
                63          63
                64          64

----------------------------------------------------------------------------------------

 
 
 KPOINTS: KPOINTS created by Atomic Simulation Env

Automatic generation of k-mesh.
 Grid dimensions read from file:
 generate k-points for:    2    2    2

 Generating k-lattice:

  Cartesian coordinates                     Fractional coordinates (reciprocal lattice)
     0.046001778  0.000000000 -0.000000000     0.500000000 -0.000000000  0.000000000
     0.000000000  0.046001778 -0.000000000    -0.000000000  0.500000000  0.000000000
     0.000000000 -0.000000000  0.046001778    -0.000000000  0.000000000  0.500000000

  Length of vectors
     0.046001778  0.046001778  0.046001778

  Shift w.r.t. Gamma in fractional coordinates (k-lattice)
     0.000000000  0.000000000  0.000000000

 
 Subroutine IBZKPT returns following result:
 ===========================================
 
 Found      8 irreducible k-points:
 
 Following reciprocal coordinates:
            Coordinates               Weight
  0.000000  0.000000  0.000000      1.000000
  0.500000  0.000000  0.000000      1.000000
 -0.000000  0.500000  0.000000      1.000000
  0.000000 -0.000000  0.500000      1.000000
  0.500000  0.500000  0.000000      1.000000
  0.000000  0.500000  0.500000      1.000000
  0.500000 -0.000000  0.500000      1.000000
  0.500000  0.500000  0.500000      1.000000
 
 Following cartesian coordinates:
            Coordinates               Weight
  0.000000  0.000000  0.000000      1.000000
  0.046002  0.000000  0.000000      1.000000
  0.000000  0.046002  0.000000      1.000000
  0.000000 -0.000000  0.046002      1.000000
  0.046002  0.046002  0.000000      1.000000
  0.000000  0.046002  0.046002      1.000000
  0.046002  0.000000  0.046002      1.000000
  0.046002  0.046002  0.046002      1.000000
 


--------------------------------------------------------------------------------------------------------




 Dimension of arrays:
   k-points           NKPTS =      8   k-points in BZ     NKDIM =      8   number of bands    NBANDS=    168
   number of dos      NEDOS =    301   number of ions     NIONS =     64
   non local maximal  LDIM  =      4   non local SUM 2l+1 LMDIM =      8
   total plane-waves  NPLWV = 262144
   max r-space proj   IRMAX =      1   max aug-charges    IRDMAX=  54800
   dimension x,y,z NGX =    64 NGY =   64 NGZ =   64
   dimension x,y,z NGXF=   128 NGYF=  128 NGZF=  128
   support grid    NGXF=   256 NGYF=  256 NGZF=  256
   ions per type =              64
   NGX,Y,Z   is equivalent  to a cutoff of   9.79,  9.79,  9.79 a.u.
   NGXF,Y,Z  is equivalent  to a cutoff of  19.58, 19.58, 19.58 a.u.

 SYSTEM =  unknown system                          
 POSCAR =  Si                                      

 Startparameter for this run:
   NWRITE =      2    write-flag & timer
   PREC   = accura    normal or accurate (medium, high low for compatibility)
   ISTART =      0    job   : 0-new  1-cont  2-samecut
   ICHARG =      2    charge: 1-file 2-atom 10-const
   ISPIN  =      1    spin polarized calculation?
   LNONCOLLINEAR =      F non collinear calculations
   LSORBIT =      F    spin-orbit coupling
   INIWAV =      1    electr: 0-lowe 1-rand  2-diag
   LASPH  =      F    aspherical Exc in radial PAW
 Electronic Relaxation 1
   ENCUT  =  318.0 eV  23.37 Ry    4.83 a.u.  15.80 15.80 15.80*2*pi/ulx,y,z
   ENINI  =  318.0     initial cutoff
   ENAUG  =  322.1 eV  augmentation charge cutoff
   NELM   =     60;   NELMIN=  5; NELMDL= -5     # of ELM steps 
   EDIFF  = 0.1E-07   stopping-criterion for ELM
   LREAL  =      F    real-space projection
   NLSPLINE    = F    spline interpolate recip. space projectors
   LCOMPAT=      F    compatible to vasp.4.4
   GGA_COMPAT  = T    GGA compatible to vasp.4.4-vasp.4.6
   LMAXPAW     = -100 max onsite density
   LMAXMIX     =    2 max onsite mixed and CHGCAR
   VOSKOWN=      0    Vosko Wilk Nusair interpolation
   ROPT   =    0.00000
 Ionic relaxation
   EDIFFG = 0.1E-06   stopping-criterion for IOM
   NSW    =      0    number of steps for IOM
   NBLOCK =      1;   KBLOCK =      1    inner block; outer block 
   IBRION =     -1    ionic relax: 0-MD 1-quasi-New 2-CG
   NFREE  =      0    steps in history (QN), initial steepest desc. (CG)
   ISIF   =      2    stress and relaxation
   IWAVPR =     10    prediction:  0-non 1-charg 2-wave 3-comb
   ISYM   =      2    0-nonsym 1-usesym 2-fastsym
   LCORR  =      T    Harris-Foulkes like correction to forces

   POTIM  = 0.5000    time-step for ionic-motion
   TEIN   =    0.0    initial temperature
   TEBEG  =    0.0;   TEEND  =   0.0 temperature during run
   SMASS  =  -3.00    Nose mass-parameter (am)
   estimated Nose-frequenzy (Omega)   =  0.10E-29 period in steps = 0.13E+47 mass=  -0.270E-26a.u.
   SCALEE = 1.0000    scale energy and forces
   NPACO  =    256;   APACO  = 10.0  distance and # of slots for P.C.
   PSTRESS=    0.0 pullay stress

  Mass of Ions in am
   POMASS =  28.09
  Ionic Valenz
   ZVAL   =   4.00
  Atomic Wigner-Seitz radii
   RWIGS  =  -1.00
  virtual crystal weights 
   VCA    =   1.00
   NELECT =     256.0000    total number of electrons
   NUPDOWN=      -1.0000    fix difference up-down

 DOS related values:
   EMIN   =  10.00;   EMAX   =-10.00  energy-range for DOS
   EFERMI =   0.00
   ISMEAR =     0;   SIGMA  =   0.02  broadening in eV -4-tet -1-fermi 0-gaus

 Electronic relaxation 2 (details)
   IALGO  =     38    algorithm
   LDIAG  =      T    sub-space diagonalisation (order eigenvalues)
   LSUBROT=      F    optimize rotation matrix (better conditioning)
   TURBO    =      0    0=normal 1=particle mesh
   IRESTART =      0    0=no restart 2=restart with 2 vectors
   NREBOOT  =      0    no. of reboots
   NMIN     =      0    reboot dimension
   EREF     =   0.00    reference energy to select bands
   IMIX   =      4    mixing-type and parameters
     AMIX     =   0.40;   BMIX     =  1.00
     AMIX_MAG =   1.60;   BMIX_MAG =  1.00
     AMIN     =   0.10
     WC   =   100.;   INIMIX=   1;  MIXPRE=   1;  MAXMIX= -45

 Intra band minimization:
   WEIMIN = 0.0000     energy-eigenvalue tresh-hold
   EBREAK =  0.15E-10  absolut break condition
   DEPER  =   0.30     relativ break condition  

   TIME   =   0.40     timestep for ELM

  volume/ion in A,a.u.               =      20.06       135.40
  Fermi-wavevector in a.u.,A,eV,Ry     =   0.956370  1.807278 12.444490  0.914644
  Thomas-Fermi vector in A             =   2.085292
 
 Write flags
   LWAVE        =      F    write WAVECAR
   LDOWNSAMPLE  =      F    k-point downsampling of WAVECAR
   LCHARG       =      F    write CHGCAR
   LVTOT        =      F    write LOCPOT, total local potential
   LVHAR        =      F    write LOCPOT, Hartree potential only
   LELF         =      F    write electronic localiz. function (ELF)
   LORBIT       =      0    0 simple, 1 ext, 2 COOP (PROOUT), +10 PAW based schemes


 Dipole corrections
   LMONO  =      F    monopole corrections only (constant potential shift)
   LDIPOL =      F    correct potential (dipole corrections)
   IDIPOL =      0    1-x, 2-y, 3-z, 4-all directions 
   EPSILON=  1.0000000 bulk dielectric constant

 Exchange correlation treatment:
   GGA     =    PS    GGA type
   LEXCH   =    14    internal setting for exchange type
   LIBXC   =     F    Libxc                    
   VOSKOWN =     0    Vosko Wilk Nusair interpolation
   LHFCALC =     F    Hartree Fock is set to
   LHFONE  =     F    Hartree Fock one center treatment
   AEXX    =    0.0000 exact exchange contribution

 Linear response parameters
   LEPSILON=     F    determine dielectric tensor
   LRPA    =     F    only Hartree local field effects (RPA)
   LNABLA  =     F    use nabla operator in PAW spheres
   LVEL    =     F    velocity operator in full k-point grid
   CSHIFT  =0.1000    complex shift for real part using Kramers Kronig
   OMEGAMAX=  -1.0    maximum frequency
   DEG_THRESHOLD= 0.2000000E-02 threshold for treating states as degnerate
   RTIME   =   -0.100 relaxation time in fs
  (WPLASMAI=    0.000 imaginary part of plasma frequency in eV, 0.658/RTIME)
   DFIELD  = 0.0000000 0.0000000 0.0000000 field for delta impulse in time
 
  Optional k-point grid parameters
   LKPOINTS_OPT  =     F    use optional k-point grid
   KPOINTS_OPT_MODE=     1    mode for optional k-point grid
 
 Orbital magnetization related:
   ORBITALMAG=     F  switch on orbital magnetization
   LCHIMAG   =     F  perturbation theory with respect to B field
   DQ        =  0.001000  dq finite difference perturbation B field
   LLRAUG    =     F  two centre corrections for induced B field



--------------------------------------------------------------------------------------------------------


 Static calculation
 charge density and potential will be updated during run
 non-spin polarized calculation
 Variant of blocked Davidson
 Davidson routine will perform the subspace rotation
 perform sub-space diagonalisation
    after iterative eigenvector-optimisation
 modified Broyden-mixing scheme, WC =      100.0
 initial mixing is a Kerker type mixing with AMIX =  0.4000 and BMIX =      1.0000
 Hartree-type preconditioning will be used
 using additional bands           40
 reciprocal scheme for non local part
 use partial core corrections
 calculate Harris-corrections to forces 
   (improved forces if not selfconsistent)
 use gradient corrections 
 use of overlap-Matrix (Vanderbilt PP)
 Gauss-broadening in eV      SIGMA  =   0.02


--------------------------------------------------------------------------------------------------------


  energy-cutoff  :      318.00
  volume of cell :     1284.06
      direct lattice vectors                 reciprocal lattice vectors
    10.869145120 -0.000000000 -0.000000000     0.092003556  0.000000000 -0.000000000
    -0.000000000 10.869145120  0.000000000     0.000000000  0.092003556 -0.000000000
     0.000000000  0.000000000 10.869145120     0.000000000 -0.000000000  0.092003556

  length of vectors
    10.869145120 10.869145120 10.869145120     0.092003556  0.092003556  0.092003556


 
 k-points in units of 2pi/SCALE and weight: KPOINTS created by Atomic Simulation Env
   0.00000000  0.00000000  0.00000000       0.125
   0.04600178  0.00000000  0.00000000       0.125
   0.00000000  0.04600178  0.00000000       0.125
   0.00000000 -0.00000000  0.04600178       0.125
   0.04600178  0.04600178  0.00000000       0.125
   0.00000000  0.04600178  0.04600178       0.125
   0.04600178  0.00000000  0.04600178       0.125
   0.04600178  0.04600178  0.04600178       0.125
 
 k-points in reciprocal lattice and weights: KPOINTS created by Atomic Simulation Env
   0.00000000  0.00000000  0.00000000       0.125
   0.50000000  0.00000000  0.00000000       0.125
  -0.00000000  0.50000000  0.00000000       0.125
   0.00000000 -0.00000000  0.50000000       0.125
   0.50000000  0.50000000  0.00000000       0.125
   0.00000000  0.50000000  0.50000000       0.125
   0.50000000 -0.00000000  0.50000000       0.125
   0.50000000  0.50000000  0.50000000       0.125
 
 position of ions in fractional coordinates (direct lattice) 
   0.24907996  0.25000000  0.25000000
   0.75000000  0.25000000  0.25000000
   0.25000000  0.75000000  0.25000000
   0.75000000  0.75000000  0.25000000
   0.25000000  0.25000000  0.75000000
   0.75000000  0.25000000  0.75000000
   0.25000000  0.75000000  0.75000000
   0.75000000  0.75000000  0.75000000
   0.25000000  0.00000000  0.00000000
   0.75000000  0.00000000  0.00000000
   0.25000000  0.50000000  0.00000000
   0.75000000  0.50000000  0.00000000
   0.25000000  0.00000000  0.50000000
   0.75000000  0.00000000  0.50000000
   0.25000000  0.50000000  0.50000000
   0.75000000  0.50000000  0.50000000
   0.00092004  0.25000000  0.00000000
   0.50000000  0.25000000  0.00000000
   0.00000000  0.75000000  0.00000000
   0.50000000  0.75000000  0.00000000
   0.00000000  0.25000000  0.50000000
   0.50000000  0.25000000  0.50000000
   0.00000000  0.75000000  0.50000000
   0.50000000  0.75000000  0.50000000
   0.00000000  0.00000000  0.25000000
   0.50000000  0.00000000  0.25000000
   0.00000000  0.50000000  0.25000000
   0.50000000  0.50000000  0.25000000
   0.00000000  0.00000000  0.75000000
   0.50000000  0.00000000  0.75000000
   0.00000000  0.50000000  0.75000000
   0.50000000  0.50000000  0.75000000
   0.37500000  0.37500000  0.37500000
   0.87500000  0.37500000  0.37500000
   0.37500000  0.87500000  0.37500000
   0.87500000  0.87500000  0.37500000
   0.37500000  0.37500000  0.87500000
   0.87500000  0.37500000  0.87500000
   0.37500000  0.87500000  0.87500000
   0.87500000  0.87500000  0.87500000
   0.37500000  0.12500000  0.12500000
   0.87500000  0.12500000  0.12500000
   0.37500000  0.62500000  0.12500000
   0.87500000  0.62500000  0.12500000
   0.37500000  0.12500000  0.62500000
   0.87500000  0.12500000  0.62500000
   0.37500000  0.62500000  0.62500000
   0.87500000  0.62500000  0.62500000
   0.12500000  0.37500000  0.12500000
   0.62500000  0.37500000  0.12500000
   0.12500000  0.87500000  0.12500000
   0.62500000  0.87500000  0.12500000
   0.12500000  0.37500000  0.62500000
   0.62500000  0.37500000  0.62500000
   0.12500000  0.87500000  0.62500000
   0.62500000  0.87500000  0.62500000
   0.12500000  0.12500000  0.37500000
   0.62500000  0.12500000  0.37500000
   0.12500000  0.62500000  0.37500000
   0.62500000  0.62500000  0.37500000
   0.12500000  0.12500000  0.87500000
   0.62500000  0.12500000  0.87500000
   0.12500000  0.62500000  0.87500000
   0.62500000  0.62500000  0.87500000
 
 position of ions in cartesian coordinates  (Angst):
   2.70728628  2.71728628  2.71728628
   8.15185884  2.71728628  2.71728628
   2.71728628  8.15185884  2.71728628
   8.15185884  8.15185884  2.71728628
   2.71728628  2.71728628  8.15185884
   8.15185884  2.71728628  8.15185884
   2.71728628  8.15185884  8.15185884
   8.15185884  8.15185884  8.15185884
   2.71728628 -0.00000000 -0.00000000
   8.15185884 -0.00000000 -0.00000000
   2.71728628  5.43457256  0.00000000
   8.15185884  5.43457256 -0.00000000
   2.71728628  0.00000000  5.43457256
   8.15185884 -0.00000000  5.43457256
   2.71728628  5.43457256  5.43457256
   8.15185884  5.43457256  5.43457256
   0.01000000  2.71728628  0.00000000
   5.43457256  2.71728628 -0.00000000
  -0.00000000  8.15185884  0.00000000
   5.43457256  8.15185884  0.00000000
   0.00000000  2.71728628  5.43457256
   5.43457256  2.71728628  5.43457256
  -0.00000000  8.15185884  5.43457256
   5.43457256  8.15185884  5.43457256
   0.00000000  0.00000000  2.71728628
   5.43457256 -0.00000000  2.71728628
  -0.00000000  5.43457256  2.71728628
   5.43457256  5.43457256  2.71728628
   0.00000000  0.00000000  8.15185884
   5.43457256  0.00000000  8.15185884
   0.00000000  5.43457256  8.15185884
   5.43457256  5.43457256  8.15185884
   4.07592942  4.07592942  4.07592942
   9.51050198  4.07592942  4.07592942
   4.07592942  9.51050198  4.07592942
   9.51050198  9.51050198  4.07592942
   4.07592942  4.07592942  9.51050198
   9.51050198  4.07592942  9.51050198
   4.07592942  9.51050198  9.51050198
   9.51050198  9.51050198  9.51050198
   4.07592942  1.35864314  1.35864314
   9.51050198  1.35864314  1.35864314
   4.07592942  6.79321570  1.35864314
   9.51050198  6.79321570  1.35864314
   4.07592942  1.35864314  6.79321570
   9.51050198  1.35864314  6.79321570
   4.07592942  6.79321570  6.79321570
   9.51050198  6.79321570  6.79321570
   1.35864314  4.07592942  1.35864314
   6.79321570  4.07592942  1.35864314
   1.35864314  9.51050198  1.35864314
   6.79321570  9.51050198  1.35864314
   1.35864314  4.07592942  6.79321570
   6.79321570  4.07592942  6.79321570
   1.35864314  9.51050198  6.79321570
   6.79321570  9.51050198  6.79321570
   1.35864314  1.35864314  4.07592942
   6.79321570  1.35864314  4.07592942
   1.35864314  6.79321570  4.07592942
   6.79321570  6.79321570  4.07592942
   1.35864314  1.35864314  9.51050198
   6.79321570  1.35864314  9.51050198
   1.35864314  6.79321570  9.51050198
   6.79321570  6.79321570  9.51050198
 


--------------------------------------------------------------------------------------------------------


 k-point   1 :   0.0000 0.0000 0.0000  plane waves:   16519
 k-point   2 :   0.5000 0.0000 0.0000  plane waves:   16488
 k-point   3 :  -0.0000 0.5000 0.0000  plane waves:   16488
 k-point   4 :   0.0000-0.0000 0.5000  plane waves:   16488
 k-point   5 :   0.5000 0.5000 0.0000  plane waves:   16588
 k-point   6 :   0.0000 0.5000 0.5000  plane waves:   16588
 k-point   7 :   0.5000-0.0000 0.5000  plane waves:   16588
 k-point   8 :   0.5000 0.5000 0.5000  plane waves:   16560

 maximum and minimum number of plane-waves per node :      4165     4106

 maximum number of plane-waves:     16588
 maximum index in each direction: 
   IXMAX=   15   IYMAX=   15   IZMAX=   15
   IXMIN=  -16   IYMIN=  -16   IZMIN=  -16


 parallel 3D FFT for wavefunctions:
    minimum data exchange during FFTs selected (reduces bandwidth)
 parallel 3D FFT for charge:
    minimum data exchange during FFTs selected (reduces bandwidth)


 total amount of memory used by VASP MPI-rank0    65387. kBytes
=======================================================================

   base      :      30000. kBytes
   nonl-proj :       6402. kBytes
   fftplans  :      11573. kBytes
   grid      :       5816. kBytes
   one-center:         49. kBytes
   wavefun   :      11547. kBytes
 
     INWAV:  cpu time      0.0000: real time      0.0000
 Broyden mixing: mesh for mixing (old mesh)
   NGX = 31   NGY = 31   NGZ = 31
  (NGX  =128   NGY  =128   NGZ  =128)
  gives a total of  29791 points

 initial charge density was supplied:
 charge density of overlapping atoms calculated
 number of electron     256.0000000 magnetization 
 keeping initial charge density in first step


--------------------------------------------------------------------------------------------------------


 Maximum index for augmentation-charges         1701 (set IRDMAX)


--------------------------------------------------------------------------------------------------------


 First call to EWALD:  gamma=   0.163
 Maximum number of real-space cells 3x 3x 3
 Maximum number of reciprocal cells 3x 3x 3

    FEWALD:  cpu time      0.0020: real time      0.0020


--------------------------------------- Iteration      1(   1)  ---------------------------------------


    POTLOK:  cpu time      0.0227: real time      0.0229
    SETDIJ:  cpu time      0.0228: real time      0.0229
     EDDAV:  cpu time      2.2899: real time      2.3020
       DOS:  cpu time      0.0008: real time      0.0008
    --------------------------------------------
      LOOP:  cpu time      2.3361: real time      2.3487

 eigenvalue-minimisations  :  2688
 total energy-change (2. order) : 0.4510129E+03  (-0.7260795E+04)
 number of electron     256.0000000 magnetization 
 augmentation part      256.0000000 magnetization 

 Free energy of the ion-electron system (eV)
  ---------------------------------------------------
  alpha Z        PSCENC =       107.38120932
  Ewald energy   TEWEN  =     -7307.87507298
  -Hartree energ DENC   =      -353.25118854
  -exchange      EXHF   =         0.00000000
  -V(xc)+E(xc)   XCENC  =      -558.85370484
  PAW double counting   =      5598.62625415    -4492.17844134
  entropy T*S    EENTRO =        -0.00319175
  eigenvalues    EBANDS =       892.40004484
  atomic energy  EATOM  =      6564.76702419
  Solvation  Ediel_sol  =         0.00000000
  ---------------------------------------------------
  free energy    TOTEN  =       451.01293305 eV

  energy without entropy =      451.01612481  energy(sigma->0) =      451.01452893


--------------------------------------------------------------------------------------------------------




--------------------------------------- Iteration      1(   2)  ---------------------------------------


     EDDAV:  cpu time      2.6259: real time      2.6400
       DOS:  cpu time      0.0003: real time      0.0003
    --------------------------------------------
      LOOP:  cpu time      2.6261: real time      2.6402

 eigenvalue-minimisations  :  3232
 total energy-change (2. order) :-0.7730847E+03  (-0.7307920E+03)
 number of electron     256.0000000 magnetization 
 augmentation part      256.0000000 magnetization 

 Free energy of the ion-electron system (eV)
  ---------------------------------------------------
  alpha Z        PSCENC =       107.38120932
  Ewald energy   TEWEN  =     -7307.87507298
  -Hartree energ DENC   =      -353.25118854
  -exchange      EXHF   =         0.00000000
  -V(xc)+E(xc)   XCENC  =      -558.85370484
  PAW double counting   =      5598.62625415    -4492.17844134
  entropy T*S    EENTRO =        -0.00000000
  eigenvalues    EBANDS =       119.31215353
  atomic energy  EATOM  =      6564.76702419
  Solvation  Ediel_sol  =         0.00000000
  ---------------------------------------------------
  free energy    TOTEN  =      -322.07176650 eV

  energy without entropy =     -322.07176650  energy(sigma->0) =     -322.07176650


--------------------------------------------------------------------------------------------------------




--------------------------------------- Iteration      1(   3)  ---------------------------------------


     EDDAV:  cpu time      2.6750: real time      2.6891
       DOS:  cpu time      0.0003: real time      0.0003
    --------------------------------------------
      LOOP:  cpu time      2.6752: real time      2.6894

 eigenvalue-minimisations  :  3304
 total energy-change (2. order) :-0.5134278E+02  (-0.5048139E+02)
 number of electron     256.0000000 magnetization 
 augmentation part      256.0000000 magnetization 

 Free energy of the ion-electron system (eV)
  ---------------------------------------------------
  alpha Z        PSCENC =       107.38120932
  Ewald energy   TEWEN  =     -7307.87507298
  -Hartree energ DENC   =      -353.25118854
  -exchange      EXHF   =         0.00000000
  -V(xc)+E(xc)   XCENC  =      -558.85370484
  PAW double counting   =      5598.62625415    -4492.17844134
  entropy T*S    EENTRO =        -0.00000000
  eigenvalues    EBANDS =        67.96936926
  atomic energy  EATOM  =      6564.76702419
  Solvation  Ediel_sol  =         0.00000000
  ---------------------------------------------------
  free energy    TOTEN  =      -373.41455077 eV

  energy without entropy =     -373.41455077  energy(sigma->0) =     -373.41455077


--------------------------------------------------------------------------------------------------------




--------------------------------------- Iteration      1(   4)  ---------------------------------------


     EDDAV:  cpu time      2.6519: real time      2.6662
       DOS:  cpu time      0.0003: real time      0.0003
    --------------------------------------------
      LOOP:  cpu time      2.6521: real time      2.6665

 eigenvalue-minimisations  :  3240
 total energy-change (2. order) :-0.1186782E+01  (-0.1178829E+01)
 number of electron     256.0000000 magnetization 
 augmentation part      256.0000000 magnetization 

 Free energy of the ion-electron system (eV)
  ---------------------------------------------------
  alpha Z        PSCENC =       107.38120932
  Ewald energy   TEWEN  =     -7307.87507298
  -Hartree energ DENC   =      -353.25118854
  -exchange      EXHF   =         0.00000000
  -V(xc)+E(xc)   XCENC  =      -558.85370484
  PAW double counting   =      5598.62625415    -4492.17844134
  entropy T*S    EENTRO =        -0.00000000
  eigenvalues    EBANDS =        66.78258743
  atomic energy  EATOM  =      6564.76702419
  Solvation  Ediel_sol  =         0.00000000
  ---------------------------------------------------
  free energy    TOTEN  =      -374.60133260 eV

  energy without entropy =     -374.60133260  energy(sigma->0) =     -374.60133260


--------------------------------------------------------------------------------------------------------




--------------------------------------- Iteration      1(   5)  ---------------------------------------


     EDDAV:  cpu time      2.6010: real time      2.6144
       DOS:  cpu time      0.0003: real time      0.0003
    CHARGE:  cpu time      0.0926: real time      0.0930
    MIXING:  cpu time      0.0033: real time      0.0033
    --------------------------------------------
      LOOP:  cpu time      2.6971: real time      2.7110

 eigenvalue-minimisations  :  3192
 total energy-change (2. order) :-0.3933221E-01  (-0.3928581E-01)
 number of electron     255.9999994 magnetization 
 augmentation part      -14.9589892 magnetization 

 Broyden mixing:
  rms(total) = 0.28465E+01    rms(broyden)= 0.28464E+01
  rms(prec ) = 0.31320E+01
  weight for this iteration     100.00

 Free energy of the ion-electron system (eV)
  ---------------------------------------------------
  alpha Z        PSCENC =       107.38120932
  Ewald energy   TEWEN  =     -7307.87507298
  -Hartree energ DENC   =      -353.25118854
  -exchange      EXHF   =         0.00000000
  -V(xc)+E(xc)   XCENC  =      -558.85370484
  PAW double counting   =      5598.62625415    -4492.17844134
  entropy T*S    EENTRO =        -0.00000000
  eigenvalues    EBANDS =        66.74325522
  atomic energy  EATOM  =      6564.76702419
  Solvation  Ediel_sol  =         0.00000000
  ---------------------------------------------------
  free energy    TOTEN  =      -374.64066481 eV

  energy without entropy =     -374.64066481  energy(sigma->0) =     -374.64066481


--------------------------------------------------------------------------------------------------------




--------------------------------------- Iteration      1(   6)  ---------------------------------------


    POTLOK:  cpu time      0.0226: real time      0.0228
    SETDIJ:  cpu time      0.0221: real time      0.0222
     EDDAV:  cpu time      2.5144: real time      2.5276
       DOS:  cpu time      0.0003: real time      0.0003
    CHARGE:  cpu time      0.0933: real time      0.0938
    MIXING:  cpu time      0.0031: real time      0.0031
    --------------------------------------------
      LOOP:  cpu time      2.6558: real time      2.6697

 eigenvalue-minimisations  :  3048
 total energy-change (2. order) : 0.4919104E+01  (-0.2591664E+00)
 number of electron     255.9999994 magnetization 
 augmentation part      -14.7996980 magnetization 

 Broyden mixing:
  rms(total) = 0.17164E+01    rms(broyden)= 0.17164E+01
  rms(prec ) = 0.18755E+01
  weight for this iteration     100.00

 eigenvalues of (default mixing * dielectric matrix)
  average eigenvalue GAMMA=   2.5113
  2.5113

 Free energy of the ion-electron system (eV)
  ---------------------------------------------------
  alpha Z        PSCENC =       107.38120932
  Ewald energy   TEWEN  =     -7307.87507298
  -Hartree energ DENC   =      -399.23584446
  -exchange      EXHF   =         0.00000000
  -V(xc)+E(xc)   XCENC  =      -551.57558516
  PAW double counting   =     12482.34142889   -11379.13920915
  entropy T*S    EENTRO =        -0.00000000
  eigenvalues    EBANDS =       113.61448845
  atomic energy  EATOM  =      6564.76702419
  Solvation  Ediel_sol  =         0.00000000
  ---------------------------------------------------
  free energy    TOTEN  =      -369.72156089 eV

  energy without entropy =     -369.72156089  energy(sigma->0) =     -369.72156089


--------------------------------------------------------------------------------------------------------




--------------------------------------- Iteration      1(   7)  ---------------------------------------


    POTLOK:  cpu time      0.0214: real time      0.0216
    SETDIJ:  cpu time      0.0222: real time      0.0224
     EDDAV:  cpu time      2.5155: real time      2.5288
       DOS:  cpu time      0.0003: real time      0.0003
    CHARGE:  cpu time      0.0932: real time      0.0937
    MIXING:  cpu time      0.0026: real time      0.0026
    --------------------------------------------
      LOOP:  cpu time      2.6553: real time      2.6693

 eigenvalue-minimisations  :  3056
 total energy-change (2. order) : 0.2231193E+01  (-0.5239823E+00)
 number of electron     255.9999994 magnetization 
 augmentation part      -14.5985271 magnetization 

 Broyden mixing:
  rms(total) = 0.99629E-01    rms(broyden)= 0.99628E-01
  rms(prec ) = 0.12390E+00
  weight for this iteration     100.00

 eigenvalues of (default mixing * dielectric matrix)
  average eigenvalue GAMMA=   2.2505
  2.2505  2.2505

 Free energy of the ion-electron system (eV)
  ---------------------------------------------------
  alpha Z        PSCENC =       107.38120932
  Ewald energy   TEWEN  =     -7307.87507298
  -Hartree energ DENC   =      -473.65868144
  -exchange      EXHF   =         0.00000000
  -V(xc)+E(xc)   XCENC  =      -539.13598269
  PAW double counting   =     29124.08004299   -28025.24999765
  entropy T*S    EENTRO =        -0.00000000
  eigenvalues    EBANDS =       182.20109058
  atomic energy  EATOM  =      6564.76702419
  Solvation  Ediel_sol  =         0.00000000
  ---------------------------------------------------
  free energy    TOTEN  =      -367.49036768 eV

  energy without entropy =     -367.49036768  energy(sigma->0) =     -367.49036768


--------------------------------------------------------------------------------------------------------




--------------------------------------- Iteration      1(   8)  ---------------------------------------


    POTLOK:  cpu time      0.0216: real time      0.0218
    SETDIJ:  cpu time      0.0221: real time      0.0222
     EDDAV:  cpu time      2.5235: real time      2.5364
       DOS:  cpu time      0.0003: real time      0.0003
    CHARGE:  cpu time      0.0935: real time      0.0939
    MIXING:  cpu time      0.0026: real time      0.0026
    --------------------------------------------
      LOOP:  cpu time      2.6635: real time      2.6772

 eigenvalue-minimisations  :  3056
 total energy-change (2. order) :-0.7102755E-02  (-0.2832250E-01)
 number of electron     255.9999994 magnetization 
 augmentation part      -14.6403124 magnetization 

 Broyden mixing:
  rms(total) = 0.35224E-01    rms(broyden)= 0.35223E-01
  rms(prec ) = 0.40582E-01
  weight for this iteration     100.00

 eigenvalues of (default mixing * dielectric matrix)
  average eigenvalue GAMMA=   2.4305
  2.8231  2.2342  2.2342

 Free energy of the ion-electron system (eV)
  ---------------------------------------------------
  alpha Z        PSCENC =       107.38120932
  Ewald energy   TEWEN  =     -7307.87507298
  -Hartree energ DENC   =      -466.68507942
  -exchange      EXHF   =         0.00000000
  -V(xc)+E(xc)   XCENC  =      -539.74391309
  PAW double counting   =     28621.38796668   -27521.75701668
  entropy T*S    EENTRO =        -0.00000000
  eigenvalues    EBANDS =       175.02741153
  atomic energy  EATOM  =      6564.76702419
  Solvation  Ediel_sol  =         0.00000000
  ---------------------------------------------------
  free energy    TOTEN  =      -367.49747044 eV

  energy without entropy =     -367.49747044  energy(sigma->0) =     -367.49747044


--------------------------------------------------------------------------------------------------------




--------------------------------------- Iteration      1(   9)  ---------------------------------------


    POTLOK:  cpu time      0.0214: real time      0.0216
    SETDIJ:  cpu time      0.0220: real time      0.0223
     EDDAV:  cpu time      2.6677: real time      2.6814
       DOS:  cpu time      0.0002: real time      0.0002
    CHARGE:  cpu time      0.0923: real time      0.0927
    MIXING:  cpu time      0.0027: real time      0.0027
    --------------------------------------------
      LOOP:  cpu time      2.8064: real time      2.8211

 eigenvalue-minimisations  :  3296
 total energy-change (2. order) :-0.1487366E-02  (-0.7251175E-03)
 number of electron     255.9999994 magnetization 
 augmentation part      -14.6409804 magnetization 

 Broyden mixing:
  rms(total) = 0.30987E-01    rms(broyden)= 0.30987E-01
  rms(prec ) = 0.32088E-01
  weight for this iteration     100.00

 eigenvalues of (default mixing * dielectric matrix)
  average eigenvalue GAMMA=   2.3711
  3.8587  2.3807  2.3807  0.8642

 Free energy of the ion-electron system (eV)
  ---------------------------------------------------
  alpha Z        PSCENC =       107.38120932
  Ewald energy   TEWEN  =     -7307.87507298
  -Hartree energ DENC   =      -468.64050287
  -exchange      EXHF   =         0.00000000
  -V(xc)+E(xc)   XCENC  =      -539.41427026
  PAW double counting   =     28768.50909647   -27668.98215470
  entropy T*S    EENTRO =        -0.00000000
  eigenvalues    EBANDS =       176.75571302
  atomic energy  EATOM  =      6564.76702419
  Solvation  Ediel_sol  =         0.00000000
  ---------------------------------------------------
  free energy    TOTEN  =      -367.49895780 eV

  energy without entropy =     -367.49895780  energy(sigma->0) =     -367.49895780


--------------------------------------------------------------------------------------------------------




--------------------------------------- Iteration      1(  10)  ---------------------------------------


    POTLOK:  cpu time      0.0213: real time      0.0215
    SETDIJ:  cpu time      0.0221: real time      0.0222
     EDDAV:  cpu time      2.4809: real time      2.4941
       DOS:  cpu time      0.0003: real time      0.0003
    CHARGE:  cpu time      0.0928: real time      0.0932
    MIXING:  cpu time      0.0026: real time      0.0026
    --------------------------------------------
      LOOP:  cpu time      2.6199: real time      2.6338

 eigenvalue-minimisations  :  3000
 total energy-change (2. order) :-0.8541907E-03  (-0.2082426E-03)
 number of electron     255.9999994 magnetization 
 augmentation part      -14.6429622 magnetization 

 Broyden mixing:
  rms(total) = 0.22746E-01    rms(broyden)= 0.22746E-01
  rms(prec ) = 0.22864E-01
  weight for this iteration     100.00

 eigenvalues of (default mixing * dielectric matrix)
  average eigenvalue GAMMA=   1.8665
  2.8576  2.2467  2.2467  0.9909  0.9909

 Free energy of the ion-electron system (eV)
  ---------------------------------------------------
  alpha Z        PSCENC =       107.38120932
  Ewald energy   TEWEN  =     -7307.87507298
  -Hartree energ DENC   =      -468.87263204
  -exchange      EXHF   =         0.00000000
  -V(xc)+E(xc)   XCENC  =      -539.34134937
  PAW double counting   =     28254.60367222   -27155.04531854
  entropy T*S    EENTRO =        -0.00000000
  eigenvalues    EBANDS =       176.88265521
  atomic energy  EATOM  =      6564.76702419
  Solvation  Ediel_sol  =         0.00000000
  ---------------------------------------------------
  free energy    TOTEN  =      -367.49981199 eV

  energy without entropy =     -367.49981199  energy(sigma->0) =     -367.49981199


--------------------------------------------------------------------------------------------------------




--------------------------------------- Iteration      1(  11)  ---------------------------------------


    POTLOK:  cpu time      0.0213: real time      0.0215
    SETDIJ:  cpu time      0.0221: real time      0.0222
     EDDAV:  cpu time      2.5516: real time      2.5649
       DOS:  cpu time      0.0003: real time      0.0003
    CHARGE:  cpu time      0.0935: real time      0.0940
    MIXING:  cpu time      0.0012: real time      0.0012
    --------------------------------------------
      LOOP:  cpu time      2.6900: real time      2.7041

 eigenvalue-minimisations  :  3112
 total energy-change (2. order) :-0.3728472E-04  (-0.8735418E-05)
 number of electron     255.9999994 magnetization 
 augmentation part      -14.6438066 magnetization 

 Broyden mixing:
  rms(total) = 0.91075E-03    rms(broyden)= 0.91073E-03
  rms(prec ) = 0.10050E-02
  weight for this iteration     100.00

 eigenvalues of (default mixing * dielectric matrix)
  average eigenvalue GAMMA=   1.7497
  2.8934  2.2548  2.2548  1.1690  1.1690  0.7575

 Free energy of the ion-electron system (eV)
  ---------------------------------------------------
  alpha Z        PSCENC =       107.38120932
  Ewald energy   TEWEN  =     -7307.87507298
  -Hartree energ DENC   =      -468.75099891
  -exchange      EXHF   =         0.00000000
  -V(xc)+E(xc)   XCENC  =      -539.35270275
  PAW double counting   =     28480.36949912   -27380.79963774
  entropy T*S    EENTRO =        -0.00000000
  eigenvalues    EBANDS =       176.76083048
  atomic energy  EATOM  =      6564.76702419
  Solvation  Ediel_sol  =         0.00000000
  ---------------------------------------------------
  free energy    TOTEN  =      -367.49984928 eV

  energy without entropy =     -367.49984928  energy(sigma->0) =     -367.49984928


--------------------------------------------------------------------------------------------------------




--------------------------------------- Iteration      1(  12)  ---------------------------------------


    POTLOK:  cpu time      0.0216: real time      0.0218
    SETDIJ:  cpu time      0.0219: real time      0.0220
     EDDAV:  cpu time      2.6305: real time      2.6440
       DOS:  cpu time      0.0002: real time      0.0002
    CHARGE:  cpu time      0.0928: real time      0.0932
    MIXING:  cpu time      0.0016: real time      0.0016
    --------------------------------------------
      LOOP:  cpu time      2.7685: real time      2.7828

 eigenvalue-minimisations  :  3232
 total energy-change (2. order) :-0.2391471E-05  (-0.3454276E-06)
 number of electron     255.9999994 magnetization 
 augmentation part      -14.6436979 magnetization 

 Broyden mixing:
  rms(total) = 0.78311E-03    rms(broyden)= 0.78310E-03
  rms(prec ) = 0.81411E-03
  weight for this iteration     100.00

 eigenvalues of (default mixing * dielectric matrix)
  average eigenvalue GAMMA=   1.8507
  2.9969  2.5035  2.5035  2.1785  0.9927  0.8900  0.8900

 Free energy of the ion-electron system (eV)
  ---------------------------------------------------
  alpha Z        PSCENC =       107.38120932
  Ewald energy   TEWEN  =     -7307.87507298
  -Hartree energ DENC   =      -468.78326321
  -exchange      EXHF   =         0.00000000
  -V(xc)+E(xc)   XCENC  =      -539.35099855
  PAW double counting   =     28481.30278013   -27381.73215549
  entropy T*S    EENTRO =        -0.00000000
  eigenvalues    EBANDS =       176.79062492
  atomic energy  EATOM  =      6564.76702419
  Solvation  Ediel_sol  =         0.00000000
  ---------------------------------------------------
  free energy    TOTEN  =      -367.49985167 eV

  energy without entropy =     -367.49985167  energy(sigma->0) =     -367.49985167


--------------------------------------------------------------------------------------------------------




--------------------------------------- Iteration      1(  13)  ---------------------------------------


    POTLOK:  cpu time      0.0216: real time      0.0218
    SETDIJ:  cpu time      0.0220: real time      0.0221
     EDDAV:  cpu time      2.4804: real time      2.4934
       DOS:  cpu time      0.0003: real time      0.0003
    CHARGE:  cpu time      0.0927: real time      0.0931
    MIXING:  cpu time      0.0010: real time      0.0010
    --------------------------------------------
      LOOP:  cpu time      2.6180: real time      2.6317

 eigenvalue-minimisations  :  3000
 total energy-change (2. order) : 0.9633459E-06  (-0.7863165E-07)
 number of electron     255.9999994 magnetization 
 augmentation part      -14.6436575 magnetization 

 Broyden mixing:
  rms(total) = 0.22118E-03    rms(broyden)= 0.22118E-03
  rms(prec ) = 0.22789E-03
  weight for this iteration     100.00

 eigenvalues of (default mixing * dielectric matrix)
  average eigenvalue GAMMA=   1.7769
  3.0669  2.6335  2.3531  2.2217  0.9605  0.9605  1.0094  1.0094

 Free energy of the ion-electron system (eV)
  ---------------------------------------------------
  alpha Z        PSCENC =       107.38120932
  Ewald energy   TEWEN  =     -7307.87507298
  -Hartree energ DENC   =      -468.78710791
  -exchange      EXHF   =         0.00000000
  -V(xc)+E(xc)   XCENC  =      -539.35322184
  PAW double counting   =     28476.79780216   -27377.22477329
  entropy T*S    EENTRO =        -0.00000000
  eigenvalues    EBANDS =       176.79428964
  atomic energy  EATOM  =      6564.76702419
  Solvation  Ediel_sol  =         0.00000000
  ---------------------------------------------------
  free energy    TOTEN  =      -367.49985070 eV

  energy without entropy =     -367.49985070  energy(sigma->0) =     -367.49985070


--------------------------------------------------------------------------------------------------------




--------------------------------------- Iteration      1(  14)  ---------------------------------------


    POTLOK:  cpu time      0.0215: real time      0.0217
    SETDIJ:  cpu time      0.0217: real time      0.0218
     EDDAV:  cpu time      2.3518: real time      2.3638
       DOS:  cpu time      0.0005: real time      0.0005
    CHARGE:  cpu time      0.0931: real time      0.0938
    MIXING:  cpu time      0.0013: real time      0.0013
    --------------------------------------------
      LOOP:  cpu time      2.4899: real time      2.5029

 eigenvalue-minimisations  :  2776
 total energy-change (2. order) : 0.2076349E-06  (-0.3644400E-08)
 number of electron     255.9999994 magnetization 
 augmentation part      -14.6436494 magnetization 

 Broyden mixing:
  rms(total) = 0.46761E-04    rms(broyden)= 0.46761E-04
  rms(prec ) = 0.48995E-04
  weight for this iteration     100.00

 eigenvalues of (default mixing * dielectric matrix)
  average eigenvalue GAMMA=   1.7869
  3.0802  2.5586  2.4289  2.2056  1.8304  1.1650  0.9766  0.9183  0.9183

 Free energy of the ion-electron system (eV)
  ---------------------------------------------------
  alpha Z        PSCENC =       107.38120932
  Ewald energy   TEWEN  =     -7307.87507298
  -Hartree energ DENC   =      -468.78686303
  -exchange      EXHF   =         0.00000000
  -V(xc)+E(xc)   XCENC  =      -539.35374677
  PAW double counting   =     28475.02911971   -27375.45581741
  entropy T*S    EENTRO =        -0.00000000
  eigenvalues    EBANDS =       176.79429647
  atomic energy  EATOM  =      6564.76702419
  Solvation  Ediel_sol  =         0.00000000
  ---------------------------------------------------
  free energy    TOTEN  =      -367.49985050 eV

  energy without entropy =     -367.49985050  energy(sigma->0) =     -367.49985050


--------------------------------------------------------------------------------------------------------




--------------------------------------- Iteration      1(  15)  ---------------------------------------


    POTLOK:  cpu time      0.0214: real time      0.0216
    SETDIJ:  cpu time      0.0218: real time      0.0220
     EDDAV:  cpu time      1.7577: real time      1.7665
       DOS:  cpu time      0.0003: real time      0.0003
    CHARGE:  cpu time      0.0944: real time      0.0949
    MIXING:  cpu time      0.0016: real time      0.0016
    --------------------------------------------
      LOOP:  cpu time      1.8971: real time      1.9068

 eigenvalue-minimisations  :  1808
 total energy-change (2. order) : 0.1154694E-07  (-0.8201639E-09)
 number of electron     255.9999994 magnetization 
 augmentation part      -14.6436498 magnetization 

 Broyden mixing:
  rms(total) = 0.13840E-04    rms(broyden)= 0.13840E-04
  rms(prec ) = 0.14406E-04
  weight for this iteration     100.00

 eigenvalues of (default mixing * dielectric matrix)
  average eigenvalue GAMMA=   1.7642
  3.0896  2.6438  2.3104  2.3104  1.9860  1.4579  0.9983  0.9983  0.9236  0.9236

 Free energy of the ion-electron system (eV)
  ---------------------------------------------------
  alpha Z        PSCENC =       107.38120932
  Ewald energy   TEWEN  =     -7307.87507298
  -Hartree energ DENC   =      -468.78635188
  -exchange      EXHF   =         0.00000000
  -V(xc)+E(xc)   XCENC  =      -539.35379595
  PAW double counting   =     28474.95832146   -27375.38506331
  entropy T*S    EENTRO =        -0.00000000
  eigenvalues    EBANDS =       176.79387866
  atomic energy  EATOM  =      6564.76702419
  Solvation  Ediel_sol  =         0.00000000
  ---------------------------------------------------
  free energy    TOTEN  =      -367.49985049 eV

  energy without entropy =     -367.49985049  energy(sigma->0) =     -367.49985049


--------------------------------------------------------------------------------------------------------




--------------------------------------- Iteration      1(  16)  ---------------------------------------


    POTLOK:  cpu time      0.0212: real time      0.0213
    SETDIJ:  cpu time      0.0213: real time      0.0214
     EDDAV:  cpu time      1.7246: real time      1.7337
       DOS:  cpu time      0.0005: real time      0.0005
    --------------------------------------------
      LOOP:  cpu time      1.7676: real time      1.7769

 eigenvalue-minimisations  :  1744
 total energy-change (2. order) : 0.9877112E-09  (-0.1233268E-09)
 number of electron     255.9999994 magnetization 
 augmentation part      -14.6436498 magnetization 

 Free energy of the ion-electron system (eV)
  ---------------------------------------------------
  alpha Z        PSCENC =       107.38120932
  Ewald energy   TEWEN  =     -7307.87507298
  -Hartree energ DENC   =      -468.78619630
  -exchange      EXHF   =         0.00000000
  -V(xc)+E(xc)   XCENC  =      -539.35382875
  PAW double counting   =     28474.84744107   -27375.27418658
  entropy T*S    EENTRO =        -0.00000000
  eigenvalues    EBANDS =       176.79375955
  atomic energy  EATOM  =      6564.76702419
  Solvation  Ediel_sol  =         0.00000000
  ---------------------------------------------------
  free energy    TOTEN  =      -367.49985048 eV

  energy without entropy =     -367.49985048  energy(sigma->0) =     -367.49985048


--------------------------------------------------------------------------------------------------------




 average (electrostatic) potential at core
  the test charge radii are     0.9892
  (the norm of the test charge is              1.0000)
       1 -83.0573       2 -83.0574       3 -83.0574       4 -83.0572       5 -83.0572
       6 -83.0574       7 -83.0574       8 -83.0572       9 -83.0551      10 -83.0577
      11 -83.0593      12 -83.0571      13 -83.0595      14 -83.0569      15 -83.0553
      16 -83.0575      17 -83.0573      18 -83.0574      19 -83.0574      20 -83.0572
      21 -83.0572      22 -83.0574      23 -83.0574      24 -83.0572      25 -83.0551
      26 -83.0577      27 -83.0593      28 -83.0571      29 -83.0595      30 -83.0569
      31 -83.0553      32 -83.0575      33 -83.0573      34 -83.0578      35 -83.0577
      36 -83.0558      37 -83.0578      38 -83.0573      39 -83.0558      40 -83.0577
      41 -83.0579      42 -83.0579      43 -83.0573      44 -83.0573      45 -83.0573
      46 -83.0573      47 -83.0562      48 -83.0562      49 -83.0569      50 -83.0567
      51 -83.0569      52 -83.0578      53 -83.0569      54 -83.0578      55 -83.0599
      56 -83.0570      57 -83.0569      58 -83.0572      59 -83.0584      60 -83.0574
      61 -83.0569      62 -83.0572      63 -83.0584      64 -83.0574
 
 
 
 E-fermi :   5.8935     XC(G=0):  -9.5445     alpha+bet :-11.9543

 Fermi energy:         5.8935391060

 k-point     1 :       0.0000    0.0000    0.0000
  band No.  band energies     occupation 
      1      -6.2055      2.00000
      2      -5.1245      2.00000
      3      -5.1219      2.00000
      4      -5.1217      2.00000
      5      -5.1208      2.00000
      6      -5.1201      2.00000
      7      -5.1187      2.00000
      8      -4.1611      2.00000
      9      -4.1583      2.00000
     10      -4.1564      2.00000
     11      -4.1553      2.00000
     12      -4.1552      2.00000
     13      -4.1550      2.00000
     14      -4.1550      2.00000
     15      -4.1548      2.00000
     16      -4.1542      2.00000
     17      -4.1533      2.00000
     18      -4.1525      2.00000
     19      -4.1495      2.00000
     20      -3.8623      2.00000
     21      -3.8623      2.00000
     22      -3.8590      2.00000
     23      -3.8590      2.00000
     24      -2.0544      2.00000
     25      -2.0540      2.00000
     26      -2.0520      2.00000
     27      -2.0519      2.00000
     28      -2.0500      2.00000
     29      -2.0495      2.00000
     30      -1.8871      2.00000
     31      -1.8860      2.00000
     32      -1.8857      2.00000
     33      -1.8832      2.00000
     34      -1.8830      2.00000
     35      -1.8827      2.00000
     36      -1.8826      2.00000
     37      -1.8823      2.00000
     38      -1.8813      2.00000
     39      -1.8808      2.00000
     40      -1.8791      2.00000
     41      -1.8786      2.00000
     42      -1.2358      2.00000
     43      -1.2358      2.00000
     44      -1.2336      2.00000
     45      -1.2336      2.00000
     46       0.2781      2.00000
     47       0.2788      2.00000
     48       0.2799      2.00000
     49       0.2813      2.00000
     50       0.2817      2.00000
     51       0.2819      2.00000
     52       0.2821      2.00000
     53       0.2822      2.00000
     54       0.2827      2.00000
     55       0.2837      2.00000
     56       0.2854      2.00000
     57       0.2855      2.00000
     58       1.8686      2.00000
     59       1.8692      2.00000
     60       1.8703      2.00000
     61       1.8704      2.00000
     62       1.8712      2.00000
     63       1.8712      2.00000
     64       1.8714      2.00000
     65       1.8715      2.00000
     66       1.8717      2.00000
     67       1.8720      2.00000
     68       1.8730      2.00000
     69       1.8735      2.00000
     70       1.9707      2.00000
     71       1.9707      2.00000
     72       1.9714      2.00000
     73       1.9726      2.00000
     74       1.9731      2.00000
     75       1.9733      2.00000
     76       1.9736      2.00000
     77       1.9739      2.00000
     78       1.9745      2.00000
     79       1.9747      2.00000
     80       1.9754      2.00000
     81       1.9760      2.00000
     82       2.2486      2.00000
     83       2.2503      2.00000
     84       2.2508      2.00000
     85       2.2518      2.00000
     86       2.2527      2.00000
     87       2.2543      2.00000
     88       2.9005      2.00000
     89       2.9017      2.00000
     90       2.9017      2.00000
     91       2.9017      2.00000
     92       2.9017      2.00000
     93       2.9029      2.00000
     94       3.8623      2.00000
     95       3.8635      2.00000
     96       3.8660      2.00000
     97       3.8665      2.00000
     98       3.8666      2.00000
     99       3.8667      2.00000
    100       3.8667      2.00000
    101       3.8669      2.00000
    102       3.8670      2.00000
    103       3.8674      2.00000
    104       3.8696      2.00000
    105       3.8709      2.00000
    106       4.4329      2.00000
    107       4.4333      2.00000
    108       4.4347      2.00000
    109       4.4364      2.00000
    110       4.4368      2.00000
    111       4.4368      2.00000
    112       4.4372      2.00000
    113       4.4376      2.00000
    114       4.4379      2.00000
    115       4.4391      2.00000
    116       4.4404      2.00000
    117       4.4409      2.00000
    118       4.5671      2.00000
    119       4.5671      2.00000
    120       4.5693      2.00000
    121       4.5693      2.00000
    122       4.5703      2.00000
    123       4.5703      2.00000
    124       4.5727      2.00000
    125       4.5727      2.00000
    126       5.7720      2.00000
    127       5.7720      2.00000
    128       5.7720      2.00000
    129       6.3629      0.00000
    130       6.3651      0.00000
    131       6.3658      0.00000
    132       6.3658      0.00000
    133       6.3665      0.00000
    134       6.3686      0.00000
    135       6.8060      0.00000
    136       6.8067      0.00000
    137       6.8075      0.00000
    138       6.8084      0.00000
    139       6.8095      0.00000
    140       6.8104      0.00000
    141       7.2318      0.00000
    142       7.2318      0.00000
    143       7.2321      0.00000
    144       7.2321      0.00000
    145       8.1347      0.00000
    146       8.1351      0.00000
    147       8.1361      0.00000
    148       8.1361      0.00000
    149       8.1377      0.00000
    150       8.1379      0.00000
    151       8.1380      0.00000
    152       8.1381      0.00000
    153       8.1395      0.00000
    154       8.1400      0.00000
    155       8.1407      0.00000
    156       8.1408      0.00000
    157       8.2889      0.00000
    158       8.2889      0.00000
    159       8.2889      0.00000
    160       8.7963      0.00000
    161       8.7970      0.00000
    162       8.7979      0.00000
    163       8.7979      0.00000
    164       8.7989      0.00000
    165       8.7995      0.00000
    166       9.0488      0.00000
    167       9.0514      0.00000
    168       9.0532      0.00000

 k-point     2 :       0.5000    0.0000    0.0000
  band No.  band energies     occupation 
      1      -5.9330      2.00000
      2      -5.9311      2.00000
      3      -4.8757      2.00000
      4      -4.8742      2.00000
      5      -4.8738      2.00000
      6      -4.8726      2.00000
      7      -4.8721      2.00000
      8      -4.8720      2.00000
      9      -4.8712      2.00000
     10      -4.8702      2.00000
     11      -4.0258      2.00000
     12      -4.0258      2.00000
     13      -4.0225      2.00000
     14      -4.0225      2.00000
     15      -4.0218      2.00000
     16      -4.0218      2.00000
     17      -4.0208      2.00000
     18      -4.0208      2.00000
     19      -3.8072      2.00000
     20      -3.8040      2.00000
     21      -3.0809      2.00000
     22      -3.0786      2.00000
     23      -3.0775      2.00000
     24      -3.0768      2.00000
     25      -3.0758      2.00000
     26      -3.0754      2.00000
     27      -3.0742      2.00000
     28      -3.0719      2.00000
     29      -1.9758      2.00000
     30      -1.9718      2.00000
     31      -1.9718      2.00000
     32      -1.9714      2.00000
     33      -1.9712      2.00000
     34      -1.9712      2.00000
     35      -1.9694      2.00000
     36      -1.9693      2.00000
     37      -0.8061      2.00000
     38      -0.8049      2.00000
     39      -0.8040      2.00000
     40      -0.8035      2.00000
     41      -0.8023      2.00000
     42      -0.8023      2.00000
     43      -0.8012      2.00000
     44      -0.7999      2.00000
     45      -0.6368      2.00000
     46      -0.6368      2.00000
     47      -0.6335      2.00000
     48      -0.6335      2.00000
     49      -0.6332      2.00000
     50      -0.6332      2.00000
     51      -0.6323      2.00000
     52      -0.6323      2.00000
     53       0.0222      2.00000
     54       0.0243      2.00000
     55       1.4701      2.00000
     56       1.4722      2.00000
     57       1.4734      2.00000
     58       1.4737      2.00000
     59       1.4744      2.00000
     60       1.4748      2.00000
     61       1.4765      2.00000
     62       1.4771      2.00000
     63       1.4912      2.00000
     64       1.4922      2.00000
     65       1.4929      2.00000
     66       1.4931      2.00000
     67       1.4935      2.00000
     68       1.4942      2.00000
     69       1.4947      2.00000
     70       1.4966      2.00000
     71       2.3172      2.00000
     72       2.3174      2.00000
     73       2.3176      2.00000
     74       2.3176      2.00000
     75       2.3185      2.00000
     76       2.3185      2.00000
     77       2.3185      2.00000
     78       2.3191      2.00000
     79       3.0215      2.00000
     80       3.0231      2.00000
     81       3.0243      2.00000
     82       3.0249      2.00000
     83       3.0251      2.00000
     84       3.0254      2.00000
     85       3.0264      2.00000
     86       3.0276      2.00000
     87       3.1467      2.00000
     88       3.1468      2.00000
     89       3.1493      2.00000
     90       3.1493      2.00000
     91       3.1570      2.00000
     92       3.1577      2.00000
     93       3.1585      2.00000
     94       3.1589      2.00000
     95       3.1593      2.00000
     96       3.1600      2.00000
     97       3.1606      2.00000
     98       3.1621      2.00000
     99       3.2844      2.00000
    100       3.2845      2.00000
    101       3.2853      2.00000
    102       3.2853      2.00000
    103       3.2860      2.00000
    104       3.2860      2.00000
    105       3.2873      2.00000
    106       3.2873      2.00000
    107       4.3301      2.00000
    108       4.3310      2.00000
    109       4.3312      2.00000
    110       4.3316      2.00000
    111       4.3323      2.00000
    112       4.3324      2.00000
    113       4.3329      2.00000
    114       4.3331      2.00000
    115       4.4330      2.00000
    116       4.4330      2.00000
    117       4.4960      2.00000
    118       4.4960      2.00000
    119       4.5010      2.00000
    120       4.5010      2.00000
    121       4.5015      2.00000
    122       4.5015      2.00000
    123       4.5050      2.00000
    124       4.5050      2.00000
    125       4.9532      2.00000
    126       4.9532      2.00000
    127       4.9573      2.00000
    128       4.9573      2.00000
    129       6.2787      0.00000
    130       6.2807      0.00000
    131       7.1931      0.00000
    132       7.1948      0.00000
    133       7.6420      0.00000
    134       7.6449      0.00000
    135       7.6449      0.00000
    136       7.6455      0.00000
    137       7.6466      0.00000
    138       7.6468      0.00000
    139       7.6468      0.00000
    140       7.6493      0.00000
    141       7.7138      0.00000
    142       7.7145      0.00000
    143       8.0566      0.00000
    144       8.0566      0.00000
    145       8.0599      0.00000
    146       8.0599      0.00000
    147       8.0603      0.00000
    148       8.0603      0.00000
    149       8.0620      0.00000
    150       8.0620      0.00000
    151       8.1430      0.00000
    152       8.1444      0.00000
    153       8.1452      0.00000
    154       8.1454      0.00000
    155       8.1459      0.00000
    156       8.1459      0.00000
    157       8.1469      0.00000
    158       8.1484      0.00000
    159       8.5500      0.00000
    160       8.5509      0.00000
    161       8.5523      0.00000
    162       8.5527      0.00000
    163       8.5529      0.00000
    164       8.5539      0.00000
    165       8.5545      0.00000
    166       8.5551      0.00000
    167       9.3208      0.00000
    168       9.3235      0.00000

 k-point     3 :      -0.0000    0.5000    0.0000
  band No.  band energies     occupation 
      1      -5.9320      2.00000
      2      -5.9320      2.00000
      3      -4.8777      2.00000
      4      -4.8739      2.00000
      5      -4.8733      2.00000
      6      -4.8728      2.00000
      7      -4.8726      2.00000
      8      -4.8721      2.00000
      9      -4.8716      2.00000
     10      -4.8679      2.00000
     11      -4.0262      2.00000
     12      -4.0262      2.00000
     13      -4.0230      2.00000
     14      -4.0230      2.00000
     15      -4.0224      2.00000
     16      -4.0224      2.00000
     17      -4.0192      2.00000
     18      -4.0192      2.00000
     19      -3.8057      2.00000
     20      -3.8057      2.00000
     21      -3.0796      2.00000
     22      -3.0781      2.00000
     23      -3.0780      2.00000
     24      -3.0766      2.00000
     25      -3.0762      2.00000
     26      -3.0748      2.00000
     27      -3.0747      2.00000
     28      -3.0731      2.00000
     29      -1.9715      2.00000
     30      -1.9715      2.00000
     31      -1.9715      2.00000
     32      -1.9715      2.00000
     33      -1.9715      2.00000
     34      -1.9715      2.00000
     35      -1.9714      2.00000
     36      -1.9714      2.00000
     37      -0.8062      2.00000
     38      -0.8059      2.00000
     39      -0.8040      2.00000
     40      -0.8031      2.00000
     41      -0.8029      2.00000
     42      -0.8021      2.00000
     43      -0.8002      2.00000
     44      -0.7998      2.00000
     45      -0.6360      2.00000
     46      -0.6360      2.00000
     47      -0.6347      2.00000
     48      -0.6347      2.00000
     49      -0.6332      2.00000
     50      -0.6332      2.00000
     51      -0.6319      2.00000
     52      -0.6319      2.00000
     53       0.0232      2.00000
     54       0.0232      2.00000
     55       1.4717      2.00000
     56       1.4721      2.00000
     57       1.4734      2.00000
[...]
         0         1         2         3         4         5         6         7         8         9
 total charge-density along one line
 
 pseudopotential strength for first ion, spin component:           1
 18.404  25.676  -0.000  -0.000  -0.000  -0.000  -0.000  -0.000
 25.676  35.825  -0.000  -0.000  -0.000  -0.000  -0.000  -0.001
 -0.000  -0.000   4.177  -0.000  -0.000   7.782  -0.000  -0.000
 -0.000  -0.000  -0.000   4.177   0.000  -0.000   7.782   0.000
 -0.000  -0.000  -0.000   0.000   4.177  -0.000   0.000   7.782
 -0.000  -0.000   7.782  -0.000  -0.000  14.509  -0.000  -0.000
 -0.000  -0.000  -0.000   7.782   0.000  -0.000  14.509   0.000
 -0.000  -0.001  -0.000   0.000   7.782  -0.000   0.000  14.509
 total augmentation occupancy for first ion, spin component:           1
  5.948  -2.288  -0.000  -0.000  -0.019   0.000   0.000   0.006
 -2.288   0.989   0.000  -0.000   0.009  -0.000  -0.000  -0.003
 -0.000   0.000   3.001  -0.022  -0.000  -0.682   0.006  -0.000
 -0.000  -0.000  -0.022   3.001  -0.000   0.006  -0.681   0.000
 -0.019   0.009  -0.000  -0.000   3.000   0.000   0.000  -0.681
  0.000  -0.000  -0.682   0.006   0.000   0.164  -0.002   0.000
  0.000  -0.000   0.006  -0.681   0.000  -0.002   0.164  -0.000
  0.006  -0.003  -0.000   0.000  -0.681   0.000  -0.000   0.164


------------------------ aborting loop because EDIFF is reached ----------------------------------------


    CHARGE:  cpu time      0.0920: real time      0.0925
    FORLOC:  cpu time      0.0089: real time      0.0090
    FORNL :  cpu time      1.0660: real time      1.0708
    STRESS:  cpu time      2.1812: real time      2.1916
    FORCOR:  cpu time      0.0284: real time      0.0285
    FORHAR:  cpu time      0.0115: real time      0.0116
    MIXING:  cpu time      0.0009: real time      0.0009
    OFIELD:  cpu time      0.0000: real time      0.0000

  FORCE on cell =-STRESS in cart. coord.  units (eV):
  Direction    XX          YY          ZZ          XY          YZ          ZX
  --------------------------------------------------------------------------------------
  Alpha Z   107.38121   107.38121   107.38121
  Ewald   -2435.98725 -2435.96733 -2435.96637    -0.00000     0.00000    -0.00029
  Hartree   156.25915   156.26327   156.26366    -0.00000    -0.00000    -0.00038
  E(xc)    -817.39768  -817.39793  -817.39794    -0.00000     0.00000     0.00000
  Local    -931.44474  -931.46777  -931.46913    -0.00000     0.00000     0.00070
  n-local  2483.02237  2483.02633  2483.02636    -0.00000     0.00000    -0.00002
  augment  -368.16885  -368.16907  -368.16907     0.00000     0.00000     0.00000
  Kinetic  1806.30908  1806.30838  1806.30836    -0.00000    -0.00000    -0.00001
  Fock        0.00000     0.00000     0.00000     0.00000     0.00000     0.00000
  -------------------------------------------------------------------------------------
  Total      -0.02671    -0.02292    -0.02292     0.00000    -0.00000     0.00001
  in kB      -0.03333    -0.02860    -0.02859     0.00000    -0.00000     0.00001
  external pressure =       -0.03 kB  Pullay stress =        0.00 kB


 VOLUME and BASIS-vectors are now :
 -----------------------------------------------------------------------------
  energy-cutoff  :      318.00
  volume of cell :     1284.06
      direct lattice vectors                 reciprocal lattice vectors
    10.869145120 -0.000000000 -0.000000000     0.092003556  0.000000000 -0.000000000
    -0.000000000 10.869145120  0.000000000     0.000000000  0.092003556 -0.000000000
     0.000000000  0.000000000 10.869145120     0.000000000 -0.000000000  0.092003556

  length of vectors
    10.869145120 10.869145120 10.869145120     0.092003556  0.092003556  0.092003556


 FORCES acting on ions
    electron-ion (+dipol)            ewald-force                    non-local-force                 convergence-correction
 -----------------------------------------------------------------------------------------------
   -.550E+00 0.172E-02 -.564E-01   0.503E+00 -.622E-14 0.571E-01   0.182E+00 -.776E-03 0.120E-02   -.713E-05 -.136E-05 -.534E-05
   0.308E-01 0.166E-02 0.557E-01   -.318E-01 -.102E-13 -.564E-01   0.270E-02 -.711E-03 -.118E-02   0.112E-05 -.286E-05 0.530E-06
   -.214E-01 0.503E-03 -.606E-02   0.204E-01 -.355E-14 0.467E-02   0.857E-03 -.428E-03 0.800E-03   -.164E-05 0.117E-05 -.301E-05
   0.155E-01 0.507E-03 0.607E-02   -.143E-01 -.107E-13 -.466E-02   -.949E-03 -.433E-03 -.804E-03   0.888E-06 0.360E-05 -.378E-06
   -.507E-01 -.171E-02 0.560E-01   0.490E-01 -.622E-14 -.567E-01   0.308E-02 0.759E-03 -.118E-02   -.199E-05 -.193E-05 0.518E-05
   -.139E-01 -.165E-02 -.557E-01   0.144E-01 -.622E-14 0.564E-01   0.126E-02 0.712E-03 0.118E-02   -.335E-05 -.284E-05 0.190E-06
   0.192E-02 -.505E-03 0.606E-02   0.895E-02 -.622E-14 -.467E-02   -.662E-02 0.429E-03 -.800E-03   0.318E-05 -.276E-06 0.327E-05
   0.634E-02 -.512E-03 -.607E-02   -.654E-02 -.142E-13 0.466E-02   0.305E-03 0.433E-03 0.806E-03   -.286E-05 0.201E-05 -.251E-05
   -.565E-01 0.608E-01 0.298E-02   0.663E-01 -.566E-01 0.106E-03   -.367E-02 -.694E-02 -.498E-02   -.118E-05 -.148E-05 -.434E-06
   -.996E-02 -.558E-01 -.171E-02   0.905E-02 0.563E-01 -.318E-04   0.281E-02 0.119E-02 0.720E-03   -.212E-05 -.312E-05 0.156E-05
   -.565E-01 -.511E-01 -.324E-02   0.663E-01 0.566E-01 0.106E-03   -.367E-02 -.461E-02 0.504E-02   -.376E-05 -.634E-06 0.390E-05
   -.995E-02 0.556E-01 0.176E-02   0.905E-02 -.563E-01 -.318E-04   0.280E-02 -.118E-02 -.711E-03   -.375E-06 0.483E-05 0.184E-05
   -.271E-01 0.110E-02 0.446E-02   0.376E-01 -.456E-02 -.106E-03   -.593E-02 0.501E-02 -.539E-02   -.129E-05 -.297E-06 -.469E-05
   0.195E-01 -.595E-02 -.618E-03   -.197E-01 0.463E-02 0.318E-04   0.592E-03 0.804E-03 0.435E-03   -.230E-05 -.608E-05 -.236E-05
   -.271E-01 -.108E-01 -.419E-02   0.376E-01 0.456E-02 -.106E-03   -.591E-02 0.654E-02 0.532E-02   -.698E-06 0.507E-05 -.138E-06
   0.194E-01 0.612E-02 0.562E-03   -.197E-01 -.463E-02 0.318E-04   0.597E-03 -.811E-03 -.440E-03   0.877E-06 0.440E-05 -.335E-06
   0.550E+00 0.172E-02 0.564E-01   -.503E+00 -.444E-15 -.571E-01   -.182E+00 -.776E-03 -.120E-02   0.713E-05 -.136E-05 0.534E-05
   -.308E-01 0.166E-02 -.557E-01   0.318E-01 0.000E+00 0.564E-01   -.270E-02 -.711E-03 0.118E-02   -.112E-05 -.286E-05 -.530E-06
   0.214E-01 0.503E-03 0.606E-02   -.204E-01 -.577E-14 -.467E-02   -.857E-03 -.428E-03 -.800E-03   0.164E-05 0.117E-05 0.301E-05
   -.155E-01 0.507E-03 -.607E-02   0.143E-01 -.355E-14 0.466E-02   0.949E-03 -.433E-03 0.804E-03   -.888E-06 0.360E-05 0.378E-06
   0.507E-01 -.171E-02 -.560E-01   -.490E-01 -.755E-14 0.567E-01   -.308E-02 0.759E-03 0.118E-02   0.199E-05 -.193E-05 -.518E-05
   0.139E-01 -.165E-02 0.557E-01   -.144E-01 -.400E-14 -.564E-01   -.126E-02 0.712E-03 -.118E-02   0.335E-05 -.284E-05 -.190E-06
   -.192E-02 -.505E-03 -.606E-02   -.895E-02 -.131E-13 0.467E-02   0.662E-02 0.429E-03 0.800E-03   -.318E-05 -.276E-06 -.327E-05
   -.634E-02 -.512E-03 0.607E-02   0.654E-02 0.311E-14 -.466E-02   -.305E-03 0.433E-03 -.806E-03   0.286E-05 0.201E-05 0.251E-05
   0.565E-01 0.608E-01 -.298E-02   -.663E-01 -.566E-01 -.106E-03   0.367E-02 -.694E-02 0.498E-02   0.118E-05 -.148E-05 0.434E-06
   0.996E-02 -.558E-01 0.171E-02   -.905E-02 0.563E-01 0.318E-04   -.281E-02 0.119E-02 -.720E-03   0.212E-05 -.312E-05 -.156E-05
   0.565E-01 -.511E-01 0.324E-02   -.663E-01 0.566E-01 -.106E-03   0.367E-02 -.461E-02 -.504E-02   0.376E-05 -.634E-06 -.390E-05
   0.995E-02 0.556E-01 -.176E-02   -.905E-02 -.563E-01 0.318E-04   -.280E-02 -.118E-02 0.711E-03   0.375E-06 0.483E-05 -.184E-05
   0.271E-01 0.110E-02 -.446E-02   -.376E-01 -.456E-02 0.106E-03   0.593E-02 0.501E-02 0.539E-02   0.129E-05 -.297E-06 0.469E-05
   -.195E-01 -.595E-02 0.618E-03   0.197E-01 0.463E-02 -.318E-04   -.592E-03 0.804E-03 -.435E-03   0.230E-05 -.608E-05 0.236E-05
   0.271E-01 -.108E-01 0.419E-02   -.376E-01 0.456E-02 0.106E-03   0.591E-02 0.654E-02 -.532E-02   0.698E-06 0.507E-05 0.138E-06
   -.194E-01 0.612E-02 -.562E-03   0.197E-01 -.463E-02 -.318E-04   -.597E-03 -.811E-03 0.440E-03   -.877E-06 0.440E-05 0.335E-06
   -.483E-02 0.198E+00 0.193E+00   0.662E-02 -.172E+00 -.167E+00   -.337E-01 -.487E-01 -.477E-01   -.398E-05 -.112E-05 -.209E-05
   0.648E-01 -.122E-01 0.441E-03   -.671E-01 0.101E-01 0.584E-04   0.186E-02 0.133E-02 -.499E-03   0.869E-06 0.195E-05 -.285E-05
   -.206E-01 -.157E-01 0.307E-02   0.223E-01 0.142E-01 -.407E-02   -.136E-02 0.961E-03 0.870E-03   0.137E-05 -.234E-05 -.260E-05
   0.291E-01 0.799E-02 -.293E-02   -.225E-01 -.449E-02 0.466E-05   -.478E-02 -.397E-02 0.292E-02   -.820E-06 -.190E-05 -.360E-05
   -.648E-01 -.122E-01 -.441E-03   0.671E-01 0.101E-01 -.584E-04   -.186E-02 0.133E-02 0.499E-03   -.869E-06 0.195E-05 0.285E-05
   0.483E-02 0.198E+00 -.193E+00   -.662E-02 -.172E+00 0.167E+00   0.337E-01 -.487E-01 0.477E-01   0.398E-05 -.112E-05 0.209E-05
   -.291E-01 0.799E-02 0.293E-02   0.225E-01 -.449E-02 -.466E-05   0.478E-02 -.397E-02 -.292E-02   0.820E-06 -.190E-05 0.360E-05
   0.206E-01 -.157E-01 -.307E-02   -.223E-01 0.142E-01 0.407E-02   0.136E-02 0.961E-03 -.870E-03   -.137E-05 -.234E-05 0.260E-05
   -.412E-01 -.184E+00 -.219E+00   0.439E-01 0.159E+00 0.192E+00   -.350E-01 0.483E-01 0.489E-01   -.312E-05 -.187E-05 -.708E-06
   0.412E-01 -.184E+00 0.219E+00   -.439E-01 0.159E+00 -.192E+00   0.350E-01 0.483E-01 -.489E-01   0.312E-05 -.187E-05 0.708E-06
   -.284E-01 0.906E-02 -.902E-02   0.298E-01 -.868E-02 0.103E-01   -.614E-03 0.161E-03 -.116E-02   -.295E-05 0.579E-05 -.351E-05
   0.284E-01 0.906E-02 0.902E-02   -.298E-01 -.868E-02 -.103E-01   0.614E-03 0.161E-03 0.116E-02   0.295E-05 0.579E-05 0.351E-05
   -.284E-01 -.146E-02 0.267E-01   0.298E-01 0.307E-02 -.249E-01   -.615E-03 -.945E-03 -.172E-02   0.751E-06 -.271E-05 0.897E-06
   0.284E-01 -.146E-02 -.267E-01   -.298E-01 0.307E-02 0.249E-01   0.615E-03 -.945E-03 0.172E-02   -.751E-06 -.271E-05 -.897E-06
   -.213E-01 -.133E-02 0.302E-02   0.150E-01 -.100E-02 -.625E-02   0.404E-02 0.285E-02 0.321E-02   0.236E-05 0.346E-05 0.132E-05
   0.213E-01 -.133E-02 -.302E-02   -.150E-01 -.100E-02 0.625E-02   -.404E-02 0.285E-02 -.321E-02   -.236E-05 0.346E-05 -.132E-05
   -.821E-12 -.405E+00 -.158E-09   0.314E-13 0.353E+00 0.400E-14   -.272E-17 0.986E-01 0.272E-17   -.203E-13 -.725E-07 -.132E-12
   0.252E-12 0.346E-01 -.235E-10   0.181E-13 -.333E-01 0.000E+00   0.154E-19 -.557E-03 -.154E-19   0.209E-13 -.336E-05 -.141E-12
   -.820E-12 0.357E-01 -.158E-09   0.155E-13 -.335E-01 0.266E-14   0.424E-19 -.154E-02 -.424E-19   -.303E-13 -.810E-06 -.121E-12
   0.214E-12 -.175E-01 -.235E-10   0.927E-14 0.161E-01 0.711E-14   -.514E-19 0.186E-02 0.514E-19   0.317E-13 -.260E-05 -.119E-12
   0.896E-12 -.104E-01 -.527E-10   -.752E-14 0.133E-01 0.844E-14   0.583E-19 -.211E-02 -.583E-19   0.256E-13 0.542E-06 0.132E-12
   -.157E-12 0.744E-02 -.370E-11   0.939E-14 -.721E-02 0.107E-13   -.737E-20 0.267E-03 0.736E-20   -.257E-13 0.265E-05 0.141E-12
   0.908E-12 0.169E-02 -.529E-10   -.570E-14 -.722E-02 0.622E-14   -.167E-18 0.604E-02 0.167E-18   0.169E-13 -.278E-05 0.121E-12
   -.212E-12 -.430E-02 -.373E-11   0.946E-14 0.522E-02 0.533E-14   0.101E-19 -.367E-03 -.101E-19   -.167E-13 -.411E-05 0.119E-12
   0.217E-01 0.208E+00 -.220E+00   -.216E-01 -.183E+00 0.193E+00   -.331E-01 -.483E-01 0.501E-01   -.964E-06 -.134E-05 -.579E-05
   0.362E-01 -.210E-01 0.261E-01   -.371E-01 0.203E-01 -.247E-01   0.125E-02 0.146E-03 -.121E-02   0.107E-05 -.341E-05 -.263E-05
   0.593E-03 -.187E-01 -.605E-02   0.739E-02 0.203E-01 0.103E-01   -.538E-02 -.225E-02 -.408E-02   -.130E-05 0.223E-05 -.394E-05
   0.786E-02 0.109E-01 0.587E-02   -.752E-02 -.107E-01 -.621E-02   -.738E-03 -.747E-03 0.319E-03   0.340E-05 0.633E-05 0.140E-05
   -.217E-01 0.208E+00 0.220E+00   0.216E-01 -.183E+00 -.193E+00   0.331E-01 -.483E-01 -.501E-01   0.964E-06 -.134E-05 0.579E-05
   -.362E-01 -.210E-01 -.261E-01   0.371E-01 0.203E-01 0.247E-01   -.125E-02 0.146E-03 0.121E-02   -.107E-05 -.341E-05 0.263E-05
   -.593E-03 -.187E-01 0.605E-02   -.739E-02 0.203E-01 -.103E-01   0.538E-02 -.225E-02 0.408E-02   0.130E-05 0.223E-05 0.394E-05
   -.786E-02 0.109E-01 -.587E-02   0.752E-02 -.107E-01 0.621E-02   0.738E-03 -.747E-03 -.319E-03   -.340E-05 0.633E-05 -.140E-05
 -----------------------------------------------------------------------------------------------
   -.611E-10 -.245E-04 0.146E-11   -.118E-13 -.187E-13 0.533E-13   0.279E-16 0.235E-04 -.184E-17   0.113E-12 0.267E-07 -.112E-13
 
 
 POSITION                                       TOTAL-FORCE (eV/Angst)
 -----------------------------------------------------------------------------------
      2.70729      2.71729      2.71729         0.134026      0.000945      0.001885
      8.15186      2.71729      2.71729         0.001679      0.000943     -0.001852
      2.71729      8.15186      2.71729        -0.000155      0.000077     -0.000602
      8.15186      8.15186      2.71729         0.000279      0.000077      0.000603
      2.71729      2.71729      8.15186         0.001394     -0.000953     -0.001865
      8.15186      2.71729      8.15186         0.001812     -0.000942      0.001853
      2.71729      8.15186      8.15186         0.004254     -0.000077      0.000602
      8.15186      8.15186      8.15186         0.000101     -0.000077     -0.000604
      2.71729     -0.00000     -0.00000         0.006145     -0.002808     -0.001896
      8.15186     -0.00000     -0.00000         0.001897      0.001776     -0.001020
      2.71729      5.43457      0.00000         0.006155      0.000917      0.001908
      8.15186      5.43457     -0.00000         0.001899     -0.001929      0.001018
      2.71729      0.00000      5.43457         0.004603      0.001555     -0.001032
      8.15186     -0.00000      5.43457         0.000366     -0.000528     -0.000153
      2.71729      5.43457      5.43457         0.004595      0.000341      0.001018
      8.15186      5.43457      5.43457         0.000364      0.000680      0.000154
      0.01000      2.71729      0.00000        -0.134026      0.000945     -0.001885
      5.43457      2.71729     -0.00000        -0.001679      0.000943      0.001852
     -0.00000      8.15186      0.00000         0.000155      0.000077      0.000602
      5.43457      8.15186      0.00000        -0.000279      0.000077     -0.000603
      0.00000      2.71729      5.43457        -0.001394     -0.000953      0.001865
      5.43457      2.71729      5.43457        -0.001812     -0.000942     -0.001853
     -0.00000      8.15186      5.43457        -0.004254     -0.000077     -0.000602
      5.43457      8.15186      5.43457        -0.000101     -0.000077      0.000604
      0.00000      0.00000      2.71729        -0.006145     -0.002808      0.001896
      5.43457     -0.00000      2.71729        -0.001897      0.001776      0.001020
     -0.00000      5.43457      2.71729        -0.006155      0.000917     -0.001908
      5.43457      5.43457      2.71729        -0.001899     -0.001929     -0.001018
      0.00000      0.00000      8.15186        -0.004603      0.001555      0.001032
      5.43457      0.00000      8.15186        -0.000366     -0.000528      0.000153
      0.00000      5.43457      8.15186        -0.004595      0.000341     -0.001018
      5.43457      5.43457      8.15186        -0.000364      0.000680     -0.000154
      4.07593      4.07593      4.07593        -0.031963     -0.022654     -0.022180
      9.51050      4.07593      4.07593        -0.000423     -0.000749     -0.000002
      4.07593      9.51050      4.07593         0.000333     -0.000609     -0.000141
      9.51050      9.51050      4.07593         0.001856     -0.000469     -0.000005
      4.07593      4.07593      9.51050         0.000423     -0.000749      0.000002
      9.51050      4.07593      9.51050         0.031963     -0.022654      0.022180
      4.07593      9.51050      9.51050        -0.001856     -0.000469      0.000005
      9.51050      9.51050      9.51050        -0.000333     -0.000609      0.000141
      4.07593      1.35864      1.35864        -0.032272      0.022739      0.022057
      9.51050      1.35864      1.35864         0.032272      0.022739     -0.022057
      4.07593      6.79322      1.35864         0.000734      0.000556      0.000154
      9.51050      6.79322      1.35864        -0.000734      0.000556     -0.000154
      4.07593      1.35864      6.79322         0.000734      0.000665      0.000122
      9.51050      1.35864      6.79322        -0.000734      0.000665     -0.000122
      4.07593      6.79322      6.79322        -0.002259      0.000522     -0.000018
      9.51050      6.79322      6.79322         0.002259      0.000522      0.000018
      1.35864      4.07593      1.35864        -0.000000      0.046011      0.000000
      6.79322      4.07593      1.35864        -0.000000      0.000682     -0.000000
      1.35864      9.51050      1.35864        -0.000000      0.000684     -0.000000
      6.79322      9.51050      1.35864        -0.000000      0.000425     -0.000000
      1.35864      4.07593      6.79322        -0.000000      0.000813     -0.000000
      6.79322      4.07593      6.79322        -0.000000      0.000502     -0.000000
      1.35864      9.51050      6.79322        -0.000000      0.000506     -0.000000
      6.79322      9.51050      6.79322        -0.000000      0.000541     -0.000000
      1.35864      1.35864      4.07593        -0.033004     -0.023410      0.022662
      6.79322      1.35864      4.07593         0.000307     -0.000592      0.000128
      1.35864      6.79322      4.07593         0.002605     -0.000595      0.000154
      6.79322      6.79322      4.07593        -0.000397     -0.000484     -0.000021
      1.35864      1.35864      9.51050         0.033004     -0.023410     -0.022662
      6.79322      1.35864      9.51050        -0.000307     -0.000592     -0.000128
      1.35864      6.79322      9.51050        -0.002605     -0.000595     -0.000154
      6.79322      6.79322      9.51050         0.000397     -0.000484      0.000021
 -----------------------------------------------------------------------------------
    total drift:                               -0.000000     -0.000001      0.000000


--------------------------------------------------------------------------------------------------------



  FREE ENERGIE OF THE ION-ELECTRON SYSTEM (eV)
  ---------------------------------------------------
  free  energy   TOTEN  =      -367.49985048 eV

  energy  without entropy=     -367.49985048  energy(sigma->0) =     -367.49985048
 


--------------------------------------------------------------------------------------------------------


    POTLOK:  cpu time      0.0432: real time      0.0436


--------------------------------------------------------------------------------------------------------


     LOOP+:  cpu time     44.0792: real time     44.3178
    4ORBIT:  cpu time      0.0000: real time      0.0000

 total amount of memory used by VASP MPI-rank0    65387. kBytes
=======================================================================

   base      :      30000. kBytes
   nonl-proj :       6402. kBytes
   fftplans  :      11573. kBytes
   grid      :       5816. kBytes
   one-center:         49. kBytes
   wavefun   :      11547. kBytes
 
  
  
 General timing and accounting informations for this job:
 ========================================================
  
                  Total CPU time used (sec):       46.087
                            User time (sec):       44.932
                          System time (sec):        1.155
                         Elapsed time (sec):       46.503
  
                   Maximum memory used (kb):      222344.
                   Average memory used (kb):          N/A
  
                          Minor page faults:        78985
                          Major page faults:            0
                 Voluntary context switches:          770
