<?xml version="1.0" encoding="ISO-8859-1"?>
<modeling>
 <generator>
  <i name="program" type="string">vasp </i>
  <i name="version" type="string">6.3.2  </i>
  <i name="subversion" type="string">27Jun22 (build Oct 14 2022 12:13:54) complex                          parallel </i>
  <i name="platform" type="string">LinuxIFC </i>
  <i name="date" type="string">2023 04 03 </i>
  <i name="time" type="string">14:47:24 </i>
 </generator>
 <incar>
  <i type="string" name="PREC">Accurate</i>
  <i type="int" name="IALGO">    38</i>
  <i type="logical" name="ADDGRID"> T  </i>
  <i type="int" name="NELMIN">     5</i>
  <i type="int" name="IBRION">    -1</i>
  <i name="EDIFF">      0.00000001</i>
  <i name="ENCUT">    318.00000000</i>
  <i type="logical" name="LREAL"> F  </i>
  <i type="int" name="ISMEAR">     0</i>
  <i name="SIGMA">      0.02000000</i>
  <i type="logical" name="LWAVE"> F  </i>
  <i type="logical" name="LCHARG"> F  </i>
  <i type="string" name="GGA">Ps</i>
 </incar>
 <primitive_cell>
  <structure name="primitive_cell" >
   <crystal>
    <varray name="basis" >
     <v>      10.86914512      -0.00000000      -0.00000000 </v>
     <v>      -0.00000000      10.86914512       0.00000000 </v>
     <v>       0.00000000       0.00000000      10.86914512 </v>
    </varray>
    <i name="volume">   1284.06249692 </i>
    <varray name="rec_basis" >
     <v>       0.09200356       0.00000000      -0.00000000 </v>
     <v>       0.00000000       0.09200356      -0.00000000 </v>
     <v>       0.00000000      -0.00000000       0.09200356 </v>
    </varray>
   </crystal>
   <varray name="positions" >
    <v>       0.24907996       0.25000000       0.25000000 </v>
    <v>       0.75000000       0.25000000       0.25000000 </v>
    <v>       0.25000000       0.75000000       0.25000000 </v>
    <v>       0.75000000       0.75000000       0.25000000 </v>
    <v>       0.25000000       0.25000000       0.75000000 </v>
    <v>       0.75000000       0.25000000       0.75000000 </v>
    <v>       0.25000000       0.75000000       0.75000000 </v>
    <v>       0.75000000       0.75000000       0.75000000 </v>
    <v>       0.25000000       1.00000000       1.00000000 </v>
    <v>       0.75000000       1.00000000       1.00000000 </v>
    <v>       0.25000000       0.50000000       0.00000000 </v>
    <v>       0.75000000       0.50000000       1.00000000 </v>
    <v>       0.25000000       0.00000000       0.50000000 </v>
    <v>       0.75000000       1.00000000       0.50000000 </v>
    <v>       0.25000000       0.50000000       0.50000000 </v>
    <v>       0.75000000       0.50000000       0.50000000 </v>
    <v>       0.00092004       0.25000000       0.00000000 </v>
    <v>       0.50000000       0.25000000       1.00000000 </v>
    <v>       1.00000000       0.75000000       0.00000000 </v>
    <v>       0.50000000       0.75000000       0.00000000 </v>
    <v>       0.00000000       0.25000000       0.50000000 </v>
    <v>       0.50000000       0.25000000       0.50000000 </v>
    <v>       1.00000000       0.75000000       0.50000000 </v>
    <v>       0.50000000       0.75000000       0.50000000 </v>
    <v>       0.00000000       0.00000000       0.25000000 </v>
    <v>       0.50000000       1.00000000       0.25000000 </v>
    <v>       1.00000000       0.50000000       0.25000000 </v>
    <v>       0.50000000       0.50000000       0.25000000 </v>
    <v>       0.00000000       0.00000000       0.75000000 </v>
    <v>       0.50000000       0.00000000       0.75000000 </v>
    <v>       0.00000000       0.50000000       0.75000000 </v>
    <v>       0.50000000       0.50000000       0.75000000 </v>
    <v>       0.37500000       0.37500000       0.37500000 </v>
    <v>       0.87500000       0.37500000       0.37500000 </v>
    <v>       0.37500000       0.87500000       0.37500000 </v>
    <v>       0.87500000       0.87500000       0.37500000 </v>
    <v>       0.37500000       0.37500000       0.87500000 </v>
    <v>       0.87500000       0.37500000       0.87500000 </v>
    <v>       0.37500000       0.87500000       0.87500000 </v>
    <v>       0.87500000       0.87500000       0.87500000 </v>
    <v>       0.37500000       0.12500000       0.12500000 </v>
    <v>       0.87500000       0.12500000       0.12500000 </v>
    <v>       0.37500000       0.62500000       0.12500000 </v>
    <v>       0.87500000       0.62500000       0.12500000 </v>
    <v>       0.37500000       0.12500000       0.62500000 </v>
    <v>       0.87500000       0.12500000       0.62500000 </v>
    <v>       0.37500000       0.62500000       0.62500000 </v>
    <v>       0.87500000       0.62500000       0.62500000 </v>
    <v>       0.12500000       0.37500000       0.12500000 </v>
    <v>       0.62500000       0.37500000       0.12500000 </v>
    <v>       0.12500000       0.87500000       0.12500000 </v>
    <v>       0.62500000       0.87500000       0.12500000 </v>
    <v>       0.12500000       0.37500000       0.62500000 </v>
    <v>       0.62500000       0.37500000       0.62500000 </v>
    <v>       0.12500000       0.87500000       0.62500000 </v>
    <v>       0.62500000       0.87500000       0.62500000 </v>
    <v>       0.12500000       0.12500000       0.37500000 </v>
    <v>       0.62500000       0.12500000       0.37500000 </v>
    <v>       0.12500000       0.62500000       0.37500000 </v>
    <v>       0.62500000       0.62500000       0.37500000 </v>
    <v>       0.12500000       0.12500000       0.87500000 </v>
    <v>       0.62500000       0.12500000       0.87500000 </v>
    <v>       0.12500000       0.62500000       0.87500000 </v>
    <v>       0.62500000       0.62500000       0.87500000 </v>
   </varray>
  </structure>
  <varray name="primitive_index" >
   <v type="int" >        1 </v>
   <v type="int" >        2 </v>
   <v type="int" >        3 </v>
   <v type="int" >        4 </v>
   <v type="int" >        5 </v>
   <v type="int" >        6 </v>
   <v type="int" >        7 </v>
   <v type="int" >        8 </v>
   <v type="int" >        9 </v>
   <v type="int" >       10 </v>
   <v type="int" >       11 </v>
   <v type="int" >       12 </v>
   <v type="int" >       13 </v>
   <v type="int" >       14 </v>
   <v type="int" >       15 </v>
   <v type="int" >       16 </v>
   <v type="int" >       17 </v>
   <v type="int" >       18 </v>
   <v type="int" >       19 </v>
   <v type="int" >       20 </v>
   <v type="int" >       21 </v>
   <v type="int" >       22 </v>
   <v type="int" >       23 </v>
   <v type="int" >       24 </v>
   <v type="int" >       25 </v>
   <v type="int" >       26 </v>
   <v type="int" >       27 </v>
   <v type="int" >       28 </v>
   <v type="int" >       29 </v>
   <v type="int" >       30 </v>
   <v type="int" >       31 </v>
   <v type="int" >       32 </v>
   <v type="int" >       33 </v>
   <v type="int" >       34 </v>
   <v type="int" >       35 </v>
   <v type="int" >       36 </v>
   <v type="int" >       37 </v>
   <v type="int" >       38 </v>
   <v type="int" >       39 </v>
   <v type="int" >       40 </v>
   <v type="int" >       41 </v>
   <v type="int" >       42 </v>
   <v type="int" >       43 </v>
   <v type="int" >       44 </v>
   <v type="int" >       45 </v>
   <v type="int" >       46 </v>
   <v type="int" >       47 </v>
   <v type="int" >       48 </v>
   <v type="int" >       49 </v>
   <v type="int" >       50 </v>
   <v type="int" >       51 </v>
   <v type="int" >       52 </v>
   <v type="int" >       53 </v>
   <v type="int" >       54 </v>
   <v type="int" >       55 </v>
   <v type="int" >       56 </v>
   <v type="int" >       57 </v>
   <v type="int" >       58 </v>
   <v type="int" >       59 </v>
   <v type="int" >       60 </v>
   <v type="int" >       61 </v>
   <v type="int" >       62 </v>
   <v type="int" >       63 </v>
   <v type="int" >       64 </v>
  </varray>
 </primitive_cell>
 <kpoints>
  <generation param="Gamma">
   <v type="int" name="divisions">       2        2        2 </v>
   <v name="usershift">      0.00000000       0.00000000       0.00000000 </v>
   <v name="genvec1">      0.50000000      -0.00000000       0.00000000 </v>
   <v name="genvec2">     -0.00000000       0.50000000       0.00000000 </v>
   <v name="genvec3">     -0.00000000       0.00000000       0.50000000 </v>
   <v name="shift">      0.00000000       0.00000000       0.00000000 </v>
  </generation>
  <varray name="kpointlist" >
   <v>       0.00000000       0.00000000       0.00000000 </v>
   <v>       0.50000000       0.00000000       0.00000000 </v>
   <v>      -0.00000000       0.50000000       0.00000000 </v>
   <v>       0.00000000      -0.00000000       0.50000000 </v>
   <v>       0.50000000       0.50000000       0.00000000 </v>
   <v>       0.00000000       0.50000000       0.50000000 </v>
   <v>       0.50000000      -0.00000000       0.50000000 </v>
   <v>       0.50000000       0.50000000       0.50000000 </v>
  </varray>
  <varray name="weights" >
   <v>       0.12500000 </v>
   <v>       0.12500000 </v>
   <v>       0.12500000 </v>
   <v>       0.12500000 </v>
   <v>       0.12500000 </v>
   <v>       0.12500000 </v>
   <v>       0.12500000 </v>
   <v>       0.12500000 </v>
  </varray>
 </kpoints>
 <parameters>
  <separator name="general" >
   <i type="string" name="SYSTEM">unknown system</i>
   <i type="logical" name="LCOMPAT"> F  </i>
  </separator>
  <separator name="electronic" >
   <i type="string" name="PREC">accura</i>
   <i name="ENMAX">    318.00000000</i>
   <i name="ENAUG">    322.06900000</i>
   <i name="EDIFF">      0.00000001</i>
   <i type="int" name="IALGO">    38</i>
   <i type="int" name="IWAVPR">    10</i>
   <i type="int" name="NBANDS">   168</i>
   <i type="int" name="NBANDSLOW">    -1</i>
   <i type="int" name="NBANDSHIGH">    -1</i>
   <i name="NELECT">    256.00000000</i>
   <i type="int" name="TURBO">     0</i>
   <i type="int" name="IRESTART">     0</i>
   <i type="int" name="NREBOOT">     0</i>
   <i type="int" name="NMIN">     0</i>
   <i name="EREF">      0.00000000</i>
   <separator name="electronic smearing" >
    <i type="int" name="ISMEAR">     0</i>
    <i name="SIGMA">      0.02000000</i>
    <i name="KSPACING">      0.50000000</i>
    <i type="logical" name="KGAMMA"> T  </i>
    <i type="logical" name="KBLOWUP"> T  </i>
   </separator>
   <separator name="electronic projectors" >
    <i type="logical" name="LREAL"> F  </i>
    <v name="ROPT">      0.00000000</v>
    <i type="int" name="LMAXPAW">  -100</i>
    <i type="int" name="LMAXMIX">     2</i>
    <i type="logical" name="NLSPLINE"> F  </i>
   </separator>
   <separator name="electronic startup" >
    <i type="int" name="ISTART">     0</i>
    <i type="int" name="ICHARG">     2</i>
    <i type="int" name="INIWAV">     1</i>
   </separator>
   <separator name="electronic spin" >
    <i type="int" name="ISPIN">     1</i>
    <i type="logical" name="LNONCOLLINEAR"> F  </i>
    <v name="MAGMOM">      1.00000000      1.00000000      1.00000000      1.00000000      1.00000000      1.00000000      1.00000000      1.00000000      1.00000000      1.00000000      1.00000000      1.00000000      1.00000000      1.00000000      1.00000000      1.00000000      1.00000000      1.00000000      1.00000000      1.00000000
      1.00000000      1.00000000      1.00000000      1.00000000      1.00000000      1.00000000      1.00000000      1.00000000      1.00000000      1.00000000      1.00000000      1.00000000      1.00000000      1.00000000      1.00000000      1.00000000      1.00000000      1.00000000      1.00000000      1.00000000
      1.00000000      1.00000000      1.00000000      1.00000000      1.00000000      1.00000000      1.00000000      1.00000000      1.00000000      1.00000000      1.00000000      1.00000000      1.00000000      1.00000000      1.00000000      1.00000000      1.00000000      1.00000000      1.00000000      1.00000000
      1.00000000      1.00000000      1.00000000      1.00000000</v>
    <i name="NUPDOWN">     -1.00000000</i>
    <i type="logical" name="LSORBIT"> F  </i>
    <v name="SAXIS">      0.00000000      0.00000000      1.00000000</v>
    <i type="logical" name="LSPIRAL"> F  </i>
    <v name="QSPIRAL">      0.00000000      0.00000000      0.00000000</v>
    <i type="logical" name="LZEROZ"> F  </i>
   </separator>
   <separator name="electronic exchange-correlation" >
    <i type="logical" name="LASPH"> F  </i>
    <i type="logical" name="LMETAGGA"> F  </i>
   </separator>
   <separator name="electronic convergence" >
    <i type="int" name="NELM">    60</i>
    <i type="int" name="NELMDL">    -5</i>
    <i type="int" name="NELMIN">     5</i>
    <i name="ENINI">    318.00000000</i>
    <separator name="electronic convergence detail" >
     <i type="logical" name="LDIAG"> T  </i>
     <i type="logical" name="LSUBROT"> F  </i>
     <i name="WEIMIN">      0.00000000</i>
     <i name="EBREAK">      0.00000000</i>
     <i name="DEPER">      0.30000000</i>
     <i type="int" name="NRMM">     4</i>
     <i name="TIME">      0.40000000</i>
    </separator>
   </separator>
   <separator name="electronic mixer" >
    <i name="AMIX">      0.40000000</i>
    <i name="BMIX">      1.00000000</i>
    <i name="AMIN">      0.10000000</i>
    <i name="AMIX_MAG">      1.60000000</i>
    <i name="BMIX_MAG">      1.00000000</i>
    <separator name="electronic mixer details" >
     <i type="int" name="IMIX">     4</i>
     <i type="logical" name="MIXFIRST"> F  </i>
     <i type="int" name="MAXMIX">   -45</i>
     <i name="WC">    100.00000000</i>
     <i type="int" name="INIMIX">     1</i>
     <i type="int" name="MIXPRE">     1</i>
     <i type="int" name="MREMOVE">     5</i>
    </separator>
   </separator>
   <separator name="electronic dipolcorrection" >
    <i type="logical" name="LDIPOL"> F  </i>
    <i type="logical" name="LMONO"> F  </i>
    <i type="int" name="IDIPOL">     0</i>
    <i name="EPSILON">      1.00000000</i>
    <v name="DIPOL">   -100.00000000   -100.00000000   -100.00000000</v>
    <i name="EFIELD">      0.00000000</i>
   </separator>
  </separator>
  <separator name="grids" >
   <i type="int" name="NGX">    64</i>
   <i type="int" name="NGY">    64</i>
   <i type="int" name="NGZ">    64</i>
   <i type="int" name="NGXF">   128</i>
   <i type="int" name="NGYF">   128</i>
   <i type="int" name="NGZF">   128</i>
   <i type="logical" name="ADDGRID"> T  </i>
  </separator>
  <separator name="ionic" >
   <i type="int" name="NSW">     0</i>
   <i type="int" name="IBRION">    -1</i>
   <i type="int" name="MDALGO">     0</i>
   <i type="int" name="ISIF">     2</i>
   <i name="PSTRESS">      0.00000000</i>
   <i name="EDIFFG">      0.00000010</i>
   <i type="int" name="NFREE">     0</i>
   <i name="POTIM">      0.50000000</i>
   <i name="SMASS">     -3.00000000</i>
   <i name="SCALEE">      1.00000000</i>
  </separator>
  <separator name="ionic md" >
   <i name="TEBEG">      0.00010000</i>
   <i name="TEEND">      0.00010000</i>
   <i type="int" name="NBLOCK">     1</i>
   <i type="int" name="KBLOCK">     1</i>
   <i type="int" name="NPACO">   256</i>
   <i name="APACO">     10.00000000</i>
  </separator>
  <separator name="symmetry" >
   <i type="int" name="ISYM">     2</i>
   <i name="SYMPREC">      0.00001000</i>
  </separator>
  <separator name="dos" >
   <i type="int" name="LORBIT">     0</i>
   <v name="RWIGS">     -1.00000000</v>
   <i type="int" name="NEDOS">   301</i>
   <i name="EMIN">     10.00000000</i>
   <i name="EMAX">    -10.00000000</i>
   <i name="EFERMI">      0.00000000</i>
  </separator>
  <separator name="writing" >
   <i type="int" name="NWRITE">     2</i>
   <i type="logical" name="LWAVE"> F  </i>
   <i type="logical" name="LDOWNSAMPLE"> F  </i>
   <i type="logical" name="LCHARG"> F  </i>
   <i type="logical" name="LPARD"> F  </i>
   <i type="logical" name="LVTOT"> F  </i>
   <i type="logical" name="LVHAR"> F  </i>
   <i type="logical" name="LELF"> F  </i>
   <i type="logical" name="LOPTICS"> F  </i>
   <v name="STM">      0.00000000      0.00000000      0.00000000      0.00000000      0.00000000      0.00000000      0.00000000</v>
  </separator>
  <separator name="performance" >
   <i type="int" name="NPAR">     8</i>
   <i type="int" name="NSIM">     4</i>
   <i type="int" name="NBLK">    -1</i>
   <i type="logical" name="LPLANE"> T  </i>
   <i type="logical" name="LSCALAPACK"> T  </i>
   <i type="logical" name="LSCAAWARE"> F  </i>
   <i type="logical" name="LSCALU"> F  </i>
   <i type="logical" name="LASYNC"> F  </i>
   <i type="logical" name="LORBITALREAL"> F  </i>
  </separator>
  <separator name="miscellaneous" >
   <i type="int" name="IDIOT">     3</i>
   <i type="int" name="PHON_NSTRUCT">    -1</i>
   <i type="logical" name="LMUSIC"> F  </i>
   <v name="POMASS">     28.08500000</v>
   <v name="DARWINR">      0.00000000</v>
   <v name="DARWINV">      1.00000000</v>
   <i type="logical" name="LCORR"> T  </i>
  </separator>
  <i type="logical" name="GGA_COMPAT"> T  </i>
  <i type="logical" name="LBERRY"> F  </i>
  <i type="int" name="ICORELEVEL">     0</i>
  <i type="logical" name="LDAU"> F  </i>
  <i type="int" name="I_CONSTRAINED_M">     0</i>
  <separator name="electronic exchange-correlation" >
   <i type="string" name="GGA">PS</i>
   <i type="int" name="VOSKOWN">     0</i>
   <i type="logical" name="LHFCALC"> F  </i>
   <i type="string" name="PRECFOCK"></i>
   <i type="logical" name="LSYMGRAD"> F  </i>
   <i type="logical" name="LHFONE"> F  </i>
   <i type="logical" name="LRHFCALC"> F  </i>
   <i type="logical" name="LTHOMAS"> F  </i>
   <i type="logical" name="LMODELHF"> F  </i>
   <i type="logical" name="LFOCKACE"> F  </i>
   <i name="ENCUT4O">     -1.00000000</i>
   <i type="int" name="EXXOEP">     0</i>
   <i type="int" name="FOURORBIT">     0</i>
   <i name="AEXX">      0.00000000</i>
   <i name="HFALPHA">      0.00000000</i>
   <i name="MCALPHA">      0.00000000</i>
   <i name="ALDAX">      1.00000000</i>
   <i name="AGGAX">      1.00000000</i>
   <i name="ALDAC">      1.00000000</i>
   <i name="AGGAC">      1.00000000</i>
   <i type="int" name="NKREDX">     1</i>
   <i type="int" name="NKREDY">     1</i>
   <i type="int" name="NKREDZ">     1</i>
   <i type="logical" name="SHIFTRED"> F  </i>
   <i type="logical" name="ODDONLY"> F  </i>
   <i type="logical" name="EVENONLY"> F  </i>
   <i type="int" name="LMAXFOCK">     0</i>
   <i type="int" name="NMAXFOCKAE">     0</i>
   <i type="logical" name="LFOCKAEDFT"> F  </i>
   <i name="HFSCREEN">      0.00000000</i>
   <i name="HFSCREENC">      0.00000000</i>
   <i type="int" name="NBANDSGWLOW">     0</i>
  </separator>
  <separator name="vdW DFT" >
   <i type="logical" name="LUSE_VDW"> F  </i>
   <i name="Zab_VDW">     -0.84910000</i>
   <i name="PARAM1">      0.12340000</i>
   <i name="PARAM2">      1.00000000</i>
   <i name="PARAM3">      0.00000000</i>
  </separator>
  <separator name="model GW" >
   <i type="int" name="MODEL_GW">     0</i>
   <i name="MODEL_EPS0">     12.03808591</i>
   <i name="MODEL_ALPHA">      1.00000000</i>
  </separator>
  <separator name="linear response parameters" >
   <i type="logical" name="LEPSILON"> F  </i>
   <i type="logical" name="LRPA"> F  </i>
   <i type="logical" name="LNABLA"> F  </i>
   <i type="logical" name="LVEL"> F  </i>
   <i name="CSHIFT">      0.10000000</i>
   <i name="OMEGAMAX">     -1.00000000</i>
   <i name="DEG_THRESHOLD">      0.00200000</i>
   <i name="RTIME">     -0.10000000</i>
   <i name="WPLASMAI">      0.00000000</i>
   <v name="DFIELD">      0.00000000      0.00000000      0.00000000</v>
   <v name="WPLASMA">      0.00000000      0.00000000      0.00000000      0.00000000      0.00000000      0.00000000      0.00000000      0.00000000      0.00000000</v>
  </separator>
  <separator name="orbital magnetization" >
   <i type="logical" name="NUCIND"> F  </i>
   <v name="MAGPOS">      0.00000000      0.00000000      0.00000000</v>
   <i type="logical" name="LNICSALL"> T  </i>
   <i type="logical" name="ORBITALMAG"> F  </i>
   <i type="logical" name="LMAGBLOCH"> F  </i>
   <i type="logical" name="LCHIMAG"> F  </i>
   <i type="logical" name="LGAUGE"> T  </i>
   <i type="int" name="MAGATOM">     0</i>
   <v name="MAGDIPOL">      0.00000000      0.00000000      0.00000000</v>
   <v name="AVECCONST">      0.00000000      0.00000000      0.00000000</v>
  </separator>
  <separator name="response functions" >
   <i type="logical" name="LFINITE_TEMPERATURE"> F  </i>
   <i type="logical" name="LADDER"> F  </i>
   <i type="logical" name="LRPAFORCE"> F  </i>
   <i type="logical" name="LFXC"> F  </i>
   <i type="logical" name="LHARTREE"> T  </i>
   <i type="int" name="IBSE">     0</i>
   <v type="int" name="KPOINT">    -1     0     0     0</v>
   <i type="logical" name="LTCTC"> F  </i>
   <i type="logical" name="LTCTE"> F  </i>
   <i type="logical" name="LTETE"> F  </i>
   <i type="logical" name="LTRIPLET"> F  </i>
   <i type="logical" name="LFXCEPS"> F  </i>
   <i type="logical" name="LFXHEG"> F  </i>
   <i type="int" name="NATURALO">     2</i>
   <i type="logical" name="LHOLEGF"> F  </i>
   <i type="logical" name="L2ORDER"> F  </i>
   <i type="logical" name="LDMP1"> F  </i>
   <i type="logical" name="LMP2LT"> F  </i>
   <i type="logical" name="LSMP2LT"> F  </i>
   <i type="logical" name="LGWLF"> F  </i>
   <i name="ENCUTGW">     -2.00000000</i>
   <i name="ENCUTGWSOFT">     -2.00000000</i>
   <i name="ENCUTLF">     -1.00000000</i>
   <i type="logical" name="LESF_SPLINES"> F  </i>
   <i type="int" name="LMAXMP2">    -1</i>
   <i name="SCISSOR">      0.00000000</i>
   <i type="int" name="NOMEGA">     0</i>
   <i type="int" name="NOMEGAR">     0</i>
   <i type="int" name="NBANDSGW">    -1</i>
   <i type="int" name="NBANDSO">    -1</i>
   <i type="int" name="NBANDSV">    -1</i>
   <i type="int" name="NELMGW">     1</i>
   <i type="int" name="NELMHF">     1</i>
   <i type="int" name="DIM">     3</i>
   <i type="int" name="IESPILON">     4</i>
   <i type="int" name="ANTIRES">     0</i>
   <i name="OMEGAMAX">    -30.00000000</i>
   <i name="OMEGAMIN">    -30.00000000</i>
   <i name="OMEGATL">   -200.00000000</i>
   <i type="int" name="OMEGAGRID">     0</i>
   <i name="CSHIFT">     -0.10000000</i>
   <i type="logical" name="LSELFENERGY"> F  </i>
   <i type="logical" name="LSPECTRAL"> F  </i>
   <i type="logical" name="LSPECTRALGW"> F  </i>
   <i type="logical" name="LSINGLES"> F  </i>
   <i type="logical" name="LFERMIGW"> F  </i>
   <i type="logical" name="ODDONLYGW"> F  </i>
   <i type="logical" name="EVENONLYGW"> F  </i>
   <i type="int" name="NKREDLFX">     1</i>
   <i type="int" name="NKREDLFY">     1</i>
   <i type="int" name="NKREDLFZ">     1</i>
   <i type="int" name="MAXMEM">  2800</i>
   <i type="int" name="TELESCOPE">     0</i>
   <i type="int" name="NTAUPAR">    -1</i>
   <i type="int" name="NOMEGAPAR">    -1</i>
   <i name="DAMP_NEWTON">      0.80000001</i>
   <i name="LAMBDA">      1.00000000</i>
  </separator>
  <separator name="External order field" >
   <i name="OFIELD_KAPPA">      0.00000000</i>
   <v name="OFIELD_K">      0.00000000      0.00000000      0.00000000</v>
   <i name="OFIELD_Q6_NEAR">      0.00000000</i>
   <i name="OFIELD_Q6_FAR">      0.00000000</i>
   <i name="OFIELD_A">      0.00000000</i>
  </separator>
  <separator name="optional k-points parameters" >
   <i type="int" name="KPOINTS_OPT_MODE">     1</i>
   <i type="logical" name="LKPOINTS_OPT"> F  </i>
  </separator>
 </parameters>
 <atominfo>
  <atoms>      64 </atoms>
  <types>       1 </types>
  <array name="atoms" >
   <dimension dim="1">ion</dimension>
   <field type="string">element</field>
   <field type="int">atomtype</field>
   <set>
    <rc><c>Si</c><c>   1</c></rc>
    <rc><c>Si</c><c>   1</c></rc>
    <rc><c>Si</c><c>   1</c></rc>
    <rc><c>Si</c><c>   1</c></rc>
    <rc><c>Si</c><c>   1</c></rc>
    <rc><c>Si</c><c>   1</c></rc>
    <rc><c>Si</c><c>   1</c></rc>
    <rc><c>Si</c><c>   1</c></rc>
    <rc><c>Si</c><c>   1</c></rc>
    <rc><c>Si</c><c>   1</c></rc>
    <rc><c>Si</c><c>   1</c></rc>
    <rc><c>Si</c><c>   1</c></rc>
    <rc><c>Si</c><c>   1</c></rc>
    <rc><c>Si</c><c>   1</c></rc>
    <rc><c>Si</c><c>   1</c></rc>
    <rc><c>Si</c><c>   1</c></rc>
    <rc><c>Si</c><c>   1</c></rc>
    <rc><c>Si</c><c>   1</c></rc>
    <rc><c>Si</c><c>   1</c></rc>
    <rc><c>Si</c><c>   1</c></rc>
    <rc><c>Si</c><c>   1</c></rc>
    <rc><c>Si</c><c>   1</c></rc>
    <rc><c>Si</c><c>   1</c></rc>
    <rc><c>Si</c><c>   1</c></rc>
    <rc><c>Si</c><c>   1</c></rc>
    <rc><c>Si</c><c>   1</c></rc>
    <rc><c>Si</c><c>   1</c></rc>
    <rc><c>Si</c><c>   1</c></rc>
    <rc><c>Si</c><c>   1</c></rc>
    <rc><c>Si</c><c>   1</c></rc>
    <rc><c>Si</c><c>   1</c></rc>
    <rc><c>Si</c><c>   1</c></rc>
    <rc><c>Si</c><c>   1</c></rc>
    <rc><c>Si</c><c>   1</c></rc>
    <rc><c>Si</c><c>   1</c></rc>
    <rc><c>Si</c><c>   1</c></rc>
    <rc><c>Si</c><c>   1</c></rc>
    <rc><c>Si</c><c>   1</c></rc>
    <rc><c>Si</c><c>   1</c></rc>
    <rc><c>Si</c><c>   1</c></rc>
    <rc><c>Si</c><c>   1</c></rc>
    <rc><c>Si</c><c>   1</c></rc>
    <rc><c>Si</c><c>   1</c></rc>
    <rc><c>Si</c><c>   1</c></rc>
    <rc><c>Si</c><c>   1</c></rc>
    <rc><c>Si</c><c>   1</c></rc>
    <rc><c>Si</c><c>   1</c></rc>
    <rc><c>Si</c><c>   1</c></rc>
    <rc><c>Si</c><c>   1</c></rc>
    <rc><c>Si</c><c>   1</c></rc>
    <rc><c>Si</c><c>   1</c></rc>
    <rc><c>Si</c><c>   1</c></rc>
    <rc><c>Si</c><c>   1</c></rc>
    <rc><c>Si</c><c>   1</c></rc>
    <rc><c>Si</c><c>   1</c></rc>
    <rc><c>Si</c><c>   1</c></rc>
    <rc><c>Si</c><c>   1</c></rc>
    <rc><c>Si</c><c>   1</c></rc>
    <rc><c>Si</c><c>   1</c></rc>
    <rc><c>Si</c><c>   1</c></rc>
    <rc><c>Si</c><c>   1</c></rc>
    <rc><c>Si</c><c>   1</c></rc>
    <rc><c>Si</c><c>   1</c></rc>
    <rc><c>Si</c><c>   1</c></rc>
   </set>
  </array>
  <array name="atomtypes" >
   <dimension dim="1">type</dimension>
   <field type="int">atomspertype</field>
   <field type="string">element</field>
   <field>mass</field>
   <field>valence</field>
   <field type="string">pseudopotential</field>
   <set>
    <rc><c>  64</c><c>Si</c><c>     28.08500000</c><c>      4.00000000</c><c>  PAW_PBE Si 05Jan2001                  </c></rc>
   </set>
  </array>
 </atominfo>
 <structure name="initialpos" >
  <crystal>
   <varray name="basis" >
    <v>      10.86914512      -0.00000000      -0.00000000 </v>
    <v>      -0.00000000      10.86914512       0.00000000 </v>
    <v>       0.00000000       0.00000000      10.86914512 </v>
   </varray>
   <i name="volume">   1284.06249692 </i>
   <varray name="rec_basis" >
    <v>       0.09200356       0.00000000      -0.00000000 </v>
    <v>       0.00000000       0.09200356      -0.00000000 </v>
    <v>       0.00000000      -0.00000000       0.09200356 </v>
   </varray>
  </crystal>
  <varray name="positions" >
   <v>       0.24907996       0.25000000       0.25000000 </v>
   <v>       0.75000000       0.25000000       0.25000000 </v>
   <v>       0.25000000       0.75000000       0.25000000 </v>
   <v>       0.75000000       0.75000000       0.25000000 </v>
   <v>       0.25000000       0.25000000       0.75000000 </v>
   <v>       0.75000000       0.25000000       0.75000000 </v>
   <v>       0.25000000       0.75000000       0.75000000 </v>
   <v>       0.75000000       0.75000000       0.75000000 </v>
   <v>       0.25000000       0.00000000       0.00000000 </v>
   <v>       0.75000000       0.00000000       0.00000000 </v>
   <v>       0.25000000       0.50000000       0.00000000 </v>
   <v>       0.75000000       0.50000000       0.00000000 </v>
   <v>       0.25000000       0.00000000       0.50000000 </v>
   <v>       0.75000000       0.00000000       0.50000000 </v>
   <v>       0.25000000       0.50000000       0.50000000 </v>
   <v>       0.75000000       0.50000000       0.50000000 </v>
   <v>       0.00092004       0.25000000       0.00000000 </v>
   <v>       0.50000000       0.25000000       0.00000000 </v>
   <v>       0.00000000       0.75000000       0.00000000 </v>
   <v>       0.50000000       0.75000000       0.00000000 </v>
   <v>       0.00000000       0.25000000       0.50000000 </v>
   <v>       0.50000000       0.25000000       0.50000000 </v>
   <v>       0.00000000       0.75000000       0.50000000 </v>
   <v>       0.50000000       0.75000000       0.50000000 </v>
   <v>       0.00000000       0.00000000       0.25000000 </v>
   <v>       0.50000000       0.00000000       0.25000000 </v>
   <v>       0.00000000       0.50000000       0.25000000 </v>
   <v>       0.50000000       0.50000000       0.25000000 </v>
   <v>       0.00000000       0.00000000       0.75000000 </v>
   <v>       0.50000000       0.00000000       0.75000000 </v>
   <v>       0.00000000       0.50000000       0.75000000 </v>
   <v>       0.50000000       0.50000000       0.75000000 </v>
   <v>       0.37500000       0.37500000       0.37500000 </v>
   <v>       0.87500000       0.37500000       0.37500000 </v>
   <v>       0.37500000       0.87500000       0.37500000 </v>
   <v>       0.87500000       0.87500000       0.37500000 </v>
   <v>       0.37500000       0.37500000       0.87500000 </v>
   <v>       0.87500000       0.37500000       0.87500000 </v>
   <v>       0.37500000       0.87500000       0.87500000 </v>
   <v>       0.87500000       0.87500000       0.87500000 </v>
   <v>       0.37500000       0.12500000       0.12500000 </v>
   <v>       0.87500000       0.12500000       0.12500000 </v>
   <v>       0.37500000       0.62500000       0.12500000 </v>
   <v>       0.87500000       0.62500000       0.12500000 </v>
   <v>       0.37500000       0.12500000       0.62500000 </v>
   <v>       0.87500000       0.12500000       0.62500000 </v>
   <v>       0.37500000       0.62500000       0.62500000 </v>
   <v>       0.87500000       0.62500000       0.62500000 </v>
   <v>       0.12500000       0.37500000       0.12500000 </v>
   <v>       0.62500000       0.37500000       0.12500000 </v>
   <v>       0.12500000       0.87500000       0.12500000 </v>
   <v>       0.62500000       0.87500000       0.12500000 </v>
   <v>       0.12500000       0.37500000       0.62500000 </v>
   <v>       0.62500000       0.37500000       0.62500000 </v>
   <v>       0.12500000       0.87500000       0.62500000 </v>
   <v>       0.62500000       0.87500000       0.62500000 </v>
   <v>       0.12500000       0.12500000       0.37500000 </v>
   <v>       0.62500000       0.12500000       0.37500000 </v>
   <v>       0.12500000       0.62500000       0.37500000 </v>
   <v>       0.62500000       0.62500000       0.37500000 </v>
   <v>       0.12500000       0.12500000       0.87500000 </v>
   <v>       0.62500000       0.12500000       0.87500000 </v>
   <v>       0.12500000       0.62500000       0.87500000 </v>
   <v>       0.62500000       0.62500000       0.87500000 </v>
  </varray>
 </structure>
 <calculation>
  <scstep>
   <time name="dav">    2.29    2.30</time>
   <time name="total">    2.34    2.35</time>
   <energy>
    <i name="alphaZ">    107.38120932 </i>
    <i name="ewald">  -7307.87507298 </i>
    <i name="hartreedc">   -353.25118854 </i>
    <i name="XCdc">   -558.85370484 </i>
    <i name="pawpsdc">   5598.62625415 </i>
    <i name="pawaedc">  -4492.17844134 </i>
    <i name="eentropy">     -0.00319175 </i>
    <i name="bandstr">    892.40004484 </i>
    <i name="atom">   6564.76702419 </i>
    <i name="e_fr_energy">    451.01293305 </i>
    <i name="e_wo_entrp">    451.01612481 </i>
    <i name="e_0_energy">    451.01452893 </i>
   </energy>
  </scstep>
  <scstep>
   <time name="dav">    2.63    2.64</time>
   <time name="total">    2.63    2.64</time>
   <energy>
    <i name="e_fr_energy">   -322.07176650 </i>
    <i name="e_wo_entrp">   -322.07176650 </i>
    <i name="e_0_energy">   -322.07176650 </i>
   </energy>
  </scstep>
  <scstep>
   <time name="dav">    2.67    2.69</time>
   <time name="total">    2.68    2.69</time>
   <energy>
    <i name="e_fr_energy">   -373.41455077 </i>
    <i name="e_wo_entrp">   -373.41455077 </i>
    <i name="e_0_energy">   -373.41455077 </i>
   </energy>
  </scstep>
  <scstep>
   <time name="dav">    2.65    2.67</time>
   <time name="total">    2.65    2.67</time>
   <energy>
    <i name="e_fr_energy">   -374.60133260 </i>
    <i name="e_wo_entrp">   -374.60133260 </i>
    <i name="e_0_energy">   -374.60133260 </i>
   </energy>
  </scstep>
  <scstep>
   <time name="dav">    2.60    2.61</time>
   <time name="total">    2.70    2.71</time>
   <energy>
    <i name="e_fr_energy">   -374.64066481 </i>
    <i name="e_wo_entrp">   -374.64066481 </i>
    <i name="e_0_energy">   -374.64066481 </i>
   </energy>
  </scstep>
  <scstep>
   <time name="dav">    2.51    2.53</time>
   <time name="total">    2.66    2.67</time>
   <energy>
    <i name="e_fr_energy">   -369.72156089 </i>
    <i name="e_wo_entrp">   -369.72156089 </i>
    <i name="e_0_energy">   -369.72156089 </i>
   </energy>
  </scstep>
  <scstep>
   <time name="dav">    2.52    2.53</time>
   <time name="total">    2.66    2.67</time>
   <energy>
    <i name="e_fr_energy">   -367.49036768 </i>
    <i name="e_wo_entrp">   -367.49036768 </i>
    <i name="e_0_energy">   -367.49036768 </i>
   </energy>
  </scstep>
  <scstep>
   <time name="dav">    2.52    2.54</time>
   <time name="total">    2.66    2.68</time>
   <energy>
    <i name="e_fr_energy">   -367.49747044 </i>
    <i name="e_wo_entrp">   -367.49747044 </i>
    <i name="e_0_energy">   -367.49747044 </i>
   </energy>
  </scstep>
  <scstep>
   <time name="dav">    2.67    2.68</time>
   <time name="total">    2.81    2.82</time>
   <energy>
    <i name="e_fr_energy">   -367.49895780 </i>
    <i name="e_wo_entrp">   -367.49895780 </i>
    <i name="e_0_energy">   -367.49895780 </i>
   </energy>
  </scstep>
  <scstep>
   <time name="dav">    2.48    2.49</time>
   <time name="total">    2.62    2.63</time>
   <energy>
    <i name="e_fr_energy">   -367.49981199 </i>
    <i name="e_wo_entrp">   -367.49981199 </i>
    <i name="e_0_energy">   -367.49981199 </i>
   </energy>
  </scstep>
  <scstep>
   <time name="dav">    2.55    2.56</time>
   <time name="total">    2.69    2.70</time>
   <energy>
    <i name="e_fr_energy">   -367.49984928 </i>
    <i name="e_wo_entrp">   -367.49984928 </i>
    <i name="e_0_energy">   -367.49984928 </i>
   </energy>
  </scstep>
  <scstep>
   <time name="dav">    2.63    2.64</time>
   <time name="total">    2.77    2.78</time>
   <energy>
    <i name="e_fr_energy">   -367.49985167 </i>
    <i name="e_wo_entrp">   -367.49985167 </i>
    <i name="e_0_energy">   -367.49985167 </i>
   </energy>
  </scstep>
  <scstep>
   <time name="dav">    2.48    2.49</time>
   <time name="total">    2.62    2.63</time>
   <energy>
    <i name="e_fr_energy">   -367.49985070 </i>
    <i name="e_wo_entrp">   -367.49985070 </i>
    <i name="e_0_energy">   -367.49985070 </i>
   </energy>
  </scstep>
  <scstep>
   <time name="dav">    2.35    2.36</time>
   <time name="total">    2.49    2.50</time>
   <energy>
    <i name="e_fr_energy">   -367.49985050 </i>
    <i name="e_wo_entrp">   -367.49985050 </i>
    <i name="e_0_energy">   -367.49985050 </i>
   </energy>
  </scstep>
  <scstep>
   <time name="dav">    1.76    1.77</time>
   <time name="total">    1.90    1.91</time>
   <energy>
    <i name="e_fr_energy">   -367.49985049 </i>
    <i name="e_wo_entrp">   -367.49985049 </i>
    <i name="e_0_energy">   -367.49985049 </i>
   </energy>
  </scstep>
  <scstep>
   <time name="dav">    1.72    1.73</time>
   <time name="total">    1.77    1.78</time>
   <energy>
    <i name="alphaZ">    107.38120932 </i>
    <i name="ewald">  -7307.87507298 </i>
    <i name="hartreedc">   -468.78619630 </i>
    <i name="XCdc">   -539.35382875 </i>
    <i name="pawpsdc">  28474.84744107 </i>
    <i name="pawaedc"> -27375.27418658 </i>
    <i name="eentropy">     -0.00000000 </i>
    <i name="bandstr">    176.79375955 </i>
    <i name="atom">   6564.76702419 </i>
    <i name="e_fr_energy">   -367.49985048 </i>
    <i name="e_wo_entrp">   -367.49985048 </i>
    <i name="e_0_energy">   -367.49985048 </i>
   </energy>
  </scstep>
  <structure>
   <crystal>
    <varray name="basis" >
     <v>      10.86914512      -0.00000000      -0.00000000 </v>
     <v>      -0.00000000      10.86914512       0.00000000 </v>
     <v>       0.00000000       0.00000000      10.86914512 </v>
    </varray>
    <i name="volume">   1284.06249692 </i>
    <varray name="rec_basis" >
     <v>       0.09200356       0.00000000      -0.00000000 </v>
     <v>       0.00000000       0.09200356      -0.00000000 </v>
     <v>       0.00000000      -0.00000000       0.09200356 </v>
    </varray>
   </crystal>
   <varray name="positions" >
    <v>       0.24907996       0.25000000       0.25000000 </v>
    <v>       0.75000000       0.25000000       0.25000000 </v>
    <v>       0.25000000       0.75000000       0.25000000 </v>
    <v>       0.75000000       0.75000000       0.25000000 </v>
    <v>       0.25000000       0.25000000       0.75000000 </v>
    <v>       0.75000000       0.25000000       0.75000000 </v>
    <v>       0.25000000       0.75000000       0.75000000 </v>
    <v>       0.75000000       0.75000000       0.75000000 </v>
    <v>       0.25000000       0.00000000       0.00000000 </v>
    <v>       0.75000000       0.00000000       0.00000000 </v>
    <v>       0.25000000       0.50000000       0.00000000 </v>
    <v>       0.75000000       0.50000000       0.00000000 </v>
    <v>       0.25000000       0.00000000       0.50000000 </v>
    <v>       0.75000000       0.00000000       0.50000000 </v>
    <v>       0.25000000       0.50000000       0.50000000 </v>
    <v>       0.75000000       0.50000000       0.50000000 </v>
    <v>       0.00092004       0.25000000       0.00000000 </v>
    <v>       0.50000000       0.25000000       0.00000000 </v>
    <v>       0.00000000       0.75000000       0.00000000 </v>
    <v>       0.50000000       0.75000000       0.00000000 </v>
    <v>       0.00000000       0.25000000       0.50000000 </v>
    <v>       0.50000000       0.25000000       0.50000000 </v>
    <v>       0.00000000       0.75000000       0.50000000 </v>
    <v>       0.50000000       0.75000000       0.50000000 </v>
    <v>       0.00000000       0.00000000       0.25000000 </v>
    <v>       0.50000000       0.00000000       0.25000000 </v>
    <v>       0.00000000       0.50000000       0.25000000 </v>
    <v>       0.50000000       0.50000000       0.25000000 </v>
    <v>       0.00000000       0.00000000       0.75000000 </v>
    <v>       0.50000000       0.00000000       0.75000000 </v>
    <v>       0.00000000       0.50000000       0.75000000 </v>
    <v>       0.50000000       0.50000000       0.75000000 </v>
    <v>       0.37500000       0.37500000       0.37500000 </v>
    <v>       0.87500000       0.37500000       0.37500000 </v>
    <v>       0.37500000       0.87500000       0.37500000 </v>
    <v>       0.87500000       0.87500000       0.37500000 </v>
    <v>       0.37500000       0.37500000       0.87500000 </v>
    <v>       0.87500000       0.37500000       0.87500000 </v>
    <v>       0.37500000       0.87500000       0.87500000 </v>
    <v>       0.87500000       0.87500000       0.87500000 </v>
    <v>       0.37500000       0.12500000       0.12500000 </v>
    <v>       0.87500000       0.12500000       0.12500000 </v>
    <v>       0.37500000       0.62500000       0.12500000 </v>
    <v>       0.87500000       0.62500000       0.12500000 </v>
    <v>       0.37500000       0.12500000       0.62500000 </v>
    <v>       0.87500000       0.12500000       0.62500000 </v>
    <v>       0.37500000       0.62500000       0.62500000 </v>
    <v>       0.87500000       0.62500000       0.62500000 </v>
    <v>       0.12500000       0.37500000       0.12500000 </v>
    <v>       0.62500000       0.37500000       0.12500000 </v>
    <v>       0.12500000       0.87500000       0.12500000 </v>
    <v>       0.62500000       0.87500000       0.12500000 </v>
    <v>       0.12500000       0.37500000       0.62500000 </v>
    <v>       0.62500000       0.37500000       0.62500000 </v>
    <v>       0.12500000       0.87500000       0.62500000 </v>
    <v>       0.62500000       0.87500000       0.62500000 </v>
    <v>       0.12500000       0.12500000       0.37500000 </v>
    <v>       0.62500000       0.12500000       0.37500000 </v>
    <v>       0.12500000       0.62500000       0.37500000 </v>
    <v>       0.62500000       0.62500000       0.37500000 </v>
    <v>       0.12500000       0.12500000       0.87500000 </v>
    <v>       0.62500000       0.12500000       0.87500000 </v>
    <v>       0.12500000       0.62500000       0.87500000 </v>
    <v>       0.62500000       0.62500000       0.87500000 </v>
   </varray>
  </structure>
  <varray name="forces" >
   <v>       0.13402609       0.00094492       0.00188490 </v>
   <v>       0.00167875       0.00094302      -0.00185241 </v>
   <v>      -0.00015455       0.00007685      -0.00060173 </v>
   <v>       0.00027918       0.00007736       0.00060337 </v>
   <v>       0.00139386      -0.00095303      -0.00186482 </v>
   <v>       0.00181199      -0.00094250       0.00185295 </v>
   <v>       0.00425439      -0.00007674       0.00060188 </v>
   <v>       0.00010101      -0.00007665      -0.00060396 </v>
   <v>       0.00614503      -0.00280788      -0.00189589 </v>
   <v>       0.00189726       0.00177613      -0.00101994 </v>
   <v>       0.00615469       0.00091673       0.00190828 </v>
   <v>       0.00189880      -0.00192876       0.00101818 </v>
   <v>       0.00460314       0.00155510      -0.00103155 </v>
   <v>       0.00036624      -0.00052779      -0.00015328 </v>
   <v>       0.00459517       0.00034100       0.00101815 </v>
   <v>       0.00036388       0.00067999       0.00015399 </v>
   <v>      -0.13402609       0.00094492      -0.00188490 </v>
   <v>      -0.00167875       0.00094302       0.00185241 </v>
   <v>       0.00015455       0.00007685       0.00060173 </v>
   <v>      -0.00027918       0.00007736      -0.00060337 </v>
   <v>      -0.00139386      -0.00095303       0.00186482 </v>
   <v>      -0.00181199      -0.00094250      -0.00185295 </v>
   <v>      -0.00425439      -0.00007674      -0.00060188 </v>
   <v>      -0.00010101      -0.00007665       0.00060396 </v>
   <v>      -0.00614503      -0.00280788       0.00189589 </v>
   <v>      -0.00189726       0.00177613       0.00101994 </v>
   <v>      -0.00615469       0.00091673      -0.00190828 </v>
   <v>      -0.00189880      -0.00192876      -0.00101818 </v>
   <v>      -0.00460314       0.00155510       0.00103155 </v>
   <v>      -0.00036624      -0.00052779       0.00015328 </v>
   <v>      -0.00459517       0.00034100      -0.00101815 </v>
   <v>      -0.00036388       0.00067999      -0.00015399 </v>
   <v>      -0.03196327      -0.02265385      -0.02218048 </v>
   <v>      -0.00042299      -0.00074902      -0.00000161 </v>
   <v>       0.00033259      -0.00060867      -0.00014061 </v>
   <v>       0.00185639      -0.00046881      -0.00000479 </v>
   <v>       0.00042299      -0.00074902       0.00000161 </v>
   <v>       0.03196327      -0.02265385       0.02218048 </v>
   <v>      -0.00185639      -0.00046881       0.00000479 </v>
   <v>      -0.00033259      -0.00060867       0.00014061 </v>
   <v>      -0.03227198       0.02273946       0.02205746 </v>
   <v>       0.03227198       0.02273946      -0.02205746 </v>
   <v>       0.00073444       0.00055576       0.00015363 </v>
   <v>      -0.00073444       0.00055576      -0.00015363 </v>
   <v>       0.00073435       0.00066456       0.00012187 </v>
   <v>      -0.00073435       0.00066456      -0.00012187 </v>
   <v>      -0.00225857       0.00052214      -0.00001819 </v>
   <v>       0.00225857       0.00052214       0.00001819 </v>
   <v>      -0.00000000       0.04601109       0.00000000 </v>
   <v>      -0.00000000       0.00068158      -0.00000000 </v>
   <v>      -0.00000000       0.00068447      -0.00000000 </v>
   <v>      -0.00000000       0.00042458      -0.00000000 </v>
   <v>      -0.00000000       0.00081304      -0.00000000 </v>
   <v>      -0.00000000       0.00050164      -0.00000000 </v>
   <v>      -0.00000000       0.00050569      -0.00000000 </v>
   <v>      -0.00000000       0.00054141      -0.00000000 </v>
   <v>      -0.03300421      -0.02341017       0.02266170 </v>
   <v>       0.00030660      -0.00059195       0.00012781 </v>
   <v>       0.00260473      -0.00059539       0.00015363 </v>
   <v>      -0.00039668      -0.00048356      -0.00002061 </v>
   <v>       0.03300421      -0.02341017      -0.02266170 </v>
   <v>      -0.00030660      -0.00059195      -0.00012781 </v>
   <v>      -0.00260473      -0.00059539      -0.00015363 </v>
   <v>       0.00039668      -0.00048356       0.00002061 </v>
  </varray>
  <varray name="stress" >
   <v>      -0.03332572       0.00000000       0.00001416 </v>
   <v>       0.00000000      -0.02860100      -0.00000000 </v>
   <v>       0.00001418      -0.00000000      -0.02859420 </v>
  </varray>
  <energy>
   <i name="e_fr_energy">   -367.49985048 </i>
   <i name="e_wo_entrp">   -367.49985048 </i>
   <i name="e_0_energy">   -367.49985048 </i>
  </energy>
  <time name="totalsc">   44.08   44.32</time>
  <eigenvalues>
   <array>
    <dimension dim="1">band</dimension>
    <dimension dim="2">kpoint</dimension>
    <dimension dim="3">spin</dimension>
    <field>eigene</field>
    <field>occ</field>
    <set>
     <set comment="spin 1">
      <set comment="kpoint 1">
       <r>   -6.2055    1.0000 </r>
       <r>   -5.1245    1.0000 </r>
       <r>   -5.1219    1.0000 </r>
       <r>   -5.1217    1.0000 </r>
       <r>   -5.1208    1.0000 </r>
       <r>   -5.1201    1.0000 </r>
       <r>   -5.1187    1.0000 </r>
       <r>   -4.1611    1.0000 </r>
       <r>   -4.1583    1.0000 </r>
       <r>   -4.1564    1.0000 </r>
       <r>   -4.1553    1.0000 </r>
       <r>   -4.1552    1.0000 </r>
       <r>   -4.1550    1.0000 </r>
       <r>   -4.1550    1.0000 </r>
       <r>   -4.1548    1.0000 </r>
       <r>   -4.1542    1.0000 </r>
       <r>   -4.1533    1.0000 </r>
       <r>   -4.1525    1.0000 </r>
       <r>   -4.1495    1.0000 </r>
       <r>   -3.8623    1.0000 </r>
       <r>   -3.8623    1.0000 </r>
       <r>   -3.8590    1.0000 </r>
       <r>   -3.8590    1.0000 </r>
       <r>   -2.0544    1.0000 </r>
       <r>   -2.0540    1.0000 </r>
       <r>   -2.0520    1.0000 </r>
       <r>   -2.0519    1.0000 </r>
       <r>   -2.0500    1.0000 </r>
       <r>   -2.0495    1.0000 </r>
       <r>   -1.8871    1.0000 </r>
       <r>   -1.8860    1.0000 </r>
       <r>   -1.8857    1.0000 </r>
       <r>   -1.8832    1.0000 </r>
       <r>   -1.8830    1.0000 </r>
       <r>   -1.8827    1.0000 </r>
       <r>   -1.8826    1.0000 </r>
       <r>   -1.8823    1.0000 </r>
       <r>   -1.8813    1.0000 </r>
       <r>   -1.8808    1.0000 </r>
       <r>   -1.8791    1.0000 </r>
       <r>   -1.8786    1.0000 </r>
       <r>   -1.2358    1.0000 </r>
       <r>   -1.2358    1.0000 </r>
       <r>   -1.2336    1.0000 </r>
       <r>   -1.2336    1.0000 </r>
       <r>    0.2781    1.0000 </r>
       <r>    0.2788    1.0000 </r>
       <r>    0.2799    1.0000 </r>
       <r>    0.2813    1.0000 </r>
       <r>    0.2817    1.0000 </r>
       <r>    0.2819    1.0000 </r>
       <r>    0.2821    1.0000 </r>
       <r>    0.2822    1.0000 </r>
       <r>    0.2827    1.0000 </r>
       <r>    0.2837    1.0000 </r>
       <r>    0.2854    1.0000 </r>
       <r>    0.2855    1.0000 </r>
       <r>    1.8686    1.0000 </r>
       <r>    1.8692    1.0000 </r>
       <r>    1.8703    1.0000 </r>
       <r>    1.8704    1.0000 </r>
       <r>    1.8712    1.0000 </r>
       <r>    1.8712    1.0000 </r>
       <r>    1.8714    1.0000 </r>
       <r>    1.8715    1.0000 </r>
       <r>    1.8717    1.0000 </r>
       <r>    1.8720    1.0000 </r>
       <r>    1.8730    1.0000 </r>
       <r>    1.8735    1.0000 </r>
       <r>    1.9707    1.0000 </r>
       <r>    1.9707    1.0000 </r>
       <r>    1.9714    1.0000 </r>
       <r>    1.9726    1.0000 </r>
       <r>    1.9731    1.0000 </r>
       <r>    1.9733    1.0000 </r>
       <r>    1.9736    1.0000 </r>
       <r>    1.9739    1.0000 </r>
       <r>    1.9745    1.0000 </r>
       <r>    1.9747    1.0000 </r>
       <r>    1.9754    1.0000 </r>
       <r>    1.9760    1.0000 </r>
       <r>    2.2486    1.0000 </r>
       <r>    2.2503    1.0000 </r>
       <r>    2.2508    1.0000 </r>
       <r>    2.2518    1.0000 </r>
       <r>    2.2527    1.0000 </r>
       <r>    2.2543    1.0000 </r>
       <r>    2.9005    1.0000 </r>
       <r>    2.9017    1.0000 </r>
       <r>    2.9017    1.0000 </r>
       <r>    2.9017    1.0000 </r>
       <r>    2.9017    1.0000 </r>
       <r>    2.9029    1.0000 </r>
       <r>    3.8623    1.0000 </r>
       <r>    3.8635    1.0000 </r>
       <r>    3.8660    1.0000 </r>
       <r>    3.8665    1.0000 </r>
       <r>    3.8666    1.0000 </r>
       <r>    3.8667    1.0000 </r>
       <r>    3.8667    1.0000 </r>
       <r>    3.8669    1.0000 </r>
       <r>    3.8670    1.0000 </r>
       <r>    3.8674    1.0000 </r>
       <r>    3.8696    1.0000 </r>
       <r>    3.8709    1.0000 </r>
       <r>    4.4329    1.0000 </r>
       <r>    4.4333    1.0000 </r>
       <r>    4.4347    1.0000 </r>
       <r>    4.4364    1.0000 </r>
       <r>    4.4368    1.0000 </r>
       <r>    4.4368    1.0000 </r>
       <r>    4.4372    1.0000 </r>
       <r>    4.4376    1.0000 </r>
       <r>    4.4379    1.0000 </r>
       <r>    4.4391    1.0000 </r>
       <r>    4.4404    1.0000 </r>
       <r>    4.4409    1.0000 </r>
       <r>    4.5671    1.0000 </r>
       <r>    4.5671    1.0000 </r>
       <r>    4.5693    1.0000 </r>
       <r>    4.5693    1.0000 </r>
       <r>    4.5703    1.0000 </r>
       <r>    4.5703    1.0000 </r>
       <r>    4.5727    1.0000 </r>
       <r>    4.5727    1.0000 </r>
       <r>    5.7720    1.0000 </r>
       <r>    5.7720    1.0000 </r>
       <r>    5.7720    1.0000 </r>
       <r>    6.3629    0.0000 </r>
       <r>    6.3651    0.0000 </r>
       <r>    6.3658    0.0000 </r>
       <r>    6.3658    0.0000 </r>
       <r>    6.3665    0.0000 </r>
       <r>    6.3686    0.0000 </r>
       <r>    6.8060    0.0000 </r>
       <r>    6.8067    0.0000 </r>
       <r>    6.8075    0.0000 </r>
       <r>    6.8084    0.0000 </r>
       <r>    6.8095    0.0000 </r>
       <r>    6.8104    0.0000 </r>
       <r>    7.2318    0.0000 </r>
       <r>    7.2318    0.0000 </r>
       <r>    7.2321    0.0000 </r>
       <r>    7.2321    0.0000 </r>
       <r>    8.1347    0.0000 </r>
       <r>    8.1351    0.0000 </r>
       <r>    8.1361    0.0000 </r>
       <r>    8.1361    0.0000 </r>
       <r>    8.1377    0.0000 </r>
       <r>    8.1379    0.0000 </r>
       <r>    8.1380    0.0000 </r>
       <r>    8.1381    0.0000 </r>
       <r>    8.1395    0.0000 </r>
       <r>    8.1400    0.0000 </r>
       <r>    8.1407    0.0000 </r>
       <r>    8.1408    0.0000 </r>
       <r>    8.2889    0.0000 </r>
       <r>    8.2889    0.0000 </r>
       <r>    8.2889    0.0000 </r>
       <r>    8.7963    0.0000 </r>
       <r>    8.7970    0.0000 </r>
       <r>    8.7979    0.0000 </r>
       <r>    8.7979    0.0000 </r>
       <r>    8.7989    0.0000 </r>
       <r>    8.7995    0.0000 </r>
       <r>    9.0488    0.0000 </r>
       <r>    9.0514    0.0000 </r>
       <r>    9.0532    0.0000 </r>
      </set>
      <set comment="kpoint 2">
       <r>   -5.9330    1.0000 </r>
       <r>   -5.9311    1.0000 </r>
       <r>   -4.8757    1.0000 </r>
       <r>   -4.8742    1.0000 </r>
       <r>   -4.8738    1.0000 </r>
       <r>   -4.8726    1.0000 </r>
       <r>   -4.8721    1.0000 </r>
       <r>   -4.8720    1.0000 </r>
       <r>   -4.8712    1.0000 </r>
       <r>   -4.8702    1.0000 </r>
       <r>   -4.0258    1.0000 </r>
       <r>   -4.0258    1.0000 </r>
       <r>   -4.0225    1.0000 </r>
       <r>   -4.0225    1.0000 </r>
       <r>   -4.0218    1.0000 </r>
       <r>   -4.0218    1.0000 </r>
       <r>   -4.0208    1.0000 </r>
       <r>   -4.0208    1.0000 </r>
       <r>   -3.8072    1.0000 </r>
       <r>   -3.8040    1.0000 </r>
       <r>   -3.0809    1.0000 </r>
       <r>   -3.0786    1.0000 </r>
       <r>   -3.0775    1.0000 </r>
       <r>   -3.0768    1.0000 </r>
       <r>   -3.0758    1.0000 </r>
       <r>   -3.0754    1.0000 </r>
       <r>   -3.0742    1.0000 </r>
       <r>   -3.0719    1.0000 </r>
       <r>   -1.9758    1.0000 </r>
       <r>   -1.9718    1.0000 </r>
       <r>   -1.9718    1.0000 </r>
       <r>   -1.9714    1.0000 </r>
       <r>   -1.9712    1.0000 </r>
       <r>   -1.9712    1.0000 </r>
       <r>   -1.9694    1.0000 </r>
       <r>   -1.9693    1.0000 </r>
       <r>   -0.8061    1.0000 </r>
       <r>   -0.8049    1.0000 </r>
       <r>   -0.8040    1.0000 </r>
       <r>   -0.8035    1.0000 </r>
       <r>   -0.8023    1.0000 </r>
       <r>   -0.8023    1.0000 </r>
       <r>   -0.8012    1.0000 </r>
       <r>   -0.7999    1.0000 </r>
       <r>   -0.6368    1.0000 </r>
       <r>   -0.6368    1.0000 </r>
       <r>   -0.6335    1.0000 </r>
       <r>   -0.6335    1.0000 </r>
       <r>   -0.6332    1.0000 </r>
       <r>   -0.6332    1.0000 </r>
       <r>   -0.6323    1.0000 </r>
       <r>   -0.6323    1.0000 </r>
       <r>    0.0222    1.0000 </r>
       <r>    0.0243    1.0000 </r>
       <r>    1.4701    1.0000 </r>
       <r>    1.4722    1.0000 </r>
       <r>    1.4734    1.0000 </r>
       <r>    1.4737    1.0000 </r>
       <r>    1.4744    1.0000 </r>
       <r>    1.4748    1.0000 </r>
       <r>    1.4765    1.0000 </r>
       <r>    1.4771    1.0000 </r>
       <r>    1.4912    1.0000 </r>
       <r>    1.4922    1.0000 </r>
       <r>    1.4929    1.0000 </r>
       <r>    1.4931    1.0000 </r>
       <r>    1.4935    1.0000 </r>
       <r>    1.4942    1.0000 </r>
       <r>    1.4947    1.0000 </r>
       <r>    1.4966    1.0000 </r>
       <r>    2.3172    1.0000 </r>
       <r>    2.3174    1.0000 </r>
       <r>    2.3176    1.0000 </r>
       <r>    2.3176    1.0000 </r>
       <r>    2.3185    1.0000 </r>
       <r>    2.3185    1.0000 </r>
       <r>    2.3185    1.0000 </r>
       <r>    2.3191    1.0000 </r>
       <r>    3.0215    1.0000 </r>
       <r>    3.0231    1.0000 </r>
       <r>    3.0243    1.0000 </r>
       <r>    3.0249    1.0000 </r>
       <r>    3.0251    1.0000 </r>
       <r>    3.0254    1.0000 </r>
       <r>    3.0264    1.0000 </r>
       <r>    3.0276    1.0000 </r>
       <r>    3.1467    1.0000 </r>
       <r>    3.1468    1.0000 </r>
       <r>    3.1493    1.0000 </r>
       <r>    3.1493    1.0000 </r>
       <r>    3.1570    1.0000 </r>
       <r>    3.1577    1.0000 </r>
       <r>    3.1585    1.0000 </r>
       <r>    3.1589    1.0000 </r>
       <r>    3.1593    1.0000 </r>
       <r>    3.1600    1.0000 </r>
       <r>    3.1606    1.0000 </r>
       <r>    3.1621    1.0000 </r>
       <r>    3.2844    1.0000 </r>
       <r>    3.2845    1.0000 </r>
       <r>    3.2853    1.0000 </r>
       <r>    3.2853    1.0000 </r>
       <r>    3.2860    1.0000 </r>
       <r>    3.2860    1.0000 </r>
       <r>    3.2873    1.0000 </r>
       <r>    3.2873    1.0000 </r>
       <r>    4.3301    1.0000 </r>
       <r>    4.3310    1.0000 </r>
       <r>    4.3312    1.0000 </r>
       <r>    4.3316    1.0000 </r>
       <r>    4.3323    1.0000 </r>
       <r>    4.3324    1.0000 </r>
       <r>    4.3329    1.0000 </r>
       <r>    4.3331    1.0000 </r>
       <r>    4.4330    1.0000 </r>
       <r>    4.4330    1.0000 </r>
       <r>    4.4960    1.0000 </r>
       <r>    4.4960    1.0000 </r>
       <r>    4.5010    1.0000 </r>
       <r>    4.5010    1.0000 </r>
       <r>    4.5015    1.0000 </r>
       <r>    4.5015    1.0000 </r>
       <r>    4.5050    1.0000 </r>
       <r>    4.5050    1.0000 </r>
       <r>    4.9532    1.0000 </r>
       <r>    4.9532    1.0000 </r>
       <r>    4.9573    1.0000 </r>
       <r>    4.9573    1.0000 </r>
       <r>    6.2787    0.0000 </r>
       <r>    6.2807    0.0000 </r>
       <r>    7.1931    0.0000 </r>
       <r>    7.1948    0.0000 </r>
       <r>    7.6420    0.0000 </r>
       <r>    7.6449    0.0000 </r>
       <r>    7.6449    0.0000 </r>
       <r>    7.6455    0.0000 </r>
       <r>    7.6466    0.0000 </r>
       <r>    7.6468    0.0000 </r>
       <r>    7.6468    0.0000 </r>
       <r>    7.6493    0.0000 </r>
       <r>    7.7138    0.0000 </r>
       <r>    7.7145    0.0000 </r>
       <r>    8.0566    0.0000 </r>
       <r>    8.0566    0.0000 </r>
       <r>    8.0599    0.0000 </r>
       <r>    8.0599    0.0000 </r>
       <r>    8.0603    0.0000 </r>
       <r>    8.0603    0.0000 </r>
       <r>    8.0620    0.0000 </r>
       <r>    8.0620    0.0000 </r>
       <r>    8.1430    0.0000 </r>
       <r>    8.1444    0.0000 </r>
       <r>    8.1452    0.0000 </r>
       <r>    8.1454    0.0000 </r>
       <r>    8.1459    0.0000 </r>
       <r>    8.1459    0.0000 </r>
       <r>    8.1469    0.0000 </r>
       <r>    8.1484    0.0000 </r>
       <r>    8.5500    0.0000 </r>
       <r>    8.5509    0.0000 </r>
       <r>    8.5523    0.0000 </r>
       <r>    8.5527    0.0000 </r>
       <r>    8.5529    0.0000 </r>
       <r>    8.5539    0.0000 </r>
       <r>    8.5545    0.0000 </r>
       <r>    8.5551    0.0000 </r>
       <r>    9.3208    0.0000 </r>
       <r>    9.3235    0.0000 </r>
      </set>
      <set comment="kpoint 3">
       <r>   -5.9320    1.0000 </r>
       <r>   -5.9320    1.0000 </r>
       <r>   -4.8777    1.0000 </r>
       <r>   -4.8739    1.0000 </r>
       <r>   -4.8733    1.0000 </r>
       <r>   -4.8728    1.0000 </r>
       <r>   -4.8726    1.0000 </r>
       <r>   -4.8721    1.0000 </r>
       <r>   -4.8716    1.0000 </r>
       <r>   -4.8679    1.0000 </r>
       <r>   -4.0262    1.0000 </r>
       <r>   -4.0262    1.0000 </r>
       <r>   -4.0230    1.0000 </r>
       <r>   -4.0230    1.0000 </r>
       <r>   -4.0224    1.0000 </r>
       <r>   -4.0224    1.0000 </r>
       <r>   -4.0192    1.0000 </r>
       <r>   -4.0192    1.0000 </r>
       <r>   -3.8057    1.0000 </r>
       <r>   -3.8057    1.0000 </r>
       <r>   -3.0796    1.0000 </r>
       <r>   -3.0781    1.0000 </r>
       <r>   -3.0780    1.0000 </r>
       <r>   -3.0766    1.0000 </r>
       <r>   -3.0762    1.0000 </r>
       <r>   -3.0748    1.0000 </r>
       <r>   -3.0747    1.0000 </r>
       <r>   -3.0731    1.0000 </r>
       <r>   -1.9715    1.0000 </r>
       <r>   -1.9715    1.0000 </r>
       <r>   -1.9715    1.0000 </r>
       <r>   -1.9715    1.0000 </r>
       <r>   -1.9715    1.0000 </r>
       <r>   -1.9715    1.0000 </r>
       <r>   -1.9714    1.0000 </r>
       <r>   -1.9714    1.0000 </r>
       <r>   -0.8062    1.0000 </r>
       <r>   -0.8059    1.0000 </r>
       <r>   -0.8040    1.0000 </r>
       <r>   -0.8031    1.0000 </r>
       <r>   -0.8029    1.0000 </r>
       <r>   -0.8021    1.0000 </r>
       <r>   -0.8002    1.0000 </r>
       <r>   -0.7998    1.0000 </r>
       <r>   -0.6360    1.0000 </r>
       <r>   -0.6360    1.0000 </r>
       <r>   -0.6347    1.0000 </r>
       <r>   -0.6347    1.0000 </r>
       <r>   -0.6332    1.0000 </r>
       <r>   -0.6332    1.0000 </r>
       <r>   -0.6319    1.0000 </r>
       <r>   -0.6319    1.0000 </r>
       <r>    0.0232    1.0000 </r>
       <r>    0.0232    1.0000 </r>
       <r>    1.4717    1.0000 </r>
       <r>    1.4721    1.0000 </r>
       <r>    1.4734    1.0000 </r>
       <r>    1.4742    1.0000 </r>
       <r>    1.4743    1.0000 </r>
       <r>    1.4749    1.0000 </r>
       <r>    1.4762    1.0000 </r>
       <r>    1.4764    1.0000 </r>
       <r>    1.4913    1.0000 </r>
       <r>    1.4924    1.0000 </r>
       <r>    1.4929    1.0000 </r>
       <r>    1.4933    1.0000 </r>
       <r>    1.4933    1.0000 </r>
       <r>    1.4938    1.0000 </r>
       <r>    1.4946    1.0000 </r>
       <r>    1.4959    1.0000 </r>
       <r>    2.3180    1.0000 </r>
       <r>    2.3180    1.0000 </r>
       <r>    2.3180    1.0000 </r>
       <r>    2.3180    1.0000 </r>
       <r>    2.3180    1.0000 </r>
       <r>    2.3180    1.0000 </r>
       <r>    2.3181    1.0000 </r>
       <r>    2.3181    1.0000 </r>
       <r>    3.0232    1.0000 </r>
       <r>    3.0238    1.0000 </r>
       <r>    3.0239    1.0000 </r>
       <r>    3.0248    1.0000 </r>
       <r>    3.0248    1.0000 </r>
       <r>    3.0257    1.0000 </r>
       <r>    3.0259    1.0000 </r>
       <r>    3.0263    1.0000 </r>
       <r>    3.1479    1.0000 </r>
       <r>    3.1481    1.0000 </r>
       <r>    3.1481    1.0000 </r>
       <r>    3.1481    1.0000 </r>
       <r>    3.1572    1.0000 </r>
       <r>    3.1581    1.0000 </r>
       <r>    3.1582    1.0000 </r>
       <r>    3.1589    1.0000 </r>
       <r>    3.1595    1.0000 </r>
       <r>    3.1602    1.0000 </r>
       <r>    3.1604    1.0000 </r>
       <r>    3.1612    1.0000 </r>
       <r>    3.2831    1.0000 </r>
       <r>    3.2831    1.0000 </r>
       <r>    3.2851    1.0000 </r>
       <r>    3.2851    1.0000 </r>
       <r>    3.2864    1.0000 </r>
       <r>    3.2864    1.0000 </r>
       <r>    3.2885    1.0000 </r>
       <r>    3.2885    1.0000 </r>
       <r>    4.3288    1.0000 </r>
       <r>    4.3295    1.0000 </r>
       <r>    4.3305    1.0000 </r>
       <r>    4.3314    1.0000 </r>
       <r>    4.3323    1.0000 </r>
       <r>    4.3332    1.0000 </r>
       <r>    4.3341    1.0000 </r>
       <r>    4.3348    1.0000 </r>
       <r>    4.4329    1.0000 </r>
       <r>    4.4330    1.0000 </r>
       <r>    4.4991    1.0000 </r>
       <r>    4.4992    1.0000 </r>
       <r>    4.5008    1.0000 </r>
       <r>    4.5008    1.0000 </r>
       <r>    4.5009    1.0000 </r>
       <r>    4.5009    1.0000 </r>
       <r>    4.5028    1.0000 </r>
       <r>    4.5029    1.0000 </r>
       <r>    4.9552    1.0000 </r>
       <r>    4.9552    1.0000 </r>
       <r>    4.9552    1.0000 </r>
       <r>    4.9553    1.0000 </r>
       <r>    6.2797    0.0000 </r>
       <r>    6.2797    0.0000 </r>
       <r>    7.1939    0.0000 </r>
       <r>    7.1939    0.0000 </r>
       <r>    7.6457    0.0000 </r>
       <r>    7.6458    0.0000 </r>
       <r>    7.6458    0.0000 </r>
       <r>    7.6459    0.0000 </r>
       <r>    7.6459    0.0000 </r>
       <r>    7.6459    0.0000 </r>
       <r>    7.6459    0.0000 </r>
       <r>    7.6459    0.0000 </r>
       <r>    7.7141    0.0000 </r>
       <r>    7.7143    0.0000 </r>
       <r>    8.0588    0.0000 </r>
       <r>    8.0589    0.0000 </r>
       <r>    8.0593    0.0000 </r>
       <r>    8.0593    0.0000 </r>
       <r>    8.0601    0.0000 </r>
       <r>    8.0602    0.0000 </r>
       <r>    8.0604    0.0000 </r>
       <r>    8.0604    0.0000 </r>
       <r>    8.1432    0.0000 </r>
       <r>    8.1446    0.0000 </r>
       <r>    8.1446    0.0000 </r>
       <r>    8.1455    0.0000 </r>
       <r>    8.1458    0.0000 </r>
       <r>    8.1467    0.0000 </r>
       <r>    8.1469    0.0000 </r>
       <r>    8.1481    0.0000 </r>
       <r>    8.5514    0.0000 </r>
       <r>    8.5520    0.0000 </r>
       <r>    8.5521    0.0000 </r>
       <r>    8.5528    0.0000 </r>
       <r>    8.5528    0.0000 </r>
       <r>    8.5536    0.0000 </r>
       <r>    8.5536    0.0000 </r>
       <r>    8.5541    0.0000 </r>
       <r>    9.3201    0.0000 </r>
       <r>    9.3229    0.0000 </r>
      </set>
      <set comment="kpoint 4">
       <r>   -5.9320    1.0000 </r>
       <r>   -5.9320    1.0000 </r>
       <r>   -4.8776    1.0000 </r>
       <r>   -4.8742    1.0000 </r>
       <r>   -4.8729    1.0000 </r>
       <r>   -4.8729    1.0000 </r>
       <r>   -4.8725    1.0000 </r>
       <r>   -4.8722    1.0000 </r>
       <r>   -4.8706    1.0000 </r>
       <r>   -4.8689    1.0000 </r>
       <r>   -4.0273    1.0000 </r>
       <r>   -4.0243    1.0000 </r>
       <r>   -4.0239    1.0000 </r>
       <r>   -4.0230    1.0000 </r>
       <r>   -4.0224    1.0000 </r>
       <r>   -4.0215    1.0000 </r>
       <r>   -4.0211    1.0000 </r>
       <r>   -4.0182    1.0000 </r>
       <r>   -3.8057    1.0000 </r>
       <r>   -3.8057    1.0000 </r>
       <r>   -3.0792    1.0000 </r>
       <r>   -3.0792    1.0000 </r>
       <r>   -3.0768    1.0000 </r>
       <r>   -3.0766    1.0000 </r>
       <r>   -3.0755    1.0000 </r>
       <r>   -3.0753    1.0000 </r>
       <r>   -3.0748    1.0000 </r>
       <r>   -3.0738    1.0000 </r>
       <r>   -1.9755    1.0000 </r>
       <r>   -1.9734    1.0000 </r>
       <r>   -1.9715    1.0000 </r>
       <r>   -1.9715    1.0000 </r>
       <r>   -1.9715    1.0000 </r>
       <r>   -1.9714    1.0000 </r>
       <r>   -1.9695    1.0000 </r>
       <r>   -1.9674    1.0000 </r>
       <r>   -0.8067    1.0000 </r>
       <r>   -0.8047    1.0000 </r>
       <r>   -0.8042    1.0000 </r>
       <r>   -0.8032    1.0000 </r>
       <r>   -0.8022    1.0000 </r>
       <r>   -0.8013    1.0000 </r>
       <r>   -0.8010    1.0000 </r>
       <r>   -0.8009    1.0000 </r>
       <r>   -0.6375    1.0000 </r>
       <r>   -0.6360    1.0000 </r>
       <r>   -0.6346    1.0000 </r>
       <r>   -0.6343    1.0000 </r>
       <r>   -0.6336    1.0000 </r>
       <r>   -0.6333    1.0000 </r>
       <r>   -0.6320    1.0000 </r>
       <r>   -0.6304    1.0000 </r>
       <r>    0.0232    1.0000 </r>
       <r>    0.0232    1.0000 </r>
       <r>    1.4723    1.0000 </r>
       <r>    1.4723    1.0000 </r>
       <r>    1.4732    1.0000 </r>
       <r>    1.4737    1.0000 </r>
       <r>    1.4745    1.0000 </r>
       <r>    1.4750    1.0000 </r>
       <r>    1.4755    1.0000 </r>
       <r>    1.4767    1.0000 </r>
       <r>    1.4918    1.0000 </r>
       <r>    1.4920    1.0000 </r>
       <r>    1.4932    1.0000 </r>
       <r>    1.4932    1.0000 </r>
       <r>    1.4935    1.0000 </r>
       <r>    1.4939    1.0000 </r>
       <r>    1.4944    1.0000 </r>
       <r>    1.4954    1.0000 </r>
       <r>    2.3164    1.0000 </r>
       <r>    2.3172    1.0000 </r>
       <r>    2.3173    1.0000 </r>
       <r>    2.3177    1.0000 </r>
       <r>    2.3183    1.0000 </r>
       <r>    2.3188    1.0000 </r>
       <r>    2.3189    1.0000 </r>
       <r>    2.3197    1.0000 </r>
       <r>    3.0231    1.0000 </r>
       <r>    3.0235    1.0000 </r>
       <r>    3.0246    1.0000 </r>
       <r>    3.0247    1.0000 </r>
       <r>    3.0255    1.0000 </r>
       <r>    3.0256    1.0000 </r>
       <r>    3.0256    1.0000 </r>
       <r>    3.0258    1.0000 </r>
       <r>    3.1480    1.0000 </r>
       <r>    3.1481    1.0000 </r>
       <r>    3.1481    1.0000 </r>
       <r>    3.1481    1.0000 </r>
       <r>    3.1571    1.0000 </r>
       <r>    3.1578    1.0000 </r>
       <r>    3.1586    1.0000 </r>
       <r>    3.1593    1.0000 </r>
       <r>    3.1598    1.0000 </r>
       <r>    3.1600    1.0000 </r>
       <r>    3.1604    1.0000 </r>
       <r>    3.1605    1.0000 </r>
       <r>    3.2827    1.0000 </r>
       <r>    3.2831    1.0000 </r>
       <r>    3.2849    1.0000 </r>
       <r>    3.2855    1.0000 </r>
       <r>    3.2860    1.0000 </r>
       <r>    3.2866    1.0000 </r>
       <r>    3.2884    1.0000 </r>
       <r>    3.2889    1.0000 </r>
       <r>    4.3290    1.0000 </r>
       <r>    4.3294    1.0000 </r>
       <r>    4.3311    1.0000 </r>
       <r>    4.3318    1.0000 </r>
       <r>    4.3319    1.0000 </r>
       <r>    4.3328    1.0000 </r>
       <r>    4.3333    1.0000 </r>
       <r>    4.3350    1.0000 </r>
       <r>    4.4328    1.0000 </r>
       <r>    4.4330    1.0000 </r>
       <r>    4.4983    1.0000 </r>
       <r>    4.5001    1.0000 </r>
       <r>    4.5006    1.0000 </r>
       <r>    4.5008    1.0000 </r>
       <r>    4.5009    1.0000 </r>
       <r>    4.5015    1.0000 </r>
       <r>    4.5017    1.0000 </r>
       <r>    4.5035    1.0000 </r>
       <r>    4.9552    1.0000 </r>
       <r>    4.9552    1.0000 </r>
       <r>    4.9552    1.0000 </r>
       <r>    4.9552    1.0000 </r>
       <r>    6.2797    0.0000 </r>
       <r>    6.2797    0.0000 </r>
       <r>    7.1939    0.0000 </r>
       <r>    7.1939    0.0000 </r>
       <r>    7.6435    0.0000 </r>
       <r>    7.6442    0.0000 </r>
       <r>    7.6451    0.0000 </r>
       <r>    7.6456    0.0000 </r>
       <r>    7.6462    0.0000 </r>
       <r>    7.6466    0.0000 </r>
       <r>    7.6475    0.0000 </r>
       <r>    7.6482    0.0000 </r>
       <r>    7.7141    0.0000 </r>
       <r>    7.7141    0.0000 </r>
       <r>    8.0589    0.0000 </r>
       <r>    8.0590    0.0000 </r>
       <r>    8.0594    0.0000 </r>
       <r>    8.0595    0.0000 </r>
       <r>    8.0598    0.0000 </r>
       <r>    8.0599    0.0000 </r>
       <r>    8.0604    0.0000 </r>
       <r>    8.0605    0.0000 </r>
       <r>    8.1434    0.0000 </r>
       <r>    8.1437    0.0000 </r>
       <r>    8.1452    0.0000 </r>
       <r>    8.1457    0.0000 </r>
       <r>    8.1461    0.0000 </r>
       <r>    8.1466    0.0000 </r>
       <r>    8.1468    0.0000 </r>
       <r>    8.1478    0.0000 </r>
       <r>    8.5514    0.0000 </r>
       <r>    8.5518    0.0000 </r>
       <r>    8.5525    0.0000 </r>
       <r>    8.5527    0.0000 </r>
       <r>    8.5530    0.0000 </r>
       <r>    8.5531    0.0000 </r>
       <r>    8.5538    0.0000 </r>
       <r>    8.5540    0.0000 </r>
       <r>    9.3201    0.0000 </r>
       <r>    9.3227    0.0000 </r>
      </set>
      <set comment="kpoint 5">
       <r>   -5.6656    1.0000 </r>
       <r>   -5.6641    1.0000 </r>
       <r>   -5.6637    1.0000 </r>
       <r>   -5.6622    1.0000 </r>
       <r>   -4.6463    1.0000 </r>
       <r>   -4.6463    1.0000 </r>
       <r>   -4.6441    1.0000 </r>
       <r>   -4.6441    1.0000 </r>
       <r>   -4.6439    1.0000 </r>
       <r>   -4.6439    1.0000 </r>
       <r>   -4.6423    1.0000 </r>
       <r>   -4.6423    1.0000 </r>
       <r>   -3.6116    1.0000 </r>
       <r>   -3.6067    1.0000 </r>
       <r>   -3.6052    1.0000 </r>
       <r>   -3.6052    1.0000 </r>
       <r>   -3.6050    1.0000 </r>
       <r>   -3.6045    1.0000 </r>
       <r>   -3.6031    1.0000 </r>
       <r>   -3.6017    1.0000 </r>
       <r>   -3.3251    1.0000 </r>
       <r>   -3.3250    1.0000 </r>
       <r>   -3.3215    1.0000 </r>
       <r>   -3.3215    1.0000 </r>
       <r>   -3.3210    1.0000 </r>
       <r>   -3.3210    1.0000 </r>
       <r>   -3.3189    1.0000 </r>
       <r>   -3.3189    1.0000 </r>
       <r>   -2.4610    1.0000 </r>
       <r>   -2.4606    1.0000 </r>
       <r>   -2.4590    1.0000 </r>
       <r>   -2.4585    1.0000 </r>
       <r>   -1.4638    1.0000 </r>
       <r>   -1.4637    1.0000 </r>
       <r>   -1.4617    1.0000 </r>
       <r>   -1.4615    1.0000 </r>
       <r>   -1.0410    1.0000 </r>
       <r>   -1.0410    1.0000 </r>
       <r>   -1.0383    1.0000 </r>
       <r>   -1.0383    1.0000 </r>
       <r>   -1.0378    1.0000 </r>
       <r>   -1.0378    1.0000 </r>
       <r>   -1.0363    1.0000 </r>
       <r>   -1.0362    1.0000 </r>
       <r>   -0.1978    1.0000 </r>
       <r>   -0.1976    1.0000 </r>
       <r>   -0.1973    1.0000 </r>
       <r>   -0.1953    1.0000 </r>
       <r>   -0.1951    1.0000 </r>
       <r>   -0.1944    1.0000 </r>
       <r>   -0.1937    1.0000 </r>
       <r>   -0.1908    1.0000 </r>
       <r>    0.4627    1.0000 </r>
       <r>    0.4627    1.0000 </r>
       <r>    0.4645    1.0000 </r>
       <r>    0.4645    1.0000 </r>
       <r>    0.4658    1.0000 </r>
       <r>    0.4658    1.0000 </r>
       <r>    0.4670    1.0000 </r>
       <r>    0.4670    1.0000 </r>
       <r>    1.4163    1.0000 </r>
       <r>    1.4169    1.0000 </r>
       <r>    1.4172    1.0000 </r>
       <r>    1.4177    1.0000 </r>
       <r>    2.2856    1.0000 </r>
       <r>    2.2856    1.0000 </r>
       <r>    2.2869    1.0000 </r>
       <r>    2.2869    1.0000 </r>
       <r>    2.2877    1.0000 </r>
       <r>    2.2878    1.0000 </r>
       <r>    2.2889    1.0000 </r>
       <r>    2.2889    1.0000 </r>
       <r>    2.3700    1.0000 </r>
       <r>    2.3709    1.0000 </r>
       <r>    2.3717    1.0000 </r>
       <r>    2.3724    1.0000 </r>
       <r>    2.3729    1.0000 </r>
       <r>    2.3732    1.0000 </r>
       <r>    2.3732    1.0000 </r>
       <r>    2.3732    1.0000 </r>
       <r>    2.9819    1.0000 </r>
       <r>    2.9821    1.0000 </r>
       <r>    2.9823    1.0000 </r>
       <r>    2.9831    1.0000 </r>
       <r>    2.9833    1.0000 </r>
       <r>    2.9835    1.0000 </r>
       <r>    2.9841    1.0000 </r>
       <r>    2.9854    1.0000 </r>
       <r>    3.0761    1.0000 </r>
       <r>    3.0762    1.0000 </r>
       <r>    3.0773    1.0000 </r>
       <r>    3.0773    1.0000 </r>
       <r>    3.3303    1.0000 </r>
       <r>    3.3314    1.0000 </r>
       <r>    3.3314    1.0000 </r>
       <r>    3.3325    1.0000 </r>
       <r>    3.5893    1.0000 </r>
       <r>    3.5893    1.0000 </r>
       <r>    3.5905    1.0000 </r>
       <r>    3.5905    1.0000 </r>
       <r>    3.5914    1.0000 </r>
       <r>    3.5914    1.0000 </r>
       <r>    3.5931    1.0000 </r>
       <r>    3.5931    1.0000 </r>
       <r>    3.9154    1.0000 </r>
       <r>    3.9155    1.0000 </r>
       <r>    3.9181    1.0000 </r>
       <r>    3.9181    1.0000 </r>
       <r>    3.9190    1.0000 </r>
       <r>    3.9190    1.0000 </r>
       <r>    3.9204    1.0000 </r>
       <r>    3.9204    1.0000 </r>
       <r>    4.1180    1.0000 </r>
       <r>    4.1182    1.0000 </r>
       <r>    4.1188    1.0000 </r>
       <r>    4.1188    1.0000 </r>
       <r>    4.1730    1.0000 </r>
       <r>    4.1731    1.0000 </r>
       <r>    4.1741    1.0000 </r>
       <r>    4.1742    1.0000 </r>
       <r>    4.1743    1.0000 </r>
       <r>    4.1743    1.0000 </r>
       <r>    4.1752    1.0000 </r>
       <r>    4.1752    1.0000 </r>
       <r>    5.4796    1.0000 </r>
       <r>    5.4800    1.0000 </r>
       <r>    5.4805    1.0000 </r>
       <r>    5.4809    1.0000 </r>
       <r>    6.8650    0.0000 </r>
       <r>    6.8656    0.0000 </r>
       <r>    6.8660    0.0000 </r>
       <r>    6.8666    0.0000 </r>
       <r>    7.6296    0.0000 </r>
       <r>    7.6303    0.0000 </r>
       <r>    7.6303    0.0000 </r>
       <r>    7.6305    0.0000 </r>
       <r>    7.6320    0.0000 </r>
       <r>    7.6322    0.0000 </r>
       <r>    7.6334    0.0000 </r>
       <r>    7.6345    0.0000 </r>
       <r>    7.9393    0.0000 </r>
       <r>    7.9393    0.0000 </r>
       <r>    7.9396    0.0000 </r>
       <r>    7.9396    0.0000 </r>
       <r>    7.9405    0.0000 </r>
       <r>    7.9405    0.0000 </r>
       <r>    7.9406    0.0000 </r>
       <r>    7.9406    0.0000 </r>
       <r>    8.3139    0.0000 </r>
       <r>    8.3140    0.0000 </r>
       <r>    8.3149    0.0000 </r>
       <r>    8.3152    0.0000 </r>
       <r>    8.3155    0.0000 </r>
       <r>    8.3156    0.0000 </r>
       <r>    8.3157    0.0000 </r>
       <r>    8.3167    0.0000 </r>
       <r>    8.7646    0.0000 </r>
       <r>    8.7662    0.0000 </r>
       <r>    8.7671    0.0000 </r>
       <r>    8.7691    0.0000 </r>
       <r>    8.7710    0.0000 </r>
       <r>    8.7717    0.0000 </r>
       <r>    8.7733    0.0000 </r>
       <r>    8.7787    0.0000 </r>
       <r>    8.7831    0.0000 </r>
       <r>    8.7901    0.0000 </r>
       <r>    8.7994    0.0000 </r>
       <r>    8.8129    0.0000 </r>
      </set>
      <set comment="kpoint 6">
       <r>   -5.6643    1.0000 </r>
       <r>   -5.6643    1.0000 </r>
       <r>   -5.6635    1.0000 </r>
       <r>   -5.6635    1.0000 </r>
       <r>   -4.6502    1.0000 </r>
       <r>   -4.6458    1.0000 </r>
       <r>   -4.6446    1.0000 </r>
       <r>   -4.6444    1.0000 </r>
       <r>   -4.6439    1.0000 </r>
       <r>   -4.6437    1.0000 </r>
       <r>   -4.6425    1.0000 </r>
       <r>   -4.6381    1.0000 </r>
       <r>   -3.6076    1.0000 </r>
       <r>   -3.6069    1.0000 </r>
       <r>   -3.6061    1.0000 </r>
       <r>   -3.6057    1.0000 </r>
       <r>   -3.6050    1.0000 </r>
       <r>   -3.6046    1.0000 </r>
       <r>   -3.6039    1.0000 </r>
       <r>   -3.6032    1.0000 </r>
       <r>   -3.3244    1.0000 </r>
       <r>   -3.3237    1.0000 </r>
       <r>   -3.3228    1.0000 </r>
       <r>   -3.3220    1.0000 </r>
       <r>   -3.3212    1.0000 </r>
       <r>   -3.3205    1.0000 </r>
       <r>   -3.3196    1.0000 </r>
       <r>   -3.3188    1.0000 </r>
       <r>   -2.4614    1.0000 </r>
       <r>   -2.4614    1.0000 </r>
       <r>   -2.4581    1.0000 </r>
       <r>   -2.4581    1.0000 </r>
       <r>   -1.4635    1.0000 </r>
       <r>   -1.4635    1.0000 </r>
       <r>   -1.4618    1.0000 </r>
       <r>   -1.4618    1.0000 </r>
       <r>   -1.0409    1.0000 </r>
       <r>   -1.0406    1.0000 </r>
       <r>   -1.0403    1.0000 </r>
       <r>   -1.0386    1.0000 </r>
       <r>   -1.0381    1.0000 </r>
       <r>   -1.0364    1.0000 </r>
       <r>   -1.0361    1.0000 </r>
       <r>   -1.0358    1.0000 </r>
       <r>   -0.1988    1.0000 </r>
       <r>   -0.1970    1.0000 </r>
       <r>   -0.1965    1.0000 </r>
       <r>   -0.1955    1.0000 </r>
       <r>   -0.1950    1.0000 </r>
       <r>   -0.1940    1.0000 </r>
       <r>   -0.1935    1.0000 </r>
       <r>   -0.1917    1.0000 </r>
       <r>    0.4617    1.0000 </r>
       <r>    0.4632    1.0000 </r>
       <r>    0.4637    1.0000 </r>
       <r>    0.4646    1.0000 </r>
       <r>    0.4653    1.0000 </r>
       <r>    0.4662    1.0000 </r>
       <r>    0.4667    1.0000 </r>
       <r>    0.4683    1.0000 </r>
       <r>    1.4164    1.0000 </r>
       <r>    1.4164    1.0000 </r>
       <r>    1.4176    1.0000 </r>
       <r>    1.4176    1.0000 </r>
       <r>    2.2846    1.0000 </r>
       <r>    2.2852    1.0000 </r>
       <r>    2.2858    1.0000 </r>
       <r>    2.2868    1.0000 </r>
       <r>    2.2878    1.0000 </r>
       <r>    2.2888    1.0000 </r>
       <r>    2.2893    1.0000 </r>
       <r>    2.2900    1.0000 </r>
       <r>    2.3707    1.0000 </r>
       <r>    2.3709    1.0000 </r>
       <r>    2.3718    1.0000 </r>
       <r>    2.3720    1.0000 </r>
       <r>    2.3724    1.0000 </r>
       <r>    2.3725    1.0000 </r>
       <r>    2.3736    1.0000 </r>
       <r>    2.3737    1.0000 </r>
       <r>    2.9804    1.0000 </r>
       <r>    2.9812    1.0000 </r>
       <r>    2.9816    1.0000 </r>
       <r>    2.9827    1.0000 </r>
       <r>    2.9836    1.0000 </r>
       <r>    2.9848    1.0000 </r>
       <r>    2.9852    1.0000 </r>
       <r>    2.9859    1.0000 </r>
       <r>    3.0760    1.0000 </r>
       <r>    3.0760    1.0000 </r>
       <r>    3.0775    1.0000 </r>
       <r>    3.0775    1.0000 </r>
       <r>    3.3303    1.0000 </r>
       <r>    3.3303    1.0000 </r>
       <r>    3.3325    1.0000 </r>
       <r>    3.3325    1.0000 </r>
       <r>    3.5900    1.0000 </r>
       <r>    3.5900    1.0000 </r>
       <r>    3.5908    1.0000 </r>
       <r>    3.5909    1.0000 </r>
       <r>    3.5913    1.0000 </r>
       <r>    3.5914    1.0000 </r>
       <r>    3.5922    1.0000 </r>
       <r>    3.5922    1.0000 </r>
       <r>    3.9171    1.0000 </r>
       <r>    3.9172    1.0000 </r>
[...]
      </set>
     </set>
    </set>
   </array>
  </eigenvalues>
  <separator name="orbital magnetization" >
   <v name="MAGDIPOLOUT">      0.00000000      0.00000000      0.00000000</v>
  </separator>
  <dos>
   <i name="efermi">      5.89353911 </i>
   <total>
    <array>
     <dimension dim="1">gridpoints</dimension>
     <dimension dim="2">spin</dimension>
     <field>energy</field>
     <field>total</field>
     <field>integrated</field>
     <set>
      <set comment="spin 1">
       <r>    -6.9820     0.0000     0.0000 </r>
       <r>    -6.9250     0.0000     0.0000 </r>
       <r>    -6.8681     0.0000     0.0000 </r>
       <r>    -6.8112     0.0000     0.0000 </r>
       <r>    -6.7542     0.0000     0.0000 </r>
       <r>    -6.6973     0.0000     0.0000 </r>
       <r>    -6.6403     0.0000     0.0000 </r>
       <r>    -6.5834     0.0000     0.0000 </r>
       <r>    -6.5265     0.0000     0.0000 </r>
       <r>    -6.4695     0.0000     0.0000 </r>
       <r>    -6.4126     0.0000     0.0000 </r>
       <r>    -6.3556     0.0000     0.0000 </r>
       <r>    -6.2987     0.0000     0.0000 </r>
       <r>    -6.2418     0.0228     0.0013 </r>
       <r>    -6.1848     4.0535     0.2321 </r>
       <r>    -6.1279     0.3143     0.2500 </r>
       <r>    -6.0709     0.0000     0.2500 </r>
       <r>    -6.0140     0.0000     0.2500 </r>
       <r>    -5.9571     1.0146     0.3078 </r>
       <r>    -5.9001    25.0110     1.7319 </r>
       <r>    -5.8432     0.3180     1.7500 </r>
       <r>    -5.7862     0.0000     1.7500 </r>
       <r>    -5.7293     0.0001     1.7500 </r>
       <r>    -5.6724    14.5402     2.5779 </r>
       <r>    -5.6154    38.1305     4.7491 </r>
       <r>    -5.5585     0.0164     4.7500 </r>
       <r>    -5.5015     0.0000     4.7500 </r>
       <r>    -5.4446     0.0725     4.7541 </r>
       <r>    -5.3877    30.5089     6.4913 </r>
       <r>    -5.3307     4.5434     6.7500 </r>
       <r>    -5.2738     0.0000     6.7500 </r>
       <r>    -5.2168     0.0000     6.7500 </r>
       <r>    -5.1599     0.0889     6.7551 </r>
       <r>    -5.1030    23.6365     8.1009 </r>
       <r>    -5.0460     2.6182     8.2500 </r>
       <r>    -4.9891     0.0000     8.2500 </r>
       <r>    -4.9321     0.0018     8.2501 </r>
       <r>    -4.8752    45.4934    10.8405 </r>
       <r>    -4.8183    59.8719    14.2496 </r>
       <r>    -4.7613     0.0074    14.2500 </r>
       <r>    -4.7044     0.0014    14.2501 </r>
       <r>    -4.6474    43.0769    16.7029 </r>
       <r>    -4.5905    62.2868    20.2495 </r>
       <r>    -4.5336     0.0094    20.2500 </r>
       <r>    -4.4766     0.0000    20.2500 </r>
       <r>    -4.4197     0.0000    20.2500 </r>
       <r>    -4.3627     0.0000    20.2500 </r>
       <r>    -4.3058     0.0000    20.2500 </r>
       <r>    -4.2489     0.0000    20.2500 </r>
       <r>    -4.1919     0.2777    20.2658 </r>
       <r>    -4.1350    48.0997    23.0046 </r>
       <r>    -4.0780     4.3157    23.2503 </r>
       <r>    -4.0211    57.3847    26.5178 </r>
       <r>    -3.9642    47.9815    29.2499 </r>
       <r>    -3.9072     0.0117    29.2505 </r>
       <r>    -3.8503    13.4717    30.0176 </r>
       <r>    -3.7933    25.3543    31.4613 </r>
       <r>    -3.7364     5.0706    31.7500 </r>
       <r>    -3.6795     0.0000    31.7500 </r>
       <r>    -3.6225    12.1593    32.4423 </r>
       <r>    -3.5656    92.9321    37.7339 </r>
       <r>    -3.5086     2.1479    37.8562 </r>
       <r>    -3.4517    99.6201    43.5285 </r>
       <r>    -3.3948     3.8896    43.7500 </r>
       <r>    -3.3378    13.5238    44.5200 </r>
       <r>    -3.2809    91.6225    49.7370 </r>
       <r>    -3.2239     0.2281    49.7500 </r>
       <r>    -3.1670     0.0000    49.7500 </r>
       <r>    -3.1101     0.9803    49.8058 </r>
       <r>    -3.0531    98.9209    55.4384 </r>
       <r>    -2.9962     5.4732    55.7500 </r>
       <r>    -2.9392     0.0000    55.7500 </r>
       <r>    -2.8823     0.0000    55.7500 </r>
       <r>    -2.8254     0.0000    55.7500 </r>
       <r>    -2.7684     0.0000    55.7500 </r>
       <r>    -2.7115     0.0000    55.7500 </r>
       <r>    -2.6545     0.0000    55.7500 </r>
       <r>    -2.5976     0.0000    55.7500 </r>
       <r>    -2.5407     0.0000    55.7500 </r>
       <r>    -2.4837     2.4091    55.8872 </r>
       <r>    -2.4268    49.7449    58.7196 </r>
       <r>    -2.3698     0.5332    58.7500 </r>
       <r>    -2.3129     0.0000    58.7500 </r>
       <r>    -2.2560     0.0000    58.7500 </r>
       <r>    -2.1990     0.0000    58.7500 </r>
       <r>    -2.1421     0.0000    58.7500 </r>
       <r>    -2.0851     0.2628    58.7650 </r>
       <r>    -2.0282    24.8230    60.1784 </r>
       <r>    -1.9713    54.5293    63.2833 </r>
       <r>    -1.9143    52.8289    66.2913 </r>
       <r>    -1.8574    49.9075    69.1331 </r>
       <r>    -1.8004     2.0539    69.2500 </r>
       <r>    -1.7435     0.0000    69.2500 </r>
       <r>    -1.6866     0.0000    69.2500 </r>
       <r>    -1.6296     0.0000    69.2500 </r>
       <r>    -1.5727     0.0000    69.2500 </r>
       <r>    -1.5158     0.0048    69.2503 </r>
       <r>    -1.4588    31.9999    71.0723 </r>
       <r>    -1.4019    20.6821    72.2500 </r>
       <r>    -1.3449     0.0005    72.2500 </r>
       <r>    -1.2880     0.0015    72.2501 </r>
       <r>    -1.2311    10.5576    72.8512 </r>
       <r>    -1.1741     7.0031    73.2500 </r>
       <r>    -1.1172     0.0002    73.2500 </r>
       <r>    -1.0602     6.5610    73.6236 </r>
       <r>    -1.0033    98.0806    79.2083 </r>
       <r>    -0.9464     0.7328    79.2500 </r>
       <r>    -0.8894     0.0000    79.2500 </r>
       <r>    -0.8325     2.0662    79.3677 </r>
       <r>    -0.7755   100.4462    85.0870 </r>
       <r>    -0.7186     2.8620    85.2500 </r>
       <r>    -0.6617     3.3196    85.4390 </r>
       <r>    -0.6047   196.2745    96.6148 </r>
       <r>    -0.5478    11.1548    97.2500 </r>
       <r>    -0.4908     0.0000    97.2500 </r>
       <r>    -0.4339     0.0000    97.2500 </r>
       <r>    -0.3770     0.0000    97.2500 </r>
       <r>    -0.3200     0.0000    97.2500 </r>
       <r>    -0.2631     0.0001    97.2500 </r>
       <r>    -0.2061    23.4938    98.5877 </r>
       <r>    -0.1492    81.8142   103.2462 </r>
       <r>    -0.0923     0.0664   103.2500 </r>
       <r>    -0.0353     0.0005   103.2500 </r>
       <r>     0.0216    11.9745   103.9319 </r>
       <r>     0.0786    14.3674   104.7499 </r>
       <r>     0.1355     0.0012   104.7500 </r>
       <r>     0.1924     0.0000   104.7500 </r>
       <r>     0.2494     0.6033   104.7844 </r>
       <r>     0.3063    49.7520   107.6172 </r>
       <r>     0.3633     2.3319   107.7500 </r>
       <r>     0.4202     0.0882   107.7550 </r>
       <r>     0.4771    84.5605   112.5699 </r>
       <r>     0.5341    20.7257   113.7500 </r>
       <r>     0.5910     0.0001   113.7500 </r>
       <r>     0.6480     0.0000   113.7500 </r>
       <r>     0.7049     0.0000   113.7500 </r>
       <r>     0.7618     0.0000   113.7500 </r>
       <r>     0.8188     0.0000   113.7500 </r>
       <r>     0.8757     0.0000   113.7500 </r>
       <r>     0.9327     0.0000   113.7500 </r>
       <r>     0.9896     0.0000   113.7500 </r>
       <r>     1.0465     0.0000   113.7500 </r>
       <r>     1.1035     0.0000   113.7500 </r>
       <r>     1.1604     0.0000   113.7500 </r>
       <r>     1.2174     0.0000   113.7500 </r>
       <r>     1.2743     0.0000   113.7500 </r>
       <r>     1.3312     0.0000   113.7500 </r>
       <r>     1.3882     1.0967   113.8124 </r>
       <r>     1.4451    52.5930   116.8071 </r>
       <r>     1.5021   178.3643   126.9631 </r>
       <r>     1.5590    31.3819   128.7500 </r>
       <r>     1.6159     0.0002   128.7500 </r>
       <r>     1.6729     0.0000   128.7500 </r>
       <r>     1.7298     0.0000   128.7500 </r>
       <r>     1.7868     0.2037   128.7616 </r>
       <r>     1.8437    33.8744   130.6904 </r>
       <r>     1.9006    52.7318   133.6929 </r>
       <r>     1.9576     8.0891   134.1535 </r>
       <r>     2.0145    45.5001   136.7443 </r>
       <r>     2.0715     0.1002   136.7500 </r>
       <r>     2.1284     0.0001   136.7500 </r>
       <r>     2.1853    19.1416   137.8399 </r>
       <r>     2.2423    93.0579   143.1386 </r>
       <r>     2.2992   113.3964   149.5954 </r>
       <r>     2.3562   130.1006   157.0033 </r>
       <r>     2.4131    91.9386   162.2383 </r>
       <r>     2.4700     0.2064   162.2500 </r>
       <r>     2.5270     0.0000   162.2500 </r>
       <r>     2.5839     0.0000   162.2500 </r>
       <r>     2.6409     0.0000   162.2500 </r>
       <r>     2.6978     0.0000   162.2500 </r>
       <r>     2.7547     0.0000   162.2500 </r>
       <r>     2.8117     0.0000   162.2500 </r>
       <r>     2.8686     0.2554   162.2645 </r>
       <r>     2.9256    24.8750   163.6809 </r>
       <r>     2.9825    51.9874   166.6411 </r>
       <r>     3.0394   144.2437   174.8543 </r>
       <r>     3.0964    64.0664   178.5022 </r>
       <r>     3.1533    74.0372   182.7179 </r>
       <r>     3.2103    88.3588   187.7490 </r>
       <r>     3.2672    10.1516   188.3270 </r>
       <r>     3.3241   110.8787   194.6404 </r>
       <r>     3.3811    37.0370   196.7493 </r>
       <r>     3.4380     0.0120   196.7500 </r>
       <r>     3.4950     0.0033   196.7502 </r>
       <r>     3.5519    51.2962   199.6710 </r>
       <r>     3.6088   148.2965   208.1150 </r>
       <r>     3.6658    11.1529   208.7500 </r>
       <r>     3.7227     0.0000   208.7500 </r>
       <r>     3.7796     0.0000   208.7500 </r>
       <r>     3.8366     0.9366   208.8033 </r>
       <r>     3.8935    54.4972   211.9064 </r>
       <r>     3.9505   101.3972   217.6799 </r>
       <r>     4.0074     1.2307   217.7500 </r>
       <r>     4.0643     0.0035   217.7502 </r>
       <r>     4.1213    30.5577   219.4901 </r>
       <r>     4.1782    86.6656   224.4249 </r>
       <r>     4.2352    40.8340   226.7499 </r>
       <r>     4.2921     0.2807   226.7659 </r>
       <r>     4.3490    93.1858   232.0719 </r>
       <r>     4.4060    13.4621   232.8384 </r>
       <r>     4.4629    75.5890   237.1425 </r>
       <r>     4.5199    97.5013   242.6942 </r>
       <r>     4.5768    33.8804   244.6233 </r>
       <r>     4.6337    11.0062   245.2500 </r>
       <r>     4.6907     0.0001   245.2500 </r>
       <r>     4.7476     0.0000   245.2500 </r>
       <r>     4.8046     0.0000   245.2500 </r>
       <r>     4.8615     0.0000   245.2500 </r>
       <r>     4.9184     0.2519   245.2643 </r>
       <r>     4.9754    49.2337   248.0677 </r>
       <r>     5.0323    70.3963   252.0761 </r>
       <r>     5.0893     3.0549   252.2500 </r>
       <r>     5.1462     0.0000   252.2500 </r>
       <r>     5.2031     0.0000   252.2500 </r>
       <r>     5.2601     0.0000   252.2500 </r>
       <r>     5.3170     0.0000   252.2500 </r>
       <r>     5.3740     0.0000   252.2500 </r>
       <r>     5.4309     0.0136   252.2508 </r>
       <r>     5.4878    37.0671   254.3614 </r>
       <r>     5.5448    15.6064   255.2500 </r>
       <r>     5.6017     0.0001   255.2500 </r>
       <r>     5.6587     0.0000   255.2500 </r>
       <r>     5.7156     0.0004   255.2500 </r>
       <r>     5.7725     6.8017   255.6373 </r>
       <r>     5.8295     6.3693   256.0000 </r>
       <r>     5.8864     0.0003   256.0000 </r>
       <r>     5.9434     0.0000   256.0000 </r>
       <r>     6.0003     0.0000   256.0000 </r>
       <r>     6.0572     0.0000   256.0000 </r>
       <r>     6.1142     0.0000   256.0000 </r>
       <r>     6.1711     0.0000   256.0000 </r>
       <r>     6.2281     0.0035   256.0002 </r>
       <r>     6.2850    16.9999   256.9682 </r>
       <r>     6.3419    10.5835   257.5708 </r>
       <r>     6.3989    24.8361   258.9850 </r>
       <r>     6.4558     0.2642   259.0000 </r>
       <r>     6.5128     0.0000   259.0000 </r>
       <r>     6.5697     0.0000   259.0000 </r>
       <r>     6.6266     0.0000   259.0000 </r>
       <r>     6.6836     0.0000   259.0000 </r>
       <r>     6.7405     0.0000   259.0000 </r>
       <r>     6.7975     6.0046   259.3419 </r>
       <r>     6.8544    31.4156   261.1307 </r>
       <r>     6.9113    41.5762   263.4980 </r>
       <r>     6.9683     0.0344   263.5000 </r>
       <r>     7.0252     0.0000   263.5000 </r>
       <r>     7.0822     0.0000   263.5000 </r>
       <r>     7.1391     0.0342   263.5019 </r>
       <r>     7.1960    87.8236   268.5026 </r>
       <r>     7.2530    60.2129   271.9311 </r>
       <r>     7.3099     1.2098   272.0000 </r>
       <r>     7.3669     0.0000   272.0000 </r>
       <r>     7.4238     0.0000   272.0000 </r>
       <r>     7.4807     0.0000   272.0000 </r>
       <r>     7.5377     0.0000   272.0000 </r>
       <r>     7.5946     0.5063   272.0288 </r>
       <r>     7.6516   165.5256   281.4538 </r>
       <r>     7.7085    57.4952   284.7276 </r>
       <r>     7.7654    48.5864   287.4941 </r>
       <r>     7.8224     0.1038   287.5000 </r>
       <r>     7.8793     0.0011   287.5001 </r>
       <r>     7.9363    41.7583   289.8778 </r>
       <r>     7.9932    63.6055   293.4995 </r>
       <r>     8.0501    26.4046   295.0029 </r>
       <r>     8.1071    80.0976   299.5637 </r>
       <r>     8.1640   144.7942   307.8082 </r>
       <r>     8.2210    12.1494   308.5000 </r>
       <r>     8.2779     3.3242   308.6893 </r>
       <r>     8.3348   106.4216   314.7489 </r>
       <r>     8.3918     8.8005   315.2500 </r>
       <r>     8.4487     0.0000   315.2500 </r>
       <r>     8.5057     0.0471   315.2527 </r>
       <r>     8.5626    79.5149   319.7802 </r>
       <r>     8.6195    25.8124   321.2500 </r>
       <r>     8.6765     0.0001   321.2500 </r>
       <r>     8.7334     0.6539   321.2872 </r>
       <r>     8.7904   122.5864   328.2673 </r>
       <r>     8.8473    61.0168   331.7416 </r>
       <r>     8.9042     0.1483   331.7500 </r>
       <r>     8.9612     0.0000   331.7500 </r>
       <r>     9.0181     0.1352   331.7577 </r>
       <r>     9.0750    12.4218   332.4650 </r>
       <r>     9.1320     0.6148   332.5000 </r>
       <r>     9.1889     0.0575   332.5033 </r>
       <r>     9.2459    29.9773   334.2102 </r>
       <r>     9.3028     7.5107   334.6378 </r>
       <r>     9.3597    23.8254   335.9944 </r>
       <r>     9.4167     0.0975   336.0000 </r>
       <r>     9.4736     0.0000   336.0000 </r>
       <r>     9.5306     0.0000   336.0000 </r>
       <r>     9.5875     0.0000   336.0000 </r>
       <r>     9.6444     0.0000   336.0000 </r>
       <r>     9.7014     0.0000   336.0000 </r>
       <r>     9.7583     0.0000   336.0000 </r>
       <r>     9.8153     0.0000   336.0000 </r>
       <r>     9.8722     0.0000   336.0000 </r>
       <r>     9.9291     0.0000   336.0000 </r>
       <r>     9.9861     0.0000   336.0000 </r>
       <r>    10.0430     0.0000   336.0000 </r>
       <r>    10.1000     0.0000   336.0000 </r>
      </set>
     </set>
    </array>
   </total>
  </dos>
 </calculation>
 <structure name="finalpos" >
  <crystal>
   <varray name="basis" >
    <v>      10.86914512      -0.00000000      -0.00000000 </v>
    <v>      -0.00000000      10.86914512       0.00000000 </v>
    <v>       0.00000000       0.00000000      10.86914512 </v>
   </varray>
   <i name="volume">   1284.06249692 </i>
   <varray name="rec_basis" >
    <v>       0.09200356       0.00000000      -0.00000000 </v>
    <v>       0.00000000       0.09200356      -0.00000000 </v>
    <v>       0.00000000      -0.00000000       0.09200356 </v>
   </varray>
  </crystal>
  <varray name="positions" >
   <v>       0.24907996       0.25000000       0.25000000 </v>
   <v>       0.75000000       0.25000000       0.25000000 </v>
   <v>       0.25000000       0.75000000       0.25000000 </v>
   <v>       0.75000000       0.75000000       0.25000000 </v>
   <v>       0.25000000       0.25000000       0.75000000 </v>
   <v>       0.75000000       0.25000000       0.75000000 </v>
   <v>       0.25000000       0.75000000       0.75000000 </v>
   <v>       0.75000000       0.75000000       0.75000000 </v>
   <v>       0.25000000       0.00000000       0.00000000 </v>
   <v>       0.75000000       0.00000000       0.00000000 </v>
   <v>       0.25000000       0.50000000       0.00000000 </v>
   <v>       0.75000000       0.50000000       0.00000000 </v>
   <v>       0.25000000       0.00000000       0.50000000 </v>
   <v>       0.75000000       0.00000000       0.50000000 </v>
   <v>       0.25000000       0.50000000       0.50000000 </v>
   <v>       0.75000000       0.50000000       0.50000000 </v>
   <v>       0.00092004       0.25000000       0.00000000 </v>
   <v>       0.50000000       0.25000000       0.00000000 </v>
   <v>       0.00000000       0.75000000       0.00000000 </v>
   <v>       0.50000000       0.75000000       0.00000000 </v>
   <v>       0.00000000       0.25000000       0.50000000 </v>
   <v>       0.50000000       0.25000000       0.50000000 </v>
   <v>       0.00000000       0.75000000       0.50000000 </v>
   <v>       0.50000000       0.75000000       0.50000000 </v>
   <v>       0.00000000       0.00000000       0.25000000 </v>
   <v>       0.50000000       0.00000000       0.25000000 </v>
   <v>       0.00000000       0.50000000       0.25000000 </v>
   <v>       0.50000000       0.50000000       0.25000000 </v>
   <v>       0.00000000       0.00000000       0.75000000 </v>
   <v>       0.50000000       0.00000000       0.75000000 </v>
   <v>       0.00000000       0.50000000       0.75000000 </v>
   <v>       0.50000000       0.50000000       0.75000000 </v>
   <v>       0.37500000       0.37500000       0.37500000 </v>
   <v>       0.87500000       0.37500000       0.37500000 </v>
   <v>       0.37500000       0.87500000       0.37500000 </v>
   <v>       0.87500000       0.87500000       0.37500000 </v>
   <v>       0.37500000       0.37500000       0.87500000 </v>
   <v>       0.87500000       0.37500000       0.87500000 </v>
   <v>       0.37500000       0.87500000       0.87500000 </v>
   <v>       0.87500000       0.87500000       0.87500000 </v>
   <v>       0.37500000       0.12500000       0.12500000 </v>
   <v>       0.87500000       0.12500000       0.12500000 </v>
   <v>       0.37500000       0.62500000       0.12500000 </v>
   <v>       0.87500000       0.62500000       0.12500000 </v>
   <v>       0.37500000       0.12500000       0.62500000 </v>
   <v>       0.87500000       0.12500000       0.62500000 </v>
   <v>       0.37500000       0.62500000       0.62500000 </v>
   <v>       0.87500000       0.62500000       0.62500000 </v>
   <v>       0.12500000       0.37500000       0.12500000 </v>
   <v>       0.62500000       0.37500000       0.12500000 </v>
   <v>       0.12500000       0.87500000       0.12500000 </v>
   <v>       0.62500000       0.87500000       0.12500000 </v>
   <v>       0.12500000       0.37500000       0.62500000 </v>
   <v>       0.62500000       0.37500000       0.62500000 </v>
   <v>       0.12500000       0.87500000       0.62500000 </v>
   <v>       0.62500000       0.87500000       0.62500000 </v>
   <v>       0.12500000       0.12500000       0.37500000 </v>
   <v>       0.62500000       0.12500000       0.37500000 </v>
   <v>       0.12500000       0.62500000       0.37500000 </v>
   <v>       0.62500000       0.62500000       0.37500000 </v>
   <v>       0.12500000       0.12500000       0.87500000 </v>
   <v>       0.62500000       0.12500000       0.87500000 </v>
   <v>       0.12500000       0.62500000       0.87500000 </v>
   <v>       0.62500000       0.62500000       0.87500000 </v>
  </varray>
 </structure>
</modeling>
