  64  64   0   0
  0.2197554E+02  0.1120400E-08  0.1120400E-08  0.1120400E-08  0.5000000E-15
  1.000000000000000E-004
  CAR 
 unknown system                          
     11.04981532    -22.84579027  301     -0.55942960      1.00000000
    -22.846  0.0000E+00  0.0000E+00
    -22.733  0.0000E+00  0.0000E+00
    -22.620  0.0000E+00  0.0000E+00
    -22.507  0.0000E+00  0.0000E+00
    -22.394  0.0000E+00  0.0000E+00
    -22.281  0.0000E+00  0.0000E+00
    -22.168  0.0000E+00  0.0000E+00
    -22.055  0.0000E+00  0.0000E+00
    -21.942  0.0000E+00  0.0000E+00
    -21.829  0.0000E+00  0.0000E+00
    -21.716  0.0000E+00  0.0000E+00
    -21.603  0.0000E+00  0.0000E+00
    -21.490  0.0000E+00  0.0000E+00
    -21.377  0.4562E-05  0.5154E-06
    -21.264  0.1431E+04  0.1617E+03
    -21.151  0.2684E+03  0.1920E+03
    -21.038  0.0000E+00  0.1920E+03
    -20.925  0.0000E+00  0.1920E+03
    -20.812  0.0000E+00  0.1920E+03
    -20.699  0.0000E+00  0.1920E+03
    -20.586  0.0000E+00  0.1920E+03
    -20.473  0.0000E+00  0.1920E+03
    -20.360  0.0000E+00  0.1920E+03
    -20.247  0.0000E+00  0.1920E+03
    -20.134  0.0000E+00  0.1920E+03
    -20.021  0.0000E+00  0.1920E+03
    -19.908  0.0000E+00  0.1920E+03
    -19.795  0.0000E+00  0.1920E+03
    -19.682  0.0000E+00  0.1920E+03
    -19.569  0.0000E+00  0.1920E+03
    -19.456  0.0000E+00  0.1920E+03
    -19.343  0.0000E+00  0.1920E+03
    -19.230  0.0000E+00  0.1920E+03
    -19.117  0.0000E+00  0.1920E+03
    -19.004  0.0000E+00  0.1920E+03
    -18.891  0.0000E+00  0.1920E+03
    -18.778  0.0000E+00  0.1920E+03
    -18.665  0.0000E+00  0.1920E+03
    -18.552  0.0000E+00  0.1920E+03
    -18.439  0.0000E+00  0.1920E+03
    -18.326  0.0000E+00  0.1920E+03
    -18.213  0.0000E+00  0.1920E+03
    -18.100  0.0000E+00  0.1920E+03
    -17.987  0.0000E+00  0.1920E+03
    -17.874  0.0000E+00  0.1920E+03
    -17.761  0.0000E+00  0.1920E+03
    -17.648  0.0000E+00  0.1920E+03
    -17.535  0.0000E+00  0.1920E+03
    -17.422  0.0000E+00  0.1920E+03
    -17.310  0.0000E+00  0.1920E+03
    -17.197  0.0000E+00  0.1920E+03
    -17.084  0.0000E+00  0.1920E+03
    -16.971  0.0000E+00  0.1920E+03
    -16.858  0.0000E+00  0.1920E+03
    -16.745  0.0000E+00  0.1920E+03
    -16.632  0.0000E+00  0.1920E+03
    -16.519  0.0000E+00  0.1920E+03
    -16.406  0.0000E+00  0.1920E+03
    -16.293  0.0000E+00  0.1920E+03
    -16.180  0.0000E+00  0.1920E+03
    -16.067  0.0000E+00  0.1920E+03
    -15.954  0.0000E+00  0.1920E+03
    -15.841  0.0000E+00  0.1920E+03
    -15.728  0.0000E+00  0.1920E+03
    -15.615  0.0000E+00  0.1920E+03
    -15.502  0.0000E+00  0.1920E+03
    -15.389  0.0000E+00  0.1920E+03
    -15.276  0.0000E+00  0.1920E+03
    -15.163  0.0000E+00  0.1920E+03
    -15.050  0.0000E+00  0.1920E+03
    -14.937  0.0000E+00  0.1920E+03
    -14.824  0.0000E+00  0.1920E+03
    -14.711  0.0000E+00  0.1920E+03
    -14.598  0.0000E+00  0.1920E+03
    -14.485  0.0000E+00  0.1920E+03
    -14.372  0.0000E+00  0.1920E+03
    -14.259  0.0000E+00  0.1920E+03
    -14.146  0.0000E+00  0.1920E+03
    -14.033  0.0000E+00  0.1920E+03
    -13.920  0.0000E+00  0.1920E+03
    -13.807  0.0000E+00  0.1920E+03
    -13.694  0.0000E+00  0.1920E+03
    -13.581  0.0000E+00  0.1920E+03
    -13.468  0.8966E-14  0.1920E+03
    -13.355  0.1302E+01  0.1921E+03
    -13.242  0.2066E+02  0.1945E+03
    -13.129  0.4827E+02  0.1999E+03
    -13.016  0.1291E+03  0.2145E+03
    -12.903  0.3631E+03  0.2555E+03
    -12.790  0.3979E+01  0.2560E+03
    -12.677  0.0000E+00  0.2560E+03
    -12.564  0.0000E+00  0.2560E+03
    -12.451  0.0000E+00  0.2560E+03
    -12.338  0.0000E+00  0.2560E+03
    -12.225  0.0000E+00  0.2560E+03
    -12.112  0.0000E+00  0.2560E+03
    -11.999  0.0000E+00  0.2560E+03
    -11.886  0.0000E+00  0.2560E+03
    -11.773  0.0000E+00  0.2560E+03
    -11.660  0.0000E+00  0.2560E+03
    -11.547  0.0000E+00  0.2560E+03
    -11.434  0.0000E+00  0.2560E+03
    -11.321  0.0000E+00  0.2560E+03
    -11.208  0.0000E+00  0.2560E+03
    -11.095  0.0000E+00  0.2560E+03
    -10.982  0.0000E+00  0.2560E+03
    -10.869  0.0000E+00  0.2560E+03
    -10.756  0.0000E+00  0.2560E+03
    -10.643  0.0000E+00  0.2560E+03
    -10.530  0.0000E+00  0.2560E+03
    -10.417  0.0000E+00  0.2560E+03
    -10.304  0.0000E+00  0.2560E+03
    -10.191  0.0000E+00  0.2560E+03
    -10.078  0.0000E+00  0.2560E+03
     -9.965  0.0000E+00  0.2560E+03
     -9.852  0.0000E+00  0.2560E+03
     -9.739  0.0000E+00  0.2560E+03
     -9.627  0.0000E+00  0.2560E+03
     -9.514  0.0000E+00  0.2560E+03
     -9.401  0.0000E+00  0.2560E+03
     -9.288  0.0000E+00  0.2560E+03
     -9.175  0.0000E+00  0.2560E+03
     -9.062  0.0000E+00  0.2560E+03
     -8.949  0.0000E+00  0.2560E+03
     -8.836  0.0000E+00  0.2560E+03
     -8.723  0.0000E+00  0.2560E+03
     -8.610  0.0000E+00  0.2560E+03
     -8.497  0.0000E+00  0.2560E+03
     -8.384  0.0000E+00  0.2560E+03
     -8.271  0.0000E+00  0.2560E+03
     -8.158  0.0000E+00  0.2560E+03
     -8.045  0.0000E+00  0.2560E+03
     -7.932  0.0000E+00  0.2560E+03
     -7.819  0.0000E+00  0.2560E+03
     -7.706  0.0000E+00  0.2560E+03
     -7.593  0.0000E+00  0.2560E+03
     -7.480  0.0000E+00  0.2560E+03
     -7.367  0.0000E+00  0.2560E+03
     -7.254  0.0000E+00  0.2560E+03
     -7.141  0.0000E+00  0.2560E+03
     -7.028  0.0000E+00  0.2560E+03
     -6.915  0.0000E+00  0.2560E+03
     -6.802  0.0000E+00  0.2560E+03
     -6.689  0.0000E+00  0.2560E+03
     -6.576  0.0000E+00  0.2560E+03
     -6.463  0.0000E+00  0.2560E+03
     -6.350  0.0000E+00  0.2560E+03
     -6.237  0.0000E+00  0.2560E+03
     -6.124  0.0000E+00  0.2560E+03
     -6.011  0.0000E+00  0.2560E+03
     -5.898  0.0000E+00  0.2560E+03
     -5.785  0.0000E+00  0.2560E+03
     -5.672  0.0000E+00  0.2560E+03
     -5.559  0.0000E+00  0.2560E+03
     -5.446  0.0000E+00  0.2560E+03
     -5.333  0.0000E+00  0.2560E+03
     -5.220  0.0000E+00  0.2560E+03
     -5.107  0.0000E+00  0.2560E+03
     -4.994  0.0000E+00  0.2560E+03
     -4.881  0.0000E+00  0.2560E+03
     -4.768  0.0000E+00  0.2560E+03
     -4.655  0.0000E+00  0.2560E+03
     -4.542  0.0000E+00  0.2560E+03
     -4.429  0.0000E+00  0.2560E+03
     -4.316  0.0000E+00  0.2560E+03
     -4.203  0.0000E+00  0.2560E+03
     -4.090  0.0000E+00  0.2560E+03
     -3.977  0.0000E+00  0.2560E+03
     -3.864  0.0000E+00  0.2560E+03
     -3.751  0.0000E+00  0.2560E+03
     -3.638  0.0000E+00  0.2560E+03
     -3.525  0.0000E+00  0.2560E+03
     -3.412  0.0000E+00  0.2560E+03
     -3.299  0.0000E+00  0.2560E+03
     -3.186  0.0000E+00  0.2560E+03
     -3.073  0.0000E+00  0.2560E+03
     -2.960  0.0000E+00  0.2560E+03
     -2.847  0.0000E+00  0.2560E+03
     -2.734  0.6721E-01  0.2560E+03
     -2.621  0.8783E+01  0.2570E+03
     -2.508  0.2074E+02  0.2593E+03
     -2.395  0.8617E+02  0.2691E+03
     -2.282  0.8074E+02  0.2782E+03
     -2.169  0.1561E+03  0.2958E+03
     -2.056  0.7444E+02  0.3043E+03
     -1.944  0.5555E+02  0.3105E+03
     -1.831  0.5892E+02  0.3172E+03
     -1.718  0.7582E+02  0.3257E+03
     -1.605  0.3678E-10  0.3258E+03
     -1.492  0.6078E+02  0.3326E+03
     -1.379  0.2038E+03  0.3556E+03
     -1.266  0.2744E+02  0.3587E+03
     -1.153  0.2467E+03  0.3866E+03
     -1.040  0.1420E+03  0.4027E+03
     -0.927  0.2529E+03  0.4312E+03
     -0.814  0.6744E+02  0.4389E+03
     -0.701  0.7426E+02  0.4472E+03
     -0.588  0.6702E+01  0.4480E+03
     -0.475  0.0000E+00  0.4480E+03
     -0.362  0.0000E+00  0.4480E+03
     -0.249  0.0000E+00  0.4480E+03
     -0.136  0.0000E+00  0.4480E+03
     -0.023  0.0000E+00  0.4480E+03
      0.090  0.0000E+00  0.4480E+03
      0.203  0.0000E+00  0.4480E+03
      0.316  0.0000E+00  0.4480E+03
      0.429  0.0000E+00  0.4480E+03
      0.542  0.0000E+00  0.4480E+03
      0.655  0.0000E+00  0.4480E+03
      0.768  0.0000E+00  0.4480E+03
      0.881  0.0000E+00  0.4480E+03
      0.994  0.0000E+00  0.4480E+03
      1.107  0.0000E+00  0.4480E+03
      1.220  0.0000E+00  0.4480E+03
      1.333  0.0000E+00  0.4480E+03
      1.446  0.0000E+00  0.4480E+03
      1.559  0.0000E+00  0.4480E+03
      1.672  0.0000E+00  0.4480E+03
      1.785  0.0000E+00  0.4480E+03
      1.898  0.0000E+00  0.4480E+03
      2.011  0.0000E+00  0.4480E+03
      2.124  0.0000E+00  0.4480E+03
      2.237  0.0000E+00  0.4480E+03
      2.350  0.0000E+00  0.4480E+03
      2.463  0.0000E+00  0.4480E+03
      2.576  0.0000E+00  0.4480E+03
      2.689  0.0000E+00  0.4480E+03
      2.802  0.0000E+00  0.4480E+03
      2.915  0.0000E+00  0.4480E+03
      3.028  0.0000E+00  0.4480E+03
      3.141  0.0000E+00  0.4480E+03
      3.254  0.0000E+00  0.4480E+03
      3.367  0.0000E+00  0.4480E+03
      3.480  0.0000E+00  0.4480E+03
      3.593  0.0000E+00  0.4480E+03
      3.706  0.0000E+00  0.4480E+03
      3.819  0.0000E+00  0.4480E+03
      3.932  0.0000E+00  0.4480E+03
      4.045  0.0000E+00  0.4480E+03
      4.158  0.0000E+00  0.4480E+03
      4.271  0.9442E-06  0.4480E+03
      4.384  0.2210E+01  0.4482E+03
      4.497  0.2396E-02  0.4482E+03
      4.610  0.0000E+00  0.4482E+03
      4.723  0.0000E+00  0.4482E+03
      4.836  0.0000E+00  0.4482E+03
      4.949  0.1414E-05  0.4483E+03
      5.062  0.1324E+02  0.4497E+03
      5.175  0.3860E-01  0.4498E+03
      5.288  0.0000E+00  0.4498E+03
      5.401  0.0000E+00  0.4498E+03
      5.514  0.9327E+00  0.4499E+03
      5.627  0.2562E+02  0.4527E+03
      5.740  0.1562E-08  0.4528E+03
      5.852  0.1639E+02  0.4546E+03
      5.965  0.1309E+01  0.4548E+03
      6.078  0.0000E+00  0.4548E+03
      6.191  0.0000E+00  0.4548E+03
      6.304  0.5383E-04  0.4548E+03
      6.417  0.1351E+02  0.4563E+03
      6.530  0.8611E+01  0.4572E+03
      6.643  0.3280E+02  0.4610E+03
      6.756  0.7319E+02  0.4692E+03
      6.869  0.5816E+02  0.4758E+03
      6.982  0.1223E+02  0.4772E+03
      7.095  0.2834E+01  0.4775E+03
      7.208  0.3596E+01  0.4779E+03
      7.321  0.3094E+01  0.4783E+03
      7.434  0.7972E+02  0.4873E+03
      7.547  0.1653E+03  0.5059E+03
      7.660  0.7131E+01  0.5068E+03
      7.773  0.2655E+02  0.5097E+03
      7.886  0.2793E-01  0.5098E+03
      7.999  0.5308E+02  0.5157E+03
      8.112  0.5125E-03  0.5158E+03
      8.225  0.1340E+02  0.5173E+03
      8.338  0.9275E+02  0.5277E+03
      8.451  0.6026E-01  0.5278E+03
      8.564  0.1382E+03  0.5434E+03
      8.677  0.2113E+02  0.5458E+03
      8.790  0.1727E-07  0.5458E+03
      8.903  0.7024E+02  0.5537E+03
      9.016  0.1299E+03  0.5684E+03
      9.129  0.1005E+02  0.5695E+03
      9.242  0.1463E+02  0.5712E+03
      9.355  0.2962E+02  0.5745E+03
      9.468  0.4279E+00  0.5745E+03
      9.581  0.1285E+02  0.5760E+03
      9.694  0.0000E+00  0.5760E+03
      9.807  0.0000E+00  0.5760E+03
      9.920  0.0000E+00  0.5760E+03
     10.033  0.0000E+00  0.5760E+03
     10.146  0.0000E+00  0.5760E+03
     10.259  0.0000E+00  0.5760E+03
     10.372  0.0000E+00  0.5760E+03
     10.485  0.0000E+00  0.5760E+03
     10.598  0.0000E+00  0.5760E+03
     10.711  0.0000E+00  0.5760E+03
     10.824  0.0000E+00  0.5760E+03
     10.937  0.0000E+00  0.5760E+03
     11.050  0.0000E+00  0.5760E+03
