       N       E                     dE             d eps       ncg     rms          rms(c)
DAV:   1     0.432366783965E+04    0.43237E+04   -0.17163E+05  4608   0.125E+03
DAV:   2     0.363941059548E+03   -0.39597E+04   -0.37666E+04  5120   0.368E+02
DAV:   3    -0.206173718876E+03   -0.57011E+03   -0.56587E+03  5600   0.156E+02
DAV:   4    -0.228190786266E+03   -0.22017E+02   -0.21917E+02  5504   0.331E+01
DAV:   5    -0.229003846153E+03   -0.81306E+00   -0.81166E+00  5664   0.617E+00    0.106E+01
DAV:   6    -0.224139365824E+03    0.48645E+01   -0.94655E+00  5696   0.528E+00    0.776E+00
DAV:   7    -0.223777543023E+03    0.36182E+00   -0.20675E+00  6208   0.235E+00    0.533E+00
DAV:   8    -0.223902799870E+03   -0.12526E+00   -0.26632E-01  5312   0.123E+00    0.141E+00
DAV:   9    -0.223897303670E+03    0.54962E-02   -0.11238E-02  5728   0.256E-01    0.603E-01
DAV:  10    -0.223901626310E+03   -0.43226E-02   -0.18736E-02  5312   0.223E-01    0.295E-01
DAV:  11    -0.223900853724E+03    0.77259E-03   -0.17364E-03  5664   0.807E-02    0.823E-02
DAV:  12    -0.223900820616E+03    0.33108E-04   -0.14210E-04  6112   0.228E-02    0.129E-02
DAV:  13    -0.223900823115E+03   -0.24988E-05   -0.18237E-05  5376   0.737E-03    0.305E-03
DAV:  14    -0.223900823290E+03   -0.17498E-06   -0.17395E-06  6144   0.294E-03    0.956E-03
DAV:  15    -0.223900824494E+03   -0.12045E-05   -0.48829E-07  5248   0.142E-03    0.376E-03
DAV:  16    -0.223900825116E+03   -0.62175E-06   -0.12178E-07  5152   0.738E-04    0.640E-04
DAV:  17    -0.223900825144E+03   -0.28536E-07   -0.82239E-09  3584   0.424E-04    0.442E-04
DAV:  18    -0.223900825180E+03   -0.35383E-07   -0.55851E-09  3168   0.261E-04    0.477E-04
DAV:  19    -0.223900825172E+03    0.82218E-08   -0.22655E-09  3072   0.181E-04
   1 F= -.22390083E+03 E0= -.22390083E+03  d E =-.374720E-14
