 vasp.6.3.2 27Jun22 (build Oct 14 2022 12:13:54) complex                        
  
 executed on             LinuxIFC date 2025.08.28  22:00:10
 running on   32 total cores
 distrk:  each k-point on   32 cores,    1 groups
 distr:  one band on NCORE=   1 cores,   32 groups


--------------------------------------------------------------------------------------------------------


 INCAR:
   ENCUT = 341.213600
   SIGMA = 0.020000
   EDIFF = 1.00e-08
   GGA = PS
   PREC = Accurate
   IALGO = 38
   IBRION = -1
   ISMEAR = 0
   NELMIN = 5
   ADDGRID = .TRUE.
   LCHARG = .FALSE.
   LWAVE = .FALSE.
   LREAL = .FALSE.

 POTCAR:    PAW_PBE Na_pv 19Sep2006               
 POTCAR:    PAW_PBE Cl 06Sep2000                  
 -----------------------------------------------------------------------------
|                                                                             |
|           W    W    AA    RRRRR   N    N  II  N    N   GGGG   !!!           |
|           W    W   A  A   R    R  NN   N  II  NN   N  G    G  !!!           |
|           W    W  A    A  R    R  N N  N  II  N N  N  G       !!!           |
|           W WW W  AAAAAA  RRRRR   N  N N  II  N  N N  G  GGG   !            |
|           WW  WW  A    A  R   R   N   NN  II  N   NN  G    G                |
|           W    W  A    A  R    R  N    N  II  N    N   GGGG   !!!           |
|                                                                             |
|     For optimal performance we recommend to set                             |
|       NCORE = 2 up to number-of-cores-per-socket                            |
|     NCORE specifies how many cores store one orbital (NPAR=cpu/NCORE).      |
|     This setting can greatly improve the performance of VASP for DFT.       |
|     The default, NCORE=1 might be grossly inefficient on modern             |
|     multi-core architectures or massively parallel machines. Do your        |
|     own testing! More info at https://www.vasp.at/wiki/index.php/NCORE      |
|     Unfortunately you need to use the default for GW and RPA                |
|     calculations (for HF NCORE is supported but not extensively tested      |
|     yet).                                                                   |
|                                                                             |
 -----------------------------------------------------------------------------

 POTCAR:    PAW_PBE Na_pv 19Sep2006               
   SHA256 =  6a2f546d9e11350984debacf3dc457d8cffc0868e817d445faca461816a32b94 Na_pv/POTCAR          
   COPYR  = (c) Copyright 19Sep2006 Georg Kresse                                                    
   COPYR  = This file is part of the software VASP. Any use, copying, and all other rights are regul
   COPYR  = If you do not have a valid VASP license, you may not use, copy or distribute this file. 
   VRHFIN =Na: p6s1                                                                                 
   LEXCH  = PE                                                                                      
   EATOM  =   766.0439 eV,   56.3026 Ry                                                             
                                                                                                    
   TITEL  = PAW_PBE Na_pv 19Sep2006                                                                 
   LULTRA =        F    use ultrasoft PP ?                                                          
   IUNSCR =        1    unscreen: 0-lin 1-nonlin 2-no                                               
   RPACOR =    1.800    partial core radius                                                         
   POMASS =   22.990; ZVAL   =    7.000    mass and valenz                                          
   RCORE  =    2.200    outmost cutoff radius                                                       
   RWIGS  =    2.200; RWIGS  =    1.164    wigner-seitz radius (au A)                               
   ENMAX  =  259.561; ENMIN  =  194.671 eV                                                          
   ICORE  =        2    local potential                                                             
   LCOR   =        T    correct aug charges                                                         
   LPAW   =        T    paw PP                                                                      
   EAUG   =  368.056                                                                                
   DEXC   =    0.000                                                                                
   RMAX   =    2.245    core radius for proj-oper                                                   
   RAUG   =    1.300    factor for augmentation sphere                                              
   RDEP   =    2.259    radius for radial grids                                                     
   RDEPT  =    1.738    core radius for aug-charge                                                  
                                                                                                    
   Atomic configuration                                                                             
    5 entries                                                                                       
     n  l   j            E        occ.                                                              
     1  0  0.50     -1033.6933   2.0000                                                             
     2  0  0.50       -56.7526   2.0000                                                             
     2  1  1.50       -28.6721   6.0000                                                             
     3  0  0.50        -2.7440   1.0000                                                             
     3  2  1.50        -1.3606   0.0000                                                             
   Description                                                                                      
     l       E           TYP  RCUT    TYP  RCUT                                                     
     1    -28.6720912     23  2.000                                                                 
     1      6.8029130     23  2.000                                                                 
     0     -2.7439560     23  2.200                                                                 
     0     34.0145650     23  2.200                                                                 
     2     -1.3605826     23  2.200                                                                 
  local pseudopotential read in
  partial core-charges read in
  partial kinetic energy density read in
  atomic valenz-charges read in
  non local Contribution for L=           1  read in
    real space projection operators read in
  non local Contribution for L=           1  read in
    real space projection operators read in
  non local Contribution for L=           0  read in
    real space projection operators read in
  non local Contribution for L=           0  read in
    real space projection operators read in
    PAW grid and wavefunctions read in
 
   number of l-projection  operators is LMAX  =           4
   number of lm-projection operators is LMMAX =           8
 
 POTCAR:    PAW_PBE Cl 06Sep2000                  
   SHA256 =  9f1b6e6ed4247ac726a768b330d26d7667cc3c95a39ff49c1d064c2d9dcce931 Cl/POTCAR             
   COPYR  = (c) Copyright 06Sep2000 Georg Kresse                                                    
   COPYR  = This file is part of the software VASP. Any use, copying, and all other rights are regul
   COPYR  = If you do not have a valid VASP license, you may not use, copy or distribute this file. 
   VRHFIN =Cl: s2p5                                                                                 
   LEXCH  = PE                                                                                      
   EATOM  =   409.7259 eV,   30.1140 Ry                                                             
                                                                                                    
   TITEL  = PAW_PBE Cl 06Sep2000                                                                    
   LULTRA =        F    use ultrasoft PP ?                                                          
   IUNSCR =        1    unscreen: 0-lin 1-nonlin 2-no                                               
   RPACOR =    1.500    partial core radius                                                         
   POMASS =   35.453; ZVAL   =    7.000    mass and valenz                                          
   RCORE  =    1.900    outmost cutoff radius                                                       
   RWIGS  =    2.100; RWIGS  =    1.111    wigner-seitz radius (au A)                               
   ENMAX  =  262.472; ENMIN  =  196.854 eV                                                          
   ICORE  =        2    local potential                                                             
   LCOR   =        T    correct aug charges                                                         
   LPAW   =        T    paw PP                                                                      
   EAUG   =  356.192                                                                                
   DEXC   =    0.000                                                                                
   RMAX   =    1.945    core radius for proj-oper                                                   
   RAUG   =    1.300    factor for augmentation sphere                                              
   RDEP   =    2.020    radius for radial grids                                                     
   RDEPT  =    1.678    core radius for aug-charge                                                  
                                                                                                    
   Atomic configuration                                                                             
    6 entries                                                                                       
     n  l   j            E        occ.                                                              
     1  0  0.50     -2751.1850   2.0000                                                             
     2  0  0.50      -252.6861   2.0000                                                             
     2  1  1.50      -191.6157   6.0000                                                             
     3  0  0.50       -20.6916   2.0000                                                             
     3  1  0.50        -8.5949   5.0000                                                             
     3  2  1.50        -8.1635   0.0000                                                             
   Description                                                                                      
     l       E           TYP  RCUT    TYP  RCUT                                                     
     0    -20.6915656     23  1.900                                                                 
     0    -22.0521482     23  1.900                                                                 
     1     -8.5948577     23  1.900                                                                 
     1     -5.3847331     23  1.900                                                                 
     2     -8.1634956     23  1.900                                                                 
  local pseudopotential read in
  partial core-charges read in
  partial kinetic energy density read in
  atomic valenz-charges read in
  non local Contribution for L=           0  read in
    real space projection operators read in
  non local Contribution for L=           0  read in
    real space projection operators read in
  non local Contribution for L=           1  read in
    real space projection operators read in
  non local Contribution for L=           1  read in
    real space projection operators read in
    PAW grid and wavefunctions read in
 
   number of l-projection  operators is LMAX  =           4
   number of lm-projection operators is LMMAX =           8
 
 -----------------------------------------------------------------------------
|                                                                             |
|               ----> ADVICE to this user running VASP <----                  |
|                                                                             |
|     You have a (more or less) 'large supercell' and for larger cells it     |
|     might be more efficient to use real-space projection operators.         |
|     Therefore, try LREAL= Auto in the INCAR file.                           |
|     Mind: For very accurate calculation, you might also keep the            |
|     reciprocal projection scheme (i.e. LREAL=.FALSE.).                      |
|                                                                             |
 -----------------------------------------------------------------------------

 -----------------------------------------------------------------------------
|                                                                             |
|               ----> ADVICE to this user running VASP <----                  |
|                                                                             |
|     You enforced a specific xc type in the INCAR file but a different       |
|     type was found in the POTCAR file.                                      |
|     I HOPE YOU KNOW WHAT YOU ARE DOING!                                     |
|                                                                             |
 -----------------------------------------------------------------------------

  PAW_PBE Na_pv 19Sep2006               :
 energy of atom  1       EATOM= -766.0439
 kinetic energy error for atom=    0.0189 (will be added to EATOM!!)
  PAW_PBE Cl 06Sep2000                  :
 energy of atom  2       EATOM= -409.7259
 kinetic energy error for atom=    0.0106 (will be added to EATOM!!)
 
 
 POSCAR: Na Cl
  positions in cartesian coordinates
  No initial velocities read in
 exchange correlation table for  LEXCH =       14
   RHO(1)=    0.500       N(1)  =     2000
   RHO(2)=  100.500       N(2)  =     4000
 


--------------------------------------------------------------------------------------------------------


 ion  position               nearest neighbor table
   1  0.997  0.000  0.000-
   2  0.250  0.250  0.003-
   3  0.250  0.000  0.250-
   4  0.000  0.250  0.250-
   5  0.000  0.000  0.500-
   6  0.250  0.250  0.500-
   7  0.250  0.000  0.750-
   8  0.000  0.250  0.750-
   9  0.000  0.500  0.000-
  10  0.250  0.750  0.000-
  11  0.250  0.500  0.250-
  12  0.000  0.750  0.250-
  13  0.000  0.500  0.500-
  14  0.250  0.750  0.500-
  15  0.250  0.500  0.750-
  16  0.000  0.750  0.750-
  17  0.500  0.000  0.000-
  18  0.750  0.250  0.000-
  19  0.750  0.000  0.250-
  20  0.500  0.250  0.250-
  21  0.500  0.000  0.500-
  22  0.750  0.250  0.500-
  23  0.750  0.000  0.750-
  24  0.500  0.250  0.750-
  25  0.500  0.500  0.000-
  26  0.750  0.750  0.000-
  27  0.750  0.500  0.250-
  28  0.500  0.750  0.250-
  29  0.500  0.500  0.500-
  30  0.750  0.750  0.500-
  31  0.750  0.500  0.750-
  32  0.500  0.750  0.750-
  33  0.250  0.250  0.250-
  34  0.000  0.000  0.250-
  35  0.000  0.250  0.000-
  36  0.250  0.000  0.000-
  37  0.250  0.250  0.750-
  38  0.000  0.000  0.750-
  39  0.000  0.250  0.500-
  40  0.250  0.000  0.500-
  41  0.250  0.750  0.250-
  42  0.000  0.500  0.250-
  43  0.000  0.750  0.000-
  44  0.250  0.500  0.000-
  45  0.250  0.750  0.750-
  46  0.000  0.500  0.750-
  47  0.000  0.750  0.500-
  48  0.250  0.500  0.500-
  49  0.750  0.250  0.250-
  50  0.500  0.000  0.250-
  51  0.500  0.250  0.000-
  52  0.750  0.000  0.000-
  53  0.750  0.250  0.750-
  54  0.500  0.000  0.750-
  55  0.500  0.250  0.500-
  56  0.750  0.000  0.500-
  57  0.750  0.750  0.250-
  58  0.500  0.500  0.250-
  59  0.500  0.750  0.000-
  60  0.750  0.500  0.000-
  61  0.750  0.750  0.750-
  62  0.500  0.500  0.750-
  63  0.500  0.750  0.500-
  64  0.750  0.500  0.500-
 
  LATTYP: Found a simple cubic cell.
 ALAT       =    11.2040023600
  
  Lattice vectors:
  
 A1 = (  11.2040023600,   0.0000000000,   0.0000000000)
 A2 = (   0.0000000000,  11.2040023600,   0.0000000000)
 A3 = (   0.0000000000,   0.0000000000,  11.2040023600)


Analysis of symmetry for initial positions (statically):
=====================================================================
 Subroutine PRICEL returns:
 Original cell was already a primitive cell.
 

 Routine SETGRP: Setting up the symmetry group for a 
 simple cubic supercell.


 Subroutine GETGRP returns: Found  1 space group operations
 (whereof  1 operations were pure point group operations)
 out of a pool of 48 trial point group operations.


The static configuration has the point symmetry C_1 .


Analysis of symmetry for dynamics (positions and initial velocities):
=====================================================================
 Subroutine PRICEL returns:
 Original cell was already a primitive cell.
 

 Routine SETGRP: Setting up the symmetry group for a 
 simple cubic supercell.


 Subroutine GETGRP returns: Found  1 space group operations
 (whereof  1 operations were pure point group operations)
 out of a pool of 48 trial point group operations.


The dynamic configuration has the point symmetry C_1 .


 Subroutine INISYM returns: Found  1 space group operations
 (whereof  1 operations are pure point group operations),
 and found     1 'primitive' translations


----------------------------------------------------------------------------------------

                                     Primitive cell                                     

  volume of cell :    1406.4347

  direct lattice vectors                    reciprocal lattice vectors
    11.204002360  0.000000000  0.000000000     0.089253819  0.000000000  0.000000000
     0.000000000 11.204002360  0.000000000     0.000000000  0.089253819  0.000000000
     0.000000000  0.000000000 11.204002360     0.000000000  0.000000000  0.089253819

  length of vectors
    11.204002360 11.204002360 11.204002360     0.089253819  0.089253819  0.089253819

  position of ions in fractional coordinates (direct lattice)
     0.997322385  0.000000000  0.000000000
     0.250000000  0.250000000  0.002677615
     0.250000000  0.000000000  0.250000000
     0.000000000  0.250000000  0.250000000
     0.000000000  0.000000000  0.500000000
     0.250000000  0.250000000  0.500000000
     0.250000000  0.000000000  0.750000000
     0.000000000  0.250000000  0.750000000
     0.000000000  0.500000000  0.000000000
     0.250000000  0.750000000  0.000000000
     0.250000000  0.500000000  0.250000000
     0.000000000  0.750000000  0.250000000
     0.000000000  0.500000000  0.500000000
     0.250000000  0.750000000  0.500000000
     0.250000000  0.500000000  0.750000000
     0.000000000  0.750000000  0.750000000
     0.500000000  0.000000000  0.000000000
     0.750000000  0.250000000  0.000000000
     0.750000000  0.000000000  0.250000000
     0.500000000  0.250000000  0.250000000
     0.500000000  0.000000000  0.500000000
     0.750000000  0.250000000  0.500000000
     0.750000000  0.000000000  0.750000000
     0.500000000  0.250000000  0.750000000
     0.500000000  0.500000000  0.000000000
     0.750000000  0.750000000  0.000000000
     0.750000000  0.500000000  0.250000000
     0.500000000  0.750000000  0.250000000
     0.500000000  0.500000000  0.500000000
     0.750000000  0.750000000  0.500000000
     0.750000000  0.500000000  0.750000000
     0.500000000  0.750000000  0.750000000
     0.250000000  0.250000000  0.250000000
     0.000000000  0.000000000  0.250000000
     0.000000000  0.250000000  0.000000000
     0.250000000  0.000000000  0.000000000
     0.250000000  0.250000000  0.750000000
     0.000000000  0.000000000  0.750000000
     0.000000000  0.250000000  0.500000000
     0.250000000  0.000000000  0.500000000
     0.250000000  0.750000000  0.250000000
     0.000000000  0.500000000  0.250000000
     0.000000000  0.750000000  0.000000000
     0.250000000  0.500000000  0.000000000
     0.250000000  0.750000000  0.750000000
     0.000000000  0.500000000  0.750000000
     0.000000000  0.750000000  0.500000000
     0.250000000  0.500000000  0.500000000
     0.750000000  0.250000000  0.250000000
     0.500000000  0.000000000  0.250000000
     0.500000000  0.250000000  0.000000000
     0.750000000  0.000000000  0.000000000
     0.750000000  0.250000000  0.750000000
     0.500000000  0.000000000  0.750000000
     0.500000000  0.250000000  0.500000000
     0.750000000  0.000000000  0.500000000
     0.750000000  0.750000000  0.250000000
     0.500000000  0.500000000  0.250000000
     0.500000000  0.750000000  0.000000000
     0.750000000  0.500000000  0.000000000
     0.750000000  0.750000000  0.750000000
     0.500000000  0.500000000  0.750000000
     0.500000000  0.750000000  0.500000000
     0.750000000  0.500000000  0.500000000

  ion indices of the primitive-cell ions
   primitive index   ion index
                 1           1
                 2           2
                 3           3
                 4           4
                 5           5
                 6           6
                 7           7
                 8           8
                 9           9
                10          10
                11          11
                12          12
                13          13
                14          14
                15          15
                16          16
                17          17
                18          18
                19          19
                20          20
                21          21
                22          22
                23          23
                24          24
                25          25
                26          26
                27          27
                28          28
                29          29
                30          30
                31          31
                32          32
                33          33
                34          34
                35          35
                36          36
                37          37
                38          38
                39          39
                40          40
                41          41
                42          42
                43          43
                44          44
                45          45
                46          46
                47          47
                48          48
                49          49
                50          50
                51          51
                52          52
                53          53
                54          54
                55          55
                56          56
                57          57
                58          58
                59          59
                60          60
                61          61
                62          62
                63          63
                64          64

----------------------------------------------------------------------------------------

 
 
 KPOINTS: KPOINTS created by Atomic Simulation Env

Automatic generation of k-mesh.
 Grid dimensions read from file:
 generate k-points for:    2    2    2

 Generating k-lattice:

  Cartesian coordinates                     Fractional coordinates (reciprocal lattice)
     0.044626910  0.000000000  0.000000000     0.500000000  0.000000000  0.000000000
     0.000000000  0.044626910  0.000000000     0.000000000  0.500000000  0.000000000
     0.000000000  0.000000000  0.044626910     0.000000000  0.000000000  0.500000000

  Length of vectors
     0.044626910  0.044626910  0.044626910

  Shift w.r.t. Gamma in fractional coordinates (k-lattice)
     0.000000000  0.000000000  0.000000000

 
 Subroutine IBZKPT returns following result:
 ===========================================
 
 Found      8 irreducible k-points:
 
 Following reciprocal coordinates:
            Coordinates               Weight
  0.000000  0.000000  0.000000      1.000000
  0.500000  0.000000  0.000000      1.000000
  0.000000  0.500000  0.000000      1.000000
  0.000000  0.000000  0.500000      1.000000
  0.500000  0.500000  0.000000      1.000000
  0.000000  0.500000  0.500000      1.000000
  0.500000  0.000000  0.500000      1.000000
  0.500000  0.500000  0.500000      1.000000
 
 Following cartesian coordinates:
            Coordinates               Weight
  0.000000  0.000000  0.000000      1.000000
  0.044627  0.000000  0.000000      1.000000
  0.000000  0.044627  0.000000      1.000000
  0.000000  0.000000  0.044627      1.000000
  0.044627  0.044627  0.000000      1.000000
  0.000000  0.044627  0.044627      1.000000
  0.044627  0.000000  0.044627      1.000000
  0.044627  0.044627  0.044627      1.000000
 


--------------------------------------------------------------------------------------------------------




 Dimension of arrays:
   k-points           NKPTS =      8   k-points in BZ     NKDIM =      8   number of bands    NBANDS=    288
   number of dos      NEDOS =    301   number of ions     NIONS =     64
   non local maximal  LDIM  =      4   non local SUM 2l+1 LMDIM =      8
   total plane-waves  NPLWV = 343000
   max r-space proj   IRMAX =      1   max aug-charges    IRDMAX=  56280
   dimension x,y,z NGX =    70 NGY =   70 NGZ =   70
   dimension x,y,z NGXF=   140 NGYF=  140 NGZF=  140
   support grid    NGXF=   280 NGYF=  280 NGZF=  280
   ions per type =              32  32
   NGX,Y,Z   is equivalent  to a cutoff of  10.39, 10.39, 10.39 a.u.
   NGXF,Y,Z  is equivalent  to a cutoff of  20.77, 20.77, 20.77 a.u.

 SYSTEM =  unknown system                          
 POSCAR =  Na Cl                                   

 Startparameter for this run:
   NWRITE =      2    write-flag & timer
   PREC   = accura    normal or accurate (medium, high low for compatibility)
   ISTART =      0    job   : 0-new  1-cont  2-samecut
   ICHARG =      2    charge: 1-file 2-atom 10-const
   ISPIN  =      1    spin polarized calculation?
   LNONCOLLINEAR =      F non collinear calculations
   LSORBIT =      F    spin-orbit coupling
   INIWAV =      1    electr: 0-lowe 1-rand  2-diag
   LASPH  =      F    aspherical Exc in radial PAW
 Electronic Relaxation 1
   ENCUT  =  341.2 eV  25.08 Ry    5.01 a.u.  16.87 16.87 16.87*2*pi/ulx,y,z
   ENINI  =  341.2     initial cutoff
   ENAUG  =  368.1 eV  augmentation charge cutoff
   NELM   =     60;   NELMIN=  5; NELMDL= -5     # of ELM steps 
   EDIFF  = 0.1E-07   stopping-criterion for ELM
   LREAL  =      F    real-space projection
   NLSPLINE    = F    spline interpolate recip. space projectors
   LCOMPAT=      F    compatible to vasp.4.4
   GGA_COMPAT  = T    GGA compatible to vasp.4.4-vasp.4.6
   LMAXPAW     = -100 max onsite density
   LMAXMIX     =    2 max onsite mixed and CHGCAR
   VOSKOWN=      0    Vosko Wilk Nusair interpolation
   ROPT   =    0.00000   0.00000
 Ionic relaxation
   EDIFFG = 0.1E-06   stopping-criterion for IOM
   NSW    =      0    number of steps for IOM
   NBLOCK =      1;   KBLOCK =      1    inner block; outer block 
   IBRION =     -1    ionic relax: 0-MD 1-quasi-New 2-CG
   NFREE  =      0    steps in history (QN), initial steepest desc. (CG)
   ISIF   =      2    stress and relaxation
   IWAVPR =     10    prediction:  0-non 1-charg 2-wave 3-comb
   ISYM   =      2    0-nonsym 1-usesym 2-fastsym
   LCORR  =      T    Harris-Foulkes like correction to forces

   POTIM  = 0.5000    time-step for ionic-motion
   TEIN   =    0.0    initial temperature
   TEBEG  =    0.0;   TEEND  =   0.0 temperature during run
   SMASS  =  -3.00    Nose mass-parameter (am)
   estimated Nose-frequenzy (Omega)   =  0.10E-29 period in steps = 0.13E+47 mass=  -0.287E-26a.u.
   SCALEE = 1.0000    scale energy and forces
   NPACO  =    256;   APACO  = 10.0  distance and # of slots for P.C.
   PSTRESS=    0.0 pullay stress

  Mass of Ions in am
   POMASS =  22.99 35.45
  Ionic Valenz
   ZVAL   =   7.00  7.00
  Atomic Wigner-Seitz radii
   RWIGS  =  -1.00 -1.00
  virtual crystal weights 
   VCA    =   1.00  1.00
   NELECT =     448.0000    total number of electrons
   NUPDOWN=      -1.0000    fix difference up-down

 DOS related values:
   EMIN   =  10.00;   EMAX   =-10.00  energy-range for DOS
   EFERMI =   0.00
   ISMEAR =     0;   SIGMA  =   0.02  broadening in eV -4-tet -1-fermi 0-gaus

 Electronic relaxation 2 (details)
   IALGO  =     38    algorithm
   LDIAG  =      T    sub-space diagonalisation (order eigenvalues)
   LSUBROT=      F    optimize rotation matrix (better conditioning)
   TURBO    =      0    0=normal 1=particle mesh
   IRESTART =      0    0=no restart 2=restart with 2 vectors
   NREBOOT  =      0    no. of reboots
   NMIN     =      0    reboot dimension
   EREF     =   0.00    reference energy to select bands
   IMIX   =      4    mixing-type and parameters
     AMIX     =   0.40;   BMIX     =  1.00
     AMIX_MAG =   1.60;   BMIX_MAG =  1.00
     AMIN     =   0.10
     WC   =   100.;   INIMIX=   1;  MIXPRE=   1;  MAXMIX= -45

 Intra band minimization:
   WEIMIN = 0.0000     energy-eigenvalue tresh-hold
   EBREAK =  0.87E-11  absolut break condition
   DEPER  =   0.30     relativ break condition  

   TIME   =   0.40     timestep for ELM

  volume/ion in A,a.u.               =      21.98       148.30
  Fermi-wavevector in a.u.,A,eV,Ry     =   1.118049  2.112807 17.007750  1.250034
  Thomas-Fermi vector in A             =   2.254677
 
 Write flags
   LWAVE        =      F    write WAVECAR
   LDOWNSAMPLE  =      F    k-point downsampling of WAVECAR
   LCHARG       =      F    write CHGCAR
   LVTOT        =      F    write LOCPOT, total local potential
   LVHAR        =      F    write LOCPOT, Hartree potential only
   LELF         =      F    write electronic localiz. function (ELF)
   LORBIT       =      0    0 simple, 1 ext, 2 COOP (PROOUT), +10 PAW based schemes


 Dipole corrections
   LMONO  =      F    monopole corrections only (constant potential shift)
   LDIPOL =      F    correct potential (dipole corrections)
   IDIPOL =      0    1-x, 2-y, 3-z, 4-all directions 
   EPSILON=  1.0000000 bulk dielectric constant

 Exchange correlation treatment:
   GGA     =    PS    GGA type
   LEXCH   =    14    internal setting for exchange type
   LIBXC   =     F    Libxc                    
   VOSKOWN =     0    Vosko Wilk Nusair interpolation
   LHFCALC =     F    Hartree Fock is set to
   LHFONE  =     F    Hartree Fock one center treatment
   AEXX    =    0.0000 exact exchange contribution

 Linear response parameters
   LEPSILON=     F    determine dielectric tensor
   LRPA    =     F    only Hartree local field effects (RPA)
   LNABLA  =     F    use nabla operator in PAW spheres
   LVEL    =     F    velocity operator in full k-point grid
   CSHIFT  =0.1000    complex shift for real part using Kramers Kronig
   OMEGAMAX=  -1.0    maximum frequency
   DEG_THRESHOLD= 0.2000000E-02 threshold for treating states as degnerate
   RTIME   =   -0.100 relaxation time in fs
  (WPLASMAI=    0.000 imaginary part of plasma frequency in eV, 0.658/RTIME)
   DFIELD  = 0.0000000 0.0000000 0.0000000 field for delta impulse in time
 
  Optional k-point grid parameters
   LKPOINTS_OPT  =     F    use optional k-point grid
   KPOINTS_OPT_MODE=     1    mode for optional k-point grid
 
 Orbital magnetization related:
   ORBITALMAG=     F  switch on orbital magnetization
   LCHIMAG   =     F  perturbation theory with respect to B field
   DQ        =  0.001000  dq finite difference perturbation B field
   LLRAUG    =     F  two centre corrections for induced B field



--------------------------------------------------------------------------------------------------------


 Static calculation
 charge density and potential will be updated during run
 non-spin polarized calculation
 Variant of blocked Davidson
 Davidson routine will perform the subspace rotation
 perform sub-space diagonalisation
    after iterative eigenvector-optimisation
 modified Broyden-mixing scheme, WC =      100.0
 initial mixing is a Kerker type mixing with AMIX =  0.4000 and BMIX =      1.0000
 Hartree-type preconditioning will be used
 using additional bands           64
 reciprocal scheme for non local part
 use partial core corrections
 calculate Harris-corrections to forces 
   (improved forces if not selfconsistent)
 use gradient corrections 
 use of overlap-Matrix (Vanderbilt PP)
 Gauss-broadening in eV      SIGMA  =   0.02


--------------------------------------------------------------------------------------------------------


  energy-cutoff  :      341.21
  volume of cell :     1406.43
      direct lattice vectors                 reciprocal lattice vectors
    11.204002360  0.000000000  0.000000000     0.089253819  0.000000000  0.000000000
     0.000000000 11.204002360  0.000000000     0.000000000  0.089253819  0.000000000
     0.000000000  0.000000000 11.204002360     0.000000000  0.000000000  0.089253819

  length of vectors
    11.204002360 11.204002360 11.204002360     0.089253819  0.089253819  0.089253819


 
 k-points in units of 2pi/SCALE and weight: KPOINTS created by Atomic Simulation Env
   0.00000000  0.00000000  0.00000000       0.125
   0.04462691  0.00000000  0.00000000       0.125
   0.00000000  0.04462691  0.00000000       0.125
   0.00000000  0.00000000  0.04462691       0.125
   0.04462691  0.04462691  0.00000000       0.125
   0.00000000  0.04462691  0.04462691       0.125
   0.04462691  0.00000000  0.04462691       0.125
   0.04462691  0.04462691  0.04462691       0.125
 
 k-points in reciprocal lattice and weights: KPOINTS created by Atomic Simulation Env
   0.00000000  0.00000000  0.00000000       0.125
   0.50000000  0.00000000  0.00000000       0.125
   0.00000000  0.50000000  0.00000000       0.125
   0.00000000  0.00000000  0.50000000       0.125
   0.50000000  0.50000000  0.00000000       0.125
   0.00000000  0.50000000  0.50000000       0.125
   0.50000000  0.00000000  0.50000000       0.125
   0.50000000  0.50000000  0.50000000       0.125
 
 position of ions in fractional coordinates (direct lattice) 
   0.99732239  0.00000000  0.00000000
   0.25000000  0.25000000  0.00267761
   0.25000000  0.00000000  0.25000000
   0.00000000  0.25000000  0.25000000
   0.00000000  0.00000000  0.50000000
   0.25000000  0.25000000  0.50000000
   0.25000000  0.00000000  0.75000000
   0.00000000  0.25000000  0.75000000
   0.00000000  0.50000000  0.00000000
   0.25000000  0.75000000  0.00000000
   0.25000000  0.50000000  0.25000000
   0.00000000  0.75000000  0.25000000
   0.00000000  0.50000000  0.50000000
   0.25000000  0.75000000  0.50000000
   0.25000000  0.50000000  0.75000000
   0.00000000  0.75000000  0.75000000
   0.50000000  0.00000000  0.00000000
   0.75000000  0.25000000  0.00000000
   0.75000000  0.00000000  0.25000000
   0.50000000  0.25000000  0.25000000
   0.50000000  0.00000000  0.50000000
   0.75000000  0.25000000  0.50000000
   0.75000000  0.00000000  0.75000000
   0.50000000  0.25000000  0.75000000
   0.50000000  0.50000000  0.00000000
   0.75000000  0.75000000  0.00000000
   0.75000000  0.50000000  0.25000000
   0.50000000  0.75000000  0.25000000
   0.50000000  0.50000000  0.50000000
   0.75000000  0.75000000  0.50000000
   0.75000000  0.50000000  0.75000000
   0.50000000  0.75000000  0.75000000
   0.25000000  0.25000000  0.25000000
   0.00000000  0.00000000  0.25000000
   0.00000000  0.25000000  0.00000000
   0.25000000  0.00000000  0.00000000
   0.25000000  0.25000000  0.75000000
   0.00000000  0.00000000  0.75000000
   0.00000000  0.25000000  0.50000000
   0.25000000  0.00000000  0.50000000
   0.25000000  0.75000000  0.25000000
   0.00000000  0.50000000  0.25000000
   0.00000000  0.75000000  0.00000000
   0.25000000  0.50000000  0.00000000
   0.25000000  0.75000000  0.75000000
   0.00000000  0.50000000  0.75000000
   0.00000000  0.75000000  0.50000000
   0.25000000  0.50000000  0.50000000
   0.75000000  0.25000000  0.25000000
   0.50000000  0.00000000  0.25000000
   0.50000000  0.25000000  0.00000000
   0.75000000  0.00000000  0.00000000
   0.75000000  0.25000000  0.75000000
   0.50000000  0.00000000  0.75000000
   0.50000000  0.25000000  0.50000000
   0.75000000  0.00000000  0.50000000
   0.75000000  0.75000000  0.25000000
   0.50000000  0.50000000  0.25000000
   0.50000000  0.75000000  0.00000000
   0.75000000  0.50000000  0.00000000
   0.75000000  0.75000000  0.75000000
   0.50000000  0.50000000  0.75000000
   0.50000000  0.75000000  0.50000000
   0.75000000  0.50000000  0.50000000
 
 position of ions in cartesian coordinates  (Angst):
  11.17400236  0.00000000  0.00000000
   2.80100059  2.80100059  0.03000000
   2.80100059  0.00000000  2.80100059
   0.00000000  2.80100059  2.80100059
   0.00000000  0.00000000  5.60200118
   2.80100059  2.80100059  5.60200118
   2.80100059  0.00000000  8.40300177
   0.00000000  2.80100059  8.40300177
   0.00000000  5.60200118  0.00000000
   2.80100059  8.40300177  0.00000000
   2.80100059  5.60200118  2.80100059
   0.00000000  8.40300177  2.80100059
   0.00000000  5.60200118  5.60200118
   2.80100059  8.40300177  5.60200118
   2.80100059  5.60200118  8.40300177
   0.00000000  8.40300177  8.40300177
   5.60200118  0.00000000  0.00000000
   8.40300177  2.80100059  0.00000000
   8.40300177  0.00000000  2.80100059
   5.60200118  2.80100059  2.80100059
   5.60200118  0.00000000  5.60200118
   8.40300177  2.80100059  5.60200118
   8.40300177  0.00000000  8.40300177
   5.60200118  2.80100059  8.40300177
   5.60200118  5.60200118  0.00000000
   8.40300177  8.40300177  0.00000000
   8.40300177  5.60200118  2.80100059
   5.60200118  8.40300177  2.80100059
   5.60200118  5.60200118  5.60200118
   8.40300177  8.40300177  5.60200118
   8.40300177  5.60200118  8.40300177
   5.60200118  8.40300177  8.40300177
   2.80100059  2.80100059  2.80100059
   0.00000000  0.00000000  2.80100059
   0.00000000  2.80100059  0.00000000
   2.80100059  0.00000000  0.00000000
   2.80100059  2.80100059  8.40300177
   0.00000000  0.00000000  8.40300177
   0.00000000  2.80100059  5.60200118
   2.80100059  0.00000000  5.60200118
   2.80100059  8.40300177  2.80100059
   0.00000000  5.60200118  2.80100059
   0.00000000  8.40300177  0.00000000
   2.80100059  5.60200118  0.00000000
   2.80100059  8.40300177  8.40300177
   0.00000000  5.60200118  8.40300177
   0.00000000  8.40300177  5.60200118
   2.80100059  5.60200118  5.60200118
   8.40300177  2.80100059  2.80100059
   5.60200118  0.00000000  2.80100059
   5.60200118  2.80100059  0.00000000
   8.40300177  0.00000000  0.00000000
   8.40300177  2.80100059  8.40300177
   5.60200118  0.00000000  8.40300177
   5.60200118  2.80100059  5.60200118
   8.40300177  0.00000000  5.60200118
   8.40300177  8.40300177  2.80100059
   5.60200118  5.60200118  2.80100059
   5.60200118  8.40300177  0.00000000
   8.40300177  5.60200118  0.00000000
   8.40300177  8.40300177  8.40300177
   5.60200118  5.60200118  8.40300177
   5.60200118  8.40300177  5.60200118
   8.40300177  5.60200118  5.60200118
 


--------------------------------------------------------------------------------------------------------


 k-point   1 :   0.0000 0.0000 0.0000  plane waves:   20005
 k-point   2 :   0.5000 0.0000 0.0000  plane waves:   20138
 k-point   3 :   0.0000 0.5000 0.0000  plane waves:   20138
 k-point   4 :   0.0000 0.0000 0.5000  plane waves:   20138
 k-point   5 :   0.5000 0.5000 0.0000  plane waves:   20160
 k-point   6 :   0.0000 0.5000 0.5000  plane waves:   20160
 k-point   7 :   0.5000 0.0000 0.5000  plane waves:   20160
 k-point   8 :   0.5000 0.5000 0.5000  plane waves:   20336

 maximum and minimum number of plane-waves per node :     20336    20005

 maximum number of plane-waves:     20336
 maximum index in each direction: 
   IXMAX=   16   IYMAX=   16   IZMAX=   16
   IXMIN=  -17   IYMIN=  -17   IZMIN=  -17


 serial   3D FFT for wavefunctions
 parallel 3D FFT for charge:
    minimum data exchange during FFTs selected (reduces bandwidth)


 total amount of memory used by VASP MPI-rank0   129658. kBytes
=======================================================================

   base      :      30000. kBytes
   nonl-proj :      41680. kBytes
   fftplans  :      14405. kBytes
   grid      :      19342. kBytes
   one-center:        196. kBytes
   wavefun   :      24035. kBytes
 
     INWAV:  cpu time      0.0000: real time      0.0000
 Broyden mixing: mesh for mixing (old mesh)
   NGX = 33   NGY = 33   NGZ = 33
  (NGX  =140   NGY  =140   NGZ  =140)
  gives a total of  35937 points

 initial charge density was supplied:
 charge density of overlapping atoms calculated
 number of electron     448.0000000 magnetization 
 keeping initial charge density in first step


--------------------------------------------------------------------------------------------------------


 Maximum index for augmentation-charges         1834 (set IRDMAX)


--------------------------------------------------------------------------------------------------------


 First call to EWALD:  gamma=   0.158
 Maximum number of real-space cells 3x 3x 3
 Maximum number of reciprocal cells 3x 3x 3

    FEWALD:  cpu time      0.0016: real time      0.0016


--------------------------------------- Iteration      1(   1)  ---------------------------------------


    POTLOK:  cpu time      0.0441: real time      0.0446
    SETDIJ:  cpu time      0.0315: real time      0.0317
     EDDAV:  cpu time      9.9777: real time     10.0311
       DOS:  cpu time      0.0005: real time      0.0005
    --------------------------------------------
      LOOP:  cpu time     10.0539: real time     10.1079

 eigenvalue-minimisations  :  4608
 total energy-change (2. order) : 0.4323668E+04  (-0.1716290E+05)
 number of electron     448.0000000 magnetization 
 augmentation part      448.0000000 magnetization 

 Free energy of the ion-electron system (eV)
  ---------------------------------------------------
  alpha Z        PSCENC =       751.52672365
  Ewald energy   TEWEN  =    -22871.34016192
  -Hartree energ DENC   =     -8992.24471235
  -exchange      EXHF   =         0.00000000
  -V(xc)+E(xc)   XCENC  =      1456.53423634
  PAW double counting   =     26466.43774078   -29286.08056155
  entropy T*S    EENTRO =        -0.00310016
  eigenvalues    EBANDS =      -733.34179508
  atomic energy  EATOM  =     37532.17946992
  Solvation  Ediel_sol  =         0.00000000
  ---------------------------------------------------
  free energy    TOTEN  =      4323.66783965 eV

  energy without entropy =     4323.67093981  energy(sigma->0) =     4323.66938973


--------------------------------------------------------------------------------------------------------




--------------------------------------- Iteration      1(   2)  ---------------------------------------


     EDDAV:  cpu time     10.8826: real time     10.9406
       DOS:  cpu time      0.0006: real time      0.0006
    --------------------------------------------
      LOOP:  cpu time     10.8832: real time     10.9412

 eigenvalue-minimisations  :  5120
 total energy-change (2. order) :-0.3959727E+04  (-0.3766567E+04)
 number of electron     448.0000000 magnetization 
 augmentation part      448.0000000 magnetization 

 Free energy of the ion-electron system (eV)
  ---------------------------------------------------
  alpha Z        PSCENC =       751.52672365
  Ewald energy   TEWEN  =    -22871.34016192
  -Hartree energ DENC   =     -8992.24471235
  -exchange      EXHF   =         0.00000000
  -V(xc)+E(xc)   XCENC  =      1456.53423634
  PAW double counting   =     26466.43774078   -29286.08056155
  entropy T*S    EENTRO =        -0.00000000
  eigenvalues    EBANDS =     -4693.07167534
  atomic energy  EATOM  =     37532.17946992
  Solvation  Ediel_sol  =         0.00000000
  ---------------------------------------------------
  free energy    TOTEN  =       363.94105955 eV

  energy without entropy =      363.94105955  energy(sigma->0) =      363.94105955


--------------------------------------------------------------------------------------------------------




--------------------------------------- Iteration      1(   3)  ---------------------------------------


     EDDAV:  cpu time     11.6815: real time     11.7440
       DOS:  cpu time      0.0004: real time      0.0004
    --------------------------------------------
      LOOP:  cpu time     11.6819: real time     11.7444

 eigenvalue-minimisations  :  5600
 total energy-change (2. order) :-0.5701148E+03  (-0.5658702E+03)
 number of electron     448.0000000 magnetization 
 augmentation part      448.0000000 magnetization 

 Free energy of the ion-electron system (eV)
  ---------------------------------------------------
  alpha Z        PSCENC =       751.52672365
  Ewald energy   TEWEN  =    -22871.34016192
  -Hartree energ DENC   =     -8992.24471235
  -exchange      EXHF   =         0.00000000
  -V(xc)+E(xc)   XCENC  =      1456.53423634
  PAW double counting   =     26466.43774078   -29286.08056155
  entropy T*S    EENTRO =        -0.00000000
  eigenvalues    EBANDS =     -5263.18645376
  atomic energy  EATOM  =     37532.17946992
  Solvation  Ediel_sol  =         0.00000000
  ---------------------------------------------------
  free energy    TOTEN  =      -206.17371888 eV

  energy without entropy =     -206.17371888  energy(sigma->0) =     -206.17371888


--------------------------------------------------------------------------------------------------------




--------------------------------------- Iteration      1(   4)  ---------------------------------------


     EDDAV:  cpu time     11.5209: real time     11.5865
       DOS:  cpu time      0.0005: real time      0.0005
    --------------------------------------------
      LOOP:  cpu time     11.5213: real time     11.5870

 eigenvalue-minimisations  :  5504
 total energy-change (2. order) :-0.2201707E+02  (-0.2191658E+02)
 number of electron     448.0000000 magnetization 
 augmentation part      448.0000000 magnetization 

 Free energy of the ion-electron system (eV)
  ---------------------------------------------------
  alpha Z        PSCENC =       751.52672365
  Ewald energy   TEWEN  =    -22871.34016192
  -Hartree energ DENC   =     -8992.24471235
  -exchange      EXHF   =         0.00000000
  -V(xc)+E(xc)   XCENC  =      1456.53423634
  PAW double counting   =     26466.43774078   -29286.08056155
  entropy T*S    EENTRO =        -0.00000000
  eigenvalues    EBANDS =     -5285.20352115
  atomic energy  EATOM  =     37532.17946992
  Solvation  Ediel_sol  =         0.00000000
  ---------------------------------------------------
  free energy    TOTEN  =      -228.19078627 eV

  energy without entropy =     -228.19078627  energy(sigma->0) =     -228.19078627


--------------------------------------------------------------------------------------------------------




--------------------------------------- Iteration      1(   5)  ---------------------------------------


     EDDAV:  cpu time     11.7955: real time     11.8604
       DOS:  cpu time      0.0003: real time      0.0003
    CHARGE:  cpu time      0.3281: real time      0.3301
    MIXING:  cpu time      0.0011: real time      0.0011
    --------------------------------------------
      LOOP:  cpu time     12.1250: real time     12.1919

 eigenvalue-minimisations  :  5664
 total energy-change (2. order) :-0.8130599E+00  (-0.8116552E+00)
 number of electron     448.0000022 magnetization 
 augmentation part      111.6475709 magnetization 

 Broyden mixing:
  rms(total) = 0.10608E+01    rms(broyden)= 0.10604E+01
  rms(prec ) = 0.14936E+01
  weight for this iteration     100.00

 Free energy of the ion-electron system (eV)
  ---------------------------------------------------
  alpha Z        PSCENC =       751.52672365
  Ewald energy   TEWEN  =    -22871.34016192
  -Hartree energ DENC   =     -8992.24471235
  -exchange      EXHF   =         0.00000000
  -V(xc)+E(xc)   XCENC  =      1456.53423634
  PAW double counting   =     26466.43774078   -29286.08056155
  entropy T*S    EENTRO =        -0.00000000
  eigenvalues    EBANDS =     -5286.01658104
  atomic energy  EATOM  =     37532.17946992
  Solvation  Ediel_sol  =         0.00000000
  ---------------------------------------------------
  free energy    TOTEN  =      -229.00384615 eV

  energy without entropy =     -229.00384615  energy(sigma->0) =     -229.00384615


--------------------------------------------------------------------------------------------------------




--------------------------------------- Iteration      1(   6)  ---------------------------------------


    POTLOK:  cpu time      0.0366: real time      0.0374
    SETDIJ:  cpu time      0.0297: real time      0.0298
     EDDAV:  cpu time     11.8474: real time     11.9103
       DOS:  cpu time      0.0002: real time      0.0002
    CHARGE:  cpu time      0.3265: real time      0.3284
    MIXING:  cpu time      0.0013: real time      0.0013
    --------------------------------------------
      LOOP:  cpu time     12.2416: real time     12.3073

 eigenvalue-minimisations  :  5696
 total energy-change (2. order) : 0.4864480E+01  (-0.9465464E+00)
 number of electron     448.0000022 magnetization 
 augmentation part      112.4565169 magnetization 

 Broyden mixing:
  rms(total) = 0.77578E+00    rms(broyden)= 0.77573E+00
  rms(prec ) = 0.89185E+00
  weight for this iteration     100.00

 eigenvalues of (default mixing * dielectric matrix)
  average eigenvalue GAMMA=   1.0760
  1.0760

 Free energy of the ion-electron system (eV)
  ---------------------------------------------------
  alpha Z        PSCENC =       751.52672365
  Ewald energy   TEWEN  =    -22871.34016192
  -Hartree energ DENC   =     -9061.84556147
  -exchange      EXHF   =         0.00000000
  -V(xc)+E(xc)   XCENC  =      1465.43555632
  PAW double counting   =     27291.27927600   -30103.33277109
  entropy T*S    EENTRO =        -0.00000000
  eigenvalues    EBANDS =     -5228.04189724
  atomic energy  EATOM  =     37532.17946992
  Solvation  Ediel_sol  =         0.00000000
  ---------------------------------------------------
  free energy    TOTEN  =      -224.13936582 eV

  energy without entropy =     -224.13936582  energy(sigma->0) =     -224.13936582


--------------------------------------------------------------------------------------------------------




--------------------------------------- Iteration      1(   7)  ---------------------------------------


    POTLOK:  cpu time      0.0363: real time      0.0366
    SETDIJ:  cpu time      0.0301: real time      0.0303
     EDDAV:  cpu time     12.6870: real time     12.7549
       DOS:  cpu time      0.0003: real time      0.0003
    CHARGE:  cpu time      0.3260: real time      0.3276
    MIXING:  cpu time      0.0016: real time      0.0016
    --------------------------------------------
      LOOP:  cpu time     13.0813: real time     13.1511

 eigenvalue-minimisations  :  6208
 total energy-change (2. order) : 0.3618228E+00  (-0.2067491E+00)
 number of electron     448.0000022 magnetization 
 augmentation part      112.8271295 magnetization 

 Broyden mixing:
  rms(total) = 0.53290E+00    rms(broyden)= 0.53288E+00
  rms(prec ) = 0.56288E+00
  weight for this iteration     100.00

 eigenvalues of (default mixing * dielectric matrix)
  average eigenvalue GAMMA=   2.1547
  1.4397  2.8697

 Free energy of the ion-electron system (eV)
  ---------------------------------------------------
  alpha Z        PSCENC =       751.52672365
  Ewald energy   TEWEN  =    -22871.34016192
  -Hartree energ DENC   =     -9085.85640437
  -exchange      EXHF   =         0.00000000
  -V(xc)+E(xc)   XCENC  =      1470.12882262
  PAW double counting   =     28330.39250046   -31143.11941213
  entropy T*S    EENTRO =        -0.00000000
  eigenvalues    EBANDS =     -5207.68908126
  atomic energy  EATOM  =     37532.17946992
  Solvation  Ediel_sol  =         0.00000000
  ---------------------------------------------------
  free energy    TOTEN  =      -223.77754302 eV

  energy without entropy =     -223.77754302  energy(sigma->0) =     -223.77754302


--------------------------------------------------------------------------------------------------------




--------------------------------------- Iteration      1(   8)  ---------------------------------------


    POTLOK:  cpu time      0.0361: real time      0.0364
    SETDIJ:  cpu time      0.0302: real time      0.0303
     EDDAV:  cpu time     11.2137: real time     11.2736
       DOS:  cpu time      0.0002: real time      0.0002
    CHARGE:  cpu time      0.3310: real time      0.3331
    MIXING:  cpu time      0.0020: real time      0.0020
    --------------------------------------------
      LOOP:  cpu time     11.6132: real time     11.6756

 eigenvalue-minimisations  :  5312
 total energy-change (2. order) :-0.1252568E+00  (-0.2663225E-01)
 number of electron     448.0000022 magnetization 
 augmentation part      112.8096409 magnetization 

 Broyden mixing:
  rms(total) = 0.14148E+00    rms(broyden)= 0.14148E+00
  rms(prec ) = 0.14436E+00
  weight for this iteration     100.00

 eigenvalues of (default mixing * dielectric matrix)
  average eigenvalue GAMMA=   1.5556
  2.5242  1.3868  0.7559

 Free energy of the ion-electron system (eV)
  ---------------------------------------------------
  alpha Z        PSCENC =       751.52672365
  Ewald energy   TEWEN  =    -22871.34016192
  -Hartree energ DENC   =     -9075.21247404
  -exchange      EXHF   =         0.00000000
  -V(xc)+E(xc)   XCENC  =      1472.33872137
  PAW double counting   =     29808.62852375   -32628.46008474
  entropy T*S    EENTRO =        -0.00000000
  eigenvalues    EBANDS =     -5213.56351787
  atomic energy  EATOM  =     37532.17946992
  Solvation  Ediel_sol  =         0.00000000
  ---------------------------------------------------
  free energy    TOTEN  =      -223.90279987 eV

  energy without entropy =     -223.90279987  energy(sigma->0) =     -223.90279987


--------------------------------------------------------------------------------------------------------




--------------------------------------- Iteration      1(   9)  ---------------------------------------


    POTLOK:  cpu time      0.0370: real time      0.0408
    SETDIJ:  cpu time      0.0300: real time      0.0302
     EDDAV:  cpu time     11.9285: real time     11.9923
       DOS:  cpu time      0.0002: real time      0.0002
    CHARGE:  cpu time      0.3275: real time      0.3292
    MIXING:  cpu time      0.0021: real time      0.0021
    --------------------------------------------
      LOOP:  cpu time     12.3254: real time     12.3949

 eigenvalue-minimisations  :  5728
 total energy-change (2. order) : 0.5496200E-02  (-0.1123805E-02)
 number of electron     448.0000022 magnetization 
 augmentation part      112.8314967 magnetization 

 Broyden mixing:
  rms(total) = 0.60346E-01    rms(broyden)= 0.60345E-01
  rms(prec ) = 0.62399E-01
  weight for this iteration     100.00

 eigenvalues of (default mixing * dielectric matrix)
  average eigenvalue GAMMA=   2.0183
  2.9697  2.7132  0.9966  1.3936

 Free energy of the ion-electron system (eV)
  ---------------------------------------------------
  alpha Z        PSCENC =       751.52672365
  Ewald energy   TEWEN  =    -22871.34016192
  -Hartree energ DENC   =     -9077.93163198
  -exchange      EXHF   =         0.00000000
  -V(xc)+E(xc)   XCENC  =      1472.35712156
  PAW double counting   =     29630.47153227   -32449.46753857
  entropy T*S    EENTRO =        -0.00000000
  eigenvalues    EBANDS =     -5211.69281862
  atomic energy  EATOM  =     37532.17946992
  Solvation  Ediel_sol  =         0.00000000
  ---------------------------------------------------
  free energy    TOTEN  =      -223.89730367 eV

  energy without entropy =     -223.89730367  energy(sigma->0) =     -223.89730367


--------------------------------------------------------------------------------------------------------




--------------------------------------- Iteration      1(  10)  ---------------------------------------


    POTLOK:  cpu time      0.0363: real time      0.0374
    SETDIJ:  cpu time      0.0302: real time      0.0303
     EDDAV:  cpu time     11.2266: real time     11.2857
       DOS:  cpu time      0.0002: real time      0.0002
    CHARGE:  cpu time      0.3350: real time      0.3370
    MIXING:  cpu time      0.0014: real time      0.0021
    --------------------------------------------
      LOOP:  cpu time     11.6297: real time     11.6928

 eigenvalue-minimisations  :  5312
 total energy-change (2. order) :-0.4322640E-02  (-0.1873574E-02)
 number of electron     448.0000022 magnetization 
 augmentation part      112.8611843 magnetization 

 Broyden mixing:
  rms(total) = 0.29542E-01    rms(broyden)= 0.29539E-01
  rms(prec ) = 0.31621E-01
  weight for this iteration     100.00

 eigenvalues of (default mixing * dielectric matrix)
  average eigenvalue GAMMA=   1.7112
  2.9402  2.5101  1.2952  1.0208  0.7896

 Free energy of the ion-electron system (eV)
  ---------------------------------------------------
  alpha Z        PSCENC =       751.52672365
  Ewald energy   TEWEN  =    -22871.34016192
  -Hartree energ DENC   =     -9079.45726890
  -exchange      EXHF   =         0.00000000
  -V(xc)+E(xc)   XCENC  =      1472.61004335
  PAW double counting   =     29454.00514133   -32273.25252301
  entropy T*S    EENTRO =        -0.00000000
  eigenvalues    EBANDS =     -5210.17305074
  atomic energy  EATOM  =     37532.17946992
  Solvation  Ediel_sol  =         0.00000000
  ---------------------------------------------------
  free energy    TOTEN  =      -223.90162631 eV

  energy without entropy =     -223.90162631  energy(sigma->0) =     -223.90162631


--------------------------------------------------------------------------------------------------------




--------------------------------------- Iteration      1(  11)  ---------------------------------------


    POTLOK:  cpu time      0.0367: real time      0.0377
    SETDIJ:  cpu time      0.0300: real time      0.0302
     EDDAV:  cpu time     11.8061: real time     11.8692
       DOS:  cpu time      0.0002: real time      0.0002
    CHARGE:  cpu time      0.3266: real time      0.3281
    MIXING:  cpu time      0.0012: real time      0.0012
    --------------------------------------------
      LOOP:  cpu time     12.2009: real time     12.2667

 eigenvalue-minimisations  :  5664
 total energy-change (2. order) : 0.7725865E-03  (-0.1736390E-03)
 number of electron     448.0000022 magnetization 
 augmentation part      112.8514084 magnetization 

 Broyden mixing:
  rms(total) = 0.82342E-02    rms(broyden)= 0.82340E-02
  rms(prec ) = 0.86356E-02
  weight for this iteration     100.00

 eigenvalues of (default mixing * dielectric matrix)
  average eigenvalue GAMMA=   1.5826
  2.9137  2.4363  1.3276  1.0083  0.9047  0.9047

 Free energy of the ion-electron system (eV)
  ---------------------------------------------------
  alpha Z        PSCENC =       751.52672365
  Ewald energy   TEWEN  =    -22871.34016192
  -Hartree energ DENC   =     -9078.32034855
  -exchange      EXHF   =         0.00000000
  -V(xc)+E(xc)   XCENC  =      1472.52850640
  PAW double counting   =     29487.96113760   -32307.34639149
  entropy T*S    EENTRO =        -0.00000000
  eigenvalues    EBANDS =     -5211.08978935
  atomic energy  EATOM  =     37532.17946992
  Solvation  Ediel_sol  =         0.00000000
  ---------------------------------------------------
  free energy    TOTEN  =      -223.90085372 eV

  energy without entropy =     -223.90085372  energy(sigma->0) =     -223.90085372


--------------------------------------------------------------------------------------------------------




--------------------------------------- Iteration      1(  12)  ---------------------------------------


    POTLOK:  cpu time      0.0357: real time      0.0360
    SETDIJ:  cpu time      0.0302: real time      0.0304
     EDDAV:  cpu time     12.5419: real time     12.6090
       DOS:  cpu time      0.0002: real time      0.0002
    CHARGE:  cpu time      0.3246: real time      0.3262
    MIXING:  cpu time      0.0014: real time      0.0014
    --------------------------------------------
      LOOP:  cpu time     12.9340: real time     13.0031

 eigenvalue-minimisations  :  6112
 total energy-change (2. order) : 0.3310778E-04  (-0.1420962E-04)
 number of electron     448.0000022 magnetization 
 augmentation part      112.8487354 magnetization 

 Broyden mixing:
  rms(total) = 0.12890E-02    rms(broyden)= 0.12874E-02
  rms(prec ) = 0.15493E-02
  weight for this iteration     100.00

 eigenvalues of (default mixing * dielectric matrix)
  average eigenvalue GAMMA=   1.6270
  2.8874  2.4383  1.8048  1.2024  1.2024  1.0461  0.8077

 Free energy of the ion-electron system (eV)
  ---------------------------------------------------
  alpha Z        PSCENC =       751.52672365
  Ewald energy   TEWEN  =    -22871.34016192
  -Hartree energ DENC   =     -9078.17394023
  -exchange      EXHF   =         0.00000000
  -V(xc)+E(xc)   XCENC  =      1472.51817654
  PAW double counting   =     29498.96403160   -32318.34218383
  entropy T*S    EENTRO =        -0.00000000
  eigenvalues    EBANDS =     -5211.23293635
  atomic energy  EATOM  =     37532.17946992
  Solvation  Ediel_sol  =         0.00000000
  ---------------------------------------------------
  free energy    TOTEN  =      -223.90082062 eV

  energy without entropy =     -223.90082062  energy(sigma->0) =     -223.90082062


--------------------------------------------------------------------------------------------------------




--------------------------------------- Iteration      1(  13)  ---------------------------------------


    POTLOK:  cpu time      0.0360: real time      0.0363
    SETDIJ:  cpu time      0.0300: real time      0.0302
     EDDAV:  cpu time     11.3171: real time     11.3770
       DOS:  cpu time      0.0002: real time      0.0002
    CHARGE:  cpu time      0.3235: real time      0.3254
    MIXING:  cpu time      0.0014: real time      0.0014
    --------------------------------------------
      LOOP:  cpu time     11.7082: real time     11.7704

 eigenvalue-minimisations  :  5376
 total energy-change (2. order) :-0.2498797E-05  (-0.1823720E-05)
 number of electron     448.0000022 magnetization 
 augmentation part      112.8478392 magnetization 

 Broyden mixing:
  rms(total) = 0.30469E-03    rms(broyden)= 0.30124E-03
  rms(prec ) = 0.35258E-03
  weight for this iteration     100.00

 eigenvalues of (default mixing * dielectric matrix)
  average eigenvalue GAMMA=   1.6372
  2.9807  2.3947  2.3947  1.2588  0.9916  0.9916  1.0428  1.0428

 Free energy of the ion-electron system (eV)
  ---------------------------------------------------
  alpha Z        PSCENC =       751.52672365
  Ewald energy   TEWEN  =    -22871.34016192
  -Hartree energ DENC   =     -9078.11020871
  -exchange      EXHF   =         0.00000000
  -V(xc)+E(xc)   XCENC  =      1472.51104177
  PAW double counting   =     29498.59575125   -32317.96635160
  entropy T*S    EENTRO =        -0.00000000
  eigenvalues    EBANDS =     -5211.29708749
  atomic energy  EATOM  =     37532.17946992
  Solvation  Ediel_sol  =         0.00000000
  ---------------------------------------------------
  free energy    TOTEN  =      -223.90082311 eV

  energy without entropy =     -223.90082311  energy(sigma->0) =     -223.90082311


--------------------------------------------------------------------------------------------------------




--------------------------------------- Iteration      1(  14)  ---------------------------------------


    POTLOK:  cpu time      0.0368: real time      0.0410
    SETDIJ:  cpu time      0.0302: real time      0.0303
     EDDAV:  cpu time     12.6136: real time     12.6806
       DOS:  cpu time      0.0002: real time      0.0002
    CHARGE:  cpu time      0.3245: real time      0.3264
    MIXING:  cpu time      0.0014: real time      0.0014
    --------------------------------------------
      LOOP:  cpu time     13.0066: real time     13.0798

 eigenvalue-minimisations  :  6144
 total energy-change (2. order) :-0.1749795E-06  (-0.1739529E-06)
 number of electron     448.0000022 magnetization 
 augmentation part      112.8476613 magnetization 

 Broyden mixing:
  rms(total) = 0.95596E-03    rms(broyden)= 0.95501E-03
  rms(prec ) = 0.97824E-03
  weight for this iteration     100.00

 eigenvalues of (default mixing * dielectric matrix)
  average eigenvalue GAMMA=   1.6510
  3.0207  2.6152  2.6152  1.4117  1.2536  1.2536  0.9563  0.9563  0.7761

 Free energy of the ion-electron system (eV)
  ---------------------------------------------------
  alpha Z        PSCENC =       751.52672365
  Ewald energy   TEWEN  =    -22871.34016192
  -Hartree energ DENC   =     -9078.11491789
  -exchange      EXHF   =         0.00000000
  -V(xc)+E(xc)   XCENC  =      1472.51202874
  PAW double counting   =     29500.15418811   -32319.52372942
  entropy T*S    EENTRO =        -0.00000000
  eigenvalues    EBANDS =     -5211.29442450
  atomic energy  EATOM  =     37532.17946992
  Solvation  Ediel_sol  =         0.00000000
  ---------------------------------------------------
  free energy    TOTEN  =      -223.90082329 eV

  energy without entropy =     -223.90082329  energy(sigma->0) =     -223.90082329


--------------------------------------------------------------------------------------------------------




--------------------------------------- Iteration      1(  15)  ---------------------------------------


    POTLOK:  cpu time      0.0365: real time      0.0372
    SETDIJ:  cpu time      0.0299: real time      0.0300
     EDDAV:  cpu time     11.1035: real time     11.1623
       DOS:  cpu time      0.0002: real time      0.0002
    CHARGE:  cpu time      0.3253: real time      0.3269
    MIXING:  cpu time      0.0015: real time      0.0015
    --------------------------------------------
      LOOP:  cpu time     11.4969: real time     11.5581

 eigenvalue-minimisations  :  5248
 total energy-change (2. order) :-0.1204484E-05  (-0.4882948E-07)
 number of electron     448.0000022 magnetization 
 augmentation part      112.8477565 magnetization 

 Broyden mixing:
  rms(total) = 0.37565E-03    rms(broyden)= 0.37329E-03
  rms(prec ) = 0.38259E-03
  weight for this iteration     100.00

 eigenvalues of (default mixing * dielectric matrix)
  average eigenvalue GAMMA=   1.6213
  3.0949  2.7585  2.4154  1.3993  1.3993  1.3394  0.9951  0.9951  0.9080  0.9080

 Free energy of the ion-electron system (eV)
  ---------------------------------------------------
  alpha Z        PSCENC =       751.52672365
  Ewald energy   TEWEN  =    -22871.34016192
  -Hartree energ DENC   =     -9078.14270620
  -exchange      EXHF   =         0.00000000
  -V(xc)+E(xc)   XCENC  =      1472.51297045
  PAW double counting   =     29499.04543310   -32318.41230879
  entropy T*S    EENTRO =        -0.00000000
  eigenvalues    EBANDS =     -5211.27024471
  atomic energy  EATOM  =     37532.17946992
  Solvation  Ediel_sol  =         0.00000000
  ---------------------------------------------------
  free energy    TOTEN  =      -223.90082449 eV

  energy without entropy =     -223.90082449  energy(sigma->0) =     -223.90082449


--------------------------------------------------------------------------------------------------------




--------------------------------------- Iteration      1(  16)  ---------------------------------------


    POTLOK:  cpu time      0.0363: real time      0.0378
    SETDIJ:  cpu time      0.0298: real time      0.0299
     EDDAV:  cpu time     10.9949: real time     11.0531
       DOS:  cpu time      0.0002: real time      0.0002
    CHARGE:  cpu time      0.3255: real time      0.3274
    MIXING:  cpu time      0.0018: real time      0.0018
    --------------------------------------------
      LOOP:  cpu time     11.3885: real time     11.4502

 eigenvalue-minimisations  :  5152
 total energy-change (2. order) :-0.6217451E-06  (-0.1217789E-07)
 number of electron     448.0000022 magnetization 
 augmentation part      112.8478507 magnetization 

 Broyden mixing:
  rms(total) = 0.63991E-04    rms(broyden)= 0.48235E-04
  rms(prec ) = 0.53101E-04
  weight for this iteration     100.00
  WARNING: grid for Broyden might be to small

 eigenvalues of (default mixing * dielectric matrix)
  average eigenvalue GAMMA=   1.6308
  3.1545  2.7451  2.3845  1.6987  1.6987  1.3110  1.1389  1.1389  0.9531  0.8578
  0.8578

 Free energy of the ion-electron system (eV)
  ---------------------------------------------------
  alpha Z        PSCENC =       751.52672365
  Ewald energy   TEWEN  =    -22871.34016192
  -Hartree energ DENC   =     -9078.15167645
  -exchange      EXHF   =         0.00000000
  -V(xc)+E(xc)   XCENC  =      1472.51320576
  PAW double counting   =     29498.35976340   -32317.72495995
  entropy T*S    EENTRO =        -0.00000000
  eigenvalues    EBANDS =     -5211.26318954
  atomic energy  EATOM  =     37532.17946992
  Solvation  Ediel_sol  =         0.00000000
  ---------------------------------------------------
  free energy    TOTEN  =      -223.90082512 eV

  energy without entropy =     -223.90082512  energy(sigma->0) =     -223.90082512


--------------------------------------------------------------------------------------------------------




--------------------------------------- Iteration      1(  17)  ---------------------------------------


    POTLOK:  cpu time      0.0368: real time      0.0371
    SETDIJ:  cpu time      0.0305: real time      0.0306
     EDDAV:  cpu time      8.4085: real time      8.4526
       DOS:  cpu time      0.0002: real time      0.0002
    CHARGE:  cpu time      0.3280: real time      0.3299
    MIXING:  cpu time      0.0018: real time      0.0018
    --------------------------------------------
      LOOP:  cpu time      8.8058: real time      8.8522

 eigenvalue-minimisations  :  3584
 total energy-change (2. order) :-0.2853631E-07  (-0.8223901E-09)
 number of electron     448.0000022 magnetization 
 augmentation part      112.8478570 magnetization 

 Broyden mixing:
  rms(total) = 0.44200E-04    rms(broyden)= 0.13673E-04
  rms(prec ) = 0.18801E-04
  weight for this iteration     100.00
  WARNING: grid for Broyden might be to small

 eigenvalues of (default mixing * dielectric matrix)
  average eigenvalue GAMMA=   1.5923
  3.1688  2.8378  2.2556  1.9078  1.4121  1.4121  1.2446  1.2446  0.9391  0.8744
  0.9055  0.9055

 Free energy of the ion-electron system (eV)
  ---------------------------------------------------
  alpha Z        PSCENC =       751.52672365
  Ewald energy   TEWEN  =    -22871.34016192
  -Hartree energ DENC   =     -9078.15349337
  -exchange      EXHF   =         0.00000000
  -V(xc)+E(xc)   XCENC  =      1472.51327381
  PAW double counting   =     29498.26854263   -32317.63350753
  entropy T*S    EENTRO =        -0.00000000
  eigenvalues    EBANDS =     -5211.26167234
  atomic energy  EATOM  =     37532.17946992
  Solvation  Ediel_sol  =         0.00000000
  ---------------------------------------------------
  free energy    TOTEN  =      -223.90082514 eV

  energy without entropy =     -223.90082514  energy(sigma->0) =     -223.90082514


--------------------------------------------------------------------------------------------------------




--------------------------------------- Iteration      1(  18)  ---------------------------------------


    POTLOK:  cpu time      0.0370: real time      0.0372
    SETDIJ:  cpu time      0.0303: real time      0.0304
     EDDAV:  cpu time      7.6986: real time      7.7392
       DOS:  cpu time      0.0002: real time      0.0002
    CHARGE:  cpu time      0.3291: real time      0.3309
    MIXING:  cpu time      0.0016: real time      0.0016
    --------------------------------------------
      LOOP:  cpu time      8.0968: real time      8.1395

 eigenvalue-minimisations  :  3168
 total energy-change (2. order) :-0.3538298E-07  (-0.5585136E-09)
 number of electron     448.0000022 magnetization 
 augmentation part      112.8478623 magnetization 

 Broyden mixing:
  rms(total) = 0.47667E-04    rms(broyden)= 0.22483E-04
  rms(prec ) = 0.24149E-04
  weight for this iteration     100.00
  WARNING: grid for Broyden might be to small

 eigenvalues of (default mixing * dielectric matrix)
  average eigenvalue GAMMA=   1.5418
  3.1612  2.8651  2.2105  2.2105  1.2204  1.2204  1.1110  1.1110  1.2262  1.1401
  0.9222  0.8721  0.7729

 Free energy of the ion-electron system (eV)
  ---------------------------------------------------
  alpha Z        PSCENC =       751.52672365
  Ewald energy   TEWEN  =    -22871.34016192
  -Hartree energ DENC   =     -9078.15560150
  -exchange      EXHF   =         0.00000000
  -V(xc)+E(xc)   XCENC  =      1472.51335920
  PAW double counting   =     29498.23903606   -32317.60385995
  entropy T*S    EENTRO =        -0.00000000
  eigenvalues    EBANDS =     -5211.25979064
  atomic energy  EATOM  =     37532.17946992
  Solvation  Ediel_sol  =         0.00000000
  ---------------------------------------------------
  free energy    TOTEN  =      -223.90082518 eV

  energy without entropy =     -223.90082518  energy(sigma->0) =     -223.90082518


--------------------------------------------------------------------------------------------------------




--------------------------------------- Iteration      1(  19)  ---------------------------------------


    POTLOK:  cpu time      0.0369: real time      0.0371
    SETDIJ:  cpu time      0.0301: real time      0.0303
     EDDAV:  cpu time      7.5657: real time      7.6051
       DOS:  cpu time      0.0002: real time      0.0002
    --------------------------------------------
      LOOP:  cpu time      7.6329: real time      7.6727

 eigenvalue-minimisations  :  3072
 total energy-change (2. order) : 0.8221832E-08  (-0.2265537E-09)
 number of electron     448.0000022 magnetization 
 augmentation part      112.8478623 magnetization 

 Free energy of the ion-electron system (eV)
  ---------------------------------------------------
  alpha Z        PSCENC =       751.52672365
  Ewald energy   TEWEN  =    -22871.34016192
  -Hartree energ DENC   =     -9078.15568835
  -exchange      EXHF   =         0.00000000
  -V(xc)+E(xc)   XCENC  =      1472.51336470
  PAW double counting   =     29498.25164796   -32317.61640033
  entropy T*S    EENTRO =        -0.00000000
  eigenvalues    EBANDS =     -5211.25978081
  atomic energy  EATOM  =     37532.17946992
  Solvation  Ediel_sol  =         0.00000000
  ---------------------------------------------------
  free energy    TOTEN  =      -223.90082517 eV

  energy without entropy =     -223.90082517  energy(sigma->0) =     -223.90082517


--------------------------------------------------------------------------------------------------------




 average (electrostatic) potential at core
  the test charge radii are     0.9254  0.9406
  (the norm of the test charge is              1.0000)
       1 -46.9496       2 -46.9440       3 -46.9497       4 -46.9553       5 -46.9496
       6 -46.9484       7 -46.9384       8 -46.9440       9 -46.9495      10 -46.9439
      11 -46.9541      12 -46.9508      13 -46.9496      14 -46.9484      15 -46.9428
      16 -46.9483      17 -46.9496      18 -46.9552      19 -46.9565      20 -46.9553
      21 -46.9496      22 -46.9508      23 -46.9541      24 -46.9440      25 -46.9496
      26 -46.9553      27 -46.9521      28 -46.9509      29 -46.9496      30 -46.9508
      31 -46.9496      32 -46.9484      33 -93.6089      34 -93.5909      35 -93.5880
      36 -93.5649      37 -93.5623      38 -93.5854      39 -93.5882      40 -93.5874
      41 -93.5863      42 -93.5909      43 -93.5881      44 -93.5872      45 -93.5846
      46 -93.5855      47 -93.5882      48 -93.5872      49 -93.5918      50 -93.5910
      51 -93.5881      52 -93.6116      53 -93.5901      54 -93.5855      55 -93.5882
      56 -93.5891      57 -93.5920      58 -93.5910      59 -93.5882      60 -93.5890
      61 -93.5900      62 -93.5855      63 -93.5882      64 -93.5892
 
 
 
 E-fermi :  -0.5594     XC(G=0):  -8.4227     alpha+bet : -8.2520

 Fermi energy:        -0.5594295975

 k-point     1 :       0.0000    0.0000    0.0000
  band No.  band energies     occupation 
      1     -21.3051      2.00000
      2     -21.3047      2.00000
      3     -21.3045      2.00000
      4     -21.3040      2.00000
      5     -21.2957      2.00000
      6     -21.2952      2.00000
      7     -21.2950      2.00000
      8     -21.2950      2.00000
      9     -21.2946      2.00000
     10     -21.2941      2.00000
     11     -21.2939      2.00000
     12     -21.2938      2.00000
     13     -21.2938      2.00000
     14     -21.2936      2.00000
     15     -21.2932      2.00000
     16     -21.2929      2.00000
     17     -21.2928      2.00000
     18     -21.2918      2.00000
     19     -21.2918      2.00000
     20     -21.2884      2.00000
     21     -21.2879      2.00000
     22     -21.2878      2.00000
     23     -21.2868      2.00000
     24     -21.2868      2.00000
     25     -21.2866      2.00000
     26     -21.2866      2.00000
     27     -21.2865      2.00000
     28     -21.2860      2.00000
     29     -21.2859      2.00000
     30     -21.2853      2.00000
     31     -21.2852      2.00000
     32     -21.2843      2.00000
     33     -21.2838      2.00000
     34     -21.2836      2.00000
     35     -21.2835      2.00000
     36     -21.2832      2.00000
     37     -21.2832      2.00000
     38     -21.2827      2.00000
     39     -21.2824      2.00000
     40     -21.2818      2.00000
     41     -21.2816      2.00000
     42     -21.2814      2.00000
     43     -21.2813      2.00000
     44     -21.2809      2.00000
     45     -21.2809      2.00000
     46     -21.2807      2.00000
     47     -21.2807      2.00000
     48     -21.2805      2.00000
     49     -21.2803      2.00000
     50     -21.2800      2.00000
     51     -21.2799      2.00000
     52     -21.2799      2.00000
     53     -21.2799      2.00000
     54     -21.2798      2.00000
     55     -21.2795      2.00000
     56     -21.2791      2.00000
     57     -21.2786      2.00000
     58     -21.2785      2.00000
     59     -21.2785      2.00000
     60     -21.2771      2.00000
     61     -21.2769      2.00000
     62     -21.2754      2.00000
     63     -21.2754      2.00000
     64     -21.2753      2.00000
     65     -21.2751      2.00000
     66     -21.2748      2.00000
     67     -21.2746      2.00000
     68     -21.2745      2.00000
     69     -21.2743      2.00000
     70     -21.2742      2.00000
     71     -21.2739      2.00000
     72     -21.2738      2.00000
     73     -21.2736      2.00000
     74     -21.2735      2.00000
     75     -21.2729      2.00000
     76     -21.2727      2.00000
     77     -21.2721      2.00000
     78     -21.2717      2.00000
     79     -21.2717      2.00000
     80     -21.2717      2.00000
     81     -21.2714      2.00000
     82     -21.2709      2.00000
     83     -21.2708      2.00000
     84     -21.2707      2.00000
     85     -21.2705      2.00000
     86     -21.2704      2.00000
     87     -21.2700      2.00000
     88     -21.2696      2.00000
     89     -21.2691      2.00000
     90     -21.2688      2.00000
     91     -21.2675      2.00000
     92     -21.2673      2.00000
     93     -21.2668      2.00000
     94     -21.2651      2.00000
     95     -21.2649      2.00000
[...]
         0         1         2         3         4         5         6         7         8         9
 total charge-density along one line
 
 pseudopotential strength for first ion, spin component:           1
-25.387  -0.000   0.000   2.510   0.000  -0.000  -0.000  -0.000
 -0.000 -25.387  -0.000   0.000   2.510   0.000   0.000   0.000
  0.000  -0.000 -25.387  -0.000   0.000   2.510   0.000   0.001
  2.510   0.000  -0.000   6.528  -0.000   0.000   0.000  -0.000
  0.000   2.510   0.000  -0.000   6.528  -0.000  -0.000   0.000
 -0.000   0.000   2.510   0.000  -0.000   6.528  -0.000  -0.000
 -0.000   0.000   0.000   0.000  -0.000  -0.000   1.428   6.993
 -0.000   0.000   0.001  -0.000   0.000  -0.000   6.993  33.989
 total augmentation occupancy for first ion, spin component:           1
  2.002   0.000  -0.000   0.002   0.000  -0.000   0.000  -0.000
  0.000   2.002   0.000   0.000   0.002   0.000  -0.000   0.000
 -0.000   0.000   2.002  -0.000   0.000   0.002  -0.001   0.000
  0.002   0.000  -0.000   0.017   0.000  -0.000   0.000   0.000
  0.000   0.002   0.000   0.000   0.017   0.000   0.000  -0.000
 -0.000   0.000   0.002  -0.000   0.000   0.018  -0.003   0.000
  0.000  -0.000  -0.001   0.000   0.000  -0.003   0.403  -0.001
 -0.000   0.000   0.000   0.000  -0.000   0.000  -0.001   0.000


------------------------ aborting loop because EDIFF is reached ----------------------------------------


    CHARGE:  cpu time      0.3219: real time      0.3237
    FORLOC:  cpu time      0.0117: real time      0.0118
    FORNL :  cpu time      2.2345: real time      2.2474
    STRESS:  cpu time     12.8564: real time     12.9193
    FORCOR:  cpu time      0.0432: real time      0.0433
    FORHAR:  cpu time      0.0171: real time      0.0171
    MIXING:  cpu time      0.0012: real time      0.0012
    OFIELD:  cpu time      0.0000: real time      0.0000

  FORCE on cell =-STRESS in cart. coord.  units (eV):
  Direction    XX          YY          ZZ          XY          YZ          ZX
  --------------------------------------------------------------------------------------
  Alpha Z   751.52672   751.52672   751.52672
  Ewald   -7623.77530 -7623.92669 -7623.77550     0.00013    -0.01398    -0.00749
  Hartree  3026.07091  3026.01263  3026.07076     0.00010    -0.01035    -0.00584
  E(xc)   -2014.34813 -2014.34819 -2014.34813     0.00000     0.00000     0.00000
  Local   -2024.95725 -2024.75014 -2024.95691    -0.00022     0.02409     0.01330
  n-local  1887.62605  1887.62040  1887.62605    -0.00000     0.00003    -0.00002
  augment   687.00932   687.00961   687.00902    -0.00000    -0.00005    -0.00009
  Kinetic  5310.52441  5310.52251  5310.52441     0.00000    -0.00002    -0.00000
  Fock        0.00000     0.00000     0.00000     0.00000     0.00000     0.00000
  -------------------------------------------------------------------------------------
  Total      -0.32327    -0.33314    -0.32357     0.00000    -0.00029    -0.00014
  in kB      -0.36826    -0.37951    -0.36860     0.00000    -0.00033    -0.00016
  external pressure =       -0.37 kB  Pullay stress =        0.00 kB


 VOLUME and BASIS-vectors are now :
 -----------------------------------------------------------------------------
  energy-cutoff  :      341.21
  volume of cell :     1406.43
      direct lattice vectors                 reciprocal lattice vectors
    11.204002360  0.000000000  0.000000000     0.089253819  0.000000000  0.000000000
     0.000000000 11.204002360  0.000000000     0.000000000  0.089253819  0.000000000
     0.000000000  0.000000000 11.204002360     0.000000000  0.000000000  0.089253819

  length of vectors
    11.204002360 11.204002360 11.204002360     0.089253819  0.089253819  0.089253819


 FORCES acting on ions
    electron-ion (+dipol)            ewald-force                    non-local-force                 convergence-correction
 -----------------------------------------------------------------------------------------------
   -.403E+01 -.241E-02 0.295E+00   0.398E+01 0.252E-02 -.303E+00   0.116E+00 -.890E-04 0.639E-02   -.618E-04 0.612E-06 0.589E-04
   0.246E+00 0.437E+00 0.403E+01   -.250E+00 -.470E+00 -.398E+01   0.303E-02 0.268E-01 -.115E+00   -.239E-05 0.306E-05 0.629E-04
   0.246E+00 0.445E+00 0.195E+00   -.250E+00 -.479E+00 -.223E+00   0.303E-02 0.273E-01 0.239E-01   -.223E-05 0.324E-05 0.232E-05
   0.146E+00 0.248E-02 -.240E+00   -.171E+00 -.259E-02 0.244E+00   0.209E-01 0.897E-04 -.284E-02   -.556E-04 -.658E-06 -.106E-05
   -.163E+00 0.752E-03 -.167E+00   0.163E+00 -.777E-03 0.173E+00   0.332E-03 0.205E-04 -.551E-02   -.577E-04 0.321E-07 -.593E-04
   0.882E-02 0.395E-01 -.451E+00   -.877E-02 -.391E-01 0.516E+00   -.343E-04 -.407E-03 -.559E-01   -.185E-05 -.405E-06 -.662E-04
   0.246E+00 -.438E+00 -.683E+00   -.250E+00 0.470E+00 0.720E+00   0.304E-02 -.268E-01 -.298E-01   -.171E-05 -.748E-06 0.105E-07
   -.737E+00 0.248E-02 -.248E+00   0.778E+00 -.259E-02 0.253E+00   -.333E-01 0.898E-04 -.312E-02   -.630E-04 0.439E-06 0.133E-05
   -.166E+00 0.248E-02 0.300E+00   0.166E+00 -.259E-02 -.308E+00   0.223E-03 0.901E-04 0.647E-02   -.572E-04 -.585E-06 0.591E-04
   0.246E+00 -.438E+00 0.164E+00   -.250E+00 0.470E+00 -.163E+00   0.303E-02 -.268E-01 -.318E-03   -.181E-05 -.276E-05 0.579E-04
   0.882E-02 -.445E+00 -.203E+00   -.877E-02 0.479E+00 0.208E+00   -.340E-04 -.273E-01 -.333E-02   -.259E-05 -.406E-05 -.112E-05
   -.260E+00 -.248E-02 -.472E-02   0.269E+00 0.259E-02 0.450E-02   -.690E-02 -.918E-04 0.182E-03   -.584E-04 0.656E-06 -.686E-06
   -.641E-01 -.752E-03 -.167E+00   0.666E-01 0.777E-03 0.173E+00   -.200E-02 -.202E-04 -.551E-02   -.585E-04 -.617E-06 -.594E-04
   0.882E-02 -.395E-01 -.127E+00   -.877E-02 0.391E-01 0.128E+00   -.345E-04 0.407E-03 -.120E-02   -.208E-05 0.116E-05 -.582E-04
   0.882E-02 0.438E+00 -.285E+00   -.877E-02 -.470E+00 0.289E+00   -.344E-04 0.268E-01 -.262E-02   -.173E-05 0.108E-05 0.595E-06
   -.339E+00 -.249E-02 -.113E-01   0.347E+00 0.259E-02 0.114E-01   -.606E-02 -.877E-04 -.550E-04   -.609E-04 -.219E-06 0.548E-06
   0.453E+00 -.248E-02 0.300E+00   -.518E+00 0.259E-02 -.308E+00   0.559E-01 -.895E-04 0.646E-02   0.657E-04 0.532E-06 0.601E-04
   0.242E+00 -.445E+00 0.164E+00   -.247E+00 0.479E+00 -.163E+00   0.293E-02 -.273E-01 -.314E-03   0.134E-05 -.426E-05 0.571E-04
   0.242E+00 0.397E-01 -.453E+00   -.247E+00 -.392E-01 0.486E+00   0.293E-02 -.427E-03 -.272E-01   0.116E-05 0.154E-06 -.466E-05
   -.279E+00 -.754E-03 -.243E+00   0.305E+00 0.777E-03 0.248E+00   -.218E-01 -.178E-04 -.295E-02   0.568E-04 -.114E-05 -.873E-06
   0.126E+00 0.752E-03 -.167E+00   -.127E+00 -.777E-03 0.173E+00   0.118E-02 0.202E-04 -.550E-02   0.589E-04 0.404E-06 -.600E-04
   0.721E-02 -.397E-01 -.127E+00   -.709E-02 0.392E-01 0.128E+00   -.923E-04 0.427E-03 -.120E-02   0.115E-05 -.164E-06 -.577E-04
   0.242E+00 -.395E-01 0.437E+00   -.247E+00 0.391E-01 -.470E+00   0.293E-02 0.407E-03 0.274E-01   0.109E-05 0.246E-06 0.486E-05
   0.604E+00 -.750E-03 -.245E+00   -.643E+00 0.777E-03 0.250E+00   0.323E-01 -.222E-04 -.301E-02   0.637E-04 0.274E-06 0.101E-05
   0.129E+00 0.248E-02 0.300E+00   -.131E+00 -.259E-02 -.308E+00   0.129E-02 0.898E-04 0.647E-02   0.582E-04 -.657E-06 0.591E-04
   0.242E+00 0.445E+00 0.649E-01   -.247E+00 -.479E+00 -.674E-01   0.293E-02 0.273E-01 0.202E-02   0.792E-06 0.428E-05 0.571E-04
   0.721E-02 -.397E-01 -.469E-01   -.709E-02 0.392E-01 0.463E-01   -.926E-04 0.427E-03 0.519E-03   0.174E-05 -.375E-07 -.288E-06
   0.127E+00 0.754E-03 -.796E-02   -.134E+00 -.777E-03 0.787E-02   0.594E-02 0.175E-04 0.724E-04   0.607E-04 0.175E-05 -.805E-06
   0.598E-01 -.752E-03 -.167E+00   -.623E-01 0.777E-03 0.173E+00   0.199E-02 -.200E-04 -.551E-02   0.591E-04 -.912E-06 -.588E-04
   0.721E-02 0.397E-01 -.605E-01   -.709E-02 -.392E-01 0.630E-01   -.928E-04 -.427E-03 -.201E-02   0.160E-05 0.437E-06 -.578E-04
   0.721E-02 0.395E-01 0.309E-01   -.709E-02 -.391E-01 -.304E-01   -.925E-04 -.407E-03 -.392E-03   0.107E-05 -.830E-07 0.270E-06
   0.206E+00 0.750E-03 -.806E-02   -.212E+00 -.777E-03 0.799E-02   0.510E-02 0.222E-04 0.548E-04   0.614E-04 -.761E-07 0.100E-05
   0.643E-01 0.157E+00 -.189E+01   -.646E-01 -.159E+00 0.190E+01   0.593E-03 0.324E-02 0.109E-01   -.100E-05 0.243E-06 0.131E-05
   -.748E+00 0.159E+00 -.459E-01   0.758E+00 -.161E+00 0.462E-01   -.132E-01 0.330E-02 -.585E-03   -.519E-04 0.156E-05 -.150E-05
   -.922E+00 0.152E-01 0.907E+00   0.934E+00 -.153E-01 -.918E+00   -.165E-01 -.453E-04 0.165E-01   -.535E-04 -.739E-06 0.543E-04
   0.198E+01 -.152E-01 0.907E+00   -.200E+01 0.153E-01 -.918E+00   -.258E-02 0.465E-04 0.166E-01   -.313E-05 -.123E-05 0.551E-04
   0.643E-01 0.157E+00 -.214E+01   -.646E-01 -.159E+00 0.216E+01   0.599E-03 0.325E-02 -.679E-03   -.122E-05 0.944E-06 0.316E-05
   -.106E+01 -.157E+00 -.794E-01   0.108E+01 0.159E+00 0.799E-01   -.198E-01 -.324E-02 -.549E-03   -.561E-04 -.118E-05 0.607E-06
   -.107E+00 0.380E-03 -.277E+00   0.108E+00 -.398E-03 0.281E+00   -.149E-02 0.262E-04 -.710E-02   -.535E-04 -.216E-05 -.543E-04
   0.187E-01 0.156E-02 -.277E+00   -.185E-01 -.158E-02 0.281E+00   -.374E-03 0.271E-04 -.710E-02   -.159E-05 0.249E-06 -.557E-04
   0.643E-01 -.157E+00 0.141E+00   -.646E-01 0.159E+00 -.143E+00   0.596E-03 -.325E-02 0.370E-02   -.312E-05 -.470E-06 0.104E-05
   0.502E-01 -.159E+00 -.607E-01   -.512E-01 0.161E+00 0.610E-01   0.178E-02 -.330E-02 -.518E-03   -.495E-04 -.206E-05 -.979E-06
   -.907E+00 -.152E-01 0.108E+00   0.919E+00 0.153E-01 -.109E+00   -.166E-01 0.450E-04 0.152E-02   -.543E-04 0.785E-08 0.516E-04
   0.187E-01 0.152E-01 0.907E+00   -.185E-01 -.153E-01 -.918E+00   -.375E-03 -.441E-04 0.165E-01   -.133E-05 -.164E-05 0.535E-04
   0.643E-01 -.157E+00 -.176E+00   -.646E-01 0.159E+00 0.178E+00   0.596E-03 -.324E-02 -.287E-02   -.180E-05 -.727E-06 -.222E-06
   -.266E+00 0.157E+00 -.646E-01   0.268E+00 -.159E+00 0.650E-01   -.476E-02 0.325E-02 -.621E-03   -.533E-04 0.944E-06 0.524E-06
   -.108E+00 -.384E-03 -.924E-01   0.109E+00 0.398E-03 0.935E-01   -.152E-02 -.243E-04 -.166E-02   -.507E-04 0.651E-06 -.519E-04
   0.273E-02 -.156E-02 -.277E+00   -.273E-02 0.158E-02 0.281E+00   0.308E-05 -.278E-04 -.711E-02   -.217E-05 0.147E-06 -.523E-04
   0.611E-01 -.159E+00 -.175E+00   -.614E-01 0.161E+00 0.177E+00   0.542E-03 -.330E-02 -.285E-02   0.130E-05 -.175E-05 -.159E-05
   0.118E+00 0.159E+00 -.627E-01   -.121E+00 -.161E+00 0.630E-01   0.381E-02 0.330E-02 -.568E-03   0.527E-04 0.175E-05 0.136E-06
   0.292E+00 -.156E-02 0.907E+00   -.296E+00 0.158E-02 -.918E+00   0.706E-02 -.282E-04 0.165E-01   0.544E-04 -.287E-06 0.541E-04
   0.204E+01 -.384E-03 0.108E+00   -.206E+01 0.398E-03 -.109E+00   -.769E-02 -.243E-04 0.152E-02   0.552E-06 -.267E-06 0.511E-04
   0.611E-01 -.159E+00 0.140E+00   -.614E-01 0.161E+00 -.142E+00   0.542E-03 -.330E-02 0.367E-02   0.127E-05 -.129E-05 0.160E-05
   0.434E+00 -.157E+00 -.627E-01   -.440E+00 0.159E+00 0.631E-01   0.103E-01 -.325E-02 -.565E-03   0.564E-04 -.704E-06 -.213E-06
   0.909E-01 -.271E-03 -.277E+00   -.919E-01 0.274E-03 0.281E+00   0.163E-02 -.257E-05 -.710E-02   0.517E-04 -.258E-06 -.543E-04
   0.164E-01 0.272E-03 -.924E-01   -.162E-01 -.274E-03 0.935E-01   -.450E-03 0.210E-05 -.166E-02   0.145E-05 0.620E-06 -.510E-04
   0.611E-01 0.159E+00 -.160E+00   -.614E-01 -.161E+00 0.162E+00   0.543E-03 0.330E-02 -.328E-02   0.221E-05 0.262E-05 -.171E-05
   -.662E-01 -.159E+00 -.614E-01   0.672E-01 0.161E+00 0.617E-01   -.164E-02 -.330E-02 -.545E-03   0.501E-04 -.464E-06 -.896E-06
   0.277E+00 0.156E-02 0.108E+00   -.282E+00 -.158E-02 -.109E+00   0.713E-02 0.283E-04 0.152E-02   0.536E-04 0.189E-06 0.500E-04
   0.164E-01 0.383E-03 0.108E+00   -.162E-01 -.398E-03 -.109E+00   -.450E-03 0.247E-04 0.152E-02   0.209E-05 -.183E-06 0.507E-04
   0.611E-01 0.159E+00 0.156E+00   -.614E-01 -.161E+00 -.158E+00   0.542E-03 0.330E-02 0.330E-02   0.201E-05 0.172E-05 0.209E-05
   0.249E+00 0.157E+00 -.640E-01   -.253E+00 -.159E+00 0.644E-01   0.491E-02 0.325E-02 -.593E-03   0.546E-04 0.171E-05 0.322E-06
   0.921E-01 0.269E-03 -.924E-01   -.932E-01 -.274E-03 0.935E-01   0.166E-02 0.307E-05 -.166E-02   0.518E-04 -.285E-07 -.508E-04
   0.165E-02 -.272E-03 -.924E-01   -.163E-02 0.274E-03 0.935E-01   -.230E-04 -.225E-05 -.166E-02   0.201E-05 -.104E-05 -.505E-04
 -----------------------------------------------------------------------------------------------
   -.150E+00 -.724E-06 0.150E+00   0.123E-12 -.406E-13 0.661E-13   0.149E+00 -.465E-05 -.149E+00   0.524E-05 -.216E-05 0.466E-06
 
 
 POSITION                                       TOTAL-FORCE (eV/Angst)
 -----------------------------------------------------------------------------------
     11.17400      0.00000      0.00000         0.062834      0.000019     -0.001620
      2.80100      2.80100      0.03000        -0.001510     -0.005802     -0.062857
      2.80100      0.00000      2.80100        -0.001507     -0.005927     -0.004288
      0.00000      2.80100      2.80100        -0.004265     -0.000019      0.001495
      0.00000      0.00000      5.60200         0.000044     -0.000004      0.001162
      2.80100      2.80100      5.60200         0.000021      0.000073      0.008914
      2.80100      0.00000      8.40300        -0.001509      0.005802      0.007310
      0.00000      2.80100      8.40300         0.007465     -0.000020      0.001528
      0.00000      5.60200      0.00000         0.000071     -0.000019     -0.001663
      2.80100      8.40300      0.00000        -0.001508      0.005803     -0.000052
      2.80100      5.60200      2.80100         0.000021      0.005926      0.001587
      0.00000      8.40300      2.80100         0.001740      0.000020     -0.000053
      0.00000      5.60200      5.60200         0.000448      0.000005      0.001163
      2.80100      8.40300      5.60200         0.000021     -0.000073      0.000308
      2.80100      5.60200      8.40300         0.000021     -0.005801      0.001435
      0.00000      8.40300      8.40300         0.001589      0.000019     -0.000001
      5.60200      0.00000      0.00000        -0.008933      0.000020     -0.001668
      8.40300      2.80100      0.00000        -0.001512      0.005926     -0.000051
      8.40300      0.00000      2.80100        -0.001513      0.000078      0.005893
      5.60200      2.80100      2.80100         0.004765      0.000004      0.001518
      5.60200      0.00000      5.60200        -0.000303     -0.000004      0.001162
      8.40300      2.80100      5.60200         0.000033     -0.000077      0.000309
      8.40300      0.00000      8.40300        -0.001513     -0.000073     -0.005947
      5.60200      2.80100      8.40300        -0.006963      0.000005      0.001504
      5.60200      5.60200      0.00000        -0.000327     -0.000019     -0.001662
      8.40300      8.40300      0.00000        -0.001513     -0.005926     -0.000452
      8.40300      5.60200      2.80100         0.000033     -0.000077     -0.000111
      5.60200      8.40300      2.80100        -0.001239     -0.000004     -0.000029
      5.60200      5.60200      5.60200        -0.000435      0.000005      0.001162
      8.40300      8.40300      5.60200         0.000033      0.000078      0.000439
      8.40300      5.60200      8.40300         0.000034      0.000073      0.000057
      5.60200      8.40300      8.40300        -0.001089     -0.000005     -0.000025
      2.80100      2.80100      2.80100         0.000241      0.001285      0.021511
      0.00000      0.00000      2.80100        -0.003690      0.001303     -0.000340
      0.00000      2.80100      0.00000        -0.004870     -0.000123      0.004977
      2.80100      0.00000      0.00000        -0.016179      0.000120      0.005010
      2.80100      2.80100      8.40300         0.000242      0.001279      0.014896
      0.00000      0.00000      8.40300        -0.006275     -0.001280     -0.000114
      0.00000      2.80100      5.60200        -0.000582      0.000006     -0.002829
      2.80100      0.00000      5.60200        -0.000140      0.000014     -0.002829
      2.80100      8.40300      2.80100         0.000240     -0.001284      0.001453
      0.00000      5.60200      2.80100         0.000713     -0.001306     -0.000210
      0.00000      8.40300      0.00000        -0.005003      0.000123      0.000591
      2.80100      5.60200      0.00000        -0.000139     -0.000124      0.004992
      2.80100      8.40300      8.40300         0.000241     -0.001282     -0.001142
      0.00000      5.60200      8.40300        -0.001875      0.001283     -0.000250
      0.00000      8.40300      5.60200        -0.000590     -0.000010     -0.000666
      2.80100      5.60200      5.60200         0.000012     -0.000012     -0.002828
      8.40300      2.80100      2.80100         0.000220     -0.001304     -0.001135
      5.60200      0.00000      2.80100         0.001525      0.001304     -0.000228
      5.60200      2.80100      0.00000         0.002707     -0.000012      0.004986
      8.40300      0.00000      0.00000        -0.020228     -0.000010      0.000589
      8.40300      2.80100      8.40300         0.000219     -0.001305      0.001446
      5.60200      0.00000      8.40300         0.004111     -0.001280     -0.000228
      5.60200      2.80100      5.60200         0.000653     -0.000000     -0.002830
      8.40300      0.00000      5.60200        -0.000170      0.000001     -0.000665
      8.40300      8.40300      2.80100         0.000219      0.001306     -0.001306
      5.60200      5.60200      2.80100        -0.000639     -0.001302     -0.000220
      5.60200      8.40300      0.00000         0.002837      0.000012      0.000592
      8.40300      5.60200      0.00000        -0.000168      0.000009      0.000592
      8.40300      8.40300      8.40300         0.000221      0.001306      0.001294
      5.60200      5.60200      8.40300         0.001950      0.001283     -0.000240
      5.60200      8.40300      5.60200         0.000665     -0.000001     -0.000667
      8.40300      5.60200      5.60200         0.000001     -0.000001     -0.000666
 -----------------------------------------------------------------------------------
    total drift:                               -0.000579     -0.000008      0.000580


--------------------------------------------------------------------------------------------------------



  FREE ENERGIE OF THE ION-ELECTRON SYSTEM (eV)
  ---------------------------------------------------
  free  energy   TOTEN  =      -223.90082517 eV

  energy  without entropy=     -223.90082517  energy(sigma->0) =     -223.90082517
 


--------------------------------------------------------------------------------------------------------


    POTLOK:  cpu time      0.0685: real time      0.0688


--------------------------------------------------------------------------------------------------------


     LOOP+:  cpu time    230.0217: real time    231.2707
    4ORBIT:  cpu time      0.0000: real time      0.0000

 total amount of memory used by VASP MPI-rank0   129658. kBytes
=======================================================================

   base      :      30000. kBytes
   nonl-proj :      41680. kBytes
   fftplans  :      14405. kBytes
   grid      :      19342. kBytes
   one-center:        196. kBytes
   wavefun   :      24035. kBytes
 
  
  
 General timing and accounting informations for this job:
 ========================================================
  
                  Total CPU time used (sec):      234.300
                            User time (sec):      233.732
                          System time (sec):        0.567
                         Elapsed time (sec):      235.978
  
                   Maximum memory used (kb):      318096.
                   Average memory used (kb):          N/A
  
                          Minor page faults:       132050
                          Major page faults:            0
                 Voluntary context switches:          872
