<?xml version="1.0" encoding="ISO-8859-1"?>
<modeling>
 <generator>
  <i name="program" type="string">vasp </i>
  <i name="version" type="string">6.3.2  </i>
  <i name="subversion" type="string">27Jun22 (build Oct 14 2022 12:13:54) complex                          parallel </i>
  <i name="platform" type="string">LinuxIFC </i>
  <i name="date" type="string">2025 08 28 </i>
  <i name="time" type="string">22:00:10 </i>
 </generator>
 <incar>
  <i type="string" name="PREC">Accurate</i>
  <i type="int" name="IALGO">    38</i>
  <i type="logical" name="ADDGRID"> T  </i>
  <i type="int" name="NELMIN">     5</i>
  <i type="int" name="IBRION">    -1</i>
  <i name="EDIFF">      0.00000001</i>
  <i name="ENCUT">    341.21360000</i>
  <i type="logical" name="LREAL"> F  </i>
  <i type="int" name="ISMEAR">     0</i>
  <i name="SIGMA">      0.02000000</i>
  <i type="logical" name="LWAVE"> F  </i>
  <i type="logical" name="LCHARG"> F  </i>
  <i type="string" name="GGA">PS</i>
 </incar>
 <primitive_cell>
  <structure name="primitive_cell" >
   <crystal>
    <varray name="basis" >
     <v>      11.20400236       0.00000000       0.00000000 </v>
     <v>       0.00000000      11.20400236       0.00000000 </v>
     <v>       0.00000000       0.00000000      11.20400236 </v>
    </varray>
    <i name="volume">   1406.43470641 </i>
    <varray name="rec_basis" >
     <v>       0.08925382       0.00000000       0.00000000 </v>
     <v>       0.00000000       0.08925382       0.00000000 </v>
     <v>       0.00000000       0.00000000       0.08925382 </v>
    </varray>
   </crystal>
   <varray name="positions" >
    <v>       0.99732239       0.00000000       0.00000000 </v>
    <v>       0.25000000       0.25000000       0.00267761 </v>
    <v>       0.25000000       0.00000000       0.25000000 </v>
    <v>       0.00000000       0.25000000       0.25000000 </v>
    <v>       0.00000000       0.00000000       0.50000000 </v>
    <v>       0.25000000       0.25000000       0.50000000 </v>
    <v>       0.25000000       0.00000000       0.75000000 </v>
    <v>       0.00000000       0.25000000       0.75000000 </v>
    <v>       0.00000000       0.50000000       0.00000000 </v>
    <v>       0.25000000       0.75000000       0.00000000 </v>
    <v>       0.25000000       0.50000000       0.25000000 </v>
    <v>       0.00000000       0.75000000       0.25000000 </v>
    <v>       0.00000000       0.50000000       0.50000000 </v>
    <v>       0.25000000       0.75000000       0.50000000 </v>
    <v>       0.25000000       0.50000000       0.75000000 </v>
    <v>       0.00000000       0.75000000       0.75000000 </v>
    <v>       0.50000000       0.00000000       0.00000000 </v>
    <v>       0.75000000       0.25000000       0.00000000 </v>
    <v>       0.75000000       0.00000000       0.25000000 </v>
    <v>       0.50000000       0.25000000       0.25000000 </v>
    <v>       0.50000000       0.00000000       0.50000000 </v>
    <v>       0.75000000       0.25000000       0.50000000 </v>
    <v>       0.75000000       0.00000000       0.75000000 </v>
    <v>       0.50000000       0.25000000       0.75000000 </v>
    <v>       0.50000000       0.50000000       0.00000000 </v>
    <v>       0.75000000       0.75000000       0.00000000 </v>
    <v>       0.75000000       0.50000000       0.25000000 </v>
    <v>       0.50000000       0.75000000       0.25000000 </v>
    <v>       0.50000000       0.50000000       0.50000000 </v>
    <v>       0.75000000       0.75000000       0.50000000 </v>
    <v>       0.75000000       0.50000000       0.75000000 </v>
    <v>       0.50000000       0.75000000       0.75000000 </v>
    <v>       0.25000000       0.25000000       0.25000000 </v>
    <v>       0.00000000       0.00000000       0.25000000 </v>
    <v>       0.00000000       0.25000000       0.00000000 </v>
    <v>       0.25000000       0.00000000       0.00000000 </v>
    <v>       0.25000000       0.25000000       0.75000000 </v>
    <v>       0.00000000       0.00000000       0.75000000 </v>
    <v>       0.00000000       0.25000000       0.50000000 </v>
    <v>       0.25000000       0.00000000       0.50000000 </v>
    <v>       0.25000000       0.75000000       0.25000000 </v>
    <v>       0.00000000       0.50000000       0.25000000 </v>
    <v>       0.00000000       0.75000000       0.00000000 </v>
    <v>       0.25000000       0.50000000       0.00000000 </v>
    <v>       0.25000000       0.75000000       0.75000000 </v>
    <v>       0.00000000       0.50000000       0.75000000 </v>
    <v>       0.00000000       0.75000000       0.50000000 </v>
    <v>       0.25000000       0.50000000       0.50000000 </v>
    <v>       0.75000000       0.25000000       0.25000000 </v>
    <v>       0.50000000       0.00000000       0.25000000 </v>
    <v>       0.50000000       0.25000000       0.00000000 </v>
    <v>       0.75000000       0.00000000       0.00000000 </v>
    <v>       0.75000000       0.25000000       0.75000000 </v>
    <v>       0.50000000       0.00000000       0.75000000 </v>
    <v>       0.50000000       0.25000000       0.50000000 </v>
    <v>       0.75000000       0.00000000       0.50000000 </v>
    <v>       0.75000000       0.75000000       0.25000000 </v>
    <v>       0.50000000       0.50000000       0.25000000 </v>
    <v>       0.50000000       0.75000000       0.00000000 </v>
    <v>       0.75000000       0.50000000       0.00000000 </v>
    <v>       0.75000000       0.75000000       0.75000000 </v>
    <v>       0.50000000       0.50000000       0.75000000 </v>
    <v>       0.50000000       0.75000000       0.50000000 </v>
    <v>       0.75000000       0.50000000       0.50000000 </v>
   </varray>
  </structure>
  <varray name="primitive_index" >
   <v type="int" >        1 </v>
   <v type="int" >        2 </v>
   <v type="int" >        3 </v>
   <v type="int" >        4 </v>
   <v type="int" >        5 </v>
   <v type="int" >        6 </v>
   <v type="int" >        7 </v>
   <v type="int" >        8 </v>
   <v type="int" >        9 </v>
   <v type="int" >       10 </v>
   <v type="int" >       11 </v>
   <v type="int" >       12 </v>
   <v type="int" >       13 </v>
   <v type="int" >       14 </v>
   <v type="int" >       15 </v>
   <v type="int" >       16 </v>
   <v type="int" >       17 </v>
   <v type="int" >       18 </v>
   <v type="int" >       19 </v>
   <v type="int" >       20 </v>
   <v type="int" >       21 </v>
   <v type="int" >       22 </v>
   <v type="int" >       23 </v>
   <v type="int" >       24 </v>
   <v type="int" >       25 </v>
   <v type="int" >       26 </v>
   <v type="int" >       27 </v>
   <v type="int" >       28 </v>
   <v type="int" >       29 </v>
   <v type="int" >       30 </v>
   <v type="int" >       31 </v>
   <v type="int" >       32 </v>
   <v type="int" >       33 </v>
   <v type="int" >       34 </v>
   <v type="int" >       35 </v>
   <v type="int" >       36 </v>
   <v type="int" >       37 </v>
   <v type="int" >       38 </v>
   <v type="int" >       39 </v>
   <v type="int" >       40 </v>
   <v type="int" >       41 </v>
   <v type="int" >       42 </v>
   <v type="int" >       43 </v>
   <v type="int" >       44 </v>
   <v type="int" >       45 </v>
   <v type="int" >       46 </v>
   <v type="int" >       47 </v>
   <v type="int" >       48 </v>
   <v type="int" >       49 </v>
   <v type="int" >       50 </v>
   <v type="int" >       51 </v>
   <v type="int" >       52 </v>
   <v type="int" >       53 </v>
   <v type="int" >       54 </v>
   <v type="int" >       55 </v>
   <v type="int" >       56 </v>
   <v type="int" >       57 </v>
   <v type="int" >       58 </v>
   <v type="int" >       59 </v>
   <v type="int" >       60 </v>
   <v type="int" >       61 </v>
   <v type="int" >       62 </v>
   <v type="int" >       63 </v>
   <v type="int" >       64 </v>
  </varray>
 </primitive_cell>
 <kpoints>
  <generation param="Gamma">
   <v type="int" name="divisions">       2        2        2 </v>
   <v name="usershift">      0.00000000       0.00000000       0.00000000 </v>
   <v name="genvec1">      0.50000000       0.00000000       0.00000000 </v>
   <v name="genvec2">      0.00000000       0.50000000       0.00000000 </v>
   <v name="genvec3">      0.00000000       0.00000000       0.50000000 </v>
   <v name="shift">      0.00000000       0.00000000       0.00000000 </v>
  </generation>
  <varray name="kpointlist" >
   <v>       0.00000000       0.00000000       0.00000000 </v>
   <v>       0.50000000       0.00000000       0.00000000 </v>
   <v>       0.00000000       0.50000000       0.00000000 </v>
   <v>       0.00000000       0.00000000       0.50000000 </v>
   <v>       0.50000000       0.50000000       0.00000000 </v>
   <v>       0.00000000       0.50000000       0.50000000 </v>
   <v>       0.50000000       0.00000000       0.50000000 </v>
   <v>       0.50000000       0.50000000       0.50000000 </v>
  </varray>
  <varray name="weights" >
   <v>       0.12500000 </v>
   <v>       0.12500000 </v>
   <v>       0.12500000 </v>
   <v>       0.12500000 </v>
   <v>       0.12500000 </v>
   <v>       0.12500000 </v>
   <v>       0.12500000 </v>
   <v>       0.12500000 </v>
  </varray>
 </kpoints>
 <parameters>
  <separator name="general" >
   <i type="string" name="SYSTEM">unknown system</i>
   <i type="logical" name="LCOMPAT"> F  </i>
  </separator>
  <separator name="electronic" >
   <i type="string" name="PREC">accura</i>
   <i name="ENMAX">    341.21360000</i>
   <i name="ENAUG">    368.05600000</i>
   <i name="EDIFF">      0.00000001</i>
   <i type="int" name="IALGO">    38</i>
   <i type="int" name="IWAVPR">    10</i>
   <i type="int" name="NBANDS">   288</i>
   <i type="int" name="NBANDSLOW">    -1</i>
   <i type="int" name="NBANDSHIGH">    -1</i>
   <i name="NELECT">    448.00000000</i>
   <i type="int" name="TURBO">     0</i>
   <i type="int" name="IRESTART">     0</i>
   <i type="int" name="NREBOOT">     0</i>
   <i type="int" name="NMIN">     0</i>
   <i name="EREF">      0.00000000</i>
   <separator name="electronic smearing" >
    <i type="int" name="ISMEAR">     0</i>
    <i name="SIGMA">      0.02000000</i>
    <i name="KSPACING">      0.50000000</i>
    <i type="logical" name="KGAMMA"> T  </i>
    <i type="logical" name="KBLOWUP"> T  </i>
   </separator>
   <separator name="electronic projectors" >
    <i type="logical" name="LREAL"> F  </i>
    <v name="ROPT">      0.00000000      0.00000000</v>
    <i type="int" name="LMAXPAW">  -100</i>
    <i type="int" name="LMAXMIX">     2</i>
    <i type="logical" name="NLSPLINE"> F  </i>
   </separator>
   <separator name="electronic startup" >
    <i type="int" name="ISTART">     0</i>
    <i type="int" name="ICHARG">     2</i>
    <i type="int" name="INIWAV">     1</i>
   </separator>
   <separator name="electronic spin" >
    <i type="int" name="ISPIN">     1</i>
    <i type="logical" name="LNONCOLLINEAR"> F  </i>
    <v name="MAGMOM">      1.00000000      1.00000000      1.00000000      1.00000000      1.00000000      1.00000000      1.00000000      1.00000000      1.00000000      1.00000000      1.00000000      1.00000000      1.00000000      1.00000000      1.00000000      1.00000000      1.00000000      1.00000000      1.00000000      1.00000000
      1.00000000      1.00000000      1.00000000      1.00000000      1.00000000      1.00000000      1.00000000      1.00000000      1.00000000      1.00000000      1.00000000      1.00000000      1.00000000      1.00000000      1.00000000      1.00000000      1.00000000      1.00000000      1.00000000      1.00000000
      1.00000000      1.00000000      1.00000000      1.00000000      1.00000000      1.00000000      1.00000000      1.00000000      1.00000000      1.00000000      1.00000000      1.00000000      1.00000000      1.00000000      1.00000000      1.00000000      1.00000000      1.00000000      1.00000000      1.00000000
      1.00000000      1.00000000      1.00000000      1.00000000</v>
    <i name="NUPDOWN">     -1.00000000</i>
    <i type="logical" name="LSORBIT"> F  </i>
    <v name="SAXIS">      0.00000000      0.00000000      1.00000000</v>
    <i type="logical" name="LSPIRAL"> F  </i>
    <v name="QSPIRAL">      0.00000000      0.00000000      0.00000000</v>
    <i type="logical" name="LZEROZ"> F  </i>
   </separator>
   <separator name="electronic exchange-correlation" >
    <i type="logical" name="LASPH"> F  </i>
    <i type="logical" name="LMETAGGA"> F  </i>
   </separator>
   <separator name="electronic convergence" >
    <i type="int" name="NELM">    60</i>
    <i type="int" name="NELMDL">    -5</i>
    <i type="int" name="NELMIN">     5</i>
    <i name="ENINI">    341.21360000</i>
    <separator name="electronic convergence detail" >
     <i type="logical" name="LDIAG"> T  </i>
     <i type="logical" name="LSUBROT"> F  </i>
     <i name="WEIMIN">      0.00000000</i>
     <i name="EBREAK">      0.00000000</i>
     <i name="DEPER">      0.30000000</i>
     <i type="int" name="NRMM">     4</i>
     <i name="TIME">      0.40000000</i>
    </separator>
   </separator>
   <separator name="electronic mixer" >
    <i name="AMIX">      0.40000000</i>
    <i name="BMIX">      1.00000000</i>
    <i name="AMIN">      0.10000000</i>
    <i name="AMIX_MAG">      1.60000000</i>
    <i name="BMIX_MAG">      1.00000000</i>
    <separator name="electronic mixer details" >
     <i type="int" name="IMIX">     4</i>
     <i type="logical" name="MIXFIRST"> F  </i>
     <i type="int" name="MAXMIX">   -45</i>
     <i name="WC">    100.00000000</i>
     <i type="int" name="INIMIX">     1</i>
     <i type="int" name="MIXPRE">     1</i>
     <i type="int" name="MREMOVE">     5</i>
    </separator>
   </separator>
   <separator name="electronic dipolcorrection" >
    <i type="logical" name="LDIPOL"> F  </i>
    <i type="logical" name="LMONO"> F  </i>
    <i type="int" name="IDIPOL">     0</i>
    <i name="EPSILON">      1.00000000</i>
    <v name="DIPOL">   -100.00000000   -100.00000000   -100.00000000</v>
    <i name="EFIELD">      0.00000000</i>
   </separator>
  </separator>
  <separator name="grids" >
   <i type="int" name="NGX">    70</i>
   <i type="int" name="NGY">    70</i>
   <i type="int" name="NGZ">    70</i>
   <i type="int" name="NGXF">   140</i>
   <i type="int" name="NGYF">   140</i>
   <i type="int" name="NGZF">   140</i>
   <i type="logical" name="ADDGRID"> T  </i>
  </separator>
  <separator name="ionic" >
   <i type="int" name="NSW">     0</i>
   <i type="int" name="IBRION">    -1</i>
   <i type="int" name="MDALGO">     0</i>
   <i type="int" name="ISIF">     2</i>
   <i name="PSTRESS">      0.00000000</i>
   <i name="EDIFFG">      0.00000010</i>
   <i type="int" name="NFREE">     0</i>
   <i name="POTIM">      0.50000000</i>
   <i name="SMASS">     -3.00000000</i>
   <i name="SCALEE">      1.00000000</i>
  </separator>
  <separator name="ionic md" >
   <i name="TEBEG">      0.00010000</i>
   <i name="TEEND">      0.00010000</i>
   <i type="int" name="NBLOCK">     1</i>
   <i type="int" name="KBLOCK">     1</i>
   <i type="int" name="NPACO">   256</i>
   <i name="APACO">     10.00000000</i>
  </separator>
  <separator name="symmetry" >
   <i type="int" name="ISYM">     2</i>
   <i name="SYMPREC">      0.00001000</i>
  </separator>
  <separator name="dos" >
   <i type="int" name="LORBIT">     0</i>
   <v name="RWIGS">     -1.00000000     -1.00000000</v>
   <i type="int" name="NEDOS">   301</i>
   <i name="EMIN">     10.00000000</i>
   <i name="EMAX">    -10.00000000</i>
   <i name="EFERMI">      0.00000000</i>
  </separator>
  <separator name="writing" >
   <i type="int" name="NWRITE">     2</i>
   <i type="logical" name="LWAVE"> F  </i>
   <i type="logical" name="LDOWNSAMPLE"> F  </i>
   <i type="logical" name="LCHARG"> F  </i>
   <i type="logical" name="LPARD"> F  </i>
   <i type="logical" name="LVTOT"> F  </i>
   <i type="logical" name="LVHAR"> F  </i>
   <i type="logical" name="LELF"> F  </i>
   <i type="logical" name="LOPTICS"> F  </i>
   <v name="STM">      0.00000000      0.00000000      0.00000000      0.00000000      0.00000000      0.00000000      0.00000000</v>
  </separator>
  <separator name="performance" >
   <i type="int" name="NPAR">    32</i>
   <i type="int" name="NSIM">     4</i>
   <i type="int" name="NBLK">    -1</i>
   <i type="logical" name="LPLANE"> T  </i>
   <i type="logical" name="LSCALAPACK"> T  </i>
   <i type="logical" name="LSCAAWARE"> F  </i>
   <i type="logical" name="LSCALU"> F  </i>
   <i type="logical" name="LASYNC"> F  </i>
   <i type="logical" name="LORBITALREAL"> F  </i>
  </separator>
  <separator name="miscellaneous" >
   <i type="int" name="IDIOT">     3</i>
   <i type="int" name="PHON_NSTRUCT">    -1</i>
   <i type="logical" name="LMUSIC"> F  </i>
   <v name="POMASS">     22.99000000     35.45300000</v>
   <v name="DARWINR">      0.00000000      0.00000000</v>
   <v name="DARWINV">      1.00000000      1.00000000</v>
   <i type="logical" name="LCORR"> T  </i>
  </separator>
  <i type="logical" name="GGA_COMPAT"> T  </i>
  <i type="logical" name="LBERRY"> F  </i>
  <i type="int" name="ICORELEVEL">     0</i>
  <i type="logical" name="LDAU"> F  </i>
  <i type="int" name="I_CONSTRAINED_M">     0</i>
  <separator name="electronic exchange-correlation" >
   <i type="string" name="GGA">PS</i>
   <i type="int" name="VOSKOWN">     0</i>
   <i type="logical" name="LHFCALC"> F  </i>
   <i type="string" name="PRECFOCK"></i>
   <i type="logical" name="LSYMGRAD"> F  </i>
   <i type="logical" name="LHFONE"> F  </i>
   <i type="logical" name="LRHFCALC"> F  </i>
   <i type="logical" name="LTHOMAS"> F  </i>
   <i type="logical" name="LMODELHF"> F  </i>
   <i type="logical" name="LFOCKACE"> F  </i>
   <i name="ENCUT4O">     -1.00000000</i>
   <i type="int" name="EXXOEP">     0</i>
   <i type="int" name="FOURORBIT">     0</i>
   <i name="AEXX">      0.00000000</i>
   <i name="HFALPHA">      0.00000000</i>
   <i name="MCALPHA">      0.00000000</i>
   <i name="ALDAX">      1.00000000</i>
   <i name="AGGAX">      1.00000000</i>
   <i name="ALDAC">      1.00000000</i>
   <i name="AGGAC">      1.00000000</i>
   <i type="int" name="NKREDX">     1</i>
   <i type="int" name="NKREDY">     1</i>
   <i type="int" name="NKREDZ">     1</i>
   <i type="logical" name="SHIFTRED"> F  </i>
   <i type="logical" name="ODDONLY"> F  </i>
   <i type="logical" name="EVENONLY"> F  </i>
   <i type="int" name="LMAXFOCK">     0</i>
   <i type="int" name="NMAXFOCKAE">     0</i>
   <i type="logical" name="LFOCKAEDFT"> F  </i>
   <i name="HFSCREEN">      0.00000000</i>
   <i name="HFSCREENC">      0.00000000</i>
   <i type="int" name="NBANDSGWLOW">     0</i>
  </separator>
  <separator name="vdW DFT" >
   <i type="logical" name="LUSE_VDW"> F  </i>
   <i name="Zab_VDW">     -0.84910000</i>
   <i name="PARAM1">      0.12340000</i>
   <i name="PARAM2">      1.00000000</i>
   <i name="PARAM3">      0.00000000</i>
  </separator>
  <separator name="model GW" >
   <i type="int" name="MODEL_GW">     0</i>
   <i name="MODEL_EPS0">     13.18532537</i>
   <i name="MODEL_ALPHA">      1.00000000</i>
  </separator>
  <separator name="linear response parameters" >
   <i type="logical" name="LEPSILON"> F  </i>
   <i type="logical" name="LRPA"> F  </i>
   <i type="logical" name="LNABLA"> F  </i>
   <i type="logical" name="LVEL"> F  </i>
   <i name="CSHIFT">      0.10000000</i>
   <i name="OMEGAMAX">     -1.00000000</i>
   <i name="DEG_THRESHOLD">      0.00200000</i>
   <i name="RTIME">     -0.10000000</i>
   <i name="WPLASMAI">      0.00000000</i>
   <v name="DFIELD">      0.00000000      0.00000000      0.00000000</v>
   <v name="WPLASMA">      0.00000000      0.00000000      0.00000000      0.00000000      0.00000000      0.00000000      0.00000000      0.00000000      0.00000000</v>
  </separator>
  <separator name="orbital magnetization" >
   <i type="logical" name="NUCIND"> F  </i>
   <v name="MAGPOS">      0.00000000      0.00000000      0.00000000</v>
   <i type="logical" name="LNICSALL"> T  </i>
   <i type="logical" name="ORBITALMAG"> F  </i>
   <i type="logical" name="LMAGBLOCH"> F  </i>
   <i type="logical" name="LCHIMAG"> F  </i>
   <i type="logical" name="LGAUGE"> T  </i>
   <i type="int" name="MAGATOM">     0</i>
   <v name="MAGDIPOL">      0.00000000      0.00000000      0.00000000</v>
   <v name="AVECCONST">      0.00000000      0.00000000      0.00000000</v>
  </separator>
  <separator name="response functions" >
   <i type="logical" name="LFINITE_TEMPERATURE"> F  </i>
   <i type="logical" name="LADDER"> F  </i>
   <i type="logical" name="LRPAFORCE"> F  </i>
   <i type="logical" name="LFXC"> F  </i>
   <i type="logical" name="LHARTREE"> T  </i>
   <i type="int" name="IBSE">     0</i>
   <v type="int" name="KPOINT">    -1     0     0     0</v>
   <i type="logical" name="LTCTC"> F  </i>
   <i type="logical" name="LTCTE"> F  </i>
   <i type="logical" name="LTETE"> F  </i>
   <i type="logical" name="LTRIPLET"> F  </i>
   <i type="logical" name="LFXCEPS"> F  </i>
   <i type="logical" name="LFXHEG"> F  </i>
   <i type="int" name="NATURALO">     2</i>
   <i type="logical" name="LHOLEGF"> F  </i>
   <i type="logical" name="L2ORDER"> F  </i>
   <i type="logical" name="LDMP1"> F  </i>
   <i type="logical" name="LMP2LT"> F  </i>
   <i type="logical" name="LSMP2LT"> F  </i>
   <i type="logical" name="LGWLF"> F  </i>
   <i name="ENCUTGW">     -2.00000000</i>
   <i name="ENCUTGWSOFT">     -2.00000000</i>
   <i name="ENCUTLF">     -1.00000000</i>
   <i type="logical" name="LESF_SPLINES"> F  </i>
   <i type="int" name="LMAXMP2">    -1</i>
   <i name="SCISSOR">      0.00000000</i>
   <i type="int" name="NOMEGA">     0</i>
   <i type="int" name="NOMEGAR">     0</i>
   <i type="int" name="NBANDSGW">    -1</i>
   <i type="int" name="NBANDSO">    -1</i>
   <i type="int" name="NBANDSV">    -1</i>
   <i type="int" name="NELMGW">     1</i>
   <i type="int" name="NELMHF">     1</i>
   <i type="int" name="DIM">     3</i>
   <i type="int" name="IESPILON">     4</i>
   <i type="int" name="ANTIRES">     0</i>
   <i name="OMEGAMAX">    -30.00000000</i>
   <i name="OMEGAMIN">    -30.00000000</i>
   <i name="OMEGATL">   -200.00000000</i>
   <i type="int" name="OMEGAGRID">     0</i>
   <i name="CSHIFT">     -0.10000000</i>
   <i type="logical" name="LSELFENERGY"> F  </i>
   <i type="logical" name="LSPECTRAL"> F  </i>
   <i type="logical" name="LSPECTRALGW"> F  </i>
   <i type="logical" name="LSINGLES"> F  </i>
   <i type="logical" name="LFERMIGW"> F  </i>
   <i type="logical" name="ODDONLYGW"> F  </i>
   <i type="logical" name="EVENONLYGW"> F  </i>
   <i type="int" name="NKREDLFX">     1</i>
   <i type="int" name="NKREDLFY">     1</i>
   <i type="int" name="NKREDLFZ">     1</i>
   <i type="int" name="MAXMEM">  2800</i>
   <i type="int" name="TELESCOPE">     0</i>
   <i type="int" name="NTAUPAR">    -1</i>
   <i type="int" name="NOMEGAPAR">    -1</i>
   <i name="DAMP_NEWTON">      0.80000001</i>
   <i name="LAMBDA">      1.00000000</i>
  </separator>
  <separator name="External order field" >
   <i name="OFIELD_KAPPA">      0.00000000</i>
   <v name="OFIELD_K">      0.00000000      0.00000000      0.00000000</v>
   <i name="OFIELD_Q6_NEAR">      0.00000000</i>
   <i name="OFIELD_Q6_FAR">      0.00000000</i>
   <i name="OFIELD_A">      0.00000000</i>
  </separator>
  <separator name="optional k-points parameters" >
   <i type="int" name="KPOINTS_OPT_MODE">     1</i>
   <i type="logical" name="LKPOINTS_OPT"> F  </i>
  </separator>
 </parameters>
 <atominfo>
  <atoms>      64 </atoms>
  <types>       2 </types>
  <array name="atoms" >
   <dimension dim="1">ion</dimension>
   <field type="string">element</field>
   <field type="int">atomtype</field>
   <set>
    <rc><c>Na</c><c>   1</c></rc>
    <rc><c>Na</c><c>   1</c></rc>
    <rc><c>Na</c><c>   1</c></rc>
    <rc><c>Na</c><c>   1</c></rc>
    <rc><c>Na</c><c>   1</c></rc>
    <rc><c>Na</c><c>   1</c></rc>
    <rc><c>Na</c><c>   1</c></rc>
    <rc><c>Na</c><c>   1</c></rc>
    <rc><c>Na</c><c>   1</c></rc>
    <rc><c>Na</c><c>   1</c></rc>
    <rc><c>Na</c><c>   1</c></rc>
    <rc><c>Na</c><c>   1</c></rc>
    <rc><c>Na</c><c>   1</c></rc>
    <rc><c>Na</c><c>   1</c></rc>
    <rc><c>Na</c><c>   1</c></rc>
    <rc><c>Na</c><c>   1</c></rc>
    <rc><c>Na</c><c>   1</c></rc>
    <rc><c>Na</c><c>   1</c></rc>
    <rc><c>Na</c><c>   1</c></rc>
    <rc><c>Na</c><c>   1</c></rc>
    <rc><c>Na</c><c>   1</c></rc>
    <rc><c>Na</c><c>   1</c></rc>
    <rc><c>Na</c><c>   1</c></rc>
    <rc><c>Na</c><c>   1</c></rc>
    <rc><c>Na</c><c>   1</c></rc>
    <rc><c>Na</c><c>   1</c></rc>
    <rc><c>Na</c><c>   1</c></rc>
    <rc><c>Na</c><c>   1</c></rc>
    <rc><c>Na</c><c>   1</c></rc>
    <rc><c>Na</c><c>   1</c></rc>
    <rc><c>Na</c><c>   1</c></rc>
    <rc><c>Na</c><c>   1</c></rc>
    <rc><c>Cl</c><c>   2</c></rc>
    <rc><c>Cl</c><c>   2</c></rc>
    <rc><c>Cl</c><c>   2</c></rc>
    <rc><c>Cl</c><c>   2</c></rc>
    <rc><c>Cl</c><c>   2</c></rc>
    <rc><c>Cl</c><c>   2</c></rc>
    <rc><c>Cl</c><c>   2</c></rc>
    <rc><c>Cl</c><c>   2</c></rc>
    <rc><c>Cl</c><c>   2</c></rc>
    <rc><c>Cl</c><c>   2</c></rc>
    <rc><c>Cl</c><c>   2</c></rc>
    <rc><c>Cl</c><c>   2</c></rc>
    <rc><c>Cl</c><c>   2</c></rc>
    <rc><c>Cl</c><c>   2</c></rc>
    <rc><c>Cl</c><c>   2</c></rc>
    <rc><c>Cl</c><c>   2</c></rc>
    <rc><c>Cl</c><c>   2</c></rc>
    <rc><c>Cl</c><c>   2</c></rc>
    <rc><c>Cl</c><c>   2</c></rc>
    <rc><c>Cl</c><c>   2</c></rc>
    <rc><c>Cl</c><c>   2</c></rc>
    <rc><c>Cl</c><c>   2</c></rc>
    <rc><c>Cl</c><c>   2</c></rc>
    <rc><c>Cl</c><c>   2</c></rc>
    <rc><c>Cl</c><c>   2</c></rc>
    <rc><c>Cl</c><c>   2</c></rc>
    <rc><c>Cl</c><c>   2</c></rc>
    <rc><c>Cl</c><c>   2</c></rc>
    <rc><c>Cl</c><c>   2</c></rc>
    <rc><c>Cl</c><c>   2</c></rc>
    <rc><c>Cl</c><c>   2</c></rc>
    <rc><c>Cl</c><c>   2</c></rc>
   </set>
  </array>
  <array name="atomtypes" >
   <dimension dim="1">type</dimension>
   <field type="int">atomspertype</field>
   <field type="string">element</field>
   <field>mass</field>
   <field>valence</field>
   <field type="string">pseudopotential</field>
   <set>
    <rc><c>  32</c><c>Na</c><c>     22.99000000</c><c>      7.00000000</c><c>  PAW_PBE Na_pv 19Sep2006               </c></rc>
    <rc><c>  32</c><c>Cl</c><c>     35.45300000</c><c>      7.00000000</c><c>  PAW_PBE Cl 06Sep2000                  </c></rc>
   </set>
  </array>
 </atominfo>
 <structure name="initialpos" >
  <crystal>
   <varray name="basis" >
    <v>      11.20400236       0.00000000       0.00000000 </v>
    <v>       0.00000000      11.20400236       0.00000000 </v>
    <v>       0.00000000       0.00000000      11.20400236 </v>
   </varray>
   <i name="volume">   1406.43470641 </i>
   <varray name="rec_basis" >
    <v>       0.08925382       0.00000000       0.00000000 </v>
    <v>       0.00000000       0.08925382       0.00000000 </v>
    <v>       0.00000000       0.00000000       0.08925382 </v>
   </varray>
  </crystal>
  <varray name="positions" >
   <v>       0.99732239       0.00000000       0.00000000 </v>
   <v>       0.25000000       0.25000000       0.00267761 </v>
   <v>       0.25000000       0.00000000       0.25000000 </v>
   <v>       0.00000000       0.25000000       0.25000000 </v>
   <v>       0.00000000       0.00000000       0.50000000 </v>
   <v>       0.25000000       0.25000000       0.50000000 </v>
   <v>       0.25000000       0.00000000       0.75000000 </v>
   <v>       0.00000000       0.25000000       0.75000000 </v>
   <v>       0.00000000       0.50000000       0.00000000 </v>
   <v>       0.25000000       0.75000000       0.00000000 </v>
   <v>       0.25000000       0.50000000       0.25000000 </v>
   <v>       0.00000000       0.75000000       0.25000000 </v>
   <v>       0.00000000       0.50000000       0.50000000 </v>
   <v>       0.25000000       0.75000000       0.50000000 </v>
   <v>       0.25000000       0.50000000       0.75000000 </v>
   <v>       0.00000000       0.75000000       0.75000000 </v>
   <v>       0.50000000       0.00000000       0.00000000 </v>
   <v>       0.75000000       0.25000000       0.00000000 </v>
   <v>       0.75000000       0.00000000       0.25000000 </v>
   <v>       0.50000000       0.25000000       0.25000000 </v>
   <v>       0.50000000       0.00000000       0.50000000 </v>
   <v>       0.75000000       0.25000000       0.50000000 </v>
   <v>       0.75000000       0.00000000       0.75000000 </v>
   <v>       0.50000000       0.25000000       0.75000000 </v>
   <v>       0.50000000       0.50000000       0.00000000 </v>
   <v>       0.75000000       0.75000000       0.00000000 </v>
   <v>       0.75000000       0.50000000       0.25000000 </v>
   <v>       0.50000000       0.75000000       0.25000000 </v>
   <v>       0.50000000       0.50000000       0.50000000 </v>
   <v>       0.75000000       0.75000000       0.50000000 </v>
   <v>       0.75000000       0.50000000       0.75000000 </v>
   <v>       0.50000000       0.75000000       0.75000000 </v>
   <v>       0.25000000       0.25000000       0.25000000 </v>
   <v>       0.00000000       0.00000000       0.25000000 </v>
   <v>       0.00000000       0.25000000       0.00000000 </v>
   <v>       0.25000000       0.00000000       0.00000000 </v>
   <v>       0.25000000       0.25000000       0.75000000 </v>
   <v>       0.00000000       0.00000000       0.75000000 </v>
   <v>       0.00000000       0.25000000       0.50000000 </v>
   <v>       0.25000000       0.00000000       0.50000000 </v>
   <v>       0.25000000       0.75000000       0.25000000 </v>
   <v>       0.00000000       0.50000000       0.25000000 </v>
   <v>       0.00000000       0.75000000       0.00000000 </v>
   <v>       0.25000000       0.50000000       0.00000000 </v>
   <v>       0.25000000       0.75000000       0.75000000 </v>
   <v>       0.00000000       0.50000000       0.75000000 </v>
   <v>       0.00000000       0.75000000       0.50000000 </v>
   <v>       0.25000000       0.50000000       0.50000000 </v>
   <v>       0.75000000       0.25000000       0.25000000 </v>
   <v>       0.50000000       0.00000000       0.25000000 </v>
   <v>       0.50000000       0.25000000       0.00000000 </v>
   <v>       0.75000000       0.00000000       0.00000000 </v>
   <v>       0.75000000       0.25000000       0.75000000 </v>
   <v>       0.50000000       0.00000000       0.75000000 </v>
   <v>       0.50000000       0.25000000       0.50000000 </v>
   <v>       0.75000000       0.00000000       0.50000000 </v>
   <v>       0.75000000       0.75000000       0.25000000 </v>
   <v>       0.50000000       0.50000000       0.25000000 </v>
   <v>       0.50000000       0.75000000       0.00000000 </v>
   <v>       0.75000000       0.50000000       0.00000000 </v>
   <v>       0.75000000       0.75000000       0.75000000 </v>
   <v>       0.50000000       0.50000000       0.75000000 </v>
   <v>       0.50000000       0.75000000       0.50000000 </v>
   <v>       0.75000000       0.50000000       0.50000000 </v>
  </varray>
 </structure>
 <calculation>
  <scstep>
   <time name="dav">    9.98   10.03</time>
   <time name="total">   10.05   10.11</time>
   <energy>
    <i name="alphaZ">    751.52672365 </i>
    <i name="ewald"> -22871.34016192 </i>
    <i name="hartreedc">  -8992.24471235 </i>
    <i name="XCdc">   1456.53423634 </i>
    <i name="pawpsdc">  26466.43774078 </i>
    <i name="pawaedc"> -29286.08056155 </i>
    <i name="eentropy">     -0.00310016 </i>
    <i name="bandstr">   -733.34179508 </i>
    <i name="atom">  37532.17946992 </i>
    <i name="e_fr_energy">   4323.66783965 </i>
    <i name="e_wo_entrp">   4323.67093981 </i>
    <i name="e_0_energy">   4323.66938973 </i>
   </energy>
  </scstep>
  <scstep>
   <time name="dav">   10.88   10.94</time>
   <time name="total">   10.88   10.94</time>
   <energy>
    <i name="e_fr_energy">    363.94105955 </i>
    <i name="e_wo_entrp">    363.94105955 </i>
    <i name="e_0_energy">    363.94105955 </i>
   </energy>
  </scstep>
  <scstep>
   <time name="dav">   11.68   11.74</time>
   <time name="total">   11.68   11.74</time>
   <energy>
    <i name="e_fr_energy">   -206.17371888 </i>
    <i name="e_wo_entrp">   -206.17371888 </i>
    <i name="e_0_energy">   -206.17371888 </i>
   </energy>
  </scstep>
  <scstep>
   <time name="dav">   11.52   11.59</time>
   <time name="total">   11.52   11.59</time>
   <energy>
    <i name="e_fr_energy">   -228.19078627 </i>
    <i name="e_wo_entrp">   -228.19078627 </i>
    <i name="e_0_energy">   -228.19078627 </i>
   </energy>
  </scstep>
  <scstep>
   <time name="dav">   11.80   11.86</time>
   <time name="total">   12.12   12.19</time>
   <energy>
    <i name="e_fr_energy">   -229.00384615 </i>
    <i name="e_wo_entrp">   -229.00384615 </i>
    <i name="e_0_energy">   -229.00384615 </i>
   </energy>
  </scstep>
  <scstep>
   <time name="dav">   11.85   11.91</time>
   <time name="total">   12.24   12.31</time>
   <energy>
    <i name="e_fr_energy">   -224.13936582 </i>
    <i name="e_wo_entrp">   -224.13936582 </i>
    <i name="e_0_energy">   -224.13936582 </i>
   </energy>
  </scstep>
  <scstep>
   <time name="dav">   12.69   12.75</time>
   <time name="total">   13.08   13.15</time>
   <energy>
    <i name="e_fr_energy">   -223.77754302 </i>
    <i name="e_wo_entrp">   -223.77754302 </i>
    <i name="e_0_energy">   -223.77754302 </i>
   </energy>
  </scstep>
  <scstep>
   <time name="dav">   11.21   11.27</time>
   <time name="total">   11.61   11.68</time>
   <energy>
    <i name="e_fr_energy">   -223.90279987 </i>
    <i name="e_wo_entrp">   -223.90279987 </i>
    <i name="e_0_energy">   -223.90279987 </i>
   </energy>
  </scstep>
  <scstep>
   <time name="dav">   11.93   11.99</time>
   <time name="total">   12.33   12.39</time>
   <energy>
    <i name="e_fr_energy">   -223.89730367 </i>
    <i name="e_wo_entrp">   -223.89730367 </i>
    <i name="e_0_energy">   -223.89730367 </i>
   </energy>
  </scstep>
  <scstep>
   <time name="dav">   11.23   11.29</time>
   <time name="total">   11.63   11.69</time>
   <energy>
    <i name="e_fr_energy">   -223.90162631 </i>
    <i name="e_wo_entrp">   -223.90162631 </i>
    <i name="e_0_energy">   -223.90162631 </i>
   </energy>
  </scstep>
  <scstep>
   <time name="dav">   11.81   11.87</time>
   <time name="total">   12.20   12.27</time>
   <energy>
    <i name="e_fr_energy">   -223.90085372 </i>
    <i name="e_wo_entrp">   -223.90085372 </i>
    <i name="e_0_energy">   -223.90085372 </i>
   </energy>
  </scstep>
  <scstep>
   <time name="dav">   12.54   12.61</time>
   <time name="total">   12.93   13.00</time>
   <energy>
    <i name="e_fr_energy">   -223.90082062 </i>
    <i name="e_wo_entrp">   -223.90082062 </i>
    <i name="e_0_energy">   -223.90082062 </i>
   </energy>
  </scstep>
  <scstep>
   <time name="dav">   11.32   11.38</time>
   <time name="total">   11.71   11.77</time>
   <energy>
    <i name="e_fr_energy">   -223.90082311 </i>
    <i name="e_wo_entrp">   -223.90082311 </i>
    <i name="e_0_energy">   -223.90082311 </i>
   </energy>
  </scstep>
  <scstep>
   <time name="dav">   12.61   12.68</time>
   <time name="total">   13.01   13.08</time>
   <energy>
    <i name="e_fr_energy">   -223.90082329 </i>
    <i name="e_wo_entrp">   -223.90082329 </i>
    <i name="e_0_energy">   -223.90082329 </i>
   </energy>
  </scstep>
  <scstep>
   <time name="dav">   11.10   11.16</time>
   <time name="total">   11.50   11.56</time>
   <energy>
    <i name="e_fr_energy">   -223.90082449 </i>
    <i name="e_wo_entrp">   -223.90082449 </i>
    <i name="e_0_energy">   -223.90082449 </i>
   </energy>
  </scstep>
  <scstep>
   <time name="dav">   10.99   11.05</time>
   <time name="total">   11.39   11.45</time>
   <energy>
    <i name="e_fr_energy">   -223.90082512 </i>
    <i name="e_wo_entrp">   -223.90082512 </i>
    <i name="e_0_energy">   -223.90082512 </i>
   </energy>
  </scstep>
  <scstep>
   <time name="dav">    8.41    8.45</time>
   <time name="total">    8.81    8.85</time>
   <energy>
    <i name="e_fr_energy">   -223.90082514 </i>
    <i name="e_wo_entrp">   -223.90082514 </i>
    <i name="e_0_energy">   -223.90082514 </i>
   </energy>
  </scstep>
  <scstep>
   <time name="dav">    7.70    7.74</time>
   <time name="total">    8.10    8.14</time>
   <energy>
    <i name="e_fr_energy">   -223.90082518 </i>
    <i name="e_wo_entrp">   -223.90082518 </i>
    <i name="e_0_energy">   -223.90082518 </i>
   </energy>
  </scstep>
  <scstep>
   <time name="dav">    7.57    7.61</time>
   <time name="total">    7.63    7.67</time>
   <energy>
    <i name="alphaZ">    751.52672365 </i>
    <i name="ewald"> -22871.34016192 </i>
    <i name="hartreedc">  -9078.15568835 </i>
    <i name="XCdc">   1472.51336470 </i>
    <i name="pawpsdc">  29498.25164796 </i>
    <i name="pawaedc"> -32317.61640033 </i>
    <i name="eentropy">     -0.00000000 </i>
    <i name="bandstr">  -5211.25978081 </i>
    <i name="atom">  37532.17946992 </i>
    <i name="e_fr_energy">   -223.90082517 </i>
    <i name="e_wo_entrp">   -223.90082517 </i>
    <i name="e_0_energy">   -223.90082517 </i>
   </energy>
  </scstep>
  <structure>
   <crystal>
    <varray name="basis" >
     <v>      11.20400236       0.00000000       0.00000000 </v>
     <v>       0.00000000      11.20400236       0.00000000 </v>
     <v>       0.00000000       0.00000000      11.20400236 </v>
    </varray>
    <i name="volume">   1406.43470641 </i>
    <varray name="rec_basis" >
     <v>       0.08925382       0.00000000       0.00000000 </v>
     <v>       0.00000000       0.08925382       0.00000000 </v>
     <v>       0.00000000       0.00000000       0.08925382 </v>
    </varray>
   </crystal>
   <varray name="positions" >
    <v>       0.99732239       0.00000000       0.00000000 </v>
    <v>       0.25000000       0.25000000       0.00267761 </v>
    <v>       0.25000000       0.00000000       0.25000000 </v>
    <v>       0.00000000       0.25000000       0.25000000 </v>
    <v>       0.00000000       0.00000000       0.50000000 </v>
    <v>       0.25000000       0.25000000       0.50000000 </v>
    <v>       0.25000000       0.00000000       0.75000000 </v>
    <v>       0.00000000       0.25000000       0.75000000 </v>
    <v>       0.00000000       0.50000000       0.00000000 </v>
    <v>       0.25000000       0.75000000       0.00000000 </v>
    <v>       0.25000000       0.50000000       0.25000000 </v>
    <v>       0.00000000       0.75000000       0.25000000 </v>
    <v>       0.00000000       0.50000000       0.50000000 </v>
    <v>       0.25000000       0.75000000       0.50000000 </v>
    <v>       0.25000000       0.50000000       0.75000000 </v>
    <v>       0.00000000       0.75000000       0.75000000 </v>
    <v>       0.50000000       0.00000000       0.00000000 </v>
    <v>       0.75000000       0.25000000       0.00000000 </v>
    <v>       0.75000000       0.00000000       0.25000000 </v>
    <v>       0.50000000       0.25000000       0.25000000 </v>
    <v>       0.50000000       0.00000000       0.50000000 </v>
    <v>       0.75000000       0.25000000       0.50000000 </v>
    <v>       0.75000000       0.00000000       0.75000000 </v>
    <v>       0.50000000       0.25000000       0.75000000 </v>
    <v>       0.50000000       0.50000000       0.00000000 </v>
    <v>       0.75000000       0.75000000       0.00000000 </v>
    <v>       0.75000000       0.50000000       0.25000000 </v>
    <v>       0.50000000       0.75000000       0.25000000 </v>
    <v>       0.50000000       0.50000000       0.50000000 </v>
    <v>       0.75000000       0.75000000       0.50000000 </v>
    <v>       0.75000000       0.50000000       0.75000000 </v>
    <v>       0.50000000       0.75000000       0.75000000 </v>
    <v>       0.25000000       0.25000000       0.25000000 </v>
    <v>       0.00000000       0.00000000       0.25000000 </v>
    <v>       0.00000000       0.25000000       0.00000000 </v>
    <v>       0.25000000       0.00000000       0.00000000 </v>
    <v>       0.25000000       0.25000000       0.75000000 </v>
    <v>       0.00000000       0.00000000       0.75000000 </v>
    <v>       0.00000000       0.25000000       0.50000000 </v>
    <v>       0.25000000       0.00000000       0.50000000 </v>
    <v>       0.25000000       0.75000000       0.25000000 </v>
    <v>       0.00000000       0.50000000       0.25000000 </v>
    <v>       0.00000000       0.75000000       0.00000000 </v>
    <v>       0.25000000       0.50000000       0.00000000 </v>
    <v>       0.25000000       0.75000000       0.75000000 </v>
    <v>       0.00000000       0.50000000       0.75000000 </v>
    <v>       0.00000000       0.75000000       0.50000000 </v>
    <v>       0.25000000       0.50000000       0.50000000 </v>
    <v>       0.75000000       0.25000000       0.25000000 </v>
    <v>       0.50000000       0.00000000       0.25000000 </v>
    <v>       0.50000000       0.25000000       0.00000000 </v>
    <v>       0.75000000       0.00000000       0.00000000 </v>
    <v>       0.75000000       0.25000000       0.75000000 </v>
    <v>       0.50000000       0.00000000       0.75000000 </v>
    <v>       0.50000000       0.25000000       0.50000000 </v>
    <v>       0.75000000       0.00000000       0.50000000 </v>
    <v>       0.75000000       0.75000000       0.25000000 </v>
    <v>       0.50000000       0.50000000       0.25000000 </v>
    <v>       0.50000000       0.75000000       0.00000000 </v>
    <v>       0.75000000       0.50000000       0.00000000 </v>
    <v>       0.75000000       0.75000000       0.75000000 </v>
    <v>       0.50000000       0.50000000       0.75000000 </v>
    <v>       0.50000000       0.75000000       0.50000000 </v>
    <v>       0.75000000       0.50000000       0.50000000 </v>
   </varray>
  </structure>
  <varray name="forces" >
   <v>       0.06283441       0.00001921      -0.00161970 </v>
   <v>      -0.00150966      -0.00580223      -0.06285668 </v>
   <v>      -0.00150743      -0.00592681      -0.00428789 </v>
   <v>      -0.00426455      -0.00001919       0.00149497 </v>
   <v>       0.00004360      -0.00000429       0.00116179 </v>
   <v>       0.00002068       0.00007338       0.00891436 </v>
   <v>      -0.00150909       0.00580246       0.00730956 </v>
   <v>       0.00746492      -0.00001967       0.00152818 </v>
   <v>       0.00007136      -0.00001924      -0.00166265 </v>
   <v>      -0.00150847       0.00580274      -0.00005152 </v>
   <v>       0.00002090       0.00592631       0.00158656 </v>
   <v>       0.00173999       0.00001997      -0.00005305 </v>
   <v>       0.00044798       0.00000458       0.00116258 </v>
   <v>       0.00002065      -0.00007316       0.00030810 </v>
   <v>       0.00002065      -0.00580149       0.00143454 </v>
   <v>       0.00158933       0.00001938      -0.00000119 </v>
   <v>      -0.00893292       0.00001981      -0.00166791 </v>
   <v>      -0.00151216       0.00592633      -0.00005148 </v>
   <v>      -0.00151333       0.00007754       0.00589269 </v>
   <v>       0.00476461       0.00000446       0.00151791 </v>
   <v>      -0.00030343      -0.00000435       0.00116169 </v>
   <v>       0.00003346      -0.00007735       0.00030851 </v>
   <v>      -0.00151334      -0.00007314      -0.00594690 </v>
   <v>      -0.00696312       0.00000502       0.00150354 </v>
   <v>      -0.00032721      -0.00001943      -0.00166244 </v>
   <v>      -0.00151336      -0.00592609      -0.00045152 </v>
   <v>       0.00003339      -0.00007734      -0.00011093 </v>
   <v>      -0.00123937      -0.00000416      -0.00002893 </v>
   <v>      -0.00043543       0.00000467       0.00116213 </v>
   <v>       0.00003346       0.00007758       0.00043948 </v>
   <v>       0.00003353       0.00007335       0.00005672 </v>
   <v>      -0.00108851      -0.00000473      -0.00002535 </v>
   <v>       0.00024128       0.00128494       0.02151068 </v>
   <v>      -0.00368985       0.00130298      -0.00034026 </v>
   <v>      -0.00487033      -0.00012346       0.00497720 </v>
   <v>      -0.01617874       0.00012030       0.00501024 </v>
   <v>       0.00024203       0.00127911       0.01489602 </v>
   <v>      -0.00627529      -0.00127983      -0.00011411 </v>
   <v>      -0.00058151       0.00000641      -0.00282915 </v>
   <v>      -0.00013985       0.00001353      -0.00282881 </v>
   <v>       0.00024019      -0.00128441       0.00145258 </v>
   <v>       0.00071329      -0.00130583      -0.00021026 </v>
   <v>      -0.00500343       0.00012315       0.00059110 </v>
   <v>      -0.00013905      -0.00012381       0.00499217 </v>
   <v>       0.00024054      -0.00128160      -0.00114233 </v>
   <v>      -0.00187536       0.00128275      -0.00025042 </v>
   <v>      -0.00059013      -0.00000975      -0.00066590 </v>
   <v>       0.00001190      -0.00001239      -0.00282766 </v>
   <v>       0.00021967      -0.00130444      -0.00113533 </v>
   <v>       0.00152534       0.00130389      -0.00022847 </v>
   <v>       0.00270706      -0.00001171       0.00498626 </v>
   <v>      -0.02022838      -0.00000982       0.00058889 </v>
   <v>       0.00021947      -0.00130531       0.00144600 </v>
   <v>       0.00411095      -0.00128038      -0.00022756 </v>
   <v>       0.00065255      -0.00000047      -0.00282996 </v>
   <v>      -0.00016950       0.00000142      -0.00066495 </v>
   <v>       0.00021925       0.00130562      -0.00130584 </v>
   <v>      -0.00063938      -0.00130239      -0.00022006 </v>
   <v>       0.00283735       0.00001185       0.00059192 </v>
   <v>      -0.00016840       0.00000904       0.00059219 </v>
   <v>       0.00022062       0.00130586       0.00129392 </v>
   <v>       0.00194975       0.00128289      -0.00024027 </v>
   <v>       0.00066526      -0.00000104      -0.00066670 </v>
   <v>       0.00000115      -0.00000120      -0.00066630 </v>
  </varray>
  <varray name="stress" >
   <v>      -0.36825889       0.00000053      -0.00015981 </v>
   <v>       0.00000052      -0.37950622      -0.00033082 </v>
   <v>      -0.00015983      -0.00033085      -0.36860018 </v>
  </varray>
  <energy>
   <i name="e_fr_energy">   -223.90082517 </i>
   <i name="e_wo_entrp">   -223.90082517 </i>
   <i name="e_0_energy">   -223.90082517 </i>
  </energy>
  <time name="totalsc">  230.02  231.27</time>
  <eigenvalues>
   <array>
    <dimension dim="1">band</dimension>
    <dimension dim="2">kpoint</dimension>
    <dimension dim="3">spin</dimension>
    <field>eigene</field>
    <field>occ</field>
    <set>
     <set comment="spin 1">
      <set comment="kpoint 1">
       <r>  -21.3051    1.0000 </r>
       <r>  -21.3047    1.0000 </r>
       <r>  -21.3045    1.0000 </r>
       <r>  -21.3040    1.0000 </r>
       <r>  -21.2957    1.0000 </r>
       <r>  -21.2952    1.0000 </r>
       <r>  -21.2950    1.0000 </r>
       <r>  -21.2950    1.0000 </r>
       <r>  -21.2946    1.0000 </r>
       <r>  -21.2941    1.0000 </r>
       <r>  -21.2939    1.0000 </r>
       <r>  -21.2938    1.0000 </r>
       <r>  -21.2938    1.0000 </r>
       <r>  -21.2936    1.0000 </r>
       <r>  -21.2932    1.0000 </r>
       <r>  -21.2929    1.0000 </r>
       <r>  -21.2928    1.0000 </r>
       <r>  -21.2918    1.0000 </r>
       <r>  -21.2918    1.0000 </r>
       <r>  -21.2884    1.0000 </r>
       <r>  -21.2879    1.0000 </r>
       <r>  -21.2878    1.0000 </r>
       <r>  -21.2868    1.0000 </r>
       <r>  -21.2868    1.0000 </r>
       <r>  -21.2866    1.0000 </r>
       <r>  -21.2866    1.0000 </r>
       <r>  -21.2865    1.0000 </r>
       <r>  -21.2860    1.0000 </r>
       <r>  -21.2859    1.0000 </r>
       <r>  -21.2853    1.0000 </r>
       <r>  -21.2852    1.0000 </r>
       <r>  -21.2843    1.0000 </r>
       <r>  -21.2838    1.0000 </r>
       <r>  -21.2836    1.0000 </r>
       <r>  -21.2835    1.0000 </r>
       <r>  -21.2832    1.0000 </r>
       <r>  -21.2832    1.0000 </r>
       <r>  -21.2827    1.0000 </r>
       <r>  -21.2824    1.0000 </r>
       <r>  -21.2818    1.0000 </r>
       <r>  -21.2816    1.0000 </r>
       <r>  -21.2814    1.0000 </r>
       <r>  -21.2813    1.0000 </r>
       <r>  -21.2809    1.0000 </r>
       <r>  -21.2809    1.0000 </r>
       <r>  -21.2807    1.0000 </r>
       <r>  -21.2807    1.0000 </r>
       <r>  -21.2805    1.0000 </r>
       <r>  -21.2803    1.0000 </r>
       <r>  -21.2800    1.0000 </r>
       <r>  -21.2799    1.0000 </r>
       <r>  -21.2799    1.0000 </r>
       <r>  -21.2799    1.0000 </r>
       <r>  -21.2798    1.0000 </r>
       <r>  -21.2795    1.0000 </r>
       <r>  -21.2791    1.0000 </r>
       <r>  -21.2786    1.0000 </r>
       <r>  -21.2785    1.0000 </r>
       <r>  -21.2785    1.0000 </r>
       <r>  -21.2771    1.0000 </r>
       <r>  -21.2769    1.0000 </r>
       <r>  -21.2754    1.0000 </r>
       <r>  -21.2754    1.0000 </r>
       <r>  -21.2753    1.0000 </r>
       <r>  -21.2751    1.0000 </r>
       <r>  -21.2748    1.0000 </r>
       <r>  -21.2746    1.0000 </r>
       <r>  -21.2745    1.0000 </r>
       <r>  -21.2743    1.0000 </r>
       <r>  -21.2742    1.0000 </r>
       <r>  -21.2739    1.0000 </r>
       <r>  -21.2738    1.0000 </r>
       <r>  -21.2736    1.0000 </r>
       <r>  -21.2735    1.0000 </r>
       <r>  -21.2729    1.0000 </r>
       <r>  -21.2727    1.0000 </r>
       <r>  -21.2721    1.0000 </r>
       <r>  -21.2717    1.0000 </r>
       <r>  -21.2717    1.0000 </r>
       <r>  -21.2717    1.0000 </r>
       <r>  -21.2714    1.0000 </r>
       <r>  -21.2709    1.0000 </r>
       <r>  -21.2708    1.0000 </r>
       <r>  -21.2707    1.0000 </r>
       <r>  -21.2705    1.0000 </r>
       <r>  -21.2704    1.0000 </r>
       <r>  -21.2700    1.0000 </r>
       <r>  -21.2696    1.0000 </r>
       <r>  -21.2691    1.0000 </r>
       <r>  -21.2688    1.0000 </r>
       <r>  -21.2675    1.0000 </r>
       <r>  -21.2673    1.0000 </r>
       <r>  -21.2668    1.0000 </r>
       <r>  -21.2651    1.0000 </r>
       <r>  -21.2649    1.0000 </r>
       <r>  -21.2644    1.0000 </r>
       <r>  -13.3582    1.0000 </r>
       <r>  -13.1441    1.0000 </r>
       <r>  -13.1402    1.0000 </r>
       <r>  -13.1373    1.0000 </r>
       <r>  -13.1373    1.0000 </r>
       <r>  -13.1354    1.0000 </r>
       <r>  -13.1324    1.0000 </r>
       <r>  -13.0215    1.0000 </r>
       <r>  -13.0210    1.0000 </r>
       <r>  -13.0115    1.0000 </r>
       <r>  -13.0114    1.0000 </r>
       <r>  -13.0112    1.0000 </r>
       <r>  -13.0112    1.0000 </r>
       <r>  -13.0111    1.0000 </r>
       <r>  -13.0111    1.0000 </r>
       <r>  -13.0111    1.0000 </r>
       <r>  -13.0111    1.0000 </r>
       <r>  -13.0053    1.0000 </r>
       <r>  -13.0043    1.0000 </r>
       <r>  -12.9900    1.0000 </r>
       <r>  -12.9897    1.0000 </r>
       <r>  -12.9887    1.0000 </r>
       <r>  -12.9879    1.0000 </r>
       <r>  -12.9413    1.0000 </r>
       <r>  -12.9407    1.0000 </r>
       <r>  -12.9404    1.0000 </r>
       <r>  -12.9257    1.0000 </r>
       <r>  -12.9229    1.0000 </r>
       <r>  -12.9215    1.0000 </r>
       <r>  -12.9214    1.0000 </r>
       <r>  -12.9177    1.0000 </r>
       <r>  -12.9127    1.0000 </r>
       <r>   -2.7002    1.0000 </r>
       <r>   -2.7001    1.0000 </r>
       <r>   -2.7000    1.0000 </r>
       <r>   -2.7000    1.0000 </r>
       <r>   -2.4241    1.0000 </r>
       <r>   -2.4241    1.0000 </r>
       <r>   -2.4240    1.0000 </r>
       <r>   -2.2087    1.0000 </r>
       <r>   -2.2075    1.0000 </r>
       <r>   -2.2073    1.0000 </r>
       <r>   -2.2053    1.0000 </r>
       <r>   -2.2046    1.0000 </r>
       <r>   -2.2045    1.0000 </r>
       <r>   -2.2042    1.0000 </r>
       <r>   -2.2040    1.0000 </r>
       <r>   -2.2034    1.0000 </r>
       <r>   -2.2013    1.0000 </r>
       <r>   -2.2012    1.0000 </r>
       <r>   -2.1999    1.0000 </r>
       <r>   -1.9289    1.0000 </r>
       <r>   -1.9280    1.0000 </r>
       <r>   -1.9275    1.0000 </r>
       <r>   -1.9253    1.0000 </r>
       <r>   -1.9249    1.0000 </r>
       <r>   -1.9247    1.0000 </r>
       <r>   -1.9247    1.0000 </r>
       <r>   -1.9246    1.0000 </r>
       <r>   -1.9242    1.0000 </r>
       <r>   -1.9220    1.0000 </r>
       <r>   -1.9214    1.0000 </r>
       <r>   -1.9202    1.0000 </r>
       <r>   -1.7979    1.0000 </r>
       <r>   -1.7973    1.0000 </r>
       <r>   -1.7966    1.0000 </r>
       <r>   -1.7966    1.0000 </r>
       <r>   -1.7961    1.0000 </r>
       <r>   -1.7951    1.0000 </r>
       <r>   -1.5066    1.0000 </r>
       <r>   -1.5064    1.0000 </r>
       <r>   -1.5064    1.0000 </r>
       <r>   -1.5061    1.0000 </r>
       <r>   -1.5059    1.0000 </r>
       <r>   -1.5057    1.0000 </r>
       <r>   -1.5054    1.0000 </r>
       <r>   -1.5052    1.0000 </r>
       <r>   -1.5051    1.0000 </r>
       <r>   -1.5048    1.0000 </r>
       <r>   -1.5044    1.0000 </r>
       <r>   -1.5039    1.0000 </r>
       <r>   -1.4637    1.0000 </r>
       <r>   -1.4630    1.0000 </r>
       <r>   -1.4625    1.0000 </r>
       <r>   -1.4621    1.0000 </r>
       <r>   -1.4621    1.0000 </r>
       <r>   -1.4616    1.0000 </r>
       <r>   -1.2948    1.0000 </r>
       <r>   -1.2947    1.0000 </r>
       <r>   -1.2947    1.0000 </r>
       <r>   -1.2947    1.0000 </r>
       <r>   -1.2947    1.0000 </r>
       <r>   -1.2946    1.0000 </r>
       <r>   -1.0052    1.0000 </r>
       <r>   -1.0046    1.0000 </r>
       <r>   -1.0038    1.0000 </r>
       <r>   -1.0028    1.0000 </r>
       <r>   -1.0016    1.0000 </r>
       <r>   -1.0009    1.0000 </r>
       <r>   -1.0009    1.0000 </r>
       <r>   -1.0007    1.0000 </r>
       <r>   -1.0003    1.0000 </r>
       <r>   -0.9985    1.0000 </r>
       <r>   -0.9981    1.0000 </r>
       <r>   -0.9970    1.0000 </r>
       <r>   -0.9531    1.0000 </r>
       <r>   -0.9528    1.0000 </r>
       <r>   -0.9525    1.0000 </r>
       <r>   -0.9516    1.0000 </r>
       <r>   -0.9482    1.0000 </r>
       <r>   -0.9480    1.0000 </r>
       <r>   -0.9478    1.0000 </r>
       <r>   -0.9475    1.0000 </r>
       <r>   -0.9473    1.0000 </r>
       <r>   -0.9472    1.0000 </r>
       <r>   -0.9470    1.0000 </r>
       <r>   -0.9469    1.0000 </r>
       <r>   -0.9458    1.0000 </r>
       <r>   -0.9457    1.0000 </r>
       <r>   -0.9451    1.0000 </r>
       <r>   -0.9442    1.0000 </r>
       <r>   -0.9435    1.0000 </r>
       <r>   -0.9408    1.0000 </r>
       <r>   -0.9398    1.0000 </r>
       <r>   -0.9384    1.0000 </r>
       <r>   -0.6648    1.0000 </r>
       <r>   -0.6648    1.0000 </r>
       <r>   -0.6648    1.0000 </r>
       <r>    4.3403    0.0000 </r>
       <r>    6.3650    0.0000 </r>
       <r>    6.3667    0.0000 </r>
       <r>    6.3682    0.0000 </r>
       <r>    6.3682    0.0000 </r>
       <r>    6.3694    0.0000 </r>
       <r>    6.3716    0.0000 </r>
       <r>    6.4446    0.0000 </r>
       <r>    6.4446    0.0000 </r>
       <r>    6.4447    0.0000 </r>
       <r>    6.4447    0.0000 </r>
       <r>    6.8279    0.0000 </r>
       <r>    6.8280    0.0000 </r>
       <r>    6.8280    0.0000 </r>
       <r>    7.2068    0.0000 </r>
       <r>    7.2068    0.0000 </r>
       <r>    7.2068    0.0000 </r>
       <r>    7.4605    0.0000 </r>
       <r>    7.4611    0.0000 </r>
       <r>    7.4624    0.0000 </r>
       <r>    7.4625    0.0000 </r>
       <r>    7.4639    0.0000 </r>
       <r>    7.4640    0.0000 </r>
       <r>    7.4641    0.0000 </r>
       <r>    7.4643    0.0000 </r>
       <r>    7.4655    0.0000 </r>
       <r>    7.4659    0.0000 </r>
       <r>    7.4675    0.0000 </r>
       <r>    7.4683    0.0000 </r>
       <r>    8.1661    0.0000 </r>
       <r>    8.1674    0.0000 </r>
       <r>    8.1684    0.0000 </r>
       <r>    8.1684    0.0000 </r>
       <r>    8.1693    0.0000 </r>
       <r>    8.1707    0.0000 </r>
       <r>    8.2767    0.0000 </r>
       <r>    8.2777    0.0000 </r>
       <r>    8.2795    0.0000 </r>
       <r>    8.2795    0.0000 </r>
       <r>    8.2807    0.0000 </r>
       <r>    8.2831    0.0000 </r>
       <r>    8.8941    0.0000 </r>
       <r>    8.8959    0.0000 </r>
       <r>    8.8963    0.0000 </r>
       <r>    8.8983    0.0000 </r>
       <r>    8.8996    0.0000 </r>
       <r>    8.9004    0.0000 </r>
       <r>    8.9008    0.0000 </r>
       <r>    8.9019    0.0000 </r>
       <r>    8.9021    0.0000 </r>
       <r>    8.9034    0.0000 </r>
       <r>    8.9048    0.0000 </r>
       <r>    8.9059    0.0000 </r>
       <r>    8.9128    0.0000 </r>
       <r>    8.9138    0.0000 </r>
       <r>    8.9147    0.0000 </r>
       <r>    8.9155    0.0000 </r>
       <r>    8.9164    0.0000 </r>
       <r>    8.9169    0.0000 </r>
       <r>    8.9176    0.0000 </r>
       <r>    8.9187    0.0000 </r>
       <r>    8.9205    0.0000 </r>
       <r>    8.9229    0.0000 </r>
       <r>    8.9251    0.0000 </r>
      </set>
      <set comment="kpoint 2">
       <r>  -21.3024    1.0000 </r>
       <r>  -21.3023    1.0000 </r>
       <r>  -21.3008    1.0000 </r>
       <r>  -21.3005    1.0000 </r>
       <r>  -21.2996    1.0000 </r>
       <r>  -21.2988    1.0000 </r>
       <r>  -21.2988    1.0000 </r>
       <r>  -21.2974    1.0000 </r>
       <r>  -21.2942    1.0000 </r>
       <r>  -21.2942    1.0000 </r>
       <r>  -21.2937    1.0000 </r>
       <r>  -21.2930    1.0000 </r>
       <r>  -21.2929    1.0000 </r>
       <r>  -21.2926    1.0000 </r>
       <r>  -21.2922    1.0000 </r>
       <r>  -21.2920    1.0000 </r>
       <r>  -21.2919    1.0000 </r>
       <r>  -21.2914    1.0000 </r>
       <r>  -21.2911    1.0000 </r>
       <r>  -21.2908    1.0000 </r>
       <r>  -21.2906    1.0000 </r>
       <r>  -21.2900    1.0000 </r>
       <r>  -21.2888    1.0000 </r>
       <r>  -21.2883    1.0000 </r>
       <r>  -21.2882    1.0000 </r>
       <r>  -21.2882    1.0000 </r>
       <r>  -21.2875    1.0000 </r>
       <r>  -21.2872    1.0000 </r>
       <r>  -21.2867    1.0000 </r>
       <r>  -21.2864    1.0000 </r>
       <r>  -21.2863    1.0000 </r>
       <r>  -21.2859    1.0000 </r>
       <r>  -21.2859    1.0000 </r>
       <r>  -21.2855    1.0000 </r>
       <r>  -21.2837    1.0000 </r>
       <r>  -21.2831    1.0000 </r>
       <r>  -21.2830    1.0000 </r>
       <r>  -21.2828    1.0000 </r>
       <r>  -21.2828    1.0000 </r>
       <r>  -21.2826    1.0000 </r>
       <r>  -21.2822    1.0000 </r>
       <r>  -21.2811    1.0000 </r>
       <r>  -21.2810    1.0000 </r>
       <r>  -21.2804    1.0000 </r>
       <r>  -21.2799    1.0000 </r>
       <r>  -21.2797    1.0000 </r>
       <r>  -21.2796    1.0000 </r>
       <r>  -21.2790    1.0000 </r>
       <r>  -21.2784    1.0000 </r>
       <r>  -21.2782    1.0000 </r>
       <r>  -21.2779    1.0000 </r>
       <r>  -21.2778    1.0000 </r>
       <r>  -21.2777    1.0000 </r>
       <r>  -21.2774    1.0000 </r>
       <r>  -21.2772    1.0000 </r>
       <r>  -21.2771    1.0000 </r>
       <r>  -21.2770    1.0000 </r>
       <r>  -21.2766    1.0000 </r>
       <r>  -21.2763    1.0000 </r>
       <r>  -21.2762    1.0000 </r>
       <r>  -21.2760    1.0000 </r>
       <r>  -21.2757    1.0000 </r>
       <r>  -21.2757    1.0000 </r>
       <r>  -21.2755    1.0000 </r>
       <r>  -21.2755    1.0000 </r>
       <r>  -21.2748    1.0000 </r>
       <r>  -21.2747    1.0000 </r>
       <r>  -21.2746    1.0000 </r>
       <r>  -21.2745    1.0000 </r>
       <r>  -21.2745    1.0000 </r>
       <r>  -21.2743    1.0000 </r>
       <r>  -21.2742    1.0000 </r>
       <r>  -21.2740    1.0000 </r>
       <r>  -21.2736    1.0000 </r>
       <r>  -21.2734    1.0000 </r>
       <r>  -21.2731    1.0000 </r>
       <r>  -21.2725    1.0000 </r>
       <r>  -21.2724    1.0000 </r>
       <r>  -21.2724    1.0000 </r>
       <r>  -21.2722    1.0000 </r>
       <r>  -21.2721    1.0000 </r>
       <r>  -21.2715    1.0000 </r>
       <r>  -21.2712    1.0000 </r>
       <r>  -21.2709    1.0000 </r>
       <r>  -21.2705    1.0000 </r>
       <r>  -21.2705    1.0000 </r>
       <r>  -21.2703    1.0000 </r>
       <r>  -21.2696    1.0000 </r>
       <r>  -21.2694    1.0000 </r>
       <r>  -21.2692    1.0000 </r>
       <r>  -21.2683    1.0000 </r>
       <r>  -21.2675    1.0000 </r>
       <r>  -21.2671    1.0000 </r>
       <r>  -21.2656    1.0000 </r>
       <r>  -21.2650    1.0000 </r>
       <r>  -21.2646    1.0000 </r>
       <r>  -13.2938    1.0000 </r>
       <r>  -13.2891    1.0000 </r>
       <r>  -13.1046    1.0000 </r>
       <r>  -13.1026    1.0000 </r>
       <r>  -13.0982    1.0000 </r>
       <r>  -13.0982    1.0000 </r>
       <r>  -13.0973    1.0000 </r>
       <r>  -13.0964    1.0000 </r>
       <r>  -13.0909    1.0000 </r>
       <r>  -13.0901    1.0000 </r>
       <r>  -13.0092    1.0000 </r>
       <r>  -13.0038    1.0000 </r>
       <r>  -13.0033    1.0000 </r>
       <r>  -13.0007    1.0000 </r>
       <r>  -13.0006    1.0000 </r>
       <r>  -13.0006    1.0000 </r>
       <r>  -13.0005    1.0000 </r>
       <r>  -12.9970    1.0000 </r>
       <r>  -12.9952    1.0000 </r>
       <r>  -12.9884    1.0000 </r>
       <r>  -12.9503    1.0000 </r>
       <r>  -12.9483    1.0000 </r>
       <r>  -12.9452    1.0000 </r>
       <r>  -12.9451    1.0000 </r>
       <r>  -12.9441    1.0000 </r>
       <r>  -12.9433    1.0000 </r>
       <r>  -12.9391    1.0000 </r>
       <r>  -12.9349    1.0000 </r>
       <r>  -12.9347    1.0000 </r>
       <r>  -12.9310    1.0000 </r>
       <r>  -12.9309    1.0000 </r>
       <r>  -12.9203    1.0000 </r>
       <r>   -2.5081    1.0000 </r>
       <r>   -2.5081    1.0000 </r>
       <r>   -2.5064    1.0000 </r>
       <r>   -2.5050    1.0000 </r>
       <r>   -2.5038    1.0000 </r>
       <r>   -2.5023    1.0000 </r>
       <r>   -2.5011    1.0000 </r>
       <r>   -2.5009    1.0000 </r>
       <r>   -2.2901    1.0000 </r>
       <r>   -2.2901    1.0000 </r>
       <r>   -2.2853    1.0000 </r>
       <r>   -2.2851    1.0000 </r>
       <r>   -2.2768    1.0000 </r>
       <r>   -2.2717    1.0000 </r>
       <r>   -2.1417    1.0000 </r>
       <r>   -2.1408    1.0000 </r>
       <r>   -2.1369    1.0000 </r>
       <r>   -2.1364    1.0000 </r>
       <r>   -2.1362    1.0000 </r>
       <r>   -2.1358    1.0000 </r>
       <r>   -2.1324    1.0000 </r>
       <r>   -2.1312    1.0000 </r>
       <r>   -1.9891    1.0000 </r>
       <r>   -1.9864    1.0000 </r>
       <r>   -1.9859    1.0000 </r>
       <r>   -1.9856    1.0000 </r>
       <r>   -1.9853    1.0000 </r>
       <r>   -1.9851    1.0000 </r>
       <r>   -1.9844    1.0000 </r>
       <r>   -1.9818    1.0000 </r>
       <r>   -1.8122    1.0000 </r>
       <r>   -1.8121    1.0000 </r>
       <r>   -1.8105    1.0000 </r>
       <r>   -1.8100    1.0000 </r>
       <r>   -1.8074    1.0000 </r>
       <r>   -1.8069    1.0000 </r>
       <r>   -1.8063    1.0000 </r>
       <r>   -1.8043    1.0000 </r>
       <r>   -1.5000    1.0000 </r>
       <r>   -1.5000    1.0000 </r>
       <r>   -1.4956    1.0000 </r>
       <r>   -1.4955    1.0000 </r>
       <r>   -1.3859    1.0000 </r>
       <r>   -1.3804    1.0000 </r>
       <r>   -1.3803    1.0000 </r>
       <r>   -1.3755    1.0000 </r>
       <r>   -1.2150    1.0000 </r>
       <r>   -1.2149    1.0000 </r>
       <r>   -1.2116    1.0000 </r>
       <r>   -1.2103    1.0000 </r>
       <r>   -1.1950    1.0000 </r>
       <r>   -1.1937    1.0000 </r>
       <r>   -1.1919    1.0000 </r>
       <r>   -1.1912    1.0000 </r>
       <r>   -1.1910    1.0000 </r>
       <r>   -1.1904    1.0000 </r>
       <r>   -1.1902    1.0000 </r>
       <r>   -1.1883    1.0000 </r>
       <r>   -1.1797    1.0000 </r>
       <r>   -1.1759    1.0000 </r>
       <r>   -1.1754    1.0000 </r>
       <r>   -1.1753    1.0000 </r>
       <r>   -1.1743    1.0000 </r>
       <r>   -1.1727    1.0000 </r>
       <r>   -1.1717    1.0000 </r>
       <r>   -1.1677    1.0000 </r>
       <r>   -1.1625    1.0000 </r>
       <r>   -1.1624    1.0000 </r>
       <r>   -1.1612    1.0000 </r>
       <r>   -1.1609    1.0000 </r>
       <r>   -1.1575    1.0000 </r>
       <r>   -1.1571    1.0000 </r>
       <r>   -1.1561    1.0000 </r>
       <r>   -1.1549    1.0000 </r>
       <r>   -1.0856    1.0000 </r>
       <r>   -1.0806    1.0000 </r>
       <r>   -0.9518    1.0000 </r>
       <r>   -0.9517    1.0000 </r>
       <r>   -0.9469    1.0000 </r>
       <r>   -0.9469    1.0000 </r>
       <r>   -0.9468    1.0000 </r>
       <r>   -0.9468    1.0000 </r>
       <r>   -0.9435    1.0000 </r>
       <r>   -0.9419    1.0000 </r>
       <r>   -0.9374    1.0000 </r>
       <r>   -0.9366    1.0000 </r>
       <r>   -0.9329    1.0000 </r>
       <r>   -0.9324    1.0000 </r>
       <r>   -0.9322    1.0000 </r>
       <r>   -0.9313    1.0000 </r>
       <r>   -0.9275    1.0000 </r>
       <r>   -0.9259    1.0000 </r>
       <r>   -0.7707    1.0000 </r>
       <r>   -0.7707    1.0000 </r>
       <r>   -0.7658    1.0000 </r>
       <r>   -0.7655    1.0000 </r>
       <r>    5.0205    0.0000 </r>
       <r>    5.0242    0.0000 </r>
       <r>    6.7156    0.0000 </r>
       <r>    6.7161    0.0000 </r>
       <r>    6.7168    0.0000 </r>
       <r>    6.7170    0.0000 </r>
       <r>    6.7177    0.0000 </r>
       <r>    6.7190    0.0000 </r>
       <r>    6.7209    0.0000 </r>
       <r>    6.7234    0.0000 </r>
       <r>    6.8402    0.0000 </r>
       <r>    6.8403    0.0000 </r>
       <r>    6.8417    0.0000 </r>
       <r>    6.8417    0.0000 </r>
       <r>    6.8446    0.0000 </r>
       <r>    6.8447    0.0000 </r>
       <r>    6.8462    0.0000 </r>
       <r>    6.8462    0.0000 </r>
       <r>    6.9696    0.0000 </r>
       <r>    6.9726    0.0000 </r>
       <r>    7.3591    0.0000 </r>
       <r>    7.3623    0.0000 </r>
       <r>    7.3628    0.0000 </r>
       <r>    7.3659    0.0000 </r>
       <r>    7.4774    0.0000 </r>
       <r>    7.4831    0.0000 </r>
       <r>    7.7116    0.0000 </r>
       <r>    7.7116    0.0000 </r>
       <r>    7.7175    0.0000 </r>
       <r>    7.7176    0.0000 </r>
       <r>    8.2626    0.0000 </r>
       <r>    8.2632    0.0000 </r>
       <r>    8.2645    0.0000 </r>
       <r>    8.2647    0.0000 </r>
       <r>    8.2660    0.0000 </r>
       <r>    8.2664    0.0000 </r>
       <r>    8.2685    0.0000 </r>
       <r>    8.2714    0.0000 </r>
       <r>    8.5340    0.0000 </r>
       <r>    8.5354    0.0000 </r>
       <r>    8.5355    0.0000 </r>
       <r>    8.5358    0.0000 </r>
       <r>    8.5366    0.0000 </r>
       <r>    8.5371    0.0000 </r>
       <r>    8.5373    0.0000 </r>
       <r>    8.5376    0.0000 </r>
       <r>    8.5383    0.0000 </r>
       <r>    8.5391    0.0000 </r>
       <r>    8.5391    0.0000 </r>
       <r>    8.5402    0.0000 </r>
       <r>    8.5405    0.0000 </r>
       <r>    8.5416    0.0000 </r>
       <r>    8.5420    0.0000 </r>
       <r>    8.5458    0.0000 </r>
       <r>    8.9460    0.0000 </r>
       <r>    8.9471    0.0000 </r>
       <r>    8.9480    0.0000 </r>
       <r>    8.9490    0.0000 </r>
       <r>    8.9502    0.0000 </r>
       <r>    8.9518    0.0000 </r>
       <r>    8.9556    0.0000 </r>
       <r>    8.9597    0.0000 </r>
       <r>    9.4886    0.0000 </r>
       <r>    9.5065    0.0000 </r>
      </set>
      <set comment="kpoint 3">
       <r>  -21.3014    1.0000 </r>
       <r>  -21.3010    1.0000 </r>
       <r>  -21.3006    1.0000 </r>
       <r>  -21.3003    1.0000 </r>
       <r>  -21.3001    1.0000 </r>
       <r>  -21.2998    1.0000 </r>
       <r>  -21.2998    1.0000 </r>
       <r>  -21.2995    1.0000 </r>
       <r>  -21.2944    1.0000 </r>
       <r>  -21.2935    1.0000 </r>
       <r>  -21.2934    1.0000 </r>
       <r>  -21.2932    1.0000 </r>
       <r>  -21.2927    1.0000 </r>
       <r>  -21.2924    1.0000 </r>
       <r>  -21.2923    1.0000 </r>
       <r>  -21.2920    1.0000 </r>
       <r>  -21.2917    1.0000 </r>
       <r>  -21.2916    1.0000 </r>
       <r>  -21.2909    1.0000 </r>
       <r>  -21.2908    1.0000 </r>
       <r>  -21.2893    1.0000 </r>
       <r>  -21.2892    1.0000 </r>
       <r>  -21.2889    1.0000 </r>
       <r>  -21.2888    1.0000 </r>
       <r>  -21.2884    1.0000 </r>
       <r>  -21.2881    1.0000 </r>
       <r>  -21.2880    1.0000 </r>
       <r>  -21.2879    1.0000 </r>
       <r>  -21.2876    1.0000 </r>
       <r>  -21.2870    1.0000 </r>
       <r>  -21.2848    1.0000 </r>
       <r>  -21.2842    1.0000 </r>
       <r>  -21.2842    1.0000 </r>
       <r>  -21.2841    1.0000 </r>
       <r>  -21.2841    1.0000 </r>
       <r>  -21.2839    1.0000 </r>
       <r>  -21.2838    1.0000 </r>
       <r>  -21.2835    1.0000 </r>
       <r>  -21.2826    1.0000 </r>
       <r>  -21.2824    1.0000 </r>
       <r>  -21.2815    1.0000 </r>
       <r>  -21.2814    1.0000 </r>
       <r>  -21.2810    1.0000 </r>
       <r>  -21.2807    1.0000 </r>
       <r>  -21.2807    1.0000 </r>
       <r>  -21.2802    1.0000 </r>
       <r>  -21.2795    1.0000 </r>
       <r>  -21.2789    1.0000 </r>
       <r>  -21.2788    1.0000 </r>
       <r>  -21.2788    1.0000 </r>
       <r>  -21.2785    1.0000 </r>
       <r>  -21.2782    1.0000 </r>
       <r>  -21.2774    1.0000 </r>
       <r>  -21.2773    1.0000 </r>
       <r>  -21.2771    1.0000 </r>
       <r>  -21.2771    1.0000 </r>
       <r>  -21.2770    1.0000 </r>
       <r>  -21.2768    1.0000 </r>
       <r>  -21.2764    1.0000 </r>
       <r>  -21.2764    1.0000 </r>
       <r>  -21.2762    1.0000 </r>
       <r>  -21.2759    1.0000 </r>
       <r>  -21.2758    1.0000 </r>
       <r>  -21.2758    1.0000 </r>
       <r>  -21.2757    1.0000 </r>
       <r>  -21.2754    1.0000 </r>
       <r>  -21.2751    1.0000 </r>
       <r>  -21.2749    1.0000 </r>
       <r>  -21.2746    1.0000 </r>
       <r>  -21.2742    1.0000 </r>
       <r>  -21.2741    1.0000 </r>
       <r>  -21.2738    1.0000 </r>
       <r>  -21.2736    1.0000 </r>
       <r>  -21.2733    1.0000 </r>
       <r>  -21.2732    1.0000 </r>
       <r>  -21.2731    1.0000 </r>
       <r>  -21.2730    1.0000 </r>
       <r>  -21.2722    1.0000 </r>
       <r>  -21.2719    1.0000 </r>
       <r>  -21.2717    1.0000 </r>
       <r>  -21.2717    1.0000 </r>
       <r>  -21.2711    1.0000 </r>
       <r>  -21.2709    1.0000 </r>
       <r>  -21.2706    1.0000 </r>
       <r>  -21.2706    1.0000 </r>
       <r>  -21.2705    1.0000 </r>
       <r>  -21.2702    1.0000 </r>
       <r>  -21.2699    1.0000 </r>
       <r>  -21.2692    1.0000 </r>
       <r>  -21.2691    1.0000 </r>
       <r>  -21.2679    1.0000 </r>
       <r>  -21.2678    1.0000 </r>
       <r>  -21.2676    1.0000 </r>
       <r>  -21.2654    1.0000 </r>
       <r>  -21.2651    1.0000 </r>
       <r>  -21.2650    1.0000 </r>
       <r>  -13.2917    1.0000 </r>
       <r>  -13.2913    1.0000 </r>
       <r>  -13.1063    1.0000 </r>
       <r>  -13.1009    1.0000 </r>
       <r>  -13.0969    1.0000 </r>
       <r>  -13.0969    1.0000 </r>
       <r>  -13.0968    1.0000 </r>
       <r>  -13.0968    1.0000 </r>
       <r>  -13.0941    1.0000 </r>
       <r>  -13.0897    1.0000 </r>
       <r>  -13.0072    1.0000 </r>
       <r>  -13.0038    1.0000 </r>
       <r>  -13.0006    1.0000 </r>
       <r>  -13.0006    1.0000 </r>
       <r>  -13.0006    1.0000 </r>
       <r>  -13.0006    1.0000 </r>
       <r>  -13.0006    1.0000 </r>
       <r>  -13.0005    1.0000 </r>
       <r>  -12.9942    1.0000 </r>
       <r>  -12.9913    1.0000 </r>
       <r>  -12.9518    1.0000 </r>
       <r>  -12.9470    1.0000 </r>
       <r>  -12.9438    1.0000 </r>
       <r>  -12.9437    1.0000 </r>
       <r>  -12.9437    1.0000 </r>
       <r>  -12.9437    1.0000 </r>
       <r>  -12.9414    1.0000 </r>
       <r>  -12.9384    1.0000 </r>
       <r>  -12.9310    1.0000 </r>
       <r>  -12.9310    1.0000 </r>
       <r>  -12.9268    1.0000 </r>
       <r>  -12.9241    1.0000 </r>
       <r>   -2.5049    1.0000 </r>
       <r>   -2.5048    1.0000 </r>
       <r>   -2.5047    1.0000 </r>
       <r>   -2.5045    1.0000 </r>
       <r>   -2.5044    1.0000 </r>
       <r>   -2.5042    1.0000 </r>
       <r>   -2.5041    1.0000 </r>
       <r>   -2.5041    1.0000 </r>
       <r>   -2.2877    1.0000 </r>
       <r>   -2.2877    1.0000 </r>
       <r>   -2.2876    1.0000 </r>
       <r>   -2.2876    1.0000 </r>
       <r>   -2.2744    1.0000 </r>
       <r>   -2.2741    1.0000 </r>
       <r>   -2.1420    1.0000 </r>
       <r>   -2.1389    1.0000 </r>
       <r>   -2.1365    1.0000 </r>
       <r>   -2.1364    1.0000 </r>
       <r>   -2.1364    1.0000 </r>
       <r>   -2.1363    1.0000 </r>
       <r>   -2.1341    1.0000 </r>
       <r>   -2.1305    1.0000 </r>
       <r>   -1.9874    1.0000 </r>
       <r>   -1.9872    1.0000 </r>
       <r>   -1.9858    1.0000 </r>
       <r>   -1.9858    1.0000 </r>
       <r>   -1.9855    1.0000 </r>
       <r>   -1.9853    1.0000 </r>
       <r>   -1.9836    1.0000 </r>
       <r>   -1.9835    1.0000 </r>
       <r>   -1.8099    1.0000 </r>
       <r>   -1.8094    1.0000 </r>
       <r>   -1.8088    1.0000 </r>
       <r>   -1.8087    1.0000 </r>
       <r>   -1.8086    1.0000 </r>
       <r>   -1.8085    1.0000 </r>
       <r>   -1.8082    1.0000 </r>
       <r>   -1.8072    1.0000 </r>
       <r>   -1.4979    1.0000 </r>
       <r>   -1.4979    1.0000 </r>
       <r>   -1.4977    1.0000 </r>
       <r>   -1.4977    1.0000 </r>
       <r>   -1.3807    1.0000 </r>
       <r>   -1.3807    1.0000 </r>
       <r>   -1.3804    1.0000 </r>
       <r>   -1.3804    1.0000 </r>
       <r>   -1.2140    1.0000 </r>
       <r>   -1.2138    1.0000 </r>
       <r>   -1.2124    1.0000 </r>
       <r>   -1.2124    1.0000 </r>
       <r>   -1.1936    1.0000 </r>
       <r>   -1.1930    1.0000 </r>
       <r>   -1.1925    1.0000 </r>
       <r>   -1.1915    1.0000 </r>
       <r>   -1.1913    1.0000 </r>
       <r>   -1.1909    1.0000 </r>
       <r>   -1.1903    1.0000 </r>
       <r>   -1.1897    1.0000 </r>
       <r>   -1.1755    1.0000 </r>
       <r>   -1.1751    1.0000 </r>
       <r>   -1.1742    1.0000 </r>
       <r>   -1.1742    1.0000 </r>
       <r>   -1.1739    1.0000 </r>
       <r>   -1.1737    1.0000 </r>
       <r>   -1.1736    1.0000 </r>
       <r>   -1.1726    1.0000 </r>
       <r>   -1.1606    1.0000 </r>
       <r>   -1.1601    1.0000 </r>
       <r>   -1.1594    1.0000 </r>
       <r>   -1.1593    1.0000 </r>
       <r>   -1.1592    1.0000 </r>
       <r>   -1.1590    1.0000 </r>
       <r>   -1.1568    1.0000 </r>
       <r>   -1.1566    1.0000 </r>
       <r>   -1.0832    1.0000 </r>
       <r>   -1.0830    1.0000 </r>
       <r>   -0.9476    1.0000 </r>
       <r>   -0.9474    1.0000 </r>
       <r>   -0.9469    1.0000 </r>
       <r>   -0.9469    1.0000 </r>
       <r>   -0.9468    1.0000 </r>
       <r>   -0.9468    1.0000 </r>
       <r>   -0.9465    1.0000 </r>
       <r>   -0.9464    1.0000 </r>
       <r>   -0.9381    1.0000 </r>
       <r>   -0.9346    1.0000 </r>
       <r>   -0.9325    1.0000 </r>
       <r>   -0.9324    1.0000 </r>
       <r>   -0.9320    1.0000 </r>
       <r>   -0.9318    1.0000 </r>
       <r>   -0.9298    1.0000 </r>
       <r>   -0.9260    1.0000 </r>
       <r>   -0.7683    1.0000 </r>
       <r>   -0.7683    1.0000 </r>
       <r>   -0.7679    1.0000 </r>
       <r>   -0.7679    1.0000 </r>
       <r>    5.0224    0.0000 </r>
       <r>    5.0224    0.0000 </r>
       <r>    6.7143    0.0000 </r>
       <r>    6.7163    0.0000 </r>
       <r>    6.7181    0.0000 </r>
       <r>    6.7183    0.0000 </r>
       <r>    6.7183    0.0000 </r>
       <r>    6.7183    0.0000 </r>
       <r>    6.7201    0.0000 </r>
       <r>    6.7227    0.0000 </r>
       <r>    6.8422    0.0000 </r>
       <r>    6.8425    0.0000 </r>
       <r>    6.8425    0.0000 </r>
       <r>    6.8427    0.0000 </r>
       <r>    6.8438    0.0000 </r>
       <r>    6.8438    0.0000 </r>
       <r>    6.8440    0.0000 </r>
       <r>    6.8442    0.0000 </r>
       <r>    6.9710    0.0000 </r>
       <r>    6.9711    0.0000 </r>
       <r>    7.3625    0.0000 </r>
       <r>    7.3625    0.0000 </r>
       <r>    7.3626    0.0000 </r>
       <r>    7.3626    0.0000 </r>
       <r>    7.4802    0.0000 </r>
       <r>    7.4803    0.0000 </r>
       <r>    7.7145    0.0000 </r>
       <r>    7.7146    0.0000 </r>
       <r>    7.7146    0.0000 </r>
       <r>    7.7146    0.0000 </r>
       <r>    8.2624    0.0000 </r>
       <r>    8.2636    0.0000 </r>
       <r>    8.2648    0.0000 </r>
       <r>    8.2658    0.0000 </r>
       <r>    8.2659    0.0000 </r>
       <r>    8.2660    0.0000 </r>
       <r>    8.2682    0.0000 </r>
       <r>    8.2705    0.0000 </r>
       <r>    8.5346    0.0000 </r>
       <r>    8.5356    0.0000 </r>
       <r>    8.5358    0.0000 </r>
       <r>    8.5367    0.0000 </r>
       <r>    8.5373    0.0000 </r>
       <r>    8.5376    0.0000 </r>
       <r>    8.5381    0.0000 </r>
       <r>    8.5382    0.0000 </r>
       <r>    8.5384    0.0000 </r>
       <r>    8.5385    0.0000 </r>
       <r>    8.5391    0.0000 </r>
       <r>    8.5395    0.0000 </r>
       <r>    8.5405    0.0000 </r>
       <r>    8.5406    0.0000 </r>
       <r>    8.5416    0.0000 </r>
       <r>    8.5439    0.0000 </r>
       <r>    8.9438    0.0000 </r>
       <r>    8.9466    0.0000 </r>
       <r>    8.9505    0.0000 </r>
       <r>    8.9507    0.0000 </r>
       <r>    8.9509    0.0000 </r>
       <r>    8.9510    0.0000 </r>
       <r>    8.9540    0.0000 </r>
       <r>    8.9597    0.0000 </r>
       <r>    9.4926    0.0000 </r>
       <r>    9.5091    0.0000 </r>
      </set>
      <set comment="kpoint 4">
       <r>  -21.3026    1.0000 </r>
       <r>  -21.3020    1.0000 </r>
       <r>  -21.3011    1.0000 </r>
       <r>  -21.3006    1.0000 </r>
       <r>  -21.2995    1.0000 </r>
       <r>  -21.2987    1.0000 </r>
       <r>  -21.2984    1.0000 </r>
       <r>  -21.2975    1.0000 </r>
       <r>  -21.2946    1.0000 </r>
       <r>  -21.2938    1.0000 </r>
       <r>  -21.2937    1.0000 </r>
       <r>  -21.2933    1.0000 </r>
       <r>  -21.2930    1.0000 </r>
       <r>  -21.2927    1.0000 </r>
       <r>  -21.2924    1.0000 </r>
       <r>  -21.2922    1.0000 </r>
       <r>  -21.2918    1.0000 </r>
       <r>  -21.2916    1.0000 </r>
       <r>  -21.2911    1.0000 </r>
       <r>  -21.2908    1.0000 </r>
       <r>  -21.2905    1.0000 </r>
       <r>  -21.2901    1.0000 </r>
       <r>  -21.2886    1.0000 </r>
       <r>  -21.2886    1.0000 </r>
       <r>  -21.2882    1.0000 </r>
       <r>  -21.2876    1.0000 </r>
       <r>  -21.2873    1.0000 </r>
       <r>  -21.2868    1.0000 </r>
       <r>  -21.2866    1.0000 </r>
       <r>  -21.2863    1.0000 </r>
       <r>  -21.2862    1.0000 </r>
       <r>  -21.2862    1.0000 </r>
       <r>  -21.2861    1.0000 </r>
       <r>  -21.2857    1.0000 </r>
       <r>  -21.2837    1.0000 </r>
       <r>  -21.2836    1.0000 </r>
       <r>  -21.2832    1.0000 </r>
       <r>  -21.2830    1.0000 </r>
       <r>  -21.2826    1.0000 </r>
       <r>  -21.2822    1.0000 </r>
       <r>  -21.2822    1.0000 </r>
       <r>  -21.2808    1.0000 </r>
       <r>  -21.2807    1.0000 </r>
       <r>  -21.2804    1.0000 </r>
       <r>  -21.2800    1.0000 </r>
       <r>  -21.2798    1.0000 </r>
       <r>  -21.2798    1.0000 </r>
       <r>  -21.2792    1.0000 </r>
       <r>  -21.2791    1.0000 </r>
       <r>  -21.2784    1.0000 </r>
       <r>  -21.2783    1.0000 </r>
       <r>  -21.2775    1.0000 </r>
       <r>  -21.2774    1.0000 </r>
       <r>  -21.2774    1.0000 </r>
       <r>  -21.2772    1.0000 </r>
[...]
      </set>
     </set>
    </set>
   </array>
  </eigenvalues>
  <separator name="orbital magnetization" >
   <v name="MAGDIPOLOUT">      0.00000000      0.00000000      0.00000000</v>
  </separator>
  <dos>
   <i name="efermi">     -0.55942960 </i>
   <total>
    <array>
     <dimension dim="1">gridpoints</dimension>
     <dimension dim="2">spin</dimension>
     <field>energy</field>
     <field>total</field>
     <field>integrated</field>
     <set>
      <set comment="spin 1">
       <r>   -22.8458     0.0000     0.0000 </r>
       <r>   -22.7328     0.0000     0.0000 </r>
       <r>   -22.6198     0.0000     0.0000 </r>
       <r>   -22.5068     0.0000     0.0000 </r>
       <r>   -22.3938     0.0000     0.0000 </r>
       <r>   -22.2809     0.0000     0.0000 </r>
       <r>   -22.1679     0.0000     0.0000 </r>
       <r>   -22.0549     0.0000     0.0000 </r>
       <r>   -21.9419     0.0000     0.0000 </r>
       <r>   -21.8289     0.0000     0.0000 </r>
       <r>   -21.7159     0.0000     0.0000 </r>
       <r>   -21.6030     0.0000     0.0000 </r>
       <r>   -21.4900     0.0000     0.0000 </r>
       <r>   -21.3770     0.0000     0.0000 </r>
       <r>   -21.2640  1430.9796   161.6797 </r>
       <r>   -21.1510   268.3557   192.0000 </r>
       <r>   -21.0380     0.0000   192.0000 </r>
       <r>   -20.9250     0.0000   192.0000 </r>
       <r>   -20.8121     0.0000   192.0000 </r>
       <r>   -20.6991     0.0000   192.0000 </r>
       <r>   -20.5861     0.0000   192.0000 </r>
       <r>   -20.4731     0.0000   192.0000 </r>
       <r>   -20.3601     0.0000   192.0000 </r>
       <r>   -20.2471     0.0000   192.0000 </r>
       <r>   -20.1341     0.0000   192.0000 </r>
       <r>   -20.0212     0.0000   192.0000 </r>
       <r>   -19.9082     0.0000   192.0000 </r>
       <r>   -19.7952     0.0000   192.0000 </r>
       <r>   -19.6822     0.0000   192.0000 </r>
       <r>   -19.5692     0.0000   192.0000 </r>
       <r>   -19.4562     0.0000   192.0000 </r>
       <r>   -19.3432     0.0000   192.0000 </r>
       <r>   -19.2303     0.0000   192.0000 </r>
       <r>   -19.1173     0.0000   192.0000 </r>
       <r>   -19.0043     0.0000   192.0000 </r>
       <r>   -18.8913     0.0000   192.0000 </r>
       <r>   -18.7783     0.0000   192.0000 </r>
       <r>   -18.6653     0.0000   192.0000 </r>
       <r>   -18.5523     0.0000   192.0000 </r>
       <r>   -18.4394     0.0000   192.0000 </r>
       <r>   -18.3264     0.0000   192.0000 </r>
       <r>   -18.2134     0.0000   192.0000 </r>
       <r>   -18.1004     0.0000   192.0000 </r>
       <r>   -17.9874     0.0000   192.0000 </r>
       <r>   -17.8744     0.0000   192.0000 </r>
       <r>   -17.7614     0.0000   192.0000 </r>
       <r>   -17.6485     0.0000   192.0000 </r>
       <r>   -17.5355     0.0000   192.0000 </r>
       <r>   -17.4225     0.0000   192.0000 </r>
       <r>   -17.3095     0.0000   192.0000 </r>
       <r>   -17.1965     0.0000   192.0000 </r>
       <r>   -17.0835     0.0000   192.0000 </r>
       <r>   -16.9706     0.0000   192.0000 </r>
       <r>   -16.8576     0.0000   192.0000 </r>
       <r>   -16.7446     0.0000   192.0000 </r>
       <r>   -16.6316     0.0000   192.0000 </r>
       <r>   -16.5186     0.0000   192.0000 </r>
       <r>   -16.4056     0.0000   192.0000 </r>
       <r>   -16.2926     0.0000   192.0000 </r>
       <r>   -16.1797     0.0000   192.0000 </r>
       <r>   -16.0667     0.0000   192.0000 </r>
       <r>   -15.9537     0.0000   192.0000 </r>
       <r>   -15.8407     0.0000   192.0000 </r>
       <r>   -15.7277     0.0000   192.0000 </r>
       <r>   -15.6147     0.0000   192.0000 </r>
       <r>   -15.5017     0.0000   192.0000 </r>
       <r>   -15.3888     0.0000   192.0000 </r>
       <r>   -15.2758     0.0000   192.0000 </r>
       <r>   -15.1628     0.0000   192.0000 </r>
       <r>   -15.0498     0.0000   192.0000 </r>
       <r>   -14.9368     0.0000   192.0000 </r>
       <r>   -14.8238     0.0000   192.0000 </r>
       <r>   -14.7108     0.0000   192.0000 </r>
       <r>   -14.5979     0.0000   192.0000 </r>
       <r>   -14.4849     0.0000   192.0000 </r>
       <r>   -14.3719     0.0000   192.0000 </r>
       <r>   -14.2589     0.0000   192.0000 </r>
       <r>   -14.1459     0.0000   192.0000 </r>
       <r>   -14.0329     0.0000   192.0000 </r>
       <r>   -13.9199     0.0000   192.0000 </r>
       <r>   -13.8070     0.0000   192.0000 </r>
       <r>   -13.6940     0.0000   192.0000 </r>
       <r>   -13.5810     0.0000   192.0000 </r>
       <r>   -13.4680     0.0000   192.0000 </r>
       <r>   -13.3550     1.3025   192.1472 </r>
       <r>   -13.2420    20.6645   194.4819 </r>
       <r>   -13.1291    48.2661   199.9356 </r>
       <r>   -13.0161   129.1311   214.5258 </r>
       <r>   -12.9031   363.0812   255.5498 </r>
       <r>   -12.7901     3.9785   256.0000 </r>
       <r>   -12.6771     0.0000   256.0000 </r>
       <r>   -12.5641     0.0000   256.0000 </r>
       <r>   -12.4511     0.0000   256.0000 </r>
       <r>   -12.3382     0.0000   256.0000 </r>
       <r>   -12.2252     0.0000   256.0000 </r>
       <r>   -12.1122     0.0000   256.0000 </r>
       <r>   -11.9992     0.0000   256.0000 </r>
       <r>   -11.8862     0.0000   256.0000 </r>
       <r>   -11.7732     0.0000   256.0000 </r>
       <r>   -11.6602     0.0000   256.0000 </r>
       <r>   -11.5473     0.0000   256.0000 </r>
       <r>   -11.4343     0.0000   256.0000 </r>
       <r>   -11.3213     0.0000   256.0000 </r>
       <r>   -11.2083     0.0000   256.0000 </r>
       <r>   -11.0953     0.0000   256.0000 </r>
       <r>   -10.9823     0.0000   256.0000 </r>
       <r>   -10.8693     0.0000   256.0000 </r>
       <r>   -10.7564     0.0000   256.0000 </r>
       <r>   -10.6434     0.0000   256.0000 </r>
       <r>   -10.5304     0.0000   256.0000 </r>
       <r>   -10.4174     0.0000   256.0000 </r>
       <r>   -10.3044     0.0000   256.0000 </r>
       <r>   -10.1914     0.0000   256.0000 </r>
       <r>   -10.0784     0.0000   256.0000 </r>
       <r>    -9.9655     0.0000   256.0000 </r>
       <r>    -9.8525     0.0000   256.0000 </r>
       <r>    -9.7395     0.0000   256.0000 </r>
       <r>    -9.6265     0.0000   256.0000 </r>
       <r>    -9.5135     0.0000   256.0000 </r>
       <r>    -9.4005     0.0000   256.0000 </r>
       <r>    -9.2875     0.0000   256.0000 </r>
       <r>    -9.1746     0.0000   256.0000 </r>
       <r>    -9.0616     0.0000   256.0000 </r>
       <r>    -8.9486     0.0000   256.0000 </r>
       <r>    -8.8356     0.0000   256.0000 </r>
       <r>    -8.7226     0.0000   256.0000 </r>
       <r>    -8.6096     0.0000   256.0000 </r>
       <r>    -8.4967     0.0000   256.0000 </r>
       <r>    -8.3837     0.0000   256.0000 </r>
       <r>    -8.2707     0.0000   256.0000 </r>
       <r>    -8.1577     0.0000   256.0000 </r>
       <r>    -8.0447     0.0000   256.0000 </r>
       <r>    -7.9317     0.0000   256.0000 </r>
       <r>    -7.8187     0.0000   256.0000 </r>
       <r>    -7.7058     0.0000   256.0000 </r>
       <r>    -7.5928     0.0000   256.0000 </r>
       <r>    -7.4798     0.0000   256.0000 </r>
       <r>    -7.3668     0.0000   256.0000 </r>
       <r>    -7.2538     0.0000   256.0000 </r>
       <r>    -7.1408     0.0000   256.0000 </r>
       <r>    -7.0278     0.0000   256.0000 </r>
       <r>    -6.9149     0.0000   256.0000 </r>
       <r>    -6.8019     0.0000   256.0000 </r>
       <r>    -6.6889     0.0000   256.0000 </r>
       <r>    -6.5759     0.0000   256.0000 </r>
       <r>    -6.4629     0.0000   256.0000 </r>
       <r>    -6.3499     0.0000   256.0000 </r>
       <r>    -6.2369     0.0000   256.0000 </r>
       <r>    -6.1240     0.0000   256.0000 </r>
       <r>    -6.0110     0.0000   256.0000 </r>
       <r>    -5.8980     0.0000   256.0000 </r>
       <r>    -5.7850     0.0000   256.0000 </r>
       <r>    -5.6720     0.0000   256.0000 </r>
       <r>    -5.5590     0.0000   256.0000 </r>
       <r>    -5.4460     0.0000   256.0000 </r>
       <r>    -5.3331     0.0000   256.0000 </r>
       <r>    -5.2201     0.0000   256.0000 </r>
       <r>    -5.1071     0.0000   256.0000 </r>
       <r>    -4.9941     0.0000   256.0000 </r>
       <r>    -4.8811     0.0000   256.0000 </r>
       <r>    -4.7681     0.0000   256.0000 </r>
       <r>    -4.6551     0.0000   256.0000 </r>
       <r>    -4.5422     0.0000   256.0000 </r>
       <r>    -4.4292     0.0000   256.0000 </r>
       <r>    -4.3162     0.0000   256.0000 </r>
       <r>    -4.2032     0.0000   256.0000 </r>
       <r>    -4.0902     0.0000   256.0000 </r>
       <r>    -3.9772     0.0000   256.0000 </r>
       <r>    -3.8643     0.0000   256.0000 </r>
       <r>    -3.7513     0.0000   256.0000 </r>
       <r>    -3.6383     0.0000   256.0000 </r>
       <r>    -3.5253     0.0000   256.0000 </r>
       <r>    -3.4123     0.0000   256.0000 </r>
       <r>    -3.2993     0.0000   256.0000 </r>
       <r>    -3.1863     0.0000   256.0000 </r>
       <r>    -3.0734     0.0000   256.0000 </r>
       <r>    -2.9604     0.0000   256.0000 </r>
       <r>    -2.8474     0.0000   256.0000 </r>
       <r>    -2.7344     0.0672   256.0076 </r>
       <r>    -2.6214     8.7835   257.0000 </r>
       <r>    -2.5084    20.7435   259.3437 </r>
       <r>    -2.3954    86.1664   269.0793 </r>
       <r>    -2.2825    80.7415   278.2019 </r>
       <r>    -2.1695   156.0995   295.8390 </r>
       <r>    -2.0565    74.4435   304.2500 </r>
       <r>    -1.9435    55.5459   310.5259 </r>
       <r>    -1.8305    58.9203   317.1830 </r>
       <r>    -1.7175    75.8239   325.7500 </r>
       <r>    -1.6045     0.0000   325.7500 </r>
       <r>    -1.4916    60.7829   332.6176 </r>
       <r>    -1.3786   203.7816   355.6419 </r>
       <r>    -1.2656    27.4441   358.7427 </r>
       <r>    -1.1526   246.7018   386.6164 </r>
       <r>    -1.0396   141.9549   402.6552 </r>
       <r>    -0.9266   252.9320   431.2329 </r>
       <r>    -0.8136    67.4407   438.8531 </r>
       <r>    -0.7007    74.2551   447.2428 </r>
       <r>    -0.5877     6.7016   448.0000 </r>
       <r>    -0.4747     0.0000   448.0000 </r>
       <r>    -0.3617     0.0000   448.0000 </r>
       <r>    -0.2487     0.0000   448.0000 </r>
       <r>    -0.1357     0.0000   448.0000 </r>
       <r>    -0.0227     0.0000   448.0000 </r>
       <r>     0.0902     0.0000   448.0000 </r>
       <r>     0.2032     0.0000   448.0000 </r>
       <r>     0.3162     0.0000   448.0000 </r>
       <r>     0.4292     0.0000   448.0000 </r>
       <r>     0.5422     0.0000   448.0000 </r>
       <r>     0.6552     0.0000   448.0000 </r>
       <r>     0.7681     0.0000   448.0000 </r>
       <r>     0.8811     0.0000   448.0000 </r>
       <r>     0.9941     0.0000   448.0000 </r>
       <r>     1.1071     0.0000   448.0000 </r>
       <r>     1.2201     0.0000   448.0000 </r>
       <r>     1.3331     0.0000   448.0000 </r>
       <r>     1.4461     0.0000   448.0000 </r>
       <r>     1.5590     0.0000   448.0000 </r>
       <r>     1.6720     0.0000   448.0000 </r>
       <r>     1.7850     0.0000   448.0000 </r>
       <r>     1.8980     0.0000   448.0000 </r>
       <r>     2.0110     0.0000   448.0000 </r>
       <r>     2.1240     0.0000   448.0000 </r>
       <r>     2.2370     0.0000   448.0000 </r>
       <r>     2.3499     0.0000   448.0000 </r>
       <r>     2.4629     0.0000   448.0000 </r>
       <r>     2.5759     0.0000   448.0000 </r>
       <r>     2.6889     0.0000   448.0000 </r>
       <r>     2.8019     0.0000   448.0000 </r>
       <r>     2.9149     0.0000   448.0000 </r>
       <r>     3.0279     0.0000   448.0000 </r>
       <r>     3.1408     0.0000   448.0000 </r>
       <r>     3.2538     0.0000   448.0000 </r>
       <r>     3.3668     0.0000   448.0000 </r>
       <r>     3.4798     0.0000   448.0000 </r>
       <r>     3.5928     0.0000   448.0000 </r>
       <r>     3.7058     0.0000   448.0000 </r>
       <r>     3.8188     0.0000   448.0000 </r>
       <r>     3.9317     0.0000   448.0000 </r>
       <r>     4.0447     0.0000   448.0000 </r>
       <r>     4.1577     0.0000   448.0000 </r>
       <r>     4.2707     0.0000   448.0000 </r>
       <r>     4.3837     2.2103   448.2497 </r>
       <r>     4.4967     0.0024   448.2500 </r>
       <r>     4.6097     0.0000   448.2500 </r>
       <r>     4.7226     0.0000   448.2500 </r>
       <r>     4.8356     0.0000   448.2500 </r>
       <r>     4.9486     0.0000   448.2500 </r>
       <r>     5.0616    13.2375   449.7456 </r>
       <r>     5.1746     0.0386   449.7500 </r>
       <r>     5.2876     0.0000   449.7500 </r>
       <r>     5.4005     0.0000   449.7500 </r>
       <r>     5.5135     0.9327   449.8554 </r>
       <r>     5.6265    25.6194   452.7500 </r>
       <r>     5.7395     0.0000   452.7500 </r>
       <r>     5.8525    16.3919   454.6020 </r>
       <r>     5.9655     1.3095   454.7500 </r>
       <r>     6.0785     0.0000   454.7500 </r>
       <r>     6.1914     0.0000   454.7500 </r>
       <r>     6.3044     0.0001   454.7500 </r>
       <r>     6.4174    13.5128   456.2768 </r>
       <r>     6.5304     8.6114   457.2500 </r>
       <r>     6.6434    32.8033   460.9563 </r>
       <r>     6.7564    73.1917   469.2259 </r>
       <r>     6.8694    58.1643   475.7976 </r>
       <r>     6.9823    12.2331   477.1798 </r>
       <r>     7.0953     2.8344   477.5000 </r>
       <r>     7.2083     3.5956   477.9063 </r>
       <r>     7.3213     3.0938   478.2558 </r>
       <r>     7.4343    79.7161   487.2625 </r>
       <r>     7.5473   165.3479   505.9444 </r>
       <r>     7.6603     7.1314   506.7502 </r>
       <r>     7.7732    26.5495   509.7499 </r>
       <r>     7.8862     0.0279   509.7532 </r>
       <r>     7.9992    53.0760   515.7500 </r>
       <r>     8.1122     0.0005   515.7501 </r>
       <r>     8.2252    13.3977   517.2638 </r>
       <r>     8.3382    92.7493   527.7432 </r>
       <r>     8.4512     0.0603   527.7500 </r>
       <r>     8.5641   138.1796   543.3623 </r>
       <r>     8.6771    21.1331   545.7500 </r>
       <r>     8.7901     0.0000   545.7500 </r>
       <r>     8.9031    70.2449   553.6866 </r>
       <r>     9.0161   129.9122   568.3648 </r>
       <r>     9.1291    10.0468   569.5000 </r>
       <r>     9.2420    14.6297   571.1529 </r>
       <r>     9.3550    29.6238   574.5000 </r>
       <r>     9.4680     0.4279   574.5484 </r>
       <r>     9.5810    12.8481   576.0000 </r>
       <r>     9.6940     0.0000   576.0000 </r>
       <r>     9.8070     0.0000   576.0000 </r>
       <r>     9.9200     0.0000   576.0000 </r>
       <r>    10.0329     0.0000   576.0000 </r>
       <r>    10.1459     0.0000   576.0000 </r>
       <r>    10.2589     0.0000   576.0000 </r>
       <r>    10.3719     0.0000   576.0000 </r>
       <r>    10.4849     0.0000   576.0000 </r>
       <r>    10.5979     0.0000   576.0000 </r>
       <r>    10.7109     0.0000   576.0000 </r>
       <r>    10.8238     0.0000   576.0000 </r>
       <r>    10.9368     0.0000   576.0000 </r>
       <r>    11.0498     0.0000   576.0000 </r>
      </set>
     </set>
    </array>
   </total>
  </dos>
 </calculation>
 <structure name="finalpos" >
  <crystal>
   <varray name="basis" >
    <v>      11.20400236       0.00000000       0.00000000 </v>
    <v>       0.00000000      11.20400236       0.00000000 </v>
    <v>       0.00000000       0.00000000      11.20400236 </v>
   </varray>
   <i name="volume">   1406.43470641 </i>
   <varray name="rec_basis" >
    <v>       0.08925382       0.00000000       0.00000000 </v>
    <v>       0.00000000       0.08925382       0.00000000 </v>
    <v>       0.00000000       0.00000000       0.08925382 </v>
   </varray>
  </crystal>
  <varray name="positions" >
   <v>       0.99732239       0.00000000       0.00000000 </v>
   <v>       0.25000000       0.25000000       0.00267761 </v>
   <v>       0.25000000       0.00000000       0.25000000 </v>
   <v>       0.00000000       0.25000000       0.25000000 </v>
   <v>       0.00000000       0.00000000       0.50000000 </v>
   <v>       0.25000000       0.25000000       0.50000000 </v>
   <v>       0.25000000       0.00000000       0.75000000 </v>
   <v>       0.00000000       0.25000000       0.75000000 </v>
   <v>       0.00000000       0.50000000       0.00000000 </v>
   <v>       0.25000000       0.75000000       0.00000000 </v>
   <v>       0.25000000       0.50000000       0.25000000 </v>
   <v>       0.00000000       0.75000000       0.25000000 </v>
   <v>       0.00000000       0.50000000       0.50000000 </v>
   <v>       0.25000000       0.75000000       0.50000000 </v>
   <v>       0.25000000       0.50000000       0.75000000 </v>
   <v>       0.00000000       0.75000000       0.75000000 </v>
   <v>       0.50000000       0.00000000       0.00000000 </v>
   <v>       0.75000000       0.25000000       0.00000000 </v>
   <v>       0.75000000       0.00000000       0.25000000 </v>
   <v>       0.50000000       0.25000000       0.25000000 </v>
   <v>       0.50000000       0.00000000       0.50000000 </v>
   <v>       0.75000000       0.25000000       0.50000000 </v>
   <v>       0.75000000       0.00000000       0.75000000 </v>
   <v>       0.50000000       0.25000000       0.75000000 </v>
   <v>       0.50000000       0.50000000       0.00000000 </v>
   <v>       0.75000000       0.75000000       0.00000000 </v>
   <v>       0.75000000       0.50000000       0.25000000 </v>
   <v>       0.50000000       0.75000000       0.25000000 </v>
   <v>       0.50000000       0.50000000       0.50000000 </v>
   <v>       0.75000000       0.75000000       0.50000000 </v>
   <v>       0.75000000       0.50000000       0.75000000 </v>
   <v>       0.50000000       0.75000000       0.75000000 </v>
   <v>       0.25000000       0.25000000       0.25000000 </v>
   <v>       0.00000000       0.00000000       0.25000000 </v>
   <v>       0.00000000       0.25000000       0.00000000 </v>
   <v>       0.25000000       0.00000000       0.00000000 </v>
   <v>       0.25000000       0.25000000       0.75000000 </v>
   <v>       0.00000000       0.00000000       0.75000000 </v>
   <v>       0.00000000       0.25000000       0.50000000 </v>
   <v>       0.25000000       0.00000000       0.50000000 </v>
   <v>       0.25000000       0.75000000       0.25000000 </v>
   <v>       0.00000000       0.50000000       0.25000000 </v>
   <v>       0.00000000       0.75000000       0.00000000 </v>
   <v>       0.25000000       0.50000000       0.00000000 </v>
   <v>       0.25000000       0.75000000       0.75000000 </v>
   <v>       0.00000000       0.50000000       0.75000000 </v>
   <v>       0.00000000       0.75000000       0.50000000 </v>
   <v>       0.25000000       0.50000000       0.50000000 </v>
   <v>       0.75000000       0.25000000       0.25000000 </v>
   <v>       0.50000000       0.00000000       0.25000000 </v>
   <v>       0.50000000       0.25000000       0.00000000 </v>
   <v>       0.75000000       0.00000000       0.00000000 </v>
   <v>       0.75000000       0.25000000       0.75000000 </v>
   <v>       0.50000000       0.00000000       0.75000000 </v>
   <v>       0.50000000       0.25000000       0.50000000 </v>
   <v>       0.75000000       0.00000000       0.50000000 </v>
   <v>       0.75000000       0.75000000       0.25000000 </v>
   <v>       0.50000000       0.50000000       0.25000000 </v>
   <v>       0.50000000       0.75000000       0.00000000 </v>
   <v>       0.75000000       0.50000000       0.00000000 </v>
   <v>       0.75000000       0.75000000       0.75000000 </v>
   <v>       0.50000000       0.50000000       0.75000000 </v>
   <v>       0.50000000       0.75000000       0.50000000 </v>
   <v>       0.75000000       0.50000000       0.50000000 </v>
  </varray>
 </structure>
</modeling>
