  64  64   0   0
  0.2197554E+02  0.1120400E-08  0.1120400E-08  0.1120400E-08  0.5000000E-15
  1.000000000000000E-004
  CAR 
 unknown system                          
     10.42829466    -22.81454871  301     -0.51414128      1.00000000
    -22.815  0.0000E+00  0.0000E+00
    -22.704  0.0000E+00  0.0000E+00
    -22.593  0.0000E+00  0.0000E+00
    -22.482  0.0000E+00  0.0000E+00
    -22.371  0.0000E+00  0.0000E+00
    -22.261  0.0000E+00  0.0000E+00
    -22.150  0.0000E+00  0.0000E+00
    -22.039  0.0000E+00  0.0000E+00
    -21.928  0.0000E+00  0.0000E+00
    -21.817  0.0000E+00  0.0000E+00
    -21.706  0.0000E+00  0.0000E+00
    -21.596  0.0000E+00  0.0000E+00
    -21.485  0.0000E+00  0.0000E+00
    -21.374  0.8685E-05  0.9624E-06
    -21.263  0.1492E+04  0.1653E+03
    -21.152  0.2411E+03  0.1920E+03
    -21.042  0.0000E+00  0.1920E+03
    -20.931  0.0000E+00  0.1920E+03
    -20.820  0.0000E+00  0.1920E+03
    -20.709  0.0000E+00  0.1920E+03
    -20.598  0.0000E+00  0.1920E+03
    -20.488  0.0000E+00  0.1920E+03
    -20.377  0.0000E+00  0.1920E+03
    -20.266  0.0000E+00  0.1920E+03
    -20.155  0.0000E+00  0.1920E+03
    -20.044  0.0000E+00  0.1920E+03
    -19.934  0.0000E+00  0.1920E+03
    -19.823  0.0000E+00  0.1920E+03
    -19.712  0.0000E+00  0.1920E+03
    -19.601  0.0000E+00  0.1920E+03
    -19.490  0.0000E+00  0.1920E+03
    -19.379  0.0000E+00  0.1920E+03
    -19.269  0.0000E+00  0.1920E+03
    -19.158  0.0000E+00  0.1920E+03
    -19.047  0.0000E+00  0.1920E+03
    -18.936  0.0000E+00  0.1920E+03
    -18.825  0.0000E+00  0.1920E+03
    -18.715  0.0000E+00  0.1920E+03
    -18.604  0.0000E+00  0.1920E+03
    -18.493  0.0000E+00  0.1920E+03
    -18.382  0.0000E+00  0.1920E+03
    -18.271  0.0000E+00  0.1920E+03
    -18.161  0.0000E+00  0.1920E+03
    -18.050  0.0000E+00  0.1920E+03
    -17.939  0.0000E+00  0.1920E+03
    -17.828  0.0000E+00  0.1920E+03
    -17.717  0.0000E+00  0.1920E+03
    -17.607  0.0000E+00  0.1920E+03
    -17.496  0.0000E+00  0.1920E+03
    -17.385  0.0000E+00  0.1920E+03
    -17.274  0.0000E+00  0.1920E+03
    -17.163  0.0000E+00  0.1920E+03
    -17.052  0.0000E+00  0.1920E+03
    -16.942  0.0000E+00  0.1920E+03
    -16.831  0.0000E+00  0.1920E+03
    -16.720  0.0000E+00  0.1920E+03
    -16.609  0.0000E+00  0.1920E+03
    -16.498  0.0000E+00  0.1920E+03
    -16.388  0.0000E+00  0.1920E+03
    -16.277  0.0000E+00  0.1920E+03
    -16.166  0.0000E+00  0.1920E+03
    -16.055  0.0000E+00  0.1920E+03
    -15.944  0.0000E+00  0.1920E+03
    -15.834  0.0000E+00  0.1920E+03
    -15.723  0.0000E+00  0.1920E+03
    -15.612  0.0000E+00  0.1920E+03
    -15.501  0.0000E+00  0.1920E+03
    -15.390  0.0000E+00  0.1920E+03
    -15.280  0.0000E+00  0.1920E+03
    -15.169  0.0000E+00  0.1920E+03
    -15.058  0.0000E+00  0.1920E+03
    -14.947  0.0000E+00  0.1920E+03
    -14.836  0.0000E+00  0.1920E+03
    -14.725  0.0000E+00  0.1920E+03
    -14.615  0.0000E+00  0.1920E+03
    -14.504  0.0000E+00  0.1920E+03
    -14.393  0.0000E+00  0.1920E+03
    -14.282  0.0000E+00  0.1920E+03
    -14.171  0.0000E+00  0.1920E+03
    -14.061  0.0000E+00  0.1920E+03
    -13.950  0.0000E+00  0.1920E+03
    -13.839  0.0000E+00  0.1920E+03
    -13.728  0.0000E+00  0.1920E+03
    -13.617  0.0000E+00  0.1920E+03
    -13.507  0.0000E+00  0.1920E+03
    -13.396  0.8396E-02  0.1920E+03
    -13.285  0.1131E+02  0.1933E+03
    -13.174  0.4339E+02  0.1981E+03
    -13.063  0.1027E+03  0.2094E+03
    -12.953  0.2781E+03  0.2403E+03
    -12.842  0.1420E+03  0.2560E+03
    -12.731  0.0000E+00  0.2560E+03
    -12.620  0.0000E+00  0.2560E+03
    -12.509  0.0000E+00  0.2560E+03
    -12.398  0.0000E+00  0.2560E+03
    -12.288  0.0000E+00  0.2560E+03
    -12.177  0.0000E+00  0.2560E+03
    -12.066  0.0000E+00  0.2560E+03
    -11.955  0.0000E+00  0.2560E+03
    -11.844  0.0000E+00  0.2560E+03
    -11.734  0.0000E+00  0.2560E+03
    -11.623  0.0000E+00  0.2560E+03
    -11.512  0.0000E+00  0.2560E+03
    -11.401  0.0000E+00  0.2560E+03
    -11.290  0.0000E+00  0.2560E+03
    -11.180  0.0000E+00  0.2560E+03
    -11.069  0.0000E+00  0.2560E+03
    -10.958  0.0000E+00  0.2560E+03
    -10.847  0.0000E+00  0.2560E+03
    -10.736  0.0000E+00  0.2560E+03
    -10.626  0.0000E+00  0.2560E+03
    -10.515  0.0000E+00  0.2560E+03
    -10.404  0.0000E+00  0.2560E+03
    -10.293  0.0000E+00  0.2560E+03
    -10.182  0.0000E+00  0.2560E+03
    -10.071  0.0000E+00  0.2560E+03
     -9.961  0.0000E+00  0.2560E+03
     -9.850  0.0000E+00  0.2560E+03
     -9.739  0.0000E+00  0.2560E+03
     -9.628  0.0000E+00  0.2560E+03
     -9.517  0.0000E+00  0.2560E+03
     -9.407  0.0000E+00  0.2560E+03
     -9.296  0.0000E+00  0.2560E+03
     -9.185  0.0000E+00  0.2560E+03
     -9.074  0.0000E+00  0.2560E+03
     -8.963  0.0000E+00  0.2560E+03
     -8.853  0.0000E+00  0.2560E+03
     -8.742  0.0000E+00  0.2560E+03
     -8.631  0.0000E+00  0.2560E+03
     -8.520  0.0000E+00  0.2560E+03
     -8.409  0.0000E+00  0.2560E+03
     -8.299  0.0000E+00  0.2560E+03
     -8.188  0.0000E+00  0.2560E+03
     -8.077  0.0000E+00  0.2560E+03
     -7.966  0.0000E+00  0.2560E+03
     -7.855  0.0000E+00  0.2560E+03
     -7.744  0.0000E+00  0.2560E+03
     -7.634  0.0000E+00  0.2560E+03
     -7.523  0.0000E+00  0.2560E+03
     -7.412  0.0000E+00  0.2560E+03
     -7.301  0.0000E+00  0.2560E+03
     -7.190  0.0000E+00  0.2560E+03
     -7.080  0.0000E+00  0.2560E+03
     -6.969  0.0000E+00  0.2560E+03
     -6.858  0.0000E+00  0.2560E+03
     -6.747  0.0000E+00  0.2560E+03
     -6.636  0.0000E+00  0.2560E+03
     -6.526  0.0000E+00  0.2560E+03
     -6.415  0.0000E+00  0.2560E+03
     -6.304  0.0000E+00  0.2560E+03
     -6.193  0.0000E+00  0.2560E+03
     -6.082  0.0000E+00  0.2560E+03
     -5.972  0.0000E+00  0.2560E+03
     -5.861  0.0000E+00  0.2560E+03
     -5.750  0.0000E+00  0.2560E+03
     -5.639  0.0000E+00  0.2560E+03
     -5.528  0.0000E+00  0.2560E+03
     -5.417  0.0000E+00  0.2560E+03
     -5.307  0.0000E+00  0.2560E+03
     -5.196  0.0000E+00  0.2560E+03
     -5.085  0.0000E+00  0.2560E+03
     -4.974  0.0000E+00  0.2560E+03
     -4.863  0.0000E+00  0.2560E+03
     -4.753  0.0000E+00  0.2560E+03
     -4.642  0.0000E+00  0.2560E+03
     -4.531  0.0000E+00  0.2560E+03
     -4.420  0.0000E+00  0.2560E+03
     -4.309  0.0000E+00  0.2560E+03
     -4.199  0.0000E+00  0.2560E+03
     -4.088  0.0000E+00  0.2560E+03
     -3.977  0.0000E+00  0.2560E+03
     -3.866  0.0000E+00  0.2560E+03
     -3.755  0.0000E+00  0.2560E+03
     -3.645  0.0000E+00  0.2560E+03
     -3.534  0.0000E+00  0.2560E+03
     -3.423  0.0000E+00  0.2560E+03
     -3.312  0.0000E+00  0.2560E+03
     -3.201  0.0000E+00  0.2560E+03
     -3.090  0.0000E+00  0.2560E+03
     -2.980  0.0000E+00  0.2560E+03
     -2.869  0.0000E+00  0.2560E+03
     -2.758  0.1803E-03  0.2560E+03
     -2.647  0.9023E+01  0.2570E+03
     -2.536  0.6271E+00  0.2571E+03
     -2.426  0.6656E+02  0.2644E+03
     -2.315  0.9283E+02  0.2747E+03
     -2.204  0.1717E+03  0.2938E+03
     -2.093  0.9461E+02  0.3042E+03
     -1.982  0.3179E+02  0.3078E+03
     -1.872  0.5063E+02  0.3134E+03
     -1.761  0.1116E+03  0.3257E+03
     -1.650  0.9401E-01  0.3258E+03
     -1.539  0.2721E+00  0.3258E+03
     -1.428  0.2047E+03  0.3485E+03
     -1.318  0.8003E+02  0.3573E+03
     -1.207  0.9080E+02  0.3674E+03
     -1.096  0.2849E+03  0.3990E+03
     -0.985  0.1183E+03  0.4121E+03
     -0.874  0.2235E+03  0.4368E+03
     -0.763  0.5819E+02  0.4433E+03
     -0.653  0.4126E+02  0.4479E+03
     -0.542  0.1296E+01  0.4480E+03
     -0.431  0.0000E+00  0.4480E+03
     -0.320  0.0000E+00  0.4480E+03
     -0.209  0.0000E+00  0.4480E+03
     -0.099  0.0000E+00  0.4480E+03
      0.012  0.0000E+00  0.4480E+03
      0.123  0.0000E+00  0.4480E+03
      0.234  0.0000E+00  0.4480E+03
      0.345  0.0000E+00  0.4480E+03
      0.455  0.0000E+00  0.4480E+03
      0.566  0.0000E+00  0.4480E+03
      0.677  0.0000E+00  0.4480E+03
      0.788  0.0000E+00  0.4480E+03
      0.899  0.0000E+00  0.4480E+03
      1.009  0.0000E+00  0.4480E+03
      1.120  0.0000E+00  0.4480E+03
      1.231  0.0000E+00  0.4480E+03
      1.342  0.0000E+00  0.4480E+03
      1.453  0.0000E+00  0.4480E+03
      1.564  0.0000E+00  0.4480E+03
      1.674  0.0000E+00  0.4480E+03
      1.785  0.0000E+00  0.4480E+03
      1.896  0.0000E+00  0.4480E+03
      2.007  0.0000E+00  0.4480E+03
      2.118  0.0000E+00  0.4480E+03
      2.228  0.0000E+00  0.4480E+03
      2.339  0.0000E+00  0.4480E+03
      2.450  0.0000E+00  0.4480E+03
      2.561  0.0000E+00  0.4480E+03
      2.672  0.0000E+00  0.4480E+03
      2.782  0.0000E+00  0.4480E+03
      2.893  0.0000E+00  0.4480E+03
      3.004  0.0000E+00  0.4480E+03
      3.115  0.0000E+00  0.4480E+03
      3.226  0.0000E+00  0.4480E+03
      3.336  0.0000E+00  0.4480E+03
      3.447  0.0000E+00  0.4480E+03
      3.558  0.0000E+00  0.4480E+03
      3.669  0.0000E+00  0.4480E+03
      3.780  0.0000E+00  0.4480E+03
      3.891  0.0000E+00  0.4480E+03
      4.001  0.0000E+00  0.4480E+03
      4.112  0.0000E+00  0.4480E+03
      4.223  0.1252E-15  0.4480E+03
      4.334  0.7253E+00  0.4481E+03
      4.445  0.1531E+01  0.4482E+03
      4.555  0.0000E+00  0.4482E+03
      4.666  0.0000E+00  0.4482E+03
      4.777  0.0000E+00  0.4482E+03
      4.888  0.0000E+00  0.4482E+03
      4.999  0.6292E+00  0.4483E+03
      5.109  0.1291E+02  0.4497E+03
      5.220  0.0000E+00  0.4498E+03
      5.331  0.0000E+00  0.4498E+03
      5.442  0.6871E-10  0.4498E+03
      5.553  0.2232E+02  0.4522E+03
      5.663  0.4756E+01  0.4528E+03
      5.774  0.4745E-03  0.4528E+03
      5.885  0.1805E+02  0.4547E+03
      5.996  0.0000E+00  0.4548E+03
      6.107  0.0000E+00  0.4548E+03
      6.218  0.0000E+00  0.4548E+03
      6.328  0.3243E-01  0.4548E+03
      6.439  0.1666E+02  0.4566E+03
      6.550  0.5871E+01  0.4573E+03
      6.661  0.5074E+02  0.4629E+03
      6.772  0.5755E+02  0.4692E+03
      6.882  0.6076E+02  0.4760E+03
      6.993  0.1289E+02  0.4774E+03
      7.104  0.7958E+00  0.4775E+03
      7.215  0.4821E+01  0.4780E+03
      7.326  0.2069E+01  0.4783E+03
      7.436  0.8164E+02  0.4873E+03
      7.547  0.1683E+03  0.5060E+03
      7.658  0.7119E+01  0.5068E+03
      7.769  0.2707E+02  0.5097E+03
      7.880  0.3114E-02  0.5098E+03
      7.990  0.5414E+02  0.5157E+03
      8.101  0.1398E-04  0.5158E+03
      8.212  0.1353E+02  0.5172E+03
      8.323  0.9371E+02  0.5276E+03
      8.434  0.1052E+01  0.5278E+03
      8.545  0.5141E+02  0.5334E+03
      8.655  0.5237E+02  0.5392E+03
      8.766  0.6387E-14  0.5392E+03
      8.877  0.7580E+01  0.5401E+03
      8.988  0.3529E+02  0.5440E+03
      9.099  0.0000E+00  0.5440E+03
      9.209  0.0000E+00  0.5440E+03
      9.320  0.0000E+00  0.5440E+03
      9.431  0.0000E+00  0.5440E+03
      9.542  0.0000E+00  0.5440E+03
      9.653  0.0000E+00  0.5440E+03
      9.763  0.0000E+00  0.5440E+03
      9.874  0.0000E+00  0.5440E+03
      9.985  0.0000E+00  0.5440E+03
     10.096  0.0000E+00  0.5440E+03
     10.207  0.0000E+00  0.5440E+03
     10.317  0.0000E+00  0.5440E+03
     10.428  0.0000E+00  0.5440E+03
