       N       E                     dE             d eps       ncg     rms          rms(c)
DAV:   1     0.462157519984E+04    0.46216E+04   -0.16912E+05  2296   0.132E+03
DAV:   2     0.488683930090E+03   -0.41329E+04   -0.39590E+04  2384   0.393E+02
DAV:   3    -0.188643736956E+03   -0.67733E+03   -0.67114E+03  2568   0.175E+02
DAV:   4    -0.227350045852E+03   -0.38706E+02   -0.38455E+02  2528   0.413E+01
DAV:   5    -0.228981352659E+03   -0.16313E+01   -0.16292E+01  2840   0.854E+00    0.106E+01
DAV:   6    -0.224149486919E+03    0.48319E+01   -0.10258E+01  2680   0.563E+00    0.781E+00
DAV:   7    -0.223778642033E+03    0.37084E+00   -0.23104E+00  2856   0.252E+00    0.528E+00
DAV:   8    -0.223904248026E+03   -0.12561E+00   -0.25214E-01  2392   0.125E+00    0.124E+00
DAV:   9    -0.223898606054E+03    0.56420E-02   -0.13555E-02  2824   0.277E-01    0.488E-01
DAV:  10    -0.223903126339E+03   -0.45203E-02   -0.15064E-02  2384   0.206E-01    0.157E-01
DAV:  11    -0.223902724263E+03    0.40208E-03   -0.93833E-04  2576   0.581E-02    0.607E-02
DAV:  12    -0.223902688704E+03    0.35558E-04   -0.25351E-04  2768   0.218E-02    0.392E-02
DAV:  13    -0.223902700205E+03   -0.11500E-04   -0.18512E-05  2320   0.743E-03    0.479E-03
DAV:  14    -0.223902699976E+03    0.22894E-06   -0.32784E-07  2768   0.163E-03    0.487E-03
DAV:  15    -0.223902701008E+03   -0.10320E-05   -0.83304E-07  1992   0.118E-03    0.354E-04
DAV:  16    -0.223902700922E+03    0.85281E-07   -0.14139E-08  1592   0.383E-04    0.238E-04
DAV:  17    -0.223902700870E+03    0.52096E-07   -0.44208E-09  1304   0.208E-04    0.797E-05
DAV:  18    -0.223902700865E+03    0.51732E-08   -0.14116E-09  1304   0.141E-04
   1 F= -.22390270E+03 E0= -.22390270E+03  d E =-.829384E-27
