<?xml version="1.0" encoding="ISO-8859-1"?>
<modeling>
 <generator>
  <i name="program" type="string">vasp </i>
  <i name="version" type="string">6.3.2  </i>
  <i name="subversion" type="string">27Jun22 (build Oct 14 2022 12:13:54) complex                          parallel </i>
  <i name="platform" type="string">LinuxIFC </i>
  <i name="date" type="string">2025 08 28 </i>
  <i name="time" type="string">21:55:10 </i>
 </generator>
 <incar>
  <i type="string" name="PREC">Accurate</i>
  <i type="int" name="IALGO">    38</i>
  <i type="logical" name="ADDGRID"> T  </i>
  <i type="int" name="NELMIN">     5</i>
  <i type="int" name="IBRION">    -1</i>
  <i name="EDIFF">      0.00000001</i>
  <i name="ENCUT">    341.21360000</i>
  <i type="logical" name="LREAL"> F  </i>
  <i type="int" name="ISMEAR">     0</i>
  <i name="SIGMA">      0.02000000</i>
  <i type="logical" name="LWAVE"> F  </i>
  <i type="logical" name="LCHARG"> F  </i>
  <i type="string" name="GGA">Ps</i>
 </incar>
 <primitive_cell>
  <structure name="primitive_cell" >
   <crystal>
    <varray name="basis" >
     <v>       2.80100059      -2.80100059       0.00000000 </v>
     <v>       2.80100059       0.00000000       2.80100059 </v>
     <v>       0.00000000      -2.80100059       2.80100059 </v>
    </varray>
    <i name="volume">     43.95108458 </i>
    <varray name="rec_basis" >
     <v>       0.17850764      -0.17850764      -0.17850764 </v>
     <v>       0.17850764       0.17850764       0.17850764 </v>
     <v>      -0.17850764      -0.17850764       0.17850764 </v>
    </varray>
   </crystal>
   <varray name="positions" >
    <v>       0.00000000       0.00000000       0.00000000 </v>
    <v>       0.50000000       0.50000000       0.50000000 </v>
   </varray>
  </structure>
  <varray name="primitive_index" >
   <v type="int" >        1 </v>
   <v type="int" >       38 </v>
  </varray>
 </primitive_cell>
 <kpoints>
  <generation param="Gamma">
   <v type="int" name="divisions">       2        2        2 </v>
   <v name="usershift">      0.00000000       0.00000000       0.00000000 </v>
   <v name="genvec1">      0.50000000       0.00000000       0.00000000 </v>
   <v name="genvec2">      0.00000000       0.50000000       0.00000000 </v>
   <v name="genvec3">      0.00000000       0.00000000       0.50000000 </v>
   <v name="shift">      0.00000000       0.00000000       0.00000000 </v>
  </generation>
  <varray name="kpointlist" >
   <v>       0.00000000       0.00000000       0.00000000 </v>
   <v>       0.50000000       0.00000000       0.00000000 </v>
   <v>       0.50000000       0.50000000       0.00000000 </v>
   <v>       0.50000000       0.50000000       0.50000000 </v>
  </varray>
  <varray name="weights" >
   <v>       0.12500000 </v>
   <v>       0.37500000 </v>
   <v>       0.37500000 </v>
   <v>       0.12500000 </v>
  </varray>
 </kpoints>
 <parameters>
  <separator name="general" >
   <i type="string" name="SYSTEM">unknown system</i>
   <i type="logical" name="LCOMPAT"> F  </i>
  </separator>
  <separator name="electronic" >
   <i type="string" name="PREC">accura</i>
   <i name="ENMAX">    341.21360000</i>
   <i name="ENAUG">    368.05600000</i>
   <i name="EDIFF">      0.00000001</i>
   <i type="int" name="IALGO">    38</i>
   <i type="int" name="IWAVPR">    10</i>
   <i type="int" name="NBANDS">   272</i>
   <i type="int" name="NBANDSLOW">    -1</i>
   <i type="int" name="NBANDSHIGH">    -1</i>
   <i name="NELECT">    448.00000000</i>
   <i type="int" name="TURBO">     0</i>
   <i type="int" name="IRESTART">     0</i>
   <i type="int" name="NREBOOT">     0</i>
   <i type="int" name="NMIN">     0</i>
   <i name="EREF">      0.00000000</i>
   <separator name="electronic smearing" >
    <i type="int" name="ISMEAR">     0</i>
    <i name="SIGMA">      0.02000000</i>
    <i name="KSPACING">      0.50000000</i>
    <i type="logical" name="KGAMMA"> T  </i>
    <i type="logical" name="KBLOWUP"> T  </i>
   </separator>
   <separator name="electronic projectors" >
    <i type="logical" name="LREAL"> F  </i>
    <v name="ROPT">      0.00000000      0.00000000</v>
    <i type="int" name="LMAXPAW">  -100</i>
    <i type="int" name="LMAXMIX">     2</i>
    <i type="logical" name="NLSPLINE"> F  </i>
   </separator>
   <separator name="electronic startup" >
    <i type="int" name="ISTART">     0</i>
    <i type="int" name="ICHARG">     2</i>
    <i type="int" name="INIWAV">     1</i>
   </separator>
   <separator name="electronic spin" >
    <i type="int" name="ISPIN">     1</i>
    <i type="logical" name="LNONCOLLINEAR"> F  </i>
    <v name="MAGMOM">      1.00000000      1.00000000      1.00000000      1.00000000      1.00000000      1.00000000      1.00000000      1.00000000      1.00000000      1.00000000      1.00000000      1.00000000      1.00000000      1.00000000      1.00000000      1.00000000      1.00000000      1.00000000      1.00000000      1.00000000
      1.00000000      1.00000000      1.00000000      1.00000000      1.00000000      1.00000000      1.00000000      1.00000000      1.00000000      1.00000000      1.00000000      1.00000000      1.00000000      1.00000000      1.00000000      1.00000000      1.00000000      1.00000000      1.00000000      1.00000000
      1.00000000      1.00000000      1.00000000      1.00000000      1.00000000      1.00000000      1.00000000      1.00000000      1.00000000      1.00000000      1.00000000      1.00000000      1.00000000      1.00000000      1.00000000      1.00000000      1.00000000      1.00000000      1.00000000      1.00000000
      1.00000000      1.00000000      1.00000000      1.00000000</v>
    <i name="NUPDOWN">     -1.00000000</i>
    <i type="logical" name="LSORBIT"> F  </i>
    <v name="SAXIS">      0.00000000      0.00000000      1.00000000</v>
    <i type="logical" name="LSPIRAL"> F  </i>
    <v name="QSPIRAL">      0.00000000      0.00000000      0.00000000</v>
    <i type="logical" name="LZEROZ"> F  </i>
   </separator>
   <separator name="electronic exchange-correlation" >
    <i type="logical" name="LASPH"> F  </i>
    <i type="logical" name="LMETAGGA"> F  </i>
   </separator>
   <separator name="electronic convergence" >
    <i type="int" name="NELM">    60</i>
    <i type="int" name="NELMDL">    -5</i>
    <i type="int" name="NELMIN">     5</i>
    <i name="ENINI">    341.21360000</i>
    <separator name="electronic convergence detail" >
     <i type="logical" name="LDIAG"> T  </i>
     <i type="logical" name="LSUBROT"> F  </i>
     <i name="WEIMIN">      0.00000000</i>
     <i name="EBREAK">      0.00000000</i>
     <i name="DEPER">      0.30000000</i>
     <i type="int" name="NRMM">     4</i>
     <i name="TIME">      0.40000000</i>
    </separator>
   </separator>
   <separator name="electronic mixer" >
    <i name="AMIX">      0.40000000</i>
    <i name="BMIX">      1.00000000</i>
    <i name="AMIN">      0.10000000</i>
    <i name="AMIX_MAG">      1.60000000</i>
    <i name="BMIX_MAG">      1.00000000</i>
    <separator name="electronic mixer details" >
     <i type="int" name="IMIX">     4</i>
     <i type="logical" name="MIXFIRST"> F  </i>
     <i type="int" name="MAXMIX">   -45</i>
     <i name="WC">    100.00000000</i>
     <i type="int" name="INIMIX">     1</i>
     <i type="int" name="MIXPRE">     1</i>
     <i type="int" name="MREMOVE">     5</i>
    </separator>
   </separator>
   <separator name="electronic dipolcorrection" >
    <i type="logical" name="LDIPOL"> F  </i>
    <i type="logical" name="LMONO"> F  </i>
    <i type="int" name="IDIPOL">     0</i>
    <i name="EPSILON">      1.00000000</i>
    <v name="DIPOL">   -100.00000000   -100.00000000   -100.00000000</v>
    <i name="EFIELD">      0.00000000</i>
   </separator>
  </separator>
  <separator name="grids" >
   <i type="int" name="NGX">    70</i>
   <i type="int" name="NGY">    70</i>
   <i type="int" name="NGZ">    70</i>
   <i type="int" name="NGXF">   140</i>
   <i type="int" name="NGYF">   140</i>
   <i type="int" name="NGZF">   140</i>
   <i type="logical" name="ADDGRID"> T  </i>
  </separator>
  <separator name="ionic" >
   <i type="int" name="NSW">     0</i>
   <i type="int" name="IBRION">    -1</i>
   <i type="int" name="MDALGO">     0</i>
   <i type="int" name="ISIF">     2</i>
   <i name="PSTRESS">      0.00000000</i>
   <i name="EDIFFG">      0.00000010</i>
   <i type="int" name="NFREE">     0</i>
   <i name="POTIM">      0.50000000</i>
   <i name="SMASS">     -3.00000000</i>
   <i name="SCALEE">      1.00000000</i>
  </separator>
  <separator name="ionic md" >
   <i name="TEBEG">      0.00010000</i>
   <i name="TEEND">      0.00010000</i>
   <i type="int" name="NBLOCK">     1</i>
   <i type="int" name="KBLOCK">     1</i>
   <i type="int" name="NPACO">   256</i>
   <i name="APACO">     10.00000000</i>
  </separator>
  <separator name="symmetry" >
   <i type="int" name="ISYM">     2</i>
   <i name="SYMPREC">      0.00001000</i>
  </separator>
  <separator name="dos" >
   <i type="int" name="LORBIT">     0</i>
   <v name="RWIGS">     -1.00000000     -1.00000000</v>
   <i type="int" name="NEDOS">   301</i>
   <i name="EMIN">     10.00000000</i>
   <i name="EMAX">    -10.00000000</i>
   <i name="EFERMI">      0.00000000</i>
  </separator>
  <separator name="writing" >
   <i type="int" name="NWRITE">     2</i>
   <i type="logical" name="LWAVE"> F  </i>
   <i type="logical" name="LDOWNSAMPLE"> F  </i>
   <i type="logical" name="LCHARG"> F  </i>
   <i type="logical" name="LPARD"> F  </i>
   <i type="logical" name="LVTOT"> F  </i>
   <i type="logical" name="LVHAR"> F  </i>
   <i type="logical" name="LELF"> F  </i>
   <i type="logical" name="LOPTICS"> F  </i>
   <v name="STM">      0.00000000      0.00000000      0.00000000      0.00000000      0.00000000      0.00000000      0.00000000</v>
  </separator>
  <separator name="performance" >
   <i type="int" name="NPAR">     8</i>
   <i type="int" name="NSIM">     4</i>
   <i type="int" name="NBLK">    -1</i>
   <i type="logical" name="LPLANE"> T  </i>
   <i type="logical" name="LSCALAPACK"> T  </i>
   <i type="logical" name="LSCAAWARE"> F  </i>
   <i type="logical" name="LSCALU"> F  </i>
   <i type="logical" name="LASYNC"> F  </i>
   <i type="logical" name="LORBITALREAL"> F  </i>
  </separator>
  <separator name="miscellaneous" >
   <i type="int" name="IDIOT">     3</i>
   <i type="int" name="PHON_NSTRUCT">    -1</i>
   <i type="logical" name="LMUSIC"> F  </i>
   <v name="POMASS">     22.99000000     35.45300000</v>
   <v name="DARWINR">      0.00000000      0.00000000</v>
   <v name="DARWINV">      1.00000000      1.00000000</v>
   <i type="logical" name="LCORR"> T  </i>
  </separator>
  <i type="logical" name="GGA_COMPAT"> T  </i>
  <i type="logical" name="LBERRY"> F  </i>
  <i type="int" name="ICORELEVEL">     0</i>
  <i type="logical" name="LDAU"> F  </i>
  <i type="int" name="I_CONSTRAINED_M">     0</i>
  <separator name="electronic exchange-correlation" >
   <i type="string" name="GGA">PS</i>
   <i type="int" name="VOSKOWN">     0</i>
   <i type="logical" name="LHFCALC"> F  </i>
   <i type="string" name="PRECFOCK"></i>
   <i type="logical" name="LSYMGRAD"> F  </i>
   <i type="logical" name="LHFONE"> F  </i>
   <i type="logical" name="LRHFCALC"> F  </i>
   <i type="logical" name="LTHOMAS"> F  </i>
   <i type="logical" name="LMODELHF"> F  </i>
   <i type="logical" name="LFOCKACE"> F  </i>
   <i name="ENCUT4O">     -1.00000000</i>
   <i type="int" name="EXXOEP">     0</i>
   <i type="int" name="FOURORBIT">     0</i>
   <i name="AEXX">      0.00000000</i>
   <i name="HFALPHA">      0.00000000</i>
   <i name="MCALPHA">      0.00000000</i>
   <i name="ALDAX">      1.00000000</i>
   <i name="AGGAX">      1.00000000</i>
   <i name="ALDAC">      1.00000000</i>
   <i name="AGGAC">      1.00000000</i>
   <i type="int" name="NKREDX">     1</i>
   <i type="int" name="NKREDY">     1</i>
   <i type="int" name="NKREDZ">     1</i>
   <i type="logical" name="SHIFTRED"> F  </i>
   <i type="logical" name="ODDONLY"> F  </i>
   <i type="logical" name="EVENONLY"> F  </i>
   <i type="int" name="LMAXFOCK">     0</i>
   <i type="int" name="NMAXFOCKAE">     0</i>
   <i type="logical" name="LFOCKAEDFT"> F  </i>
   <i name="HFSCREEN">      0.00000000</i>
   <i name="HFSCREENC">      0.00000000</i>
   <i type="int" name="NBANDSGWLOW">     0</i>
  </separator>
  <separator name="vdW DFT" >
   <i type="logical" name="LUSE_VDW"> F  </i>
   <i name="Zab_VDW">     -0.84910000</i>
   <i name="PARAM1">      0.12340000</i>
   <i name="PARAM2">      1.00000000</i>
   <i name="PARAM3">      0.00000000</i>
  </separator>
  <separator name="model GW" >
   <i type="int" name="MODEL_GW">     0</i>
   <i name="MODEL_EPS0">     13.18532537</i>
   <i name="MODEL_ALPHA">      1.00000000</i>
  </separator>
  <separator name="linear response parameters" >
   <i type="logical" name="LEPSILON"> F  </i>
   <i type="logical" name="LRPA"> F  </i>
   <i type="logical" name="LNABLA"> F  </i>
   <i type="logical" name="LVEL"> F  </i>
   <i name="CSHIFT">      0.10000000</i>
   <i name="OMEGAMAX">     -1.00000000</i>
   <i name="DEG_THRESHOLD">      0.00200000</i>
   <i name="RTIME">     -0.10000000</i>
   <i name="WPLASMAI">      0.00000000</i>
   <v name="DFIELD">      0.00000000      0.00000000      0.00000000</v>
   <v name="WPLASMA">      0.00000000      0.00000000      0.00000000      0.00000000      0.00000000      0.00000000      0.00000000      0.00000000      0.00000000</v>
  </separator>
  <separator name="orbital magnetization" >
   <i type="logical" name="NUCIND"> F  </i>
   <v name="MAGPOS">      0.00000000      0.00000000      0.00000000</v>
   <i type="logical" name="LNICSALL"> T  </i>
   <i type="logical" name="ORBITALMAG"> F  </i>
   <i type="logical" name="LMAGBLOCH"> F  </i>
   <i type="logical" name="LCHIMAG"> F  </i>
   <i type="logical" name="LGAUGE"> T  </i>
   <i type="int" name="MAGATOM">     0</i>
   <v name="MAGDIPOL">      0.00000000      0.00000000      0.00000000</v>
   <v name="AVECCONST">      0.00000000      0.00000000      0.00000000</v>
  </separator>
  <separator name="response functions" >
   <i type="logical" name="LFINITE_TEMPERATURE"> F  </i>
   <i type="logical" name="LADDER"> F  </i>
   <i type="logical" name="LRPAFORCE"> F  </i>
   <i type="logical" name="LFXC"> F  </i>
   <i type="logical" name="LHARTREE"> T  </i>
   <i type="int" name="IBSE">     0</i>
   <v type="int" name="KPOINT">    -1     0     0     0</v>
   <i type="logical" name="LTCTC"> F  </i>
   <i type="logical" name="LTCTE"> F  </i>
   <i type="logical" name="LTETE"> F  </i>
   <i type="logical" name="LTRIPLET"> F  </i>
   <i type="logical" name="LFXCEPS"> F  </i>
   <i type="logical" name="LFXHEG"> F  </i>
   <i type="int" name="NATURALO">     2</i>
   <i type="logical" name="LHOLEGF"> F  </i>
   <i type="logical" name="L2ORDER"> F  </i>
   <i type="logical" name="LDMP1"> F  </i>
   <i type="logical" name="LMP2LT"> F  </i>
   <i type="logical" name="LSMP2LT"> F  </i>
   <i type="logical" name="LGWLF"> F  </i>
   <i name="ENCUTGW">     -2.00000000</i>
   <i name="ENCUTGWSOFT">     -2.00000000</i>
   <i name="ENCUTLF">     -1.00000000</i>
   <i type="logical" name="LESF_SPLINES"> F  </i>
   <i type="int" name="LMAXMP2">    -1</i>
   <i name="SCISSOR">      0.00000000</i>
   <i type="int" name="NOMEGA">     0</i>
   <i type="int" name="NOMEGAR">     0</i>
   <i type="int" name="NBANDSGW">    -1</i>
   <i type="int" name="NBANDSO">    -1</i>
   <i type="int" name="NBANDSV">    -1</i>
   <i type="int" name="NELMGW">     1</i>
   <i type="int" name="NELMHF">     1</i>
   <i type="int" name="DIM">     3</i>
   <i type="int" name="IESPILON">     4</i>
   <i type="int" name="ANTIRES">     0</i>
   <i name="OMEGAMAX">    -30.00000000</i>
   <i name="OMEGAMIN">    -30.00000000</i>
   <i name="OMEGATL">   -200.00000000</i>
   <i type="int" name="OMEGAGRID">     0</i>
   <i name="CSHIFT">     -0.10000000</i>
   <i type="logical" name="LSELFENERGY"> F  </i>
   <i type="logical" name="LSPECTRAL"> F  </i>
   <i type="logical" name="LSPECTRALGW"> F  </i>
   <i type="logical" name="LSINGLES"> F  </i>
   <i type="logical" name="LFERMIGW"> F  </i>
   <i type="logical" name="ODDONLYGW"> F  </i>
   <i type="logical" name="EVENONLYGW"> F  </i>
   <i type="int" name="NKREDLFX">     1</i>
   <i type="int" name="NKREDLFY">     1</i>
   <i type="int" name="NKREDLFZ">     1</i>
   <i type="int" name="MAXMEM">  2800</i>
   <i type="int" name="TELESCOPE">     0</i>
   <i type="int" name="NTAUPAR">    -1</i>
   <i type="int" name="NOMEGAPAR">    -1</i>
   <i name="DAMP_NEWTON">      0.80000001</i>
   <i name="LAMBDA">      1.00000000</i>
  </separator>
  <separator name="External order field" >
   <i name="OFIELD_KAPPA">      0.00000000</i>
   <v name="OFIELD_K">      0.00000000      0.00000000      0.00000000</v>
   <i name="OFIELD_Q6_NEAR">      0.00000000</i>
   <i name="OFIELD_Q6_FAR">      0.00000000</i>
   <i name="OFIELD_A">      0.00000000</i>
  </separator>
  <separator name="optional k-points parameters" >
   <i type="int" name="KPOINTS_OPT_MODE">     1</i>
   <i type="logical" name="LKPOINTS_OPT"> F  </i>
  </separator>
 </parameters>
 <atominfo>
  <atoms>      64 </atoms>
  <types>       2 </types>
  <array name="atoms" >
   <dimension dim="1">ion</dimension>
   <field type="string">element</field>
   <field type="int">atomtype</field>
   <set>
    <rc><c>Na</c><c>   1</c></rc>
    <rc><c>Na</c><c>   1</c></rc>
    <rc><c>Na</c><c>   1</c></rc>
    <rc><c>Na</c><c>   1</c></rc>
    <rc><c>Na</c><c>   1</c></rc>
    <rc><c>Na</c><c>   1</c></rc>
    <rc><c>Na</c><c>   1</c></rc>
    <rc><c>Na</c><c>   1</c></rc>
    <rc><c>Na</c><c>   1</c></rc>
    <rc><c>Na</c><c>   1</c></rc>
    <rc><c>Na</c><c>   1</c></rc>
    <rc><c>Na</c><c>   1</c></rc>
    <rc><c>Na</c><c>   1</c></rc>
    <rc><c>Na</c><c>   1</c></rc>
    <rc><c>Na</c><c>   1</c></rc>
    <rc><c>Na</c><c>   1</c></rc>
    <rc><c>Na</c><c>   1</c></rc>
    <rc><c>Na</c><c>   1</c></rc>
    <rc><c>Na</c><c>   1</c></rc>
    <rc><c>Na</c><c>   1</c></rc>
    <rc><c>Na</c><c>   1</c></rc>
    <rc><c>Na</c><c>   1</c></rc>
    <rc><c>Na</c><c>   1</c></rc>
    <rc><c>Na</c><c>   1</c></rc>
    <rc><c>Na</c><c>   1</c></rc>
    <rc><c>Na</c><c>   1</c></rc>
    <rc><c>Na</c><c>   1</c></rc>
    <rc><c>Na</c><c>   1</c></rc>
    <rc><c>Na</c><c>   1</c></rc>
    <rc><c>Na</c><c>   1</c></rc>
    <rc><c>Na</c><c>   1</c></rc>
    <rc><c>Na</c><c>   1</c></rc>
    <rc><c>Cl</c><c>   2</c></rc>
    <rc><c>Cl</c><c>   2</c></rc>
    <rc><c>Cl</c><c>   2</c></rc>
    <rc><c>Cl</c><c>   2</c></rc>
    <rc><c>Cl</c><c>   2</c></rc>
    <rc><c>Cl</c><c>   2</c></rc>
    <rc><c>Cl</c><c>   2</c></rc>
    <rc><c>Cl</c><c>   2</c></rc>
    <rc><c>Cl</c><c>   2</c></rc>
    <rc><c>Cl</c><c>   2</c></rc>
    <rc><c>Cl</c><c>   2</c></rc>
    <rc><c>Cl</c><c>   2</c></rc>
    <rc><c>Cl</c><c>   2</c></rc>
    <rc><c>Cl</c><c>   2</c></rc>
    <rc><c>Cl</c><c>   2</c></rc>
    <rc><c>Cl</c><c>   2</c></rc>
    <rc><c>Cl</c><c>   2</c></rc>
    <rc><c>Cl</c><c>   2</c></rc>
    <rc><c>Cl</c><c>   2</c></rc>
    <rc><c>Cl</c><c>   2</c></rc>
    <rc><c>Cl</c><c>   2</c></rc>
    <rc><c>Cl</c><c>   2</c></rc>
    <rc><c>Cl</c><c>   2</c></rc>
    <rc><c>Cl</c><c>   2</c></rc>
    <rc><c>Cl</c><c>   2</c></rc>
    <rc><c>Cl</c><c>   2</c></rc>
    <rc><c>Cl</c><c>   2</c></rc>
    <rc><c>Cl</c><c>   2</c></rc>
    <rc><c>Cl</c><c>   2</c></rc>
    <rc><c>Cl</c><c>   2</c></rc>
    <rc><c>Cl</c><c>   2</c></rc>
    <rc><c>Cl</c><c>   2</c></rc>
   </set>
  </array>
  <array name="atomtypes" >
   <dimension dim="1">type</dimension>
   <field type="int">atomspertype</field>
   <field type="string">element</field>
   <field>mass</field>
   <field>valence</field>
   <field type="string">pseudopotential</field>
   <set>
    <rc><c>  32</c><c>Na</c><c>     22.99000000</c><c>      7.00000000</c><c>  PAW_PBE Na_pv 19Sep2006               </c></rc>
    <rc><c>  32</c><c>Cl</c><c>     35.45300000</c><c>      7.00000000</c><c>  PAW_PBE Cl 06Sep2000                  </c></rc>
   </set>
  </array>
 </atominfo>
 <structure name="initialpos" >
  <crystal>
   <varray name="basis" >
    <v>      11.20400236       0.00000000       0.00000000 </v>
    <v>       0.00000000      11.20400236       0.00000000 </v>
    <v>       0.00000000       0.00000000      11.20400236 </v>
   </varray>
   <i name="volume">   1406.43470641 </i>
   <varray name="rec_basis" >
    <v>       0.08925382       0.00000000       0.00000000 </v>
    <v>       0.00000000       0.08925382       0.00000000 </v>
    <v>       0.00000000       0.00000000       0.08925382 </v>
   </varray>
  </crystal>
  <varray name="positions" >
   <v>       0.00000000       0.00000000       0.00000000 </v>
   <v>       0.25000000       0.25000000       0.00000000 </v>
   <v>       0.25000000       0.00000000       0.25000000 </v>
   <v>       0.00000000       0.25000000       0.25000000 </v>
   <v>       0.00000000       0.00000000       0.50000000 </v>
   <v>       0.25000000       0.25000000       0.50000000 </v>
   <v>       0.25000000       0.00000000       0.75000000 </v>
   <v>       0.00000000       0.25000000       0.75000000 </v>
   <v>       0.00000000       0.50000000       0.00000000 </v>
   <v>       0.25000000       0.75000000       0.00000000 </v>
   <v>       0.25000000       0.50000000       0.25000000 </v>
   <v>       0.00000000       0.75000000       0.25000000 </v>
   <v>       0.00000000       0.50000000       0.50000000 </v>
   <v>       0.25000000       0.75000000       0.50000000 </v>
   <v>       0.25000000       0.50000000       0.75000000 </v>
   <v>       0.00000000       0.75000000       0.75000000 </v>
   <v>       0.50000000       0.00000000       0.00000000 </v>
   <v>       0.75000000       0.25000000       0.00000000 </v>
   <v>       0.75000000       0.00000000       0.25000000 </v>
   <v>       0.50000000       0.25000000       0.25000000 </v>
   <v>       0.50000000       0.00000000       0.50000000 </v>
   <v>       0.75000000       0.25000000       0.50000000 </v>
   <v>       0.75000000       0.00000000       0.75000000 </v>
   <v>       0.50000000       0.25000000       0.75000000 </v>
   <v>       0.50000000       0.50000000       0.00000000 </v>
   <v>       0.75000000       0.75000000       0.00000000 </v>
   <v>       0.75000000       0.50000000       0.25000000 </v>
   <v>       0.50000000       0.75000000       0.25000000 </v>
   <v>       0.50000000       0.50000000       0.50000000 </v>
   <v>       0.75000000       0.75000000       0.50000000 </v>
   <v>       0.75000000       0.50000000       0.75000000 </v>
   <v>       0.50000000       0.75000000       0.75000000 </v>
   <v>       0.25000000       0.25000000       0.25000000 </v>
   <v>       0.00000000       0.00000000       0.25000000 </v>
   <v>       0.00000000       0.25000000       0.00000000 </v>
   <v>       0.25000000       0.00000000       0.00000000 </v>
   <v>       0.25000000       0.25000000       0.75000000 </v>
   <v>       0.00000000       0.00000000       0.75000000 </v>
   <v>       0.00000000       0.25000000       0.50000000 </v>
   <v>       0.25000000       0.00000000       0.50000000 </v>
   <v>       0.25000000       0.75000000       0.25000000 </v>
   <v>       0.00000000       0.50000000       0.25000000 </v>
   <v>       0.00000000       0.75000000       0.00000000 </v>
   <v>       0.25000000       0.50000000       0.00000000 </v>
   <v>       0.25000000       0.75000000       0.75000000 </v>
   <v>       0.00000000       0.50000000       0.75000000 </v>
   <v>       0.00000000       0.75000000       0.50000000 </v>
   <v>       0.25000000       0.50000000       0.50000000 </v>
   <v>       0.75000000       0.25000000       0.25000000 </v>
   <v>       0.50000000       0.00000000       0.25000000 </v>
   <v>       0.50000000       0.25000000       0.00000000 </v>
   <v>       0.75000000       0.00000000       0.00000000 </v>
   <v>       0.75000000       0.25000000       0.75000000 </v>
   <v>       0.50000000       0.00000000       0.75000000 </v>
   <v>       0.50000000       0.25000000       0.50000000 </v>
   <v>       0.75000000       0.00000000       0.50000000 </v>
   <v>       0.75000000       0.75000000       0.25000000 </v>
   <v>       0.50000000       0.50000000       0.25000000 </v>
   <v>       0.50000000       0.75000000       0.00000000 </v>
   <v>       0.75000000       0.50000000       0.00000000 </v>
   <v>       0.75000000       0.75000000       0.75000000 </v>
   <v>       0.50000000       0.50000000       0.75000000 </v>
   <v>       0.50000000       0.75000000       0.50000000 </v>
   <v>       0.75000000       0.50000000       0.50000000 </v>
  </varray>
 </structure>
 <calculation>
  <scstep>
   <time name="dav">    2.62    2.69</time>
   <time name="total">    2.69    2.78</time>
   <energy>
    <i name="alphaZ">    751.52672365 </i>
    <i name="ewald"> -22871.45941235 </i>
    <i name="hartreedc">  -8992.13840945 </i>
    <i name="XCdc">   1456.53377852 </i>
    <i name="pawpsdc">  26466.43774078 </i>
    <i name="pawaedc"> -29286.08056155 </i>
    <i name="eentropy">     -0.00392136 </i>
    <i name="bandstr">   -435.42020833 </i>
    <i name="atom">  37532.17946992 </i>
    <i name="e_fr_energy">   4621.57519984 </i>
    <i name="e_wo_entrp">   4621.57912120 </i>
    <i name="e_0_energy">   4621.57716052 </i>
   </energy>
  </scstep>
  <scstep>
   <time name="dav">    2.71    2.73</time>
   <time name="total">    2.71    2.73</time>
   <energy>
    <i name="e_fr_energy">    488.68393009 </i>
    <i name="e_wo_entrp">    488.68393009 </i>
    <i name="e_0_energy">    488.68393009 </i>
   </energy>
  </scstep>
  <scstep>
   <time name="dav">    2.87    2.88</time>
   <time name="total">    2.87    2.88</time>
   <energy>
    <i name="e_fr_energy">   -188.64373696 </i>
    <i name="e_wo_entrp">   -188.64373696 </i>
    <i name="e_0_energy">   -188.64373696 </i>
   </energy>
  </scstep>
  <scstep>
   <time name="dav">    2.85    2.87</time>
   <time name="total">    2.85    2.87</time>
   <energy>
    <i name="e_fr_energy">   -227.35004585 </i>
    <i name="e_wo_entrp">   -227.35004585 </i>
    <i name="e_0_energy">   -227.35004585 </i>
   </energy>
  </scstep>
  <scstep>
   <time name="dav">    3.10    3.12</time>
   <time name="total">    3.29    3.32</time>
   <energy>
    <i name="e_fr_energy">   -228.98135266 </i>
    <i name="e_wo_entrp">   -228.98135266 </i>
    <i name="e_0_energy">   -228.98135266 </i>
   </energy>
  </scstep>
  <scstep>
   <time name="dav">    2.96    2.97</time>
   <time name="total">    3.22    3.24</time>
   <energy>
    <i name="e_fr_energy">   -224.14948692 </i>
    <i name="e_wo_entrp">   -224.14948692 </i>
    <i name="e_0_energy">   -224.14948692 </i>
   </energy>
  </scstep>
  <scstep>
   <time name="dav">    3.11    3.13</time>
   <time name="total">    3.37    3.39</time>
   <energy>
    <i name="e_fr_energy">   -223.77864203 </i>
    <i name="e_wo_entrp">   -223.77864203 </i>
    <i name="e_0_energy">   -223.77864203 </i>
   </energy>
  </scstep>
  <scstep>
   <time name="dav">    2.72    2.73</time>
   <time name="total">    2.98    3.00</time>
   <energy>
    <i name="e_fr_energy">   -223.90424803 </i>
    <i name="e_wo_entrp">   -223.90424803 </i>
    <i name="e_0_energy">   -223.90424803 </i>
   </energy>
  </scstep>
  <scstep>
   <time name="dav">    3.08    3.10</time>
   <time name="total">    3.34    3.36</time>
   <energy>
    <i name="e_fr_energy">   -223.89860605 </i>
    <i name="e_wo_entrp">   -223.89860605 </i>
    <i name="e_0_energy">   -223.89860605 </i>
   </energy>
  </scstep>
  <scstep>
   <time name="dav">    2.71    2.73</time>
   <time name="total">    2.97    2.99</time>
   <energy>
    <i name="e_fr_energy">   -223.90312634 </i>
    <i name="e_wo_entrp">   -223.90312634 </i>
    <i name="e_0_energy">   -223.90312634 </i>
   </energy>
  </scstep>
  <scstep>
   <time name="dav">    2.87    2.89</time>
   <time name="total">    3.13    3.15</time>
   <energy>
    <i name="e_fr_energy">   -223.90272426 </i>
    <i name="e_wo_entrp">   -223.90272426 </i>
    <i name="e_0_energy">   -223.90272426 </i>
   </energy>
  </scstep>
  <scstep>
   <time name="dav">    3.03    3.05</time>
   <time name="total">    3.29    3.31</time>
   <energy>
    <i name="e_fr_energy">   -223.90268870 </i>
    <i name="e_wo_entrp">   -223.90268870 </i>
    <i name="e_0_energy">   -223.90268870 </i>
   </energy>
  </scstep>
  <scstep>
   <time name="dav">    2.65    2.66</time>
   <time name="total">    2.91    2.92</time>
   <energy>
    <i name="e_fr_energy">   -223.90270020 </i>
    <i name="e_wo_entrp">   -223.90270020 </i>
    <i name="e_0_energy">   -223.90270020 </i>
   </energy>
  </scstep>
  <scstep>
   <time name="dav">    3.04    3.05</time>
   <time name="total">    3.30    3.31</time>
   <energy>
    <i name="e_fr_energy">   -223.90269998 </i>
    <i name="e_wo_entrp">   -223.90269998 </i>
    <i name="e_0_energy">   -223.90269998 </i>
   </energy>
  </scstep>
  <scstep>
   <time name="dav">    2.38    2.39</time>
   <time name="total">    2.64    2.65</time>
   <energy>
    <i name="e_fr_energy">   -223.90270101 </i>
    <i name="e_wo_entrp">   -223.90270101 </i>
    <i name="e_0_energy">   -223.90270101 </i>
   </energy>
  </scstep>
  <scstep>
   <time name="dav">    2.04    2.06</time>
   <time name="total">    2.30    2.32</time>
   <energy>
    <i name="e_fr_energy">   -223.90270092 </i>
    <i name="e_wo_entrp">   -223.90270092 </i>
    <i name="e_0_energy">   -223.90270092 </i>
   </energy>
  </scstep>
  <scstep>
   <time name="dav">    1.82    1.83</time>
   <time name="total">    2.08    2.09</time>
   <energy>
    <i name="e_fr_energy">   -223.90270087 </i>
    <i name="e_wo_entrp">   -223.90270087 </i>
    <i name="e_0_energy">   -223.90270087 </i>
   </energy>
  </scstep>
  <scstep>
   <time name="dav">    1.80    1.81</time>
   <time name="total">    1.87    1.88</time>
   <energy>
    <i name="alphaZ">    751.52672365 </i>
    <i name="ewald"> -22871.45941235 </i>
    <i name="hartreedc">  -9078.04353147 </i>
    <i name="XCdc">   1472.51257035 </i>
    <i name="pawpsdc">  29498.18676088 </i>
    <i name="pawaedc"> -32317.54989359 </i>
    <i name="eentropy">     -0.00000000 </i>
    <i name="bandstr">  -5211.25538826 </i>
    <i name="atom">  37532.17946992 </i>
    <i name="e_fr_energy">   -223.90270087 </i>
    <i name="e_wo_entrp">   -223.90270087 </i>
    <i name="e_0_energy">   -223.90270087 </i>
   </energy>
  </scstep>
  <structure>
   <crystal>
    <varray name="basis" >
     <v>      11.20400236       0.00000000       0.00000000 </v>
     <v>       0.00000000      11.20400236       0.00000000 </v>
     <v>       0.00000000       0.00000000      11.20400236 </v>
    </varray>
    <i name="volume">   1406.43470641 </i>
    <varray name="rec_basis" >
     <v>       0.08925382       0.00000000       0.00000000 </v>
     <v>       0.00000000       0.08925382       0.00000000 </v>
     <v>       0.00000000       0.00000000       0.08925382 </v>
    </varray>
   </crystal>
   <varray name="positions" >
    <v>       0.00000000       0.00000000       0.00000000 </v>
    <v>       0.25000000       0.25000000       0.00000000 </v>
    <v>       0.25000000       0.00000000       0.25000000 </v>
    <v>       0.00000000       0.25000000       0.25000000 </v>
    <v>       0.00000000       0.00000000       0.50000000 </v>
    <v>       0.25000000       0.25000000       0.50000000 </v>
    <v>       0.25000000       0.00000000       0.75000000 </v>
    <v>       0.00000000       0.25000000       0.75000000 </v>
    <v>       0.00000000       0.50000000       0.00000000 </v>
    <v>       0.25000000       0.75000000       0.00000000 </v>
    <v>       0.25000000       0.50000000       0.25000000 </v>
    <v>       0.00000000       0.75000000       0.25000000 </v>
    <v>       0.00000000       0.50000000       0.50000000 </v>
    <v>       0.25000000       0.75000000       0.50000000 </v>
    <v>       0.25000000       0.50000000       0.75000000 </v>
    <v>       0.00000000       0.75000000       0.75000000 </v>
    <v>       0.50000000       0.00000000       0.00000000 </v>
    <v>       0.75000000       0.25000000       0.00000000 </v>
    <v>       0.75000000       0.00000000       0.25000000 </v>
    <v>       0.50000000       0.25000000       0.25000000 </v>
    <v>       0.50000000       0.00000000       0.50000000 </v>
    <v>       0.75000000       0.25000000       0.50000000 </v>
    <v>       0.75000000       0.00000000       0.75000000 </v>
    <v>       0.50000000       0.25000000       0.75000000 </v>
    <v>       0.50000000       0.50000000       0.00000000 </v>
    <v>       0.75000000       0.75000000       0.00000000 </v>
    <v>       0.75000000       0.50000000       0.25000000 </v>
    <v>       0.50000000       0.75000000       0.25000000 </v>
    <v>       0.50000000       0.50000000       0.50000000 </v>
    <v>       0.75000000       0.75000000       0.50000000 </v>
    <v>       0.75000000       0.50000000       0.75000000 </v>
    <v>       0.50000000       0.75000000       0.75000000 </v>
    <v>       0.25000000       0.25000000       0.25000000 </v>
    <v>       0.00000000       0.00000000       0.25000000 </v>
    <v>       0.00000000       0.25000000       0.00000000 </v>
    <v>       0.25000000       0.00000000       0.00000000 </v>
    <v>       0.25000000       0.25000000       0.75000000 </v>
    <v>       0.00000000       0.00000000       0.75000000 </v>
    <v>       0.00000000       0.25000000       0.50000000 </v>
    <v>       0.25000000       0.00000000       0.50000000 </v>
    <v>       0.25000000       0.75000000       0.25000000 </v>
    <v>       0.00000000       0.50000000       0.25000000 </v>
    <v>       0.00000000       0.75000000       0.00000000 </v>
    <v>       0.25000000       0.50000000       0.00000000 </v>
    <v>       0.25000000       0.75000000       0.75000000 </v>
    <v>       0.00000000       0.50000000       0.75000000 </v>
    <v>       0.00000000       0.75000000       0.50000000 </v>
    <v>       0.25000000       0.50000000       0.50000000 </v>
    <v>       0.75000000       0.25000000       0.25000000 </v>
    <v>       0.50000000       0.00000000       0.25000000 </v>
    <v>       0.50000000       0.25000000       0.00000000 </v>
    <v>       0.75000000       0.00000000       0.00000000 </v>
    <v>       0.75000000       0.25000000       0.75000000 </v>
    <v>       0.50000000       0.00000000       0.75000000 </v>
    <v>       0.50000000       0.25000000       0.50000000 </v>
    <v>       0.75000000       0.00000000       0.50000000 </v>
    <v>       0.75000000       0.75000000       0.25000000 </v>
    <v>       0.50000000       0.50000000       0.25000000 </v>
    <v>       0.50000000       0.75000000       0.00000000 </v>
    <v>       0.75000000       0.50000000       0.00000000 </v>
    <v>       0.75000000       0.75000000       0.75000000 </v>
    <v>       0.50000000       0.50000000       0.75000000 </v>
    <v>       0.50000000       0.75000000       0.50000000 </v>
    <v>       0.75000000       0.50000000       0.50000000 </v>
   </varray>
  </structure>
  <varray name="forces" >
   <v>       0.00000000       0.00000000       0.00000000 </v>
   <v>      -0.00000000       0.00000000       0.00000000 </v>
   <v>      -0.00000000       0.00000000      -0.00000000 </v>
   <v>       0.00000000      -0.00000000       0.00000000 </v>
   <v>      -0.00000000      -0.00000000      -0.00000000 </v>
   <v>       0.00000000      -0.00000000      -0.00000000 </v>
   <v>      -0.00000000       0.00000000      -0.00000000 </v>
   <v>       0.00000000       0.00000000       0.00000000 </v>
   <v>      -0.00000000       0.00000000       0.00000000 </v>
   <v>       0.00000000      -0.00000000      -0.00000000 </v>
   <v>      -0.00000000      -0.00000000      -0.00000000 </v>
   <v>       0.00000000      -0.00000000      -0.00000000 </v>
   <v>       0.00000000      -0.00000000       0.00000000 </v>
   <v>      -0.00000000       0.00000000      -0.00000000 </v>
   <v>       0.00000000       0.00000000       0.00000000 </v>
   <v>       0.00000000      -0.00000000       0.00000000 </v>
   <v>       0.00000000      -0.00000000       0.00000000 </v>
   <v>      -0.00000000      -0.00000000      -0.00000000 </v>
   <v>       0.00000000      -0.00000000       0.00000000 </v>
   <v>       0.00000000      -0.00000000       0.00000000 </v>
   <v>      -0.00000000       0.00000000      -0.00000000 </v>
   <v>      -0.00000000       0.00000000       0.00000000 </v>
   <v>      -0.00000000      -0.00000000       0.00000000 </v>
   <v>       0.00000000       0.00000000      -0.00000000 </v>
   <v>      -0.00000000      -0.00000000      -0.00000000 </v>
   <v>      -0.00000000       0.00000000       0.00000000 </v>
   <v>      -0.00000000       0.00000000      -0.00000000 </v>
   <v>      -0.00000000      -0.00000000      -0.00000000 </v>
   <v>      -0.00000000      -0.00000000       0.00000000 </v>
   <v>       0.00000000       0.00000000       0.00000000 </v>
   <v>      -0.00000000       0.00000000      -0.00000000 </v>
   <v>      -0.00000000       0.00000000      -0.00000000 </v>
   <v>       0.00000000      -0.00000000      -0.00000000 </v>
   <v>      -0.00000000       0.00000000      -0.00000000 </v>
   <v>       0.00000000      -0.00000000      -0.00000000 </v>
   <v>      -0.00000000      -0.00000000       0.00000000 </v>
   <v>      -0.00000000       0.00000000       0.00000000 </v>
   <v>      -0.00000000      -0.00000000       0.00000000 </v>
   <v>       0.00000000       0.00000000       0.00000000 </v>
   <v>       0.00000000       0.00000000       0.00000000 </v>
   <v>      -0.00000000      -0.00000000      -0.00000000 </v>
   <v>      -0.00000000       0.00000000      -0.00000000 </v>
   <v>      -0.00000000      -0.00000000      -0.00000000 </v>
   <v>      -0.00000000      -0.00000000       0.00000000 </v>
   <v>      -0.00000000      -0.00000000       0.00000000 </v>
   <v>       0.00000000      -0.00000000       0.00000000 </v>
   <v>      -0.00000000      -0.00000000       0.00000000 </v>
   <v>       0.00000000      -0.00000000      -0.00000000 </v>
   <v>      -0.00000000       0.00000000       0.00000000 </v>
   <v>      -0.00000000      -0.00000000       0.00000000 </v>
   <v>       0.00000000       0.00000000       0.00000000 </v>
   <v>      -0.00000000       0.00000000      -0.00000000 </v>
   <v>       0.00000000      -0.00000000      -0.00000000 </v>
   <v>      -0.00000000       0.00000000       0.00000000 </v>
   <v>       0.00000000      -0.00000000      -0.00000000 </v>
   <v>       0.00000000       0.00000000       0.00000000 </v>
   <v>      -0.00000000      -0.00000000       0.00000000 </v>
   <v>       0.00000000      -0.00000000       0.00000000 </v>
   <v>       0.00000000      -0.00000000       0.00000000 </v>
   <v>      -0.00000000       0.00000000      -0.00000000 </v>
   <v>       0.00000000       0.00000000      -0.00000000 </v>
   <v>      -0.00000000       0.00000000       0.00000000 </v>
   <v>      -0.00000000      -0.00000000      -0.00000000 </v>
   <v>       0.00000000       0.00000000       0.00000000 </v>
  </varray>
  <varray name="stress" >
   <v>      -0.37690491       0.00000000       0.00000000 </v>
   <v>       0.00000000      -0.37690491       0.00000000 </v>
   <v>      -0.00000000       0.00000000      -0.37690491 </v>
  </varray>
  <energy>
   <i name="e_fr_energy">   -223.90270087 </i>
   <i name="e_wo_entrp">   -223.90270087 </i>
   <i name="e_0_energy">   -223.90270087 </i>
  </energy>
  <time name="totalsc">   55.56   55.96</time>
  <eigenvalues>
   <array>
    <dimension dim="1">band</dimension>
    <dimension dim="2">kpoint</dimension>
    <dimension dim="3">spin</dimension>
    <field>eigene</field>
    <field>occ</field>
    <set>
     <set comment="spin 1">
      <set comment="kpoint 1">
       <r>  -21.3035    1.0000 </r>
       <r>  -21.3035    1.0000 </r>
       <r>  -21.3035    1.0000 </r>
       <r>  -21.3035    1.0000 </r>
       <r>  -21.2929    1.0000 </r>
       <r>  -21.2929    1.0000 </r>
       <r>  -21.2929    1.0000 </r>
       <r>  -21.2929    1.0000 </r>
       <r>  -21.2929    1.0000 </r>
       <r>  -21.2929    1.0000 </r>
       <r>  -21.2929    1.0000 </r>
       <r>  -21.2929    1.0000 </r>
       <r>  -21.2929    1.0000 </r>
       <r>  -21.2929    1.0000 </r>
       <r>  -21.2929    1.0000 </r>
       <r>  -21.2929    1.0000 </r>
       <r>  -21.2927    1.0000 </r>
       <r>  -21.2927    1.0000 </r>
       <r>  -21.2927    1.0000 </r>
       <r>  -21.2856    1.0000 </r>
       <r>  -21.2856    1.0000 </r>
       <r>  -21.2856    1.0000 </r>
       <r>  -21.2856    1.0000 </r>
       <r>  -21.2856    1.0000 </r>
       <r>  -21.2856    1.0000 </r>
       <r>  -21.2856    1.0000 </r>
       <r>  -21.2856    1.0000 </r>
       <r>  -21.2856    1.0000 </r>
       <r>  -21.2856    1.0000 </r>
       <r>  -21.2856    1.0000 </r>
       <r>  -21.2856    1.0000 </r>
       <r>  -21.2837    1.0000 </r>
       <r>  -21.2837    1.0000 </r>
       <r>  -21.2837    1.0000 </r>
       <r>  -21.2837    1.0000 </r>
       <r>  -21.2837    1.0000 </r>
       <r>  -21.2837    1.0000 </r>
       <r>  -21.2812    1.0000 </r>
       <r>  -21.2812    1.0000 </r>
       <r>  -21.2812    1.0000 </r>
       <r>  -21.2812    1.0000 </r>
       <r>  -21.2812    1.0000 </r>
       <r>  -21.2812    1.0000 </r>
       <r>  -21.2799    1.0000 </r>
       <r>  -21.2799    1.0000 </r>
       <r>  -21.2799    1.0000 </r>
       <r>  -21.2799    1.0000 </r>
       <r>  -21.2799    1.0000 </r>
       <r>  -21.2799    1.0000 </r>
       <r>  -21.2799    1.0000 </r>
       <r>  -21.2799    1.0000 </r>
       <r>  -21.2799    1.0000 </r>
       <r>  -21.2799    1.0000 </r>
       <r>  -21.2799    1.0000 </r>
       <r>  -21.2799    1.0000 </r>
       <r>  -21.2787    1.0000 </r>
       <r>  -21.2787    1.0000 </r>
       <r>  -21.2787    1.0000 </r>
       <r>  -21.2787    1.0000 </r>
       <r>  -21.2787    1.0000 </r>
       <r>  -21.2787    1.0000 </r>
       <r>  -21.2741    1.0000 </r>
       <r>  -21.2741    1.0000 </r>
       <r>  -21.2741    1.0000 </r>
       <r>  -21.2741    1.0000 </r>
       <r>  -21.2741    1.0000 </r>
       <r>  -21.2741    1.0000 </r>
       <r>  -21.2741    1.0000 </r>
       <r>  -21.2741    1.0000 </r>
       <r>  -21.2741    1.0000 </r>
       <r>  -21.2741    1.0000 </r>
       <r>  -21.2741    1.0000 </r>
       <r>  -21.2741    1.0000 </r>
       <r>  -21.2718    1.0000 </r>
       <r>  -21.2718    1.0000 </r>
       <r>  -21.2718    1.0000 </r>
       <r>  -21.2718    1.0000 </r>
       <r>  -21.2718    1.0000 </r>
       <r>  -21.2718    1.0000 </r>
       <r>  -21.2718    1.0000 </r>
       <r>  -21.2718    1.0000 </r>
       <r>  -21.2718    1.0000 </r>
       <r>  -21.2718    1.0000 </r>
       <r>  -21.2718    1.0000 </r>
       <r>  -21.2718    1.0000 </r>
       <r>  -21.2718    1.0000 </r>
       <r>  -21.2718    1.0000 </r>
       <r>  -21.2718    1.0000 </r>
       <r>  -21.2718    1.0000 </r>
       <r>  -21.2718    1.0000 </r>
       <r>  -21.2718    1.0000 </r>
       <r>  -21.2718    1.0000 </r>
       <r>  -21.2718    1.0000 </r>
       <r>  -21.2693    1.0000 </r>
       <r>  -21.2693    1.0000 </r>
       <r>  -21.2693    1.0000 </r>
       <r>  -13.3579    1.0000 </r>
       <r>  -13.1373    1.0000 </r>
       <r>  -13.1373    1.0000 </r>
       <r>  -13.1373    1.0000 </r>
       <r>  -13.1373    1.0000 </r>
       <r>  -13.1373    1.0000 </r>
       <r>  -13.1373    1.0000 </r>
       <r>  -13.0112    1.0000 </r>
       <r>  -13.0112    1.0000 </r>
       <r>  -13.0112    1.0000 </r>
       <r>  -13.0112    1.0000 </r>
       <r>  -13.0112    1.0000 </r>
       <r>  -13.0112    1.0000 </r>
       <r>  -13.0112    1.0000 </r>
       <r>  -13.0112    1.0000 </r>
       <r>  -13.0112    1.0000 </r>
       <r>  -13.0112    1.0000 </r>
       <r>  -13.0112    1.0000 </r>
       <r>  -13.0112    1.0000 </r>
       <r>  -12.9900    1.0000 </r>
       <r>  -12.9900    1.0000 </r>
       <r>  -12.9900    1.0000 </r>
       <r>  -12.9900    1.0000 </r>
       <r>  -12.9408    1.0000 </r>
       <r>  -12.9408    1.0000 </r>
       <r>  -12.9408    1.0000 </r>
       <r>  -12.9215    1.0000 </r>
       <r>  -12.9215    1.0000 </r>
       <r>  -12.9215    1.0000 </r>
       <r>  -12.9215    1.0000 </r>
       <r>  -12.9215    1.0000 </r>
       <r>  -12.9215    1.0000 </r>
       <r>   -2.6999    1.0000 </r>
       <r>   -2.6999    1.0000 </r>
       <r>   -2.6999    1.0000 </r>
       <r>   -2.6999    1.0000 </r>
       <r>   -2.4239    1.0000 </r>
       <r>   -2.4239    1.0000 </r>
       <r>   -2.4239    1.0000 </r>
       <r>   -2.2042    1.0000 </r>
       <r>   -2.2042    1.0000 </r>
       <r>   -2.2042    1.0000 </r>
       <r>   -2.2042    1.0000 </r>
       <r>   -2.2042    1.0000 </r>
       <r>   -2.2042    1.0000 </r>
       <r>   -2.2042    1.0000 </r>
       <r>   -2.2042    1.0000 </r>
       <r>   -2.2042    1.0000 </r>
       <r>   -2.2042    1.0000 </r>
       <r>   -2.2042    1.0000 </r>
       <r>   -2.2042    1.0000 </r>
       <r>   -1.9246    1.0000 </r>
       <r>   -1.9246    1.0000 </r>
       <r>   -1.9246    1.0000 </r>
       <r>   -1.9246    1.0000 </r>
       <r>   -1.9246    1.0000 </r>
       <r>   -1.9246    1.0000 </r>
       <r>   -1.9246    1.0000 </r>
       <r>   -1.9246    1.0000 </r>
       <r>   -1.9246    1.0000 </r>
       <r>   -1.9246    1.0000 </r>
       <r>   -1.9246    1.0000 </r>
       <r>   -1.9246    1.0000 </r>
       <r>   -1.7966    1.0000 </r>
       <r>   -1.7966    1.0000 </r>
       <r>   -1.7966    1.0000 </r>
       <r>   -1.7966    1.0000 </r>
       <r>   -1.7966    1.0000 </r>
       <r>   -1.7966    1.0000 </r>
       <r>   -1.5053    1.0000 </r>
       <r>   -1.5053    1.0000 </r>
       <r>   -1.5053    1.0000 </r>
       <r>   -1.5053    1.0000 </r>
       <r>   -1.5053    1.0000 </r>
       <r>   -1.5053    1.0000 </r>
       <r>   -1.5053    1.0000 </r>
       <r>   -1.5053    1.0000 </r>
       <r>   -1.5053    1.0000 </r>
       <r>   -1.5053    1.0000 </r>
       <r>   -1.5053    1.0000 </r>
       <r>   -1.5053    1.0000 </r>
       <r>   -1.4629    1.0000 </r>
       <r>   -1.4629    1.0000 </r>
       <r>   -1.4629    1.0000 </r>
       <r>   -1.4629    1.0000 </r>
       <r>   -1.4629    1.0000 </r>
       <r>   -1.4629    1.0000 </r>
       <r>   -1.2947    1.0000 </r>
       <r>   -1.2947    1.0000 </r>
       <r>   -1.2947    1.0000 </r>
       <r>   -1.2947    1.0000 </r>
       <r>   -1.2947    1.0000 </r>
       <r>   -1.2947    1.0000 </r>
       <r>   -1.0007    1.0000 </r>
       <r>   -1.0007    1.0000 </r>
       <r>   -1.0007    1.0000 </r>
       <r>   -1.0007    1.0000 </r>
       <r>   -1.0007    1.0000 </r>
       <r>   -1.0007    1.0000 </r>
       <r>   -1.0007    1.0000 </r>
       <r>   -1.0007    1.0000 </r>
       <r>   -1.0007    1.0000 </r>
       <r>   -1.0007    1.0000 </r>
       <r>   -1.0007    1.0000 </r>
       <r>   -1.0007    1.0000 </r>
       <r>   -0.9479    1.0000 </r>
       <r>   -0.9479    1.0000 </r>
       <r>   -0.9479    1.0000 </r>
       <r>   -0.9479    1.0000 </r>
       <r>   -0.9479    1.0000 </r>
       <r>   -0.9479    1.0000 </r>
       <r>   -0.9479    1.0000 </r>
       <r>   -0.9479    1.0000 </r>
       <r>   -0.9479    1.0000 </r>
       <r>   -0.9479    1.0000 </r>
       <r>   -0.9479    1.0000 </r>
       <r>   -0.9479    1.0000 </r>
       <r>   -0.9459    1.0000 </r>
       <r>   -0.9458    1.0000 </r>
       <r>   -0.9458    1.0000 </r>
       <r>   -0.9458    1.0000 </r>
       <r>   -0.9458    1.0000 </r>
       <r>   -0.9458    1.0000 </r>
       <r>   -0.9458    1.0000 </r>
       <r>   -0.9458    1.0000 </r>
       <r>   -0.6650    1.0000 </r>
       <r>   -0.6650    1.0000 </r>
       <r>   -0.6650    1.0000 </r>
       <r>    4.3403    0.0000 </r>
       <r>    6.3682    0.0000 </r>
       <r>    6.3682    0.0000 </r>
       <r>    6.3682    0.0000 </r>
       <r>    6.3682    0.0000 </r>
       <r>    6.3682    0.0000 </r>
       <r>    6.3682    0.0000 </r>
       <r>    6.4446    0.0000 </r>
       <r>    6.4446    0.0000 </r>
       <r>    6.4446    0.0000 </r>
       <r>    6.4446    0.0000 </r>
       <r>    6.8280    0.0000 </r>
       <r>    6.8280    0.0000 </r>
       <r>    6.8280    0.0000 </r>
       <r>    7.2069    0.0000 </r>
       <r>    7.2069    0.0000 </r>
       <r>    7.2069    0.0000 </r>
       <r>    7.4642    0.0000 </r>
       <r>    7.4642    0.0000 </r>
       <r>    7.4642    0.0000 </r>
       <r>    7.4642    0.0000 </r>
       <r>    7.4642    0.0000 </r>
       <r>    7.4642    0.0000 </r>
       <r>    7.4642    0.0000 </r>
       <r>    7.4642    0.0000 </r>
       <r>    7.4642    0.0000 </r>
       <r>    7.4642    0.0000 </r>
       <r>    7.4642    0.0000 </r>
       <r>    7.4642    0.0000 </r>
       <r>    8.1684    0.0000 </r>
       <r>    8.1684    0.0000 </r>
       <r>    8.1684    0.0000 </r>
       <r>    8.1684    0.0000 </r>
       <r>    8.1684    0.0000 </r>
       <r>    8.1684    0.0000 </r>
       <r>    8.2796    0.0000 </r>
       <r>    8.2796    0.0000 </r>
       <r>    8.2796    0.0000 </r>
       <r>    8.2796    0.0000 </r>
       <r>    8.2796    0.0000 </r>
       <r>    8.2796    0.0000 </r>
       <r>    8.9020    0.0000 </r>
       <r>    8.9031    0.0000 </r>
       <r>    8.9049    0.0000 </r>
       <r>    8.9061    0.0000 </r>
       <r>    8.9082    0.0000 </r>
       <r>    8.9129    0.0000 </r>
       <r>    8.9146    0.0000 </r>
      </set>
      <set comment="kpoint 2">
       <r>  -21.2991    1.0000 </r>
       <r>  -21.2991    1.0000 </r>
       <r>  -21.2991    1.0000 </r>
       <r>  -21.2991    1.0000 </r>
       <r>  -21.2991    1.0000 </r>
       <r>  -21.2991    1.0000 </r>
       <r>  -21.2991    1.0000 </r>
       <r>  -21.2991    1.0000 </r>
       <r>  -21.2911    1.0000 </r>
       <r>  -21.2911    1.0000 </r>
       <r>  -21.2911    1.0000 </r>
       <r>  -21.2911    1.0000 </r>
       <r>  -21.2911    1.0000 </r>
       <r>  -21.2911    1.0000 </r>
       <r>  -21.2911    1.0000 </r>
       <r>  -21.2911    1.0000 </r>
       <r>  -21.2906    1.0000 </r>
       <r>  -21.2906    1.0000 </r>
       <r>  -21.2906    1.0000 </r>
       <r>  -21.2906    1.0000 </r>
       <r>  -21.2906    1.0000 </r>
       <r>  -21.2906    1.0000 </r>
       <r>  -21.2882    1.0000 </r>
       <r>  -21.2882    1.0000 </r>
       <r>  -21.2882    1.0000 </r>
       <r>  -21.2882    1.0000 </r>
       <r>  -21.2882    1.0000 </r>
       <r>  -21.2882    1.0000 </r>
       <r>  -21.2882    1.0000 </r>
       <r>  -21.2882    1.0000 </r>
       <r>  -21.2840    1.0000 </r>
       <r>  -21.2840    1.0000 </r>
       <r>  -21.2840    1.0000 </r>
       <r>  -21.2840    1.0000 </r>
       <r>  -21.2840    1.0000 </r>
       <r>  -21.2840    1.0000 </r>
       <r>  -21.2840    1.0000 </r>
       <r>  -21.2840    1.0000 </r>
       <r>  -21.2808    1.0000 </r>
       <r>  -21.2808    1.0000 </r>
       <r>  -21.2808    1.0000 </r>
       <r>  -21.2808    1.0000 </r>
       <r>  -21.2800    1.0000 </r>
       <r>  -21.2800    1.0000 </r>
       <r>  -21.2800    1.0000 </r>
       <r>  -21.2800    1.0000 </r>
       <r>  -21.2773    1.0000 </r>
       <r>  -21.2773    1.0000 </r>
       <r>  -21.2773    1.0000 </r>
       <r>  -21.2773    1.0000 </r>
       <r>  -21.2758    1.0000 </r>
       <r>  -21.2758    1.0000 </r>
       <r>  -21.2758    1.0000 </r>
       <r>  -21.2758    1.0000 </r>
       <r>  -21.2758    1.0000 </r>
       <r>  -21.2758    1.0000 </r>
       <r>  -21.2758    1.0000 </r>
       <r>  -21.2758    1.0000 </r>
       <r>  -21.2758    1.0000 </r>
       <r>  -21.2758    1.0000 </r>
       <r>  -21.2758    1.0000 </r>
       <r>  -21.2758    1.0000 </r>
       <r>  -21.2758    1.0000 </r>
       <r>  -21.2758    1.0000 </r>
       <r>  -21.2758    1.0000 </r>
       <r>  -21.2758    1.0000 </r>
       <r>  -21.2749    1.0000 </r>
       <r>  -21.2749    1.0000 </r>
       <r>  -21.2749    1.0000 </r>
       <r>  -21.2749    1.0000 </r>
       <r>  -21.2749    1.0000 </r>
       <r>  -21.2749    1.0000 </r>
       <r>  -21.2749    1.0000 </r>
       <r>  -21.2749    1.0000 </r>
       <r>  -21.2741    1.0000 </r>
       <r>  -21.2741    1.0000 </r>
       <r>  -21.2721    1.0000 </r>
       <r>  -21.2721    1.0000 </r>
       <r>  -21.2721    1.0000 </r>
       <r>  -21.2721    1.0000 </r>
       <r>  -21.2721    1.0000 </r>
       <r>  -21.2721    1.0000 </r>
       <r>  -21.2721    1.0000 </r>
       <r>  -21.2721    1.0000 </r>
       <r>  -21.2718    1.0000 </r>
       <r>  -21.2718    1.0000 </r>
       <r>  -21.2718    1.0000 </r>
       <r>  -21.2718    1.0000 </r>
       <r>  -21.2718    1.0000 </r>
       <r>  -21.2718    1.0000 </r>
       <r>  -21.2718    1.0000 </r>
       <r>  -21.2718    1.0000 </r>
       <r>  -21.2708    1.0000 </r>
       <r>  -21.2708    1.0000 </r>
       <r>  -21.2708    1.0000 </r>
       <r>  -21.2708    1.0000 </r>
       <r>  -13.2911    1.0000 </r>
       <r>  -13.2911    1.0000 </r>
       <r>  -13.0968    1.0000 </r>
       <r>  -13.0968    1.0000 </r>
       <r>  -13.0968    1.0000 </r>
       <r>  -13.0968    1.0000 </r>
       <r>  -13.0968    1.0000 </r>
       <r>  -13.0968    1.0000 </r>
       <r>  -13.0968    1.0000 </r>
       <r>  -13.0968    1.0000 </r>
       <r>  -13.0006    1.0000 </r>
       <r>  -13.0006    1.0000 </r>
       <r>  -13.0006    1.0000 </r>
       <r>  -13.0006    1.0000 </r>
       <r>  -13.0006    1.0000 </r>
       <r>  -13.0006    1.0000 </r>
       <r>  -13.0006    1.0000 </r>
       <r>  -13.0006    1.0000 </r>
       <r>  -12.9955    1.0000 </r>
       <r>  -12.9955    1.0000 </r>
       <r>  -12.9438    1.0000 </r>
       <r>  -12.9438    1.0000 </r>
       <r>  -12.9438    1.0000 </r>
       <r>  -12.9438    1.0000 </r>
       <r>  -12.9438    1.0000 </r>
       <r>  -12.9438    1.0000 </r>
       <r>  -12.9438    1.0000 </r>
       <r>  -12.9438    1.0000 </r>
       <r>  -12.9312    1.0000 </r>
       <r>  -12.9312    1.0000 </r>
       <r>  -12.9312    1.0000 </r>
       <r>  -12.9312    1.0000 </r>
       <r>   -2.5043    1.0000 </r>
       <r>   -2.5043    1.0000 </r>
       <r>   -2.5043    1.0000 </r>
       <r>   -2.5043    1.0000 </r>
       <r>   -2.5043    1.0000 </r>
       <r>   -2.5043    1.0000 </r>
       <r>   -2.5043    1.0000 </r>
       <r>   -2.5043    1.0000 </r>
       <r>   -2.2876    1.0000 </r>
       <r>   -2.2876    1.0000 </r>
       <r>   -2.2876    1.0000 </r>
       <r>   -2.2876    1.0000 </r>
       <r>   -2.2741    1.0000 </r>
       <r>   -2.2741    1.0000 </r>
       <r>   -2.1364    1.0000 </r>
       <r>   -2.1364    1.0000 </r>
       <r>   -2.1364    1.0000 </r>
       <r>   -2.1364    1.0000 </r>
       <r>   -2.1364    1.0000 </r>
       <r>   -2.1364    1.0000 </r>
       <r>   -2.1364    1.0000 </r>
       <r>   -2.1364    1.0000 </r>
       <r>   -1.9854    1.0000 </r>
       <r>   -1.9854    1.0000 </r>
       <r>   -1.9854    1.0000 </r>
       <r>   -1.9854    1.0000 </r>
       <r>   -1.9854    1.0000 </r>
       <r>   -1.9854    1.0000 </r>
       <r>   -1.9854    1.0000 </r>
       <r>   -1.9854    1.0000 </r>
       <r>   -1.8088    1.0000 </r>
       <r>   -1.8088    1.0000 </r>
       <r>   -1.8088    1.0000 </r>
       <r>   -1.8088    1.0000 </r>
       <r>   -1.8088    1.0000 </r>
       <r>   -1.8088    1.0000 </r>
       <r>   -1.8088    1.0000 </r>
       <r>   -1.8088    1.0000 </r>
       <r>   -1.4977    1.0000 </r>
       <r>   -1.4977    1.0000 </r>
       <r>   -1.4977    1.0000 </r>
       <r>   -1.4977    1.0000 </r>
       <r>   -1.3804    1.0000 </r>
       <r>   -1.3804    1.0000 </r>
       <r>   -1.3804    1.0000 </r>
       <r>   -1.3804    1.0000 </r>
       <r>   -1.2122    1.0000 </r>
       <r>   -1.2122    1.0000 </r>
       <r>   -1.2122    1.0000 </r>
       <r>   -1.2122    1.0000 </r>
       <r>   -1.1909    1.0000 </r>
       <r>   -1.1909    1.0000 </r>
       <r>   -1.1909    1.0000 </r>
       <r>   -1.1909    1.0000 </r>
       <r>   -1.1909    1.0000 </r>
       <r>   -1.1909    1.0000 </r>
       <r>   -1.1909    1.0000 </r>
       <r>   -1.1909    1.0000 </r>
       <r>   -1.1742    1.0000 </r>
       <r>   -1.1742    1.0000 </r>
       <r>   -1.1742    1.0000 </r>
       <r>   -1.1742    1.0000 </r>
       <r>   -1.1742    1.0000 </r>
       <r>   -1.1742    1.0000 </r>
       <r>   -1.1742    1.0000 </r>
       <r>   -1.1742    1.0000 </r>
       <r>   -1.1597    1.0000 </r>
       <r>   -1.1597    1.0000 </r>
       <r>   -1.1597    1.0000 </r>
       <r>   -1.1597    1.0000 </r>
       <r>   -1.1597    1.0000 </r>
       <r>   -1.1597    1.0000 </r>
       <r>   -1.1597    1.0000 </r>
       <r>   -1.1597    1.0000 </r>
       <r>   -1.0833    1.0000 </r>
       <r>   -1.0833    1.0000 </r>
       <r>   -0.9469    1.0000 </r>
       <r>   -0.9469    1.0000 </r>
       <r>   -0.9469    1.0000 </r>
       <r>   -0.9469    1.0000 </r>
       <r>   -0.9469    1.0000 </r>
       <r>   -0.9469    1.0000 </r>
       <r>   -0.9469    1.0000 </r>
       <r>   -0.9469    1.0000 </r>
       <r>   -0.9325    1.0000 </r>
       <r>   -0.9325    1.0000 </r>
       <r>   -0.9325    1.0000 </r>
       <r>   -0.9325    1.0000 </r>
       <r>   -0.9325    1.0000 </r>
       <r>   -0.9325    1.0000 </r>
       <r>   -0.9325    1.0000 </r>
       <r>   -0.9325    1.0000 </r>
       <r>   -0.7684    1.0000 </r>
       <r>   -0.7684    1.0000 </r>
       <r>   -0.7684    1.0000 </r>
       <r>   -0.7684    1.0000 </r>
       <r>    5.0224    0.0000 </r>
       <r>    5.0224    0.0000 </r>
       <r>    6.7184    0.0000 </r>
       <r>    6.7184    0.0000 </r>
       <r>    6.7184    0.0000 </r>
       <r>    6.7184    0.0000 </r>
       <r>    6.7184    0.0000 </r>
       <r>    6.7184    0.0000 </r>
       <r>    6.7184    0.0000 </r>
       <r>    6.7184    0.0000 </r>
       <r>    6.8432    0.0000 </r>
       <r>    6.8432    0.0000 </r>
       <r>    6.8432    0.0000 </r>
       <r>    6.8432    0.0000 </r>
       <r>    6.8432    0.0000 </r>
       <r>    6.8432    0.0000 </r>
       <r>    6.8432    0.0000 </r>
       <r>    6.8432    0.0000 </r>
       <r>    6.9711    0.0000 </r>
       <r>    6.9711    0.0000 </r>
       <r>    7.3626    0.0000 </r>
       <r>    7.3626    0.0000 </r>
       <r>    7.3626    0.0000 </r>
       <r>    7.3626    0.0000 </r>
       <r>    7.4803    0.0000 </r>
       <r>    7.4803    0.0000 </r>
       <r>    7.7146    0.0000 </r>
       <r>    7.7146    0.0000 </r>
       <r>    7.7146    0.0000 </r>
       <r>    7.7146    0.0000 </r>
       <r>    8.2660    0.0000 </r>
       <r>    8.2660    0.0000 </r>
       <r>    8.2660    0.0000 </r>
       <r>    8.2660    0.0000 </r>
       <r>    8.2660    0.0000 </r>
       <r>    8.2660    0.0000 </r>
       <r>    8.2660    0.0000 </r>
       <r>    8.2660    0.0000 </r>
       <r>    8.5383    0.0000 </r>
       <r>    8.5383    0.0000 </r>
       <r>    8.5384    0.0000 </r>
       <r>    8.5385    0.0000 </r>
       <r>    8.5386    0.0000 </r>
       <r>    8.5386    0.0000 </r>
       <r>    8.5387    0.0000 </r>
       <r>    8.5387    0.0000 </r>
       <r>    8.5387    0.0000 </r>
       <r>    8.5387    0.0000 </r>
      </set>
      <set comment="kpoint 3">
       <r>  -21.2968    1.0000 </r>
       <r>  -21.2968    1.0000 </r>
       <r>  -21.2968    1.0000 </r>
       <r>  -21.2968    1.0000 </r>
       <r>  -21.2968    1.0000 </r>
       <r>  -21.2968    1.0000 </r>
       <r>  -21.2968    1.0000 </r>
       <r>  -21.2968    1.0000 </r>
       <r>  -21.2938    1.0000 </r>
       <r>  -21.2938    1.0000 </r>
       <r>  -21.2938    1.0000 </r>
       <r>  -21.2938    1.0000 </r>
       <r>  -21.2938    1.0000 </r>
       <r>  -21.2938    1.0000 </r>
       <r>  -21.2938    1.0000 </r>
       <r>  -21.2938    1.0000 </r>
       <r>  -21.2914    1.0000 </r>
       <r>  -21.2914    1.0000 </r>
       <r>  -21.2914    1.0000 </r>
       <r>  -21.2914    1.0000 </r>
       <r>  -21.2914    1.0000 </r>
       <r>  -21.2914    1.0000 </r>
       <r>  -21.2914    1.0000 </r>
       <r>  -21.2914    1.0000 </r>
       <r>  -21.2887    1.0000 </r>
       <r>  -21.2887    1.0000 </r>
       <r>  -21.2887    1.0000 </r>
       <r>  -21.2887    1.0000 </r>
       <r>  -21.2868    1.0000 </r>
       <r>  -21.2868    1.0000 </r>
       <r>  -21.2868    1.0000 </r>
       <r>  -21.2868    1.0000 </r>
       <r>  -21.2803    1.0000 </r>
       <r>  -21.2803    1.0000 </r>
       <r>  -21.2803    1.0000 </r>
       <r>  -21.2803    1.0000 </r>
       <r>  -21.2793    1.0000 </r>
       <r>  -21.2793    1.0000 </r>
       <r>  -21.2793    1.0000 </r>
       <r>  -21.2793    1.0000 </r>
       <r>  -21.2793    1.0000 </r>
       <r>  -21.2793    1.0000 </r>
       <r>  -21.2793    1.0000 </r>
       <r>  -21.2793    1.0000 </r>
       <r>  -21.2789    1.0000 </r>
       <r>  -21.2789    1.0000 </r>
       <r>  -21.2789    1.0000 </r>
       <r>  -21.2789    1.0000 </r>
       <r>  -21.2789    1.0000 </r>
       <r>  -21.2789    1.0000 </r>
       <r>  -21.2789    1.0000 </r>
       <r>  -21.2789    1.0000 </r>
       <r>  -21.2769    1.0000 </r>
       <r>  -21.2769    1.0000 </r>
       <r>  -21.2769    1.0000 </r>
       <r>  -21.2769    1.0000 </r>
       <r>  -21.2769    1.0000 </r>
       <r>  -21.2769    1.0000 </r>
       <r>  -21.2769    1.0000 </r>
       <r>  -21.2769    1.0000 </r>
       <r>  -21.2763    1.0000 </r>
       <r>  -21.2763    1.0000 </r>
       <r>  -21.2763    1.0000 </r>
       <r>  -21.2763    1.0000 </r>
       <r>  -21.2744    1.0000 </r>
       <r>  -21.2744    1.0000 </r>
       <r>  -21.2744    1.0000 </r>
       <r>  -21.2744    1.0000 </r>
       <r>  -21.2744    1.0000 </r>
       <r>  -21.2744    1.0000 </r>
       <r>  -21.2744    1.0000 </r>
       <r>  -21.2744    1.0000 </r>
       <r>  -21.2729    1.0000 </r>
       <r>  -21.2729    1.0000 </r>
       <r>  -21.2729    1.0000 </r>
       <r>  -21.2729    1.0000 </r>
       <r>  -21.2729    1.0000 </r>
       <r>  -21.2729    1.0000 </r>
       <r>  -21.2729    1.0000 </r>
       <r>  -21.2729    1.0000 </r>
       <r>  -21.2727    1.0000 </r>
       <r>  -21.2727    1.0000 </r>
       <r>  -21.2727    1.0000 </r>
       <r>  -21.2727    1.0000 </r>
       <r>  -21.2727    1.0000 </r>
       <r>  -21.2727    1.0000 </r>
       <r>  -21.2727    1.0000 </r>
       <r>  -21.2727    1.0000 </r>
       <r>  -21.2722    1.0000 </r>
       <r>  -21.2722    1.0000 </r>
       <r>  -21.2722    1.0000 </r>
       <r>  -21.2722    1.0000 </r>
       <r>  -21.2697    1.0000 </r>
       <r>  -21.2697    1.0000 </r>
       <r>  -21.2697    1.0000 </r>
       <r>  -21.2697    1.0000 </r>
       <r>  -13.2316    1.0000 </r>
       <r>  -13.2316    1.0000 </r>
       <r>  -13.2316    1.0000 </r>
       <r>  -13.2316    1.0000 </r>
       <r>  -13.0648    1.0000 </r>
       <r>  -13.0648    1.0000 </r>
       <r>  -13.0648    1.0000 </r>
       <r>  -13.0648    1.0000 </r>
       <r>  -13.0648    1.0000 </r>
       <r>  -13.0648    1.0000 </r>
       <r>  -13.0648    1.0000 </r>
       <r>  -13.0648    1.0000 </r>
       <r>  -12.9764    1.0000 </r>
       <r>  -12.9764    1.0000 </r>
       <r>  -12.9764    1.0000 </r>
       <r>  -12.9764    1.0000 </r>
       <r>  -12.9764    1.0000 </r>
       <r>  -12.9764    1.0000 </r>
       <r>  -12.9764    1.0000 </r>
       <r>  -12.9764    1.0000 </r>
       <r>  -12.9562    1.0000 </r>
       <r>  -12.9562    1.0000 </r>
       <r>  -12.9562    1.0000 </r>
       <r>  -12.9562    1.0000 </r>
       <r>  -12.9562    1.0000 </r>
       <r>  -12.9562    1.0000 </r>
       <r>  -12.9562    1.0000 </r>
       <r>  -12.9562    1.0000 </r>
       <r>  -12.9307    1.0000 </r>
       <r>  -12.9307    1.0000 </r>
       <r>  -12.9307    1.0000 </r>
       <r>  -12.9307    1.0000 </r>
       <r>   -2.4129    1.0000 </r>
       <r>   -2.4129    1.0000 </r>
       <r>   -2.4129    1.0000 </r>
       <r>   -2.4129    1.0000 </r>
       <r>   -2.4129    1.0000 </r>
       <r>   -2.4129    1.0000 </r>
       <r>   -2.4129    1.0000 </r>
       <r>   -2.4129    1.0000 </r>
       <r>   -2.2479    1.0000 </r>
       <r>   -2.2479    1.0000 </r>
       <r>   -2.2479    1.0000 </r>
       <r>   -2.2479    1.0000 </r>
       <r>   -2.2479    1.0000 </r>
       <r>   -2.2479    1.0000 </r>
       <r>   -2.2479    1.0000 </r>
       <r>   -2.2479    1.0000 </r>
       <r>   -2.2474    1.0000 </r>
       <r>   -2.2474    1.0000 </r>
       <r>   -2.2474    1.0000 </r>
       <r>   -2.2474    1.0000 </r>
       <r>   -2.2474    1.0000 </r>
       <r>   -2.2474    1.0000 </r>
       <r>   -2.2474    1.0000 </r>
       <r>   -2.2474    1.0000 </r>
       <r>   -2.1564    1.0000 </r>
       <r>   -2.1564    1.0000 </r>
       <r>   -2.1564    1.0000 </r>
       <r>   -2.1564    1.0000 </r>
       <r>   -1.8470    1.0000 </r>
       <r>   -1.8470    1.0000 </r>
       <r>   -1.8470    1.0000 </r>
       <r>   -1.8470    1.0000 </r>
       <r>   -1.4770    1.0000 </r>
       <r>   -1.4770    1.0000 </r>
       <r>   -1.4770    1.0000 </r>
       <r>   -1.4770    1.0000 </r>
       <r>   -1.4770    1.0000 </r>
       <r>   -1.4770    1.0000 </r>
       <r>   -1.4770    1.0000 </r>
       <r>   -1.4770    1.0000 </r>
       <r>   -1.4684    1.0000 </r>
       <r>   -1.4684    1.0000 </r>
       <r>   -1.4684    1.0000 </r>
       <r>   -1.4684    1.0000 </r>
       <r>   -1.4033    1.0000 </r>
       <r>   -1.4033    1.0000 </r>
       <r>   -1.4033    1.0000 </r>
       <r>   -1.4033    1.0000 </r>
       <r>   -1.4033    1.0000 </r>
       <r>   -1.4033    1.0000 </r>
       <r>   -1.4033    1.0000 </r>
       <r>   -1.4033    1.0000 </r>
       <r>   -1.2266    1.0000 </r>
       <r>   -1.2266    1.0000 </r>
       <r>   -1.2266    1.0000 </r>
       <r>   -1.2266    1.0000 </r>
       <r>   -1.2266    1.0000 </r>
       <r>   -1.2266    1.0000 </r>
       <r>   -1.2266    1.0000 </r>
       <r>   -1.2266    1.0000 </r>
       <r>   -1.1886    1.0000 </r>
       <r>   -1.1886    1.0000 </r>
       <r>   -1.1886    1.0000 </r>
       <r>   -1.1886    1.0000 </r>
       <r>   -1.1020    1.0000 </r>
       <r>   -1.1020    1.0000 </r>
       <r>   -1.1020    1.0000 </r>
       <r>   -1.1020    1.0000 </r>
       <r>   -1.1020    1.0000 </r>
       <r>   -1.1020    1.0000 </r>
       <r>   -1.1020    1.0000 </r>
       <r>   -1.1020    1.0000 </r>
       <r>   -1.0181    1.0000 </r>
       <r>   -1.0181    1.0000 </r>
       <r>   -1.0181    1.0000 </r>
       <r>   -1.0181    1.0000 </r>
       <r>   -1.0181    1.0000 </r>
       <r>   -1.0181    1.0000 </r>
       <r>   -1.0181    1.0000 </r>
       <r>   -1.0181    1.0000 </r>
       <r>   -0.9735    1.0000 </r>
       <r>   -0.9735    1.0000 </r>
       <r>   -0.9735    1.0000 </r>
       <r>   -0.9735    1.0000 </r>
       <r>   -0.9735    1.0000 </r>
       <r>   -0.9735    1.0000 </r>
       <r>   -0.9735    1.0000 </r>
       <r>   -0.9735    1.0000 </r>
       <r>   -0.8897    1.0000 </r>
       <r>   -0.8897    1.0000 </r>
       <r>   -0.8897    1.0000 </r>
       <r>   -0.8897    1.0000 </r>
       <r>   -0.7391    1.0000 </r>
       <r>   -0.7391    1.0000 </r>
       <r>   -0.7391    1.0000 </r>
       <r>   -0.7391    1.0000 </r>
       <r>    5.5395    0.0000 </r>
       <r>    5.5395    0.0000 </r>
       <r>    5.5395    0.0000 </r>
       <r>    5.5395    0.0000 </r>
       <r>    6.6391    0.0000 </r>
       <r>    6.6391    0.0000 </r>
       <r>    6.6391    0.0000 </r>
       <r>    6.6391    0.0000 </r>
       <r>    6.6391    0.0000 </r>
       <r>    6.6391    0.0000 </r>
       <r>    6.6391    0.0000 </r>
       <r>    6.6391    0.0000 </r>
       <r>    7.4769    0.0000 </r>
       <r>    7.4769    0.0000 </r>
       <r>    7.4769    0.0000 </r>
       <r>    7.4769    0.0000 </r>
       <r>    7.4850    0.0000 </r>
       <r>    7.4850    0.0000 </r>
       <r>    7.4850    0.0000 </r>
       <r>    7.4850    0.0000 </r>
       <r>    7.4850    0.0000 </r>
       <r>    7.4850    0.0000 </r>
       <r>    7.4850    0.0000 </r>
       <r>    7.4850    0.0000 </r>
       <r>    7.5314    0.0000 </r>
       <r>    7.5314    0.0000 </r>
       <r>    7.5314    0.0000 </r>
       <r>    7.5314    0.0000 </r>
       <r>    7.5314    0.0000 </r>
       <r>    7.5314    0.0000 </r>
       <r>    7.5314    0.0000 </r>
       <r>    7.5314    0.0000 </r>
       <r>    7.9342    0.0000 </r>
       <r>    7.9342    0.0000 </r>
       <r>    7.9342    0.0000 </r>
       <r>    7.9342    0.0000 </r>
       <r>    7.9342    0.0000 </r>
       <r>    7.9342    0.0000 </r>
       <r>    7.9342    0.0000 </r>
       <r>    7.9342    0.0000 </r>
       <r>    8.2979    0.0000 </r>
       <r>    8.2979    0.0000 </r>
       <r>    8.2979    0.0000 </r>
       <r>    8.2979    0.0000 </r>
       <r>    8.8788    0.0000 </r>
       <r>    8.8823    0.0000 </r>
       <r>    8.8856    0.0000 </r>
       <r>    8.9173    0.0000 </r>
      </set>
      <set comment="kpoint 4">
       <r>  -21.2943    1.0000 </r>
       <r>  -21.2943    1.0000 </r>
       <r>  -21.2943    1.0000 </r>
       <r>  -21.2943    1.0000 </r>
       <r>  -21.2943    1.0000 </r>
       <r>  -21.2943    1.0000 </r>
       <r>  -21.2943    1.0000 </r>
       <r>  -21.2943    1.0000 </r>
       <r>  -21.2943    1.0000 </r>
       <r>  -21.2943    1.0000 </r>
       <r>  -21.2943    1.0000 </r>
       <r>  -21.2943    1.0000 </r>
       <r>  -21.2943    1.0000 </r>
       <r>  -21.2943    1.0000 </r>
       <r>  -21.2943    1.0000 </r>
       <r>  -21.2943    1.0000 </r>
       <r>  -21.2943    1.0000 </r>
       <r>  -21.2943    1.0000 </r>
       <r>  -21.2943    1.0000 </r>
       <r>  -21.2943    1.0000 </r>
       <r>  -21.2943    1.0000 </r>
       <r>  -21.2943    1.0000 </r>
       <r>  -21.2943    1.0000 </r>
       <r>  -21.2943    1.0000 </r>
       <r>  -21.2866    1.0000 </r>
       <r>  -21.2866    1.0000 </r>
       <r>  -21.2866    1.0000 </r>
       <r>  -21.2866    1.0000 </r>
       <r>  -21.2866    1.0000 </r>
       <r>  -21.2866    1.0000 </r>
       <r>  -21.2866    1.0000 </r>
       <r>  -21.2866    1.0000 </r>
       <r>  -21.2793    1.0000 </r>
       <r>  -21.2793    1.0000 </r>
       <r>  -21.2793    1.0000 </r>
       <r>  -21.2793    1.0000 </r>
       <r>  -21.2793    1.0000 </r>
       <r>  -21.2793    1.0000 </r>
       <r>  -21.2793    1.0000 </r>
       <r>  -21.2793    1.0000 </r>
       <r>  -21.2793    1.0000 </r>
       <r>  -21.2793    1.0000 </r>
       <r>  -21.2793    1.0000 </r>
       <r>  -21.2793    1.0000 </r>
       <r>  -21.2793    1.0000 </r>
       <r>  -21.2793    1.0000 </r>
       <r>  -21.2793    1.0000 </r>
       <r>  -21.2793    1.0000 </r>
       <r>  -21.2793    1.0000 </r>
       <r>  -21.2793    1.0000 </r>
       <r>  -21.2793    1.0000 </r>
       <r>  -21.2793    1.0000 </r>
       <r>  -21.2793    1.0000 </r>
       <r>  -21.2793    1.0000 </r>
       <r>  -21.2793    1.0000 </r>
       <r>  -21.2793    1.0000 </r>
       <r>  -21.2753    1.0000 </r>
       <r>  -21.2753    1.0000 </r>
       <r>  -21.2753    1.0000 </r>
       <r>  -21.2753    1.0000 </r>
       <r>  -21.2753    1.0000 </r>
       <r>  -21.2753    1.0000 </r>
       <r>  -21.2753    1.0000 </r>
       <r>  -21.2753    1.0000 </r>
       <r>  -21.2753    1.0000 </r>
       <r>  -21.2753    1.0000 </r>
       <r>  -21.2753    1.0000 </r>
       <r>  -21.2753    1.0000 </r>
       <r>  -21.2753    1.0000 </r>
       <r>  -21.2753    1.0000 </r>
       <r>  -21.2753    1.0000 </r>
       <r>  -21.2753    1.0000 </r>
       <r>  -21.2753    1.0000 </r>
       <r>  -21.2753    1.0000 </r>
       <r>  -21.2753    1.0000 </r>
       <r>  -21.2753    1.0000 </r>
       <r>  -21.2753    1.0000 </r>
       <r>  -21.2753    1.0000 </r>
       <r>  -21.2753    1.0000 </r>
       <r>  -21.2753    1.0000 </r>
       <r>  -21.2707    1.0000 </r>
       <r>  -21.2707    1.0000 </r>
       <r>  -21.2707    1.0000 </r>
       <r>  -21.2707    1.0000 </r>
       <r>  -21.2707    1.0000 </r>
       <r>  -21.2707    1.0000 </r>
       <r>  -21.2707    1.0000 </r>
       <r>  -21.2707    1.0000 </r>
       <r>  -21.2707    1.0000 </r>
       <r>  -21.2707    1.0000 </r>
       <r>  -21.2707    1.0000 </r>
       <r>  -21.2707    1.0000 </r>
       <r>  -21.2707    1.0000 </r>
       <r>  -21.2707    1.0000 </r>
       <r>  -21.2707    1.0000 </r>
       <r>  -21.2707    1.0000 </r>
       <r>  -13.1797    1.0000 </r>
       <r>  -13.1797    1.0000 </r>
       <r>  -13.1797    1.0000 </r>
       <r>  -13.1797    1.0000 </r>
       <r>  -13.1797    1.0000 </r>
       <r>  -13.1797    1.0000 </r>
       <r>  -13.1797    1.0000 </r>
       <r>  -13.1797    1.0000 </r>
       <r>  -12.9663    1.0000 </r>
       <r>  -12.9663    1.0000 </r>
       <r>  -12.9663    1.0000 </r>
       <r>  -12.9663    1.0000 </r>
       <r>  -12.9663    1.0000 </r>
       <r>  -12.9663    1.0000 </r>
       <r>  -12.9663    1.0000 </r>
       <r>  -12.9663    1.0000 </r>
       <r>  -12.9663    1.0000 </r>
       <r>  -12.9663    1.0000 </r>
       <r>  -12.9663    1.0000 </r>
       <r>  -12.9663    1.0000 </r>
       <r>  -12.9663    1.0000 </r>
       <r>  -12.9663    1.0000 </r>
       <r>  -12.9663    1.0000 </r>
       <r>  -12.9663    1.0000 </r>
       <r>  -12.9663    1.0000 </r>
       <r>  -12.9663    1.0000 </r>
       <r>  -12.9663    1.0000 </r>
       <r>  -12.9663    1.0000 </r>
       <r>  -12.9663    1.0000 </r>
       <r>  -12.9663    1.0000 </r>
       <r>  -12.9663    1.0000 </r>
       <r>  -12.9663    1.0000 </r>
       <r>   -2.3275    1.0000 </r>
       <r>   -2.3275    1.0000 </r>
       <r>   -2.3275    1.0000 </r>
       <r>   -2.3275    1.0000 </r>
       <r>   -2.3275    1.0000 </r>
       <r>   -2.3275    1.0000 </r>
       <r>   -2.3275    1.0000 </r>
       <r>   -2.3275    1.0000 </r>
       <r>   -2.3275    1.0000 </r>
       <r>   -2.3275    1.0000 </r>
       <r>   -2.3275    1.0000 </r>
       <r>   -2.3275    1.0000 </r>
       <r>   -2.3275    1.0000 </r>
       <r>   -2.3275    1.0000 </r>
       <r>   -2.3275    1.0000 </r>
       <r>   -2.3275    1.0000 </r>
       <r>   -2.3275    1.0000 </r>
       <r>   -2.3275    1.0000 </r>
       <r>   -2.3275    1.0000 </r>
       <r>   -2.3275    1.0000 </r>
       <r>   -2.3275    1.0000 </r>
       <r>   -2.3275    1.0000 </r>
       <r>   -2.3275    1.0000 </r>
       <r>   -2.3275    1.0000 </r>
       <r>   -1.8287    1.0000 </r>
       <r>   -1.8287    1.0000 </r>
       <r>   -1.8287    1.0000 </r>
       <r>   -1.8287    1.0000 </r>
       <r>   -1.8287    1.0000 </r>
       <r>   -1.8287    1.0000 </r>
       <r>   -1.8287    1.0000 </r>
       <r>   -1.8287    1.0000 </r>
       <r>   -1.4788    1.0000 </r>
       <r>   -1.4788    1.0000 </r>
       <r>   -1.4788    1.0000 </r>
       <r>   -1.4788    1.0000 </r>
       <r>   -1.4788    1.0000 </r>
       <r>   -1.4788    1.0000 </r>
       <r>   -1.4788    1.0000 </r>
       <r>   -1.4788    1.0000 </r>
       <r>   -1.4788    1.0000 </r>
       <r>   -1.4788    1.0000 </r>
       <r>   -1.4788    1.0000 </r>
       <r>   -1.4788    1.0000 </r>
       <r>   -1.4788    1.0000 </r>
       <r>   -1.4788    1.0000 </r>
       <r>   -1.4788    1.0000 </r>
       <r>   -1.4788    1.0000 </r>
       <r>   -1.4788    1.0000 </r>
       <r>   -1.4788    1.0000 </r>
       <r>   -1.4788    1.0000 </r>
       <r>   -1.4788    1.0000 </r>
       <r>   -1.4788    1.0000 </r>
       <r>   -1.4788    1.0000 </r>
       <r>   -1.4788    1.0000 </r>
       <r>   -1.4788    1.0000 </r>
       <r>   -1.1275    1.0000 </r>
       <r>   -1.1275    1.0000 </r>
       <r>   -1.1275    1.0000 </r>
       <r>   -1.1275    1.0000 </r>
       <r>   -1.1275    1.0000 </r>
       <r>   -1.1275    1.0000 </r>
       <r>   -1.1275    1.0000 </r>
       <r>   -1.1275    1.0000 </r>
       <r>   -1.1275    1.0000 </r>
       <r>   -1.1275    1.0000 </r>
       <r>   -1.1275    1.0000 </r>
       <r>   -1.1275    1.0000 </r>
       <r>   -1.1275    1.0000 </r>
       <r>   -1.1275    1.0000 </r>
       <r>   -1.1275    1.0000 </r>
       <r>   -1.1275    1.0000 </r>
       <r>   -1.1275    1.0000 </r>
       <r>   -1.1275    1.0000 </r>
       <r>   -1.1275    1.0000 </r>
       <r>   -1.1275    1.0000 </r>
       <r>   -1.1275    1.0000 </r>
       <r>   -1.1275    1.0000 </r>
       <r>   -1.1275    1.0000 </r>
       <r>   -1.1275    1.0000 </r>
       <r>   -0.8100    1.0000 </r>
       <r>   -0.8100    1.0000 </r>
       <r>   -0.8100    1.0000 </r>
       <r>   -0.8100    1.0000 </r>
       <r>   -0.8100    1.0000 </r>
       <r>   -0.8100    1.0000 </r>
       <r>   -0.8100    1.0000 </r>
       <r>   -0.8100    1.0000 </r>
       <r>   -0.8100    1.0000 </r>
       <r>   -0.8100    1.0000 </r>
       <r>   -0.8100    1.0000 </r>
       <r>   -0.8100    1.0000 </r>
       <r>   -0.8100    1.0000 </r>
       <r>   -0.8100    1.0000 </r>
       <r>   -0.8100    1.0000 </r>
       <r>   -0.8100    1.0000 </r>
       <r>    5.8315    0.0000 </r>
       <r>    5.8315    0.0000 </r>
       <r>    5.8315    0.0000 </r>
       <r>    5.8315    0.0000 </r>
       <r>    5.8315    0.0000 </r>
       <r>    5.8315    0.0000 </r>
       <r>    5.8315    0.0000 </r>
       <r>    5.8315    0.0000 </r>
       <r>    7.3990    0.0000 </r>
       <r>    7.3990    0.0000 </r>
       <r>    7.3990    0.0000 </r>
       <r>    7.3990    0.0000 </r>
       <r>    7.3990    0.0000 </r>
       <r>    7.3990    0.0000 </r>
       <r>    7.3990    0.0000 </r>
       <r>    7.3990    0.0000 </r>
       <r>    7.3990    0.0000 </r>
       <r>    7.3990    0.0000 </r>
       <r>    7.3990    0.0000 </r>
       <r>    7.3990    0.0000 </r>
       <r>    7.3990    0.0000 </r>
       <r>    7.3990    0.0000 </r>
       <r>    7.3990    0.0000 </r>
       <r>    7.3990    0.0000 </r>
       <r>    7.3990    0.0000 </r>
       <r>    7.3990    0.0000 </r>
       <r>    7.3990    0.0000 </r>
       <r>    7.3990    0.0000 </r>
       <r>    7.3990    0.0000 </r>
       <r>    7.3990    0.0000 </r>
       <r>    7.3990    0.0000 </r>
       <r>    7.3990    0.0000 </r>
       <r>    8.5575    0.0000 </r>
       <r>    8.5575    0.0000 </r>
       <r>    8.5575    0.0000 </r>
       <r>    8.5575    0.0000 </r>
       <r>    8.5575    0.0000 </r>
       <r>    8.5575    0.0000 </r>
       <r>    8.5575    0.0000 </r>
       <r>    8.5575    0.0000 </r>
       <r>    8.5575    0.0000 </r>
       <r>    8.5575    0.0000 </r>
       <r>    8.5575    0.0000 </r>
       <r>    8.5575    0.0000 </r>
       <r>    8.5575    0.0000 </r>
       <r>    8.5575    0.0000 </r>
       <r>    8.5575    0.0000 </r>
       <r>    8.5575    0.0000 </r>
      </set>
     </set>
    </set>
   </array>
  </eigenvalues>
  <separator name="orbital magnetization" >
   <v name="MAGDIPOLOUT">      0.00000000      0.00000000      0.00000000</v>
  </separator>
  <dos>
   <i name="efermi">     -0.51414128 </i>
   <total>
    <array>
     <dimension dim="1">gridpoints</dimension>
     <dimension dim="2">spin</dimension>
     <field>energy</field>
     <field>total</field>
     <field>integrated</field>
     <set>
      <set comment="spin 1">
       <r>   -22.8145     0.0000     0.0000 </r>
       <r>   -22.7037     0.0000     0.0000 </r>
       <r>   -22.5929     0.0000     0.0000 </r>
       <r>   -22.4821     0.0000     0.0000 </r>
       <r>   -22.3713     0.0000     0.0000 </r>
       <r>   -22.2605     0.0000     0.0000 </r>
       <r>   -22.1497     0.0000     0.0000 </r>
       <r>   -22.0389     0.0000     0.0000 </r>
       <r>   -21.9281     0.0000     0.0000 </r>
       <r>   -21.8173     0.0000     0.0000 </r>
       <r>   -21.7065     0.0000     0.0000 </r>
       <r>   -21.5956     0.0000     0.0000 </r>
       <r>   -21.4848     0.0000     0.0000 </r>
       <r>   -21.3740     0.0000     0.0000 </r>
       <r>   -21.2632  1491.6537   165.2894 </r>
       <r>   -21.1524   241.0500   192.0000 </r>
       <r>   -21.0416     0.0000   192.0000 </r>
       <r>   -20.9308     0.0000   192.0000 </r>
       <r>   -20.8200     0.0000   192.0000 </r>
       <r>   -20.7092     0.0000   192.0000 </r>
       <r>   -20.5984     0.0000   192.0000 </r>
       <r>   -20.4875     0.0000   192.0000 </r>
       <r>   -20.3767     0.0000   192.0000 </r>
       <r>   -20.2659     0.0000   192.0000 </r>
       <r>   -20.1551     0.0000   192.0000 </r>
       <r>   -20.0443     0.0000   192.0000 </r>
       <r>   -19.9335     0.0000   192.0000 </r>
       <r>   -19.8227     0.0000   192.0000 </r>
       <r>   -19.7119     0.0000   192.0000 </r>
       <r>   -19.6011     0.0000   192.0000 </r>
       <r>   -19.4903     0.0000   192.0000 </r>
       <r>   -19.3795     0.0000   192.0000 </r>
       <r>   -19.2686     0.0000   192.0000 </r>
       <r>   -19.1578     0.0000   192.0000 </r>
       <r>   -19.0470     0.0000   192.0000 </r>
       <r>   -18.9362     0.0000   192.0000 </r>
       <r>   -18.8254     0.0000   192.0000 </r>
       <r>   -18.7146     0.0000   192.0000 </r>
       <r>   -18.6038     0.0000   192.0000 </r>
       <r>   -18.4930     0.0000   192.0000 </r>
       <r>   -18.3822     0.0000   192.0000 </r>
       <r>   -18.2714     0.0000   192.0000 </r>
       <r>   -18.1606     0.0000   192.0000 </r>
       <r>   -18.0497     0.0000   192.0000 </r>
       <r>   -17.9389     0.0000   192.0000 </r>
       <r>   -17.8281     0.0000   192.0000 </r>
       <r>   -17.7173     0.0000   192.0000 </r>
       <r>   -17.6065     0.0000   192.0000 </r>
       <r>   -17.4957     0.0000   192.0000 </r>
       <r>   -17.3849     0.0000   192.0000 </r>
       <r>   -17.2741     0.0000   192.0000 </r>
       <r>   -17.1633     0.0000   192.0000 </r>
       <r>   -17.0525     0.0000   192.0000 </r>
       <r>   -16.9416     0.0000   192.0000 </r>
       <r>   -16.8308     0.0000   192.0000 </r>
       <r>   -16.7200     0.0000   192.0000 </r>
       <r>   -16.6092     0.0000   192.0000 </r>
       <r>   -16.4984     0.0000   192.0000 </r>
       <r>   -16.3876     0.0000   192.0000 </r>
       <r>   -16.2768     0.0000   192.0000 </r>
       <r>   -16.1660     0.0000   192.0000 </r>
       <r>   -16.0552     0.0000   192.0000 </r>
       <r>   -15.9444     0.0000   192.0000 </r>
       <r>   -15.8336     0.0000   192.0000 </r>
       <r>   -15.7227     0.0000   192.0000 </r>
       <r>   -15.6119     0.0000   192.0000 </r>
       <r>   -15.5011     0.0000   192.0000 </r>
       <r>   -15.3903     0.0000   192.0000 </r>
       <r>   -15.2795     0.0000   192.0000 </r>
       <r>   -15.1687     0.0000   192.0000 </r>
       <r>   -15.0579     0.0000   192.0000 </r>
       <r>   -14.9471     0.0000   192.0000 </r>
       <r>   -14.8363     0.0000   192.0000 </r>
       <r>   -14.7255     0.0000   192.0000 </r>
       <r>   -14.6146     0.0000   192.0000 </r>
       <r>   -14.5038     0.0000   192.0000 </r>
       <r>   -14.3930     0.0000   192.0000 </r>
       <r>   -14.2822     0.0000   192.0000 </r>
       <r>   -14.1714     0.0000   192.0000 </r>
       <r>   -14.0606     0.0000   192.0000 </r>
       <r>   -13.9498     0.0000   192.0000 </r>
       <r>   -13.8390     0.0000   192.0000 </r>
       <r>   -13.7282     0.0000   192.0000 </r>
       <r>   -13.6174     0.0000   192.0000 </r>
       <r>   -13.5066     0.0000   192.0000 </r>
       <r>   -13.3957     0.0084   192.0009 </r>
       <r>   -13.2849    11.3135   193.2546 </r>
       <r>   -13.1741    43.3913   198.0627 </r>
       <r>   -13.0633   102.7239   209.4456 </r>
       <r>   -12.9525   278.0986   240.2616 </r>
       <r>   -12.8417   142.0310   256.0000 </r>
       <r>   -12.7309     0.0000   256.0000 </r>
       <r>   -12.6201     0.0000   256.0000 </r>
       <r>   -12.5093     0.0000   256.0000 </r>
       <r>   -12.3985     0.0000   256.0000 </r>
       <r>   -12.2876     0.0000   256.0000 </r>
       <r>   -12.1768     0.0000   256.0000 </r>
       <r>   -12.0660     0.0000   256.0000 </r>
       <r>   -11.9552     0.0000   256.0000 </r>
       <r>   -11.8444     0.0000   256.0000 </r>
       <r>   -11.7336     0.0000   256.0000 </r>
       <r>   -11.6228     0.0000   256.0000 </r>
       <r>   -11.5120     0.0000   256.0000 </r>
       <r>   -11.4012     0.0000   256.0000 </r>
       <r>   -11.2904     0.0000   256.0000 </r>
       <r>   -11.1796     0.0000   256.0000 </r>
       <r>   -11.0687     0.0000   256.0000 </r>
       <r>   -10.9579     0.0000   256.0000 </r>
       <r>   -10.8471     0.0000   256.0000 </r>
       <r>   -10.7363     0.0000   256.0000 </r>
       <r>   -10.6255     0.0000   256.0000 </r>
       <r>   -10.5147     0.0000   256.0000 </r>
       <r>   -10.4039     0.0000   256.0000 </r>
       <r>   -10.2931     0.0000   256.0000 </r>
       <r>   -10.1823     0.0000   256.0000 </r>
       <r>   -10.0715     0.0000   256.0000 </r>
       <r>    -9.9606     0.0000   256.0000 </r>
       <r>    -9.8498     0.0000   256.0000 </r>
       <r>    -9.7390     0.0000   256.0000 </r>
       <r>    -9.6282     0.0000   256.0000 </r>
       <r>    -9.5174     0.0000   256.0000 </r>
       <r>    -9.4066     0.0000   256.0000 </r>
       <r>    -9.2958     0.0000   256.0000 </r>
       <r>    -9.1850     0.0000   256.0000 </r>
       <r>    -9.0742     0.0000   256.0000 </r>
       <r>    -8.9634     0.0000   256.0000 </r>
       <r>    -8.8526     0.0000   256.0000 </r>
       <r>    -8.7417     0.0000   256.0000 </r>
       <r>    -8.6309     0.0000   256.0000 </r>
       <r>    -8.5201     0.0000   256.0000 </r>
       <r>    -8.4093     0.0000   256.0000 </r>
       <r>    -8.2985     0.0000   256.0000 </r>
       <r>    -8.1877     0.0000   256.0000 </r>
       <r>    -8.0769     0.0000   256.0000 </r>
       <r>    -7.9661     0.0000   256.0000 </r>
       <r>    -7.8553     0.0000   256.0000 </r>
       <r>    -7.7445     0.0000   256.0000 </r>
       <r>    -7.6337     0.0000   256.0000 </r>
       <r>    -7.5228     0.0000   256.0000 </r>
       <r>    -7.4120     0.0000   256.0000 </r>
       <r>    -7.3012     0.0000   256.0000 </r>
       <r>    -7.1904     0.0000   256.0000 </r>
       <r>    -7.0796     0.0000   256.0000 </r>
       <r>    -6.9688     0.0000   256.0000 </r>
       <r>    -6.8580     0.0000   256.0000 </r>
       <r>    -6.7472     0.0000   256.0000 </r>
       <r>    -6.6364     0.0000   256.0000 </r>
       <r>    -6.5256     0.0000   256.0000 </r>
       <r>    -6.4147     0.0000   256.0000 </r>
       <r>    -6.3039     0.0000   256.0000 </r>
       <r>    -6.1931     0.0000   256.0000 </r>
       <r>    -6.0823     0.0000   256.0000 </r>
       <r>    -5.9715     0.0000   256.0000 </r>
       <r>    -5.8607     0.0000   256.0000 </r>
       <r>    -5.7499     0.0000   256.0000 </r>
       <r>    -5.6391     0.0000   256.0000 </r>
       <r>    -5.5283     0.0000   256.0000 </r>
       <r>    -5.4175     0.0000   256.0000 </r>
       <r>    -5.3067     0.0000   256.0000 </r>
       <r>    -5.1958     0.0000   256.0000 </r>
       <r>    -5.0850     0.0000   256.0000 </r>
       <r>    -4.9742     0.0000   256.0000 </r>
       <r>    -4.8634     0.0000   256.0000 </r>
       <r>    -4.7526     0.0000   256.0000 </r>
       <r>    -4.6418     0.0000   256.0000 </r>
       <r>    -4.5310     0.0000   256.0000 </r>
       <r>    -4.4202     0.0000   256.0000 </r>
       <r>    -4.3094     0.0000   256.0000 </r>
       <r>    -4.1986     0.0000   256.0000 </r>
       <r>    -4.0877     0.0000   256.0000 </r>
       <r>    -3.9769     0.0000   256.0000 </r>
       <r>    -3.8661     0.0000   256.0000 </r>
       <r>    -3.7553     0.0000   256.0000 </r>
       <r>    -3.6445     0.0000   256.0000 </r>
       <r>    -3.5337     0.0000   256.0000 </r>
       <r>    -3.4229     0.0000   256.0000 </r>
       <r>    -3.3121     0.0000   256.0000 </r>
       <r>    -3.2013     0.0000   256.0000 </r>
       <r>    -3.0905     0.0000   256.0000 </r>
       <r>    -2.9797     0.0000   256.0000 </r>
       <r>    -2.8688     0.0000   256.0000 </r>
       <r>    -2.7580     0.0002   256.0000 </r>
       <r>    -2.6472     9.0234   256.9999 </r>
       <r>    -2.5364     0.6271   257.0695 </r>
       <r>    -2.4256    66.5575   264.4447 </r>
       <r>    -2.3148    92.8290   274.7310 </r>
       <r>    -2.2040   171.7184   293.7590 </r>
       <r>    -2.0932    94.6145   304.2432 </r>
       <r>    -1.9824    31.7867   307.7655 </r>
       <r>    -1.8716    50.6333   313.3762 </r>
       <r>    -1.7607   111.5713   325.7396 </r>
       <r>    -1.6499     0.0940   325.7500 </r>
       <r>    -1.5391     0.2721   325.7802 </r>
       <r>    -1.4283   204.6856   348.4613 </r>
       <r>    -1.3175    80.0293   357.3304 </r>
       <r>    -1.2067    90.8034   367.3922 </r>
       <r>    -1.0959   284.8832   398.9600 </r>
       <r>    -0.9851   118.3047   412.0693 </r>
       <r>    -0.8743   223.5122   436.8366 </r>
       <r>    -0.7635    58.1893   443.2846 </r>
       <r>    -0.6527    41.2584   447.8564 </r>
       <r>    -0.5418     1.2956   448.0000 </r>
       <r>    -0.4310     0.0000   448.0000 </r>
       <r>    -0.3202     0.0000   448.0000 </r>
       <r>    -0.2094     0.0000   448.0000 </r>
       <r>    -0.0986     0.0000   448.0000 </r>
       <r>     0.0122     0.0000   448.0000 </r>
       <r>     0.1230     0.0000   448.0000 </r>
       <r>     0.2338     0.0000   448.0000 </r>
       <r>     0.3446     0.0000   448.0000 </r>
       <r>     0.4554     0.0000   448.0000 </r>
       <r>     0.5663     0.0000   448.0000 </r>
       <r>     0.6771     0.0000   448.0000 </r>
       <r>     0.7879     0.0000   448.0000 </r>
       <r>     0.8987     0.0000   448.0000 </r>
       <r>     1.0095     0.0000   448.0000 </r>
       <r>     1.1203     0.0000   448.0000 </r>
       <r>     1.2311     0.0000   448.0000 </r>
       <r>     1.3419     0.0000   448.0000 </r>
       <r>     1.4527     0.0000   448.0000 </r>
       <r>     1.5635     0.0000   448.0000 </r>
       <r>     1.6743     0.0000   448.0000 </r>
       <r>     1.7852     0.0000   448.0000 </r>
       <r>     1.8960     0.0000   448.0000 </r>
       <r>     2.0068     0.0000   448.0000 </r>
       <r>     2.1176     0.0000   448.0000 </r>
       <r>     2.2284     0.0000   448.0000 </r>
       <r>     2.3392     0.0000   448.0000 </r>
       <r>     2.4500     0.0000   448.0000 </r>
       <r>     2.5608     0.0000   448.0000 </r>
       <r>     2.6716     0.0000   448.0000 </r>
       <r>     2.7824     0.0000   448.0000 </r>
       <r>     2.8933     0.0000   448.0000 </r>
       <r>     3.0041     0.0000   448.0000 </r>
       <r>     3.1149     0.0000   448.0000 </r>
       <r>     3.2257     0.0000   448.0000 </r>
       <r>     3.3365     0.0000   448.0000 </r>
       <r>     3.4473     0.0000   448.0000 </r>
       <r>     3.5581     0.0000   448.0000 </r>
       <r>     3.6689     0.0000   448.0000 </r>
       <r>     3.7797     0.0000   448.0000 </r>
       <r>     3.8905     0.0000   448.0000 </r>
       <r>     4.0013     0.0000   448.0000 </r>
       <r>     4.1122     0.0000   448.0000 </r>
       <r>     4.2230     0.0000   448.0000 </r>
       <r>     4.3338     0.7253   448.0804 </r>
       <r>     4.4446     1.5308   448.2500 </r>
       <r>     4.5554     0.0000   448.2500 </r>
       <r>     4.6662     0.0000   448.2500 </r>
       <r>     4.7770     0.0000   448.2500 </r>
       <r>     4.8878     0.0000   448.2500 </r>
       <r>     4.9986     0.6292   448.3197 </r>
       <r>     5.1094    12.9076   449.7500 </r>
       <r>     5.2202     0.0000   449.7500 </r>
       <r>     5.3311     0.0000   449.7500 </r>
       <r>     5.4419     0.0000   449.7500 </r>
       <r>     5.5527    22.3174   452.2230 </r>
       <r>     5.6635     4.7561   452.7500 </r>
       <r>     5.7743     0.0005   452.7501 </r>
       <r>     5.8851    18.0472   454.7499 </r>
       <r>     5.9959     0.0000   454.7500 </r>
       <r>     6.1067     0.0000   454.7500 </r>
       <r>     6.2175     0.0000   454.7500 </r>
       <r>     6.3283     0.0324   454.7536 </r>
       <r>     6.4392    16.6574   456.5994 </r>
       <r>     6.5500     5.8714   457.2500 </r>
       <r>     6.6608    50.7357   462.8720 </r>
       <r>     6.7716    57.5539   469.2495 </r>
       <r>     6.8824    60.7633   475.9832 </r>
       <r>     6.9932    12.8924   477.4118 </r>
       <r>     7.1040     0.7958   477.5000 </r>
       <r>     7.2148     4.8210   478.0342 </r>
       <r>     7.3256     2.0693   478.2635 </r>
       <r>     7.4364    81.6376   487.3097 </r>
       <r>     7.5472   168.3201   505.9612 </r>
       <r>     7.6581     7.1191   506.7501 </r>
       <r>     7.7689    27.0709   509.7498 </r>
       <r>     7.8797     0.0031   509.7503 </r>
       <r>     7.9905    54.1420   515.7498 </r>
       <r>     8.1013     0.0000   515.7500 </r>
       <r>     8.2121    13.5269   517.2489 </r>
       <r>     8.3229    93.7130   527.6332 </r>
       <r>     8.4337     1.0525   527.7500 </r>
       <r>     8.5445    51.4105   533.4468 </r>
       <r>     8.6553    52.3713   539.2500 </r>
       <r>     8.7662     0.0000   539.2500 </r>
       <r>     8.8770     7.5796   540.0899 </r>
       <r>     8.9878    35.2868   544.0000 </r>
       <r>     9.0986     0.0000   544.0000 </r>
       <r>     9.2094     0.0000   544.0000 </r>
       <r>     9.3202     0.0000   544.0000 </r>
       <r>     9.4310     0.0000   544.0000 </r>
       <r>     9.5418     0.0000   544.0000 </r>
       <r>     9.6526     0.0000   544.0000 </r>
       <r>     9.7634     0.0000   544.0000 </r>
       <r>     9.8742     0.0000   544.0000 </r>
       <r>     9.9851     0.0000   544.0000 </r>
       <r>    10.0959     0.0000   544.0000 </r>
       <r>    10.2067     0.0000   544.0000 </r>
       <r>    10.3175     0.0000   544.0000 </r>
       <r>    10.4283     0.0000   544.0000 </r>
      </set>
     </set>
    </array>
   </total>
  </dos>
 </calculation>
 <structure name="finalpos" >
  <crystal>
   <varray name="basis" >
    <v>      11.20400236       0.00000000       0.00000000 </v>
    <v>       0.00000000      11.20400236       0.00000000 </v>
    <v>       0.00000000       0.00000000      11.20400236 </v>
   </varray>
   <i name="volume">   1406.43470641 </i>
   <varray name="rec_basis" >
    <v>       0.08925382       0.00000000       0.00000000 </v>
    <v>       0.00000000       0.08925382       0.00000000 </v>
    <v>       0.00000000       0.00000000       0.08925382 </v>
   </varray>
  </crystal>
  <varray name="positions" >
   <v>       0.00000000       0.00000000       0.00000000 </v>
   <v>       0.25000000       0.25000000       0.00000000 </v>
   <v>       0.25000000       0.00000000       0.25000000 </v>
   <v>       0.00000000       0.25000000       0.25000000 </v>
   <v>       0.00000000       0.00000000       0.50000000 </v>
   <v>       0.25000000       0.25000000       0.50000000 </v>
   <v>       0.25000000       0.00000000       0.75000000 </v>
   <v>       0.00000000       0.25000000       0.75000000 </v>
   <v>       0.00000000       0.50000000       0.00000000 </v>
   <v>       0.25000000       0.75000000       0.00000000 </v>
   <v>       0.25000000       0.50000000       0.25000000 </v>
   <v>       0.00000000       0.75000000       0.25000000 </v>
   <v>       0.00000000       0.50000000       0.50000000 </v>
   <v>       0.25000000       0.75000000       0.50000000 </v>
   <v>       0.25000000       0.50000000       0.75000000 </v>
   <v>       0.00000000       0.75000000       0.75000000 </v>
   <v>       0.50000000       0.00000000       0.00000000 </v>
   <v>       0.75000000       0.25000000       0.00000000 </v>
   <v>       0.75000000       0.00000000       0.25000000 </v>
   <v>       0.50000000       0.25000000       0.25000000 </v>
   <v>       0.50000000       0.00000000       0.50000000 </v>
   <v>       0.75000000       0.25000000       0.50000000 </v>
   <v>       0.75000000       0.00000000       0.75000000 </v>
   <v>       0.50000000       0.25000000       0.75000000 </v>
   <v>       0.50000000       0.50000000       0.00000000 </v>
   <v>       0.75000000       0.75000000       0.00000000 </v>
   <v>       0.75000000       0.50000000       0.25000000 </v>
   <v>       0.50000000       0.75000000       0.25000000 </v>
   <v>       0.50000000       0.50000000       0.50000000 </v>
   <v>       0.75000000       0.75000000       0.50000000 </v>
   <v>       0.75000000       0.50000000       0.75000000 </v>
   <v>       0.50000000       0.75000000       0.75000000 </v>
   <v>       0.25000000       0.25000000       0.25000000 </v>
   <v>       0.00000000       0.00000000       0.25000000 </v>
   <v>       0.00000000       0.25000000       0.00000000 </v>
   <v>       0.25000000       0.00000000       0.00000000 </v>
   <v>       0.25000000       0.25000000       0.75000000 </v>
   <v>       0.00000000       0.00000000       0.75000000 </v>
   <v>       0.00000000       0.25000000       0.50000000 </v>
   <v>       0.25000000       0.00000000       0.50000000 </v>
   <v>       0.25000000       0.75000000       0.25000000 </v>
   <v>       0.00000000       0.50000000       0.25000000 </v>
   <v>       0.00000000       0.75000000       0.00000000 </v>
   <v>       0.25000000       0.50000000       0.00000000 </v>
   <v>       0.25000000       0.75000000       0.75000000 </v>
   <v>       0.00000000       0.50000000       0.75000000 </v>
   <v>       0.00000000       0.75000000       0.50000000 </v>
   <v>       0.25000000       0.50000000       0.50000000 </v>
   <v>       0.75000000       0.25000000       0.25000000 </v>
   <v>       0.50000000       0.00000000       0.25000000 </v>
   <v>       0.50000000       0.25000000       0.00000000 </v>
   <v>       0.75000000       0.00000000       0.00000000 </v>
   <v>       0.75000000       0.25000000       0.75000000 </v>
   <v>       0.50000000       0.00000000       0.75000000 </v>
   <v>       0.50000000       0.25000000       0.50000000 </v>
   <v>       0.75000000       0.00000000       0.50000000 </v>
   <v>       0.75000000       0.75000000       0.25000000 </v>
   <v>       0.50000000       0.50000000       0.25000000 </v>
   <v>       0.50000000       0.75000000       0.00000000 </v>
   <v>       0.75000000       0.50000000       0.00000000 </v>
   <v>       0.75000000       0.75000000       0.75000000 </v>
   <v>       0.50000000       0.50000000       0.75000000 </v>
   <v>       0.50000000       0.75000000       0.50000000 </v>
   <v>       0.75000000       0.50000000       0.50000000 </v>
  </varray>
 </structure>
</modeling>
