  64  64   0   0
  0.2197554E+02  0.1120400E-08  0.1120400E-08  0.1120400E-08  0.5000000E-15
  1.000000000000000E-004
  CAR 
 unknown system                          
     11.05487912    -22.84673909  301     -0.55642512      1.00000000
    -22.847  0.0000E+00  0.0000E+00
    -22.734  0.0000E+00  0.0000E+00
    -22.621  0.0000E+00  0.0000E+00
    -22.508  0.0000E+00  0.0000E+00
    -22.395  0.0000E+00  0.0000E+00
    -22.282  0.0000E+00  0.0000E+00
    -22.169  0.0000E+00  0.0000E+00
    -22.056  0.0000E+00  0.0000E+00
    -21.943  0.0000E+00  0.0000E+00
    -21.830  0.0000E+00  0.0000E+00
    -21.717  0.0000E+00  0.0000E+00
    -21.604  0.0000E+00  0.0000E+00
    -21.491  0.0000E+00  0.0000E+00
    -21.378  0.4406E-05  0.4978E-06
    -21.265  0.1414E+04  0.1597E+03
    -21.152  0.2855E+03  0.1920E+03
    -21.039  0.0000E+00  0.1920E+03
    -20.926  0.0000E+00  0.1920E+03
    -20.813  0.0000E+00  0.1920E+03
    -20.700  0.0000E+00  0.1920E+03
    -20.587  0.0000E+00  0.1920E+03
    -20.474  0.0000E+00  0.1920E+03
    -20.361  0.0000E+00  0.1920E+03
    -20.248  0.0000E+00  0.1920E+03
    -20.135  0.0000E+00  0.1920E+03
    -20.022  0.0000E+00  0.1920E+03
    -19.909  0.0000E+00  0.1920E+03
    -19.796  0.0000E+00  0.1920E+03
    -19.683  0.0000E+00  0.1920E+03
    -19.570  0.0000E+00  0.1920E+03
    -19.457  0.0000E+00  0.1920E+03
    -19.344  0.0000E+00  0.1920E+03
    -19.231  0.0000E+00  0.1920E+03
    -19.118  0.0000E+00  0.1920E+03
    -19.005  0.0000E+00  0.1920E+03
    -18.892  0.0000E+00  0.1920E+03
    -18.779  0.0000E+00  0.1920E+03
    -18.666  0.0000E+00  0.1920E+03
    -18.553  0.0000E+00  0.1920E+03
    -18.440  0.0000E+00  0.1920E+03
    -18.327  0.0000E+00  0.1920E+03
    -18.214  0.0000E+00  0.1920E+03
    -18.101  0.0000E+00  0.1920E+03
    -17.988  0.0000E+00  0.1920E+03
    -17.875  0.0000E+00  0.1920E+03
    -17.761  0.0000E+00  0.1920E+03
    -17.648  0.0000E+00  0.1920E+03
    -17.535  0.0000E+00  0.1920E+03
    -17.422  0.0000E+00  0.1920E+03
    -17.309  0.0000E+00  0.1920E+03
    -17.196  0.0000E+00  0.1920E+03
    -17.083  0.0000E+00  0.1920E+03
    -16.970  0.0000E+00  0.1920E+03
    -16.857  0.0000E+00  0.1920E+03
    -16.744  0.0000E+00  0.1920E+03
    -16.631  0.0000E+00  0.1920E+03
    -16.518  0.0000E+00  0.1920E+03
    -16.405  0.0000E+00  0.1920E+03
    -16.292  0.0000E+00  0.1920E+03
    -16.179  0.0000E+00  0.1920E+03
    -16.066  0.0000E+00  0.1920E+03
    -15.953  0.0000E+00  0.1920E+03
    -15.840  0.0000E+00  0.1920E+03
    -15.727  0.0000E+00  0.1920E+03
    -15.614  0.0000E+00  0.1920E+03
    -15.501  0.0000E+00  0.1920E+03
    -15.388  0.0000E+00  0.1920E+03
    -15.275  0.0000E+00  0.1920E+03
    -15.162  0.0000E+00  0.1920E+03
    -15.049  0.0000E+00  0.1920E+03
    -14.936  0.0000E+00  0.1920E+03
    -14.823  0.0000E+00  0.1920E+03
    -14.710  0.0000E+00  0.1920E+03
    -14.597  0.0000E+00  0.1920E+03
    -14.484  0.0000E+00  0.1920E+03
    -14.371  0.0000E+00  0.1920E+03
    -14.258  0.0000E+00  0.1920E+03
    -14.145  0.0000E+00  0.1920E+03
    -14.032  0.0000E+00  0.1920E+03
    -13.919  0.0000E+00  0.1920E+03
    -13.806  0.0000E+00  0.1920E+03
    -13.693  0.0000E+00  0.1920E+03
    -13.580  0.0000E+00  0.1920E+03
    -13.467  0.1351E-13  0.1920E+03
    -13.354  0.1348E+01  0.1922E+03
    -13.241  0.2107E+02  0.1945E+03
    -13.128  0.4818E+02  0.2000E+03
    -13.015  0.1304E+03  0.2147E+03
    -12.902  0.3620E+03  0.2556E+03
    -12.789  0.3337E+01  0.2560E+03
    -12.676  0.0000E+00  0.2560E+03
    -12.563  0.0000E+00  0.2560E+03
    -12.450  0.0000E+00  0.2560E+03
    -12.337  0.0000E+00  0.2560E+03
    -12.224  0.0000E+00  0.2560E+03
    -12.111  0.0000E+00  0.2560E+03
    -11.998  0.0000E+00  0.2560E+03
    -11.885  0.0000E+00  0.2560E+03
    -11.772  0.0000E+00  0.2560E+03
    -11.659  0.0000E+00  0.2560E+03
    -11.546  0.0000E+00  0.2560E+03
    -11.433  0.0000E+00  0.2560E+03
    -11.320  0.0000E+00  0.2560E+03
    -11.207  0.0000E+00  0.2560E+03
    -11.094  0.0000E+00  0.2560E+03
    -10.981  0.0000E+00  0.2560E+03
    -10.868  0.0000E+00  0.2560E+03
    -10.755  0.0000E+00  0.2560E+03
    -10.642  0.0000E+00  0.2560E+03
    -10.529  0.0000E+00  0.2560E+03
    -10.416  0.0000E+00  0.2560E+03
    -10.303  0.0000E+00  0.2560E+03
    -10.190  0.0000E+00  0.2560E+03
    -10.077  0.0000E+00  0.2560E+03
     -9.964  0.0000E+00  0.2560E+03
     -9.851  0.0000E+00  0.2560E+03
     -9.738  0.0000E+00  0.2560E+03
     -9.625  0.0000E+00  0.2560E+03
     -9.512  0.0000E+00  0.2560E+03
     -9.399  0.0000E+00  0.2560E+03
     -9.286  0.0000E+00  0.2560E+03
     -9.173  0.0000E+00  0.2560E+03
     -9.060  0.0000E+00  0.2560E+03
     -8.947  0.0000E+00  0.2560E+03
     -8.834  0.0000E+00  0.2560E+03
     -8.721  0.0000E+00  0.2560E+03
     -8.608  0.0000E+00  0.2560E+03
     -8.495  0.0000E+00  0.2560E+03
     -8.382  0.0000E+00  0.2560E+03
     -8.269  0.0000E+00  0.2560E+03
     -8.156  0.0000E+00  0.2560E+03
     -8.043  0.0000E+00  0.2560E+03
     -7.930  0.0000E+00  0.2560E+03
     -7.817  0.0000E+00  0.2560E+03
     -7.704  0.0000E+00  0.2560E+03
     -7.591  0.0000E+00  0.2560E+03
     -7.478  0.0000E+00  0.2560E+03
     -7.365  0.0000E+00  0.2560E+03
     -7.252  0.0000E+00  0.2560E+03
     -7.139  0.0000E+00  0.2560E+03
     -7.026  0.0000E+00  0.2560E+03
     -6.913  0.0000E+00  0.2560E+03
     -6.800  0.0000E+00  0.2560E+03
     -6.687  0.0000E+00  0.2560E+03
     -6.574  0.0000E+00  0.2560E+03
     -6.461  0.0000E+00  0.2560E+03
     -6.348  0.0000E+00  0.2560E+03
     -6.235  0.0000E+00  0.2560E+03
     -6.122  0.0000E+00  0.2560E+03
     -6.009  0.0000E+00  0.2560E+03
     -5.896  0.0000E+00  0.2560E+03
     -5.783  0.0000E+00  0.2560E+03
     -5.670  0.0000E+00  0.2560E+03
     -5.557  0.0000E+00  0.2560E+03
     -5.444  0.0000E+00  0.2560E+03
     -5.331  0.0000E+00  0.2560E+03
     -5.218  0.0000E+00  0.2560E+03
     -5.105  0.0000E+00  0.2560E+03
     -4.992  0.0000E+00  0.2560E+03
     -4.879  0.0000E+00  0.2560E+03
     -4.766  0.0000E+00  0.2560E+03
     -4.653  0.0000E+00  0.2560E+03
     -4.540  0.0000E+00  0.2560E+03
     -4.427  0.0000E+00  0.2560E+03
     -4.314  0.0000E+00  0.2560E+03
     -4.201  0.0000E+00  0.2560E+03
     -4.088  0.0000E+00  0.2560E+03
     -3.975  0.0000E+00  0.2560E+03
     -3.862  0.0000E+00  0.2560E+03
     -3.749  0.0000E+00  0.2560E+03
     -3.636  0.0000E+00  0.2560E+03
     -3.523  0.0000E+00  0.2560E+03
     -3.410  0.0000E+00  0.2560E+03
     -3.297  0.0000E+00  0.2560E+03
     -3.184  0.0000E+00  0.2560E+03
     -3.071  0.0000E+00  0.2560E+03
     -2.958  0.0000E+00  0.2560E+03
     -2.845  0.0000E+00  0.2560E+03
     -2.732  0.1103E+00  0.2560E+03
     -2.619  0.8739E+01  0.2570E+03
     -2.506  0.2461E+02  0.2598E+03
     -2.393  0.8398E+02  0.2693E+03
     -2.280  0.8239E+02  0.2786E+03
     -2.167  0.1546E+03  0.2960E+03
     -2.054  0.7259E+02  0.3043E+03
     -1.941  0.5655E+02  0.3106E+03
     -1.828  0.6176E+02  0.3176E+03
     -1.715  0.7194E+02  0.3257E+03
     -1.602  0.1503E-09  0.3258E+03
     -1.489  0.7045E+02  0.3337E+03
     -1.376  0.1969E+03  0.3560E+03
     -1.263  0.2484E+02  0.3588E+03
     -1.150  0.2527E+03  0.3873E+03
     -1.037  0.1373E+03  0.4028E+03
     -0.924  0.2578E+03  0.4320E+03
     -0.811  0.6356E+02  0.4392E+03
     -0.698  0.7159E+02  0.4473E+03
     -0.585  0.6623E+01  0.4480E+03
     -0.472  0.0000E+00  0.4480E+03
     -0.359  0.0000E+00  0.4480E+03
     -0.246  0.0000E+00  0.4480E+03
     -0.133  0.0000E+00  0.4480E+03
     -0.020  0.0000E+00  0.4480E+03
      0.093  0.0000E+00  0.4480E+03
      0.206  0.0000E+00  0.4480E+03
      0.319  0.0000E+00  0.4480E+03
      0.432  0.0000E+00  0.4480E+03
      0.545  0.0000E+00  0.4480E+03
      0.658  0.0000E+00  0.4480E+03
      0.771  0.0000E+00  0.4480E+03
      0.884  0.0000E+00  0.4480E+03
      0.997  0.0000E+00  0.4480E+03
      1.110  0.0000E+00  0.4480E+03
      1.223  0.0000E+00  0.4480E+03
      1.336  0.0000E+00  0.4480E+03
      1.449  0.0000E+00  0.4480E+03
      1.562  0.0000E+00  0.4480E+03
      1.675  0.0000E+00  0.4480E+03
      1.788  0.0000E+00  0.4480E+03
      1.901  0.0000E+00  0.4480E+03
      2.014  0.0000E+00  0.4480E+03
      2.127  0.0000E+00  0.4480E+03
      2.240  0.0000E+00  0.4480E+03
      2.353  0.0000E+00  0.4480E+03
      2.466  0.0000E+00  0.4480E+03
      2.579  0.0000E+00  0.4480E+03
      2.692  0.0000E+00  0.4480E+03
      2.805  0.0000E+00  0.4480E+03
      2.918  0.0000E+00  0.4480E+03
      3.031  0.0000E+00  0.4480E+03
      3.145  0.0000E+00  0.4480E+03
      3.258  0.0000E+00  0.4480E+03
      3.371  0.0000E+00  0.4480E+03
      3.484  0.0000E+00  0.4480E+03
      3.597  0.0000E+00  0.4480E+03
      3.710  0.0000E+00  0.4480E+03
      3.823  0.0000E+00  0.4480E+03
      3.936  0.0000E+00  0.4480E+03
      4.049  0.0000E+00  0.4480E+03
      4.162  0.0000E+00  0.4480E+03
      4.275  0.3678E-05  0.4480E+03
      4.388  0.2211E+01  0.4482E+03
      4.501  0.0000E+00  0.4482E+03
      4.614  0.0000E+00  0.4482E+03
      4.727  0.0000E+00  0.4482E+03
      4.840  0.0000E+00  0.4482E+03
      4.953  0.6138E-05  0.4483E+03
      5.066  0.1326E+02  0.4497E+03
      5.179  0.1574E-01  0.4498E+03
      5.292  0.0000E+00  0.4498E+03
      5.405  0.0000E+00  0.4498E+03
      5.518  0.1693E+01  0.4499E+03
      5.631  0.2485E+02  0.4527E+03
      5.744  0.1499E-07  0.4528E+03
      5.857  0.1697E+02  0.4547E+03
      5.970  0.7305E+00  0.4548E+03
      6.083  0.0000E+00  0.4548E+03
      6.196  0.0000E+00  0.4548E+03
      6.309  0.2079E-03  0.4548E+03
      6.422  0.1373E+02  0.4563E+03
      6.535  0.8387E+01  0.4572E+03
      6.648  0.3852E+02  0.4616E+03
      6.761  0.6759E+02  0.4692E+03
      6.874  0.5894E+02  0.4759E+03
      6.987  0.1235E+02  0.4773E+03
      7.100  0.1800E+01  0.4775E+03
      7.213  0.4385E+01  0.4780E+03
      7.326  0.2382E+01  0.4783E+03
      7.439  0.8050E+02  0.4874E+03
      7.552  0.1674E+03  0.5063E+03
      7.665  0.4158E+01  0.5068E+03
      7.778  0.2654E+02  0.5097E+03
      7.891  0.8626E-01  0.5098E+03
      8.004  0.5301E+02  0.5157E+03
      8.117  0.1859E-02  0.5158E+03
      8.230  0.1359E+02  0.5173E+03
      8.343  0.9257E+02  0.5277E+03
      8.456  0.1994E-01  0.5278E+03
      8.569  0.1458E+03  0.5442E+03
      8.682  0.1349E+02  0.5458E+03
      8.795  0.1330E-06  0.5458E+03
      8.908  0.7677E+02  0.5544E+03
      9.021  0.1274E+03  0.5688E+03
      9.134  0.6020E+01  0.5695E+03
      9.247  0.2054E+02  0.5718E+03
      9.360  0.2370E+02  0.5745E+03
      9.473  0.1138E+01  0.5746E+03
      9.586  0.1214E+02  0.5760E+03
      9.699  0.0000E+00  0.5760E+03
      9.812  0.0000E+00  0.5760E+03
      9.925  0.0000E+00  0.5760E+03
     10.038  0.0000E+00  0.5760E+03
     10.151  0.0000E+00  0.5760E+03
     10.264  0.0000E+00  0.5760E+03
     10.377  0.0000E+00  0.5760E+03
     10.490  0.0000E+00  0.5760E+03
     10.603  0.0000E+00  0.5760E+03
     10.716  0.0000E+00  0.5760E+03
     10.829  0.0000E+00  0.5760E+03
     10.942  0.0000E+00  0.5760E+03
     11.055  0.0000E+00  0.5760E+03
