       N       E                     dE             d eps       ncg     rms          rms(c)
DAV:   1     0.432188955073E+04    0.43219E+04   -0.17165E+05  4608   0.125E+03
DAV:   2     0.363804140366E+03   -0.39581E+04   -0.37662E+04  5120   0.368E+02
DAV:   3    -0.206181756873E+03   -0.56999E+03   -0.56573E+03  5600   0.156E+02
DAV:   4    -0.228191824449E+03   -0.22010E+02   -0.21909E+02  5536   0.331E+01
DAV:   5    -0.229004516649E+03   -0.81269E+00   -0.81123E+00  5824   0.616E+00    0.106E+01
DAV:   6    -0.224139408707E+03    0.48651E+01   -0.94737E+00  5696   0.533E+00    0.776E+00
DAV:   7    -0.223777548721E+03    0.36186E+00   -0.20679E+00  6272   0.233E+00    0.533E+00
DAV:   8    -0.223902870709E+03   -0.12532E+00   -0.26762E-01  5312   0.123E+00    0.142E+00
DAV:   9    -0.223897289708E+03    0.55810E-02   -0.11155E-02  5696   0.253E-01    0.602E-01
DAV:  10    -0.223901610555E+03   -0.43208E-02   -0.18577E-02  5312   0.225E-01    0.291E-01
DAV:  11    -0.223900853633E+03    0.75692E-03   -0.17075E-03  5504   0.815E-02    0.812E-02
DAV:  12    -0.223900821664E+03    0.31969E-04   -0.13967E-04  6176   0.233E-02    0.128E-02
DAV:  13    -0.223900824419E+03   -0.27544E-05   -0.17937E-05  5472   0.721E-03    0.290E-03
DAV:  14    -0.223900824453E+03   -0.34466E-07   -0.17688E-06  6176   0.281E-03    0.963E-03
DAV:  15    -0.223900825624E+03   -0.11705E-05   -0.50071E-07  5024   0.142E-03    0.399E-03
DAV:  16    -0.223900826266E+03   -0.64263E-06   -0.13548E-07  5568   0.752E-04    0.723E-04
DAV:  17    -0.223900826298E+03   -0.31629E-07   -0.72449E-09  3744   0.471E-04    0.461E-04
DAV:  18    -0.223900826355E+03   -0.57124E-07   -0.53712E-09  3488   0.306E-04    0.482E-04
DAV:  19    -0.223900826339E+03    0.16189E-07   -0.30028E-09  3008   0.185E-04    0.455E-04
DAV:  20    -0.223900826321E+03    0.18088E-07   -0.75229E-10  3200   0.273E-04    0.453E-04
DAV:  21    -0.223900826288E+03    0.32480E-07   -0.76222E-10  3040   0.118E-04    0.424E-04
DAV:  22    -0.223900826289E+03   -0.96770E-09   -0.43350E-10  3072   0.921E-05
   1 F= -.22390083E+03 E0= -.22390083E+03  d E =-.749055E-15
