 vasp.6.3.2 27Jun22 (build Oct 14 2022 12:13:54) complex                        
  
 executed on             LinuxIFC date 2025.08.28  21:59:50
 running on   32 total cores
 distrk:  each k-point on   32 cores,    1 groups
 distr:  one band on NCORE=   1 cores,   32 groups


--------------------------------------------------------------------------------------------------------


 INCAR:
   ENCUT = 341.213600
   SIGMA = 0.020000
   EDIFF = 1.00e-08
   GGA = PS
   PREC = Accurate
   IALGO = 38
   IBRION = -1
   ISMEAR = 0
   NELMIN = 5
   ADDGRID = .TRUE.
   LCHARG = .FALSE.
   LWAVE = .FALSE.
   LREAL = .FALSE.

 POTCAR:    PAW_PBE Na_pv 19Sep2006               
 POTCAR:    PAW_PBE Cl 06Sep2000                  
 -----------------------------------------------------------------------------
|                                                                             |
|           W    W    AA    RRRRR   N    N  II  N    N   GGGG   !!!           |
|           W    W   A  A   R    R  NN   N  II  NN   N  G    G  !!!           |
|           W    W  A    A  R    R  N N  N  II  N N  N  G       !!!           |
|           W WW W  AAAAAA  RRRRR   N  N N  II  N  N N  G  GGG   !            |
|           WW  WW  A    A  R   R   N   NN  II  N   NN  G    G                |
|           W    W  A    A  R    R  N    N  II  N    N   GGGG   !!!           |
|                                                                             |
|     For optimal performance we recommend to set                             |
|       NCORE = 2 up to number-of-cores-per-socket                            |
|     NCORE specifies how many cores store one orbital (NPAR=cpu/NCORE).      |
|     This setting can greatly improve the performance of VASP for DFT.       |
|     The default, NCORE=1 might be grossly inefficient on modern             |
|     multi-core architectures or massively parallel machines. Do your        |
|     own testing! More info at https://www.vasp.at/wiki/index.php/NCORE      |
|     Unfortunately you need to use the default for GW and RPA                |
|     calculations (for HF NCORE is supported but not extensively tested      |
|     yet).                                                                   |
|                                                                             |
 -----------------------------------------------------------------------------

 POTCAR:    PAW_PBE Na_pv 19Sep2006               
   SHA256 =  6a2f546d9e11350984debacf3dc457d8cffc0868e817d445faca461816a32b94 Na_pv/POTCAR          
   COPYR  = (c) Copyright 19Sep2006 Georg Kresse                                                    
   COPYR  = This file is part of the software VASP. Any use, copying, and all other rights are regul
   COPYR  = If you do not have a valid VASP license, you may not use, copy or distribute this file. 
   VRHFIN =Na: p6s1                                                                                 
   LEXCH  = PE                                                                                      
   EATOM  =   766.0439 eV,   56.3026 Ry                                                             
                                                                                                    
   TITEL  = PAW_PBE Na_pv 19Sep2006                                                                 
   LULTRA =        F    use ultrasoft PP ?                                                          
   IUNSCR =        1    unscreen: 0-lin 1-nonlin 2-no                                               
   RPACOR =    1.800    partial core radius                                                         
   POMASS =   22.990; ZVAL   =    7.000    mass and valenz                                          
   RCORE  =    2.200    outmost cutoff radius                                                       
   RWIGS  =    2.200; RWIGS  =    1.164    wigner-seitz radius (au A)                               
   ENMAX  =  259.561; ENMIN  =  194.671 eV                                                          
   ICORE  =        2    local potential                                                             
   LCOR   =        T    correct aug charges                                                         
   LPAW   =        T    paw PP                                                                      
   EAUG   =  368.056                                                                                
   DEXC   =    0.000                                                                                
   RMAX   =    2.245    core radius for proj-oper                                                   
   RAUG   =    1.300    factor for augmentation sphere                                              
   RDEP   =    2.259    radius for radial grids                                                     
   RDEPT  =    1.738    core radius for aug-charge                                                  
                                                                                                    
   Atomic configuration                                                                             
    5 entries                                                                                       
     n  l   j            E        occ.                                                              
     1  0  0.50     -1033.6933   2.0000                                                             
     2  0  0.50       -56.7526   2.0000                                                             
     2  1  1.50       -28.6721   6.0000                                                             
     3  0  0.50        -2.7440   1.0000                                                             
     3  2  1.50        -1.3606   0.0000                                                             
   Description                                                                                      
     l       E           TYP  RCUT    TYP  RCUT                                                     
     1    -28.6720912     23  2.000                                                                 
     1      6.8029130     23  2.000                                                                 
     0     -2.7439560     23  2.200                                                                 
     0     34.0145650     23  2.200                                                                 
     2     -1.3605826     23  2.200                                                                 
  local pseudopotential read in
  partial core-charges read in
  partial kinetic energy density read in
  atomic valenz-charges read in
  non local Contribution for L=           1  read in
    real space projection operators read in
  non local Contribution for L=           1  read in
    real space projection operators read in
  non local Contribution for L=           0  read in
    real space projection operators read in
  non local Contribution for L=           0  read in
    real space projection operators read in
    PAW grid and wavefunctions read in
 
   number of l-projection  operators is LMAX  =           4
   number of lm-projection operators is LMMAX =           8
 
 POTCAR:    PAW_PBE Cl 06Sep2000                  
   SHA256 =  9f1b6e6ed4247ac726a768b330d26d7667cc3c95a39ff49c1d064c2d9dcce931 Cl/POTCAR             
   COPYR  = (c) Copyright 06Sep2000 Georg Kresse                                                    
   COPYR  = This file is part of the software VASP. Any use, copying, and all other rights are regul
   COPYR  = If you do not have a valid VASP license, you may not use, copy or distribute this file. 
   VRHFIN =Cl: s2p5                                                                                 
   LEXCH  = PE                                                                                      
   EATOM  =   409.7259 eV,   30.1140 Ry                                                             
                                                                                                    
   TITEL  = PAW_PBE Cl 06Sep2000                                                                    
   LULTRA =        F    use ultrasoft PP ?                                                          
   IUNSCR =        1    unscreen: 0-lin 1-nonlin 2-no                                               
   RPACOR =    1.500    partial core radius                                                         
   POMASS =   35.453; ZVAL   =    7.000    mass and valenz                                          
   RCORE  =    1.900    outmost cutoff radius                                                       
   RWIGS  =    2.100; RWIGS  =    1.111    wigner-seitz radius (au A)                               
   ENMAX  =  262.472; ENMIN  =  196.854 eV                                                          
   ICORE  =        2    local potential                                                             
   LCOR   =        T    correct aug charges                                                         
   LPAW   =        T    paw PP                                                                      
   EAUG   =  356.192                                                                                
   DEXC   =    0.000                                                                                
   RMAX   =    1.945    core radius for proj-oper                                                   
   RAUG   =    1.300    factor for augmentation sphere                                              
   RDEP   =    2.020    radius for radial grids                                                     
   RDEPT  =    1.678    core radius for aug-charge                                                  
                                                                                                    
   Atomic configuration                                                                             
    6 entries                                                                                       
     n  l   j            E        occ.                                                              
     1  0  0.50     -2751.1850   2.0000                                                             
     2  0  0.50      -252.6861   2.0000                                                             
     2  1  1.50      -191.6157   6.0000                                                             
     3  0  0.50       -20.6916   2.0000                                                             
     3  1  0.50        -8.5949   5.0000                                                             
     3  2  1.50        -8.1635   0.0000                                                             
   Description                                                                                      
     l       E           TYP  RCUT    TYP  RCUT                                                     
     0    -20.6915656     23  1.900                                                                 
     0    -22.0521482     23  1.900                                                                 
     1     -8.5948577     23  1.900                                                                 
     1     -5.3847331     23  1.900                                                                 
     2     -8.1634956     23  1.900                                                                 
  local pseudopotential read in
  partial core-charges read in
  partial kinetic energy density read in
  atomic valenz-charges read in
  non local Contribution for L=           0  read in
    real space projection operators read in
  non local Contribution for L=           0  read in
    real space projection operators read in
  non local Contribution for L=           1  read in
    real space projection operators read in
  non local Contribution for L=           1  read in
    real space projection operators read in
    PAW grid and wavefunctions read in
 
   number of l-projection  operators is LMAX  =           4
   number of lm-projection operators is LMMAX =           8
 
 -----------------------------------------------------------------------------
|                                                                             |
|               ----> ADVICE to this user running VASP <----                  |
|                                                                             |
|     You have a (more or less) 'large supercell' and for larger cells it     |
|     might be more efficient to use real-space projection operators.         |
|     Therefore, try LREAL= Auto in the INCAR file.                           |
|     Mind: For very accurate calculation, you might also keep the            |
|     reciprocal projection scheme (i.e. LREAL=.FALSE.).                      |
|                                                                             |
 -----------------------------------------------------------------------------

 -----------------------------------------------------------------------------
|                                                                             |
|               ----> ADVICE to this user running VASP <----                  |
|                                                                             |
|     You enforced a specific xc type in the INCAR file but a different       |
|     type was found in the POTCAR file.                                      |
|     I HOPE YOU KNOW WHAT YOU ARE DOING!                                     |
|                                                                             |
 -----------------------------------------------------------------------------

  PAW_PBE Na_pv 19Sep2006               :
 energy of atom  1       EATOM= -766.0439
 kinetic energy error for atom=    0.0189 (will be added to EATOM!!)
  PAW_PBE Cl 06Sep2000                  :
 energy of atom  2       EATOM= -409.7259
 kinetic energy error for atom=    0.0106 (will be added to EATOM!!)
 
 
 POSCAR: Na Cl
  positions in cartesian coordinates
  No initial velocities read in
 exchange correlation table for  LEXCH =       14
   RHO(1)=    0.500       N(1)  =     2000
   RHO(2)=  100.500       N(2)  =     4000
 


--------------------------------------------------------------------------------------------------------


 ion  position               nearest neighbor table
   1  0.003  0.000  0.000-
   2  0.250  0.250  0.003-
   3  0.250  0.000  0.250-
   4  0.000  0.250  0.250-
   5  0.000  0.000  0.500-
   6  0.250  0.250  0.500-
   7  0.250  0.000  0.750-
   8  0.000  0.250  0.750-
   9  0.000  0.500  0.000-
  10  0.250  0.750  0.000-
  11  0.250  0.500  0.250-
  12  0.000  0.750  0.250-
  13  0.000  0.500  0.500-
  14  0.250  0.750  0.500-
  15  0.250  0.500  0.750-
  16  0.000  0.750  0.750-
  17  0.500  0.000  0.000-
  18  0.750  0.250  0.000-
  19  0.750  0.000  0.250-
  20  0.500  0.250  0.250-
  21  0.500  0.000  0.500-
  22  0.750  0.250  0.500-
  23  0.750  0.000  0.750-
  24  0.500  0.250  0.750-
  25  0.500  0.500  0.000-
  26  0.750  0.750  0.000-
  27  0.750  0.500  0.250-
  28  0.500  0.750  0.250-
  29  0.500  0.500  0.500-
  30  0.750  0.750  0.500-
  31  0.750  0.500  0.750-
  32  0.500  0.750  0.750-
  33  0.250  0.250  0.250-
  34  0.000  0.000  0.250-
  35  0.000  0.250  0.000-
  36  0.250  0.000  0.000-
  37  0.250  0.250  0.750-
  38  0.000  0.000  0.750-
  39  0.000  0.250  0.500-
  40  0.250  0.000  0.500-
  41  0.250  0.750  0.250-
  42  0.000  0.500  0.250-
  43  0.000  0.750  0.000-
  44  0.250  0.500  0.000-
  45  0.250  0.750  0.750-
  46  0.000  0.500  0.750-
  47  0.000  0.750  0.500-
  48  0.250  0.500  0.500-
  49  0.750  0.250  0.250-
  50  0.500  0.000  0.250-
  51  0.500  0.250  0.000-
  52  0.750  0.000  0.000-
  53  0.750  0.250  0.750-
  54  0.500  0.000  0.750-
  55  0.500  0.250  0.500-
  56  0.750  0.000  0.500-
  57  0.750  0.750  0.250-
  58  0.500  0.500  0.250-
  59  0.500  0.750  0.000-
  60  0.750  0.500  0.000-
  61  0.750  0.750  0.750-
  62  0.500  0.500  0.750-
  63  0.500  0.750  0.500-
  64  0.750  0.500  0.500-
 
  LATTYP: Found a simple cubic cell.
 ALAT       =    11.2040023600
  
  Lattice vectors:
  
 A1 = (  11.2040023600,   0.0000000000,   0.0000000000)
 A2 = (   0.0000000000,  11.2040023600,   0.0000000000)
 A3 = (   0.0000000000,   0.0000000000,  11.2040023600)


Analysis of symmetry for initial positions (statically):
=====================================================================
 Subroutine PRICEL returns:
 Original cell was already a primitive cell.
 

 Routine SETGRP: Setting up the symmetry group for a 
 simple cubic supercell.


 Subroutine GETGRP returns: Found  1 space group operations
 (whereof  1 operations were pure point group operations)
 out of a pool of 48 trial point group operations.


The static configuration has the point symmetry C_1 .


Analysis of symmetry for dynamics (positions and initial velocities):
=====================================================================
 Subroutine PRICEL returns:
 Original cell was already a primitive cell.
 

 Routine SETGRP: Setting up the symmetry group for a 
 simple cubic supercell.


 Subroutine GETGRP returns: Found  1 space group operations
 (whereof  1 operations were pure point group operations)
 out of a pool of 48 trial point group operations.


The dynamic configuration has the point symmetry C_1 .


 Subroutine INISYM returns: Found  1 space group operations
 (whereof  1 operations are pure point group operations),
 and found     1 'primitive' translations


----------------------------------------------------------------------------------------

                                     Primitive cell                                     

  volume of cell :    1406.4347

  direct lattice vectors                    reciprocal lattice vectors
    11.204002360  0.000000000  0.000000000     0.089253819  0.000000000  0.000000000
     0.000000000 11.204002360  0.000000000     0.000000000  0.089253819  0.000000000
     0.000000000  0.000000000 11.204002360     0.000000000  0.000000000  0.089253819

  length of vectors
    11.204002360 11.204002360 11.204002360     0.089253819  0.089253819  0.089253819

  position of ions in fractional coordinates (direct lattice)
     0.002677615  0.000000000  0.000000000
     0.250000000  0.250000000  0.002677615
     0.250000000  0.000000000  0.250000000
     0.000000000  0.250000000  0.250000000
     0.000000000  0.000000000  0.500000000
     0.250000000  0.250000000  0.500000000
     0.250000000  0.000000000  0.750000000
     0.000000000  0.250000000  0.750000000
     0.000000000  0.500000000  0.000000000
     0.250000000  0.750000000  0.000000000
     0.250000000  0.500000000  0.250000000
     0.000000000  0.750000000  0.250000000
     0.000000000  0.500000000  0.500000000
     0.250000000  0.750000000  0.500000000
     0.250000000  0.500000000  0.750000000
     0.000000000  0.750000000  0.750000000
     0.500000000  0.000000000  0.000000000
     0.750000000  0.250000000  0.000000000
     0.750000000  0.000000000  0.250000000
     0.500000000  0.250000000  0.250000000
     0.500000000  0.000000000  0.500000000
     0.750000000  0.250000000  0.500000000
     0.750000000  0.000000000  0.750000000
     0.500000000  0.250000000  0.750000000
     0.500000000  0.500000000  0.000000000
     0.750000000  0.750000000  0.000000000
     0.750000000  0.500000000  0.250000000
     0.500000000  0.750000000  0.250000000
     0.500000000  0.500000000  0.500000000
     0.750000000  0.750000000  0.500000000
     0.750000000  0.500000000  0.750000000
     0.500000000  0.750000000  0.750000000
     0.250000000  0.250000000  0.250000000
     0.000000000  0.000000000  0.250000000
     0.000000000  0.250000000  0.000000000
     0.250000000  0.000000000  0.000000000
     0.250000000  0.250000000  0.750000000
     0.000000000  0.000000000  0.750000000
     0.000000000  0.250000000  0.500000000
     0.250000000  0.000000000  0.500000000
     0.250000000  0.750000000  0.250000000
     0.000000000  0.500000000  0.250000000
     0.000000000  0.750000000  0.000000000
     0.250000000  0.500000000  0.000000000
     0.250000000  0.750000000  0.750000000
     0.000000000  0.500000000  0.750000000
     0.000000000  0.750000000  0.500000000
     0.250000000  0.500000000  0.500000000
     0.750000000  0.250000000  0.250000000
     0.500000000  0.000000000  0.250000000
     0.500000000  0.250000000  0.000000000
     0.750000000  0.000000000  0.000000000
     0.750000000  0.250000000  0.750000000
     0.500000000  0.000000000  0.750000000
     0.500000000  0.250000000  0.500000000
     0.750000000  0.000000000  0.500000000
     0.750000000  0.750000000  0.250000000
     0.500000000  0.500000000  0.250000000
     0.500000000  0.750000000  0.000000000
     0.750000000  0.500000000  0.000000000
     0.750000000  0.750000000  0.750000000
     0.500000000  0.500000000  0.750000000
     0.500000000  0.750000000  0.500000000
     0.750000000  0.500000000  0.500000000

  ion indices of the primitive-cell ions
   primitive index   ion index
                 1           1
                 2           2
                 3           3
                 4           4
                 5           5
                 6           6
                 7           7
                 8           8
                 9           9
                10          10
                11          11
                12          12
                13          13
                14          14
                15          15
                16          16
                17          17
                18          18
                19          19
                20          20
                21          21
                22          22
                23          23
                24          24
                25          25
                26          26
                27          27
                28          28
                29          29
                30          30
                31          31
                32          32
                33          33
                34          34
                35          35
                36          36
                37          37
                38          38
                39          39
                40          40
                41          41
                42          42
                43          43
                44          44
                45          45
                46          46
                47          47
                48          48
                49          49
                50          50
                51          51
                52          52
                53          53
                54          54
                55          55
                56          56
                57          57
                58          58
                59          59
                60          60
                61          61
                62          62
                63          63
                64          64

----------------------------------------------------------------------------------------

 
 
 KPOINTS: KPOINTS created by Atomic Simulation Env

Automatic generation of k-mesh.
 Grid dimensions read from file:
 generate k-points for:    2    2    2

 Generating k-lattice:

  Cartesian coordinates                     Fractional coordinates (reciprocal lattice)
     0.044626910  0.000000000  0.000000000     0.500000000  0.000000000  0.000000000
     0.000000000  0.044626910  0.000000000     0.000000000  0.500000000  0.000000000
     0.000000000  0.000000000  0.044626910     0.000000000  0.000000000  0.500000000

  Length of vectors
     0.044626910  0.044626910  0.044626910

  Shift w.r.t. Gamma in fractional coordinates (k-lattice)
     0.000000000  0.000000000  0.000000000

 
 Subroutine IBZKPT returns following result:
 ===========================================
 
 Found      8 irreducible k-points:
 
 Following reciprocal coordinates:
            Coordinates               Weight
  0.000000  0.000000  0.000000      1.000000
  0.500000  0.000000  0.000000      1.000000
  0.000000  0.500000  0.000000      1.000000
  0.000000  0.000000  0.500000      1.000000
  0.500000  0.500000  0.000000      1.000000
  0.000000  0.500000  0.500000      1.000000
  0.500000  0.000000  0.500000      1.000000
  0.500000  0.500000  0.500000      1.000000
 
 Following cartesian coordinates:
            Coordinates               Weight
  0.000000  0.000000  0.000000      1.000000
  0.044627  0.000000  0.000000      1.000000
  0.000000  0.044627  0.000000      1.000000
  0.000000  0.000000  0.044627      1.000000
  0.044627  0.044627  0.000000      1.000000
  0.000000  0.044627  0.044627      1.000000
  0.044627  0.000000  0.044627      1.000000
  0.044627  0.044627  0.044627      1.000000
 


--------------------------------------------------------------------------------------------------------




 Dimension of arrays:
   k-points           NKPTS =      8   k-points in BZ     NKDIM =      8   number of bands    NBANDS=    288
   number of dos      NEDOS =    301   number of ions     NIONS =     64
   non local maximal  LDIM  =      4   non local SUM 2l+1 LMDIM =      8
   total plane-waves  NPLWV = 343000
   max r-space proj   IRMAX =      1   max aug-charges    IRDMAX=  56280
   dimension x,y,z NGX =    70 NGY =   70 NGZ =   70
   dimension x,y,z NGXF=   140 NGYF=  140 NGZF=  140
   support grid    NGXF=   280 NGYF=  280 NGZF=  280
   ions per type =              32  32
   NGX,Y,Z   is equivalent  to a cutoff of  10.39, 10.39, 10.39 a.u.
   NGXF,Y,Z  is equivalent  to a cutoff of  20.77, 20.77, 20.77 a.u.

 SYSTEM =  unknown system                          
 POSCAR =  Na Cl                                   

 Startparameter for this run:
   NWRITE =      2    write-flag & timer
   PREC   = accura    normal or accurate (medium, high low for compatibility)
   ISTART =      0    job   : 0-new  1-cont  2-samecut
   ICHARG =      2    charge: 1-file 2-atom 10-const
   ISPIN  =      1    spin polarized calculation?
   LNONCOLLINEAR =      F non collinear calculations
   LSORBIT =      F    spin-orbit coupling
   INIWAV =      1    electr: 0-lowe 1-rand  2-diag
   LASPH  =      F    aspherical Exc in radial PAW
 Electronic Relaxation 1
   ENCUT  =  341.2 eV  25.08 Ry    5.01 a.u.  16.87 16.87 16.87*2*pi/ulx,y,z
   ENINI  =  341.2     initial cutoff
   ENAUG  =  368.1 eV  augmentation charge cutoff
   NELM   =     60;   NELMIN=  5; NELMDL= -5     # of ELM steps 
   EDIFF  = 0.1E-07   stopping-criterion for ELM
   LREAL  =      F    real-space projection
   NLSPLINE    = F    spline interpolate recip. space projectors
   LCOMPAT=      F    compatible to vasp.4.4
   GGA_COMPAT  = T    GGA compatible to vasp.4.4-vasp.4.6
   LMAXPAW     = -100 max onsite density
   LMAXMIX     =    2 max onsite mixed and CHGCAR
   VOSKOWN=      0    Vosko Wilk Nusair interpolation
   ROPT   =    0.00000   0.00000
 Ionic relaxation
   EDIFFG = 0.1E-06   stopping-criterion for IOM
   NSW    =      0    number of steps for IOM
   NBLOCK =      1;   KBLOCK =      1    inner block; outer block 
   IBRION =     -1    ionic relax: 0-MD 1-quasi-New 2-CG
   NFREE  =      0    steps in history (QN), initial steepest desc. (CG)
   ISIF   =      2    stress and relaxation
   IWAVPR =     10    prediction:  0-non 1-charg 2-wave 3-comb
   ISYM   =      2    0-nonsym 1-usesym 2-fastsym
   LCORR  =      T    Harris-Foulkes like correction to forces

   POTIM  = 0.5000    time-step for ionic-motion
   TEIN   =    0.0    initial temperature
   TEBEG  =    0.0;   TEEND  =   0.0 temperature during run
   SMASS  =  -3.00    Nose mass-parameter (am)
   estimated Nose-frequenzy (Omega)   =  0.10E-29 period in steps = 0.13E+47 mass=  -0.287E-26a.u.
   SCALEE = 1.0000    scale energy and forces
   NPACO  =    256;   APACO  = 10.0  distance and # of slots for P.C.
   PSTRESS=    0.0 pullay stress

  Mass of Ions in am
   POMASS =  22.99 35.45
  Ionic Valenz
   ZVAL   =   7.00  7.00
  Atomic Wigner-Seitz radii
   RWIGS  =  -1.00 -1.00
  virtual crystal weights 
   VCA    =   1.00  1.00
   NELECT =     448.0000    total number of electrons
   NUPDOWN=      -1.0000    fix difference up-down

 DOS related values:
   EMIN   =  10.00;   EMAX   =-10.00  energy-range for DOS
   EFERMI =   0.00
   ISMEAR =     0;   SIGMA  =   0.02  broadening in eV -4-tet -1-fermi 0-gaus

 Electronic relaxation 2 (details)
   IALGO  =     38    algorithm
   LDIAG  =      T    sub-space diagonalisation (order eigenvalues)
   LSUBROT=      F    optimize rotation matrix (better conditioning)
   TURBO    =      0    0=normal 1=particle mesh
   IRESTART =      0    0=no restart 2=restart with 2 vectors
   NREBOOT  =      0    no. of reboots
   NMIN     =      0    reboot dimension
   EREF     =   0.00    reference energy to select bands
   IMIX   =      4    mixing-type and parameters
     AMIX     =   0.40;   BMIX     =  1.00
     AMIX_MAG =   1.60;   BMIX_MAG =  1.00
     AMIN     =   0.10
     WC   =   100.;   INIMIX=   1;  MIXPRE=   1;  MAXMIX= -45

 Intra band minimization:
   WEIMIN = 0.0000     energy-eigenvalue tresh-hold
   EBREAK =  0.87E-11  absolut break condition
   DEPER  =   0.30     relativ break condition  

   TIME   =   0.40     timestep for ELM

  volume/ion in A,a.u.               =      21.98       148.30
  Fermi-wavevector in a.u.,A,eV,Ry     =   1.118049  2.112807 17.007750  1.250034
  Thomas-Fermi vector in A             =   2.254677
 
 Write flags
   LWAVE        =      F    write WAVECAR
   LDOWNSAMPLE  =      F    k-point downsampling of WAVECAR
   LCHARG       =      F    write CHGCAR
   LVTOT        =      F    write LOCPOT, total local potential
   LVHAR        =      F    write LOCPOT, Hartree potential only
   LELF         =      F    write electronic localiz. function (ELF)
   LORBIT       =      0    0 simple, 1 ext, 2 COOP (PROOUT), +10 PAW based schemes


 Dipole corrections
   LMONO  =      F    monopole corrections only (constant potential shift)
   LDIPOL =      F    correct potential (dipole corrections)
   IDIPOL =      0    1-x, 2-y, 3-z, 4-all directions 
   EPSILON=  1.0000000 bulk dielectric constant

 Exchange correlation treatment:
   GGA     =    PS    GGA type
   LEXCH   =    14    internal setting for exchange type
   LIBXC   =     F    Libxc                    
   VOSKOWN =     0    Vosko Wilk Nusair interpolation
   LHFCALC =     F    Hartree Fock is set to
   LHFONE  =     F    Hartree Fock one center treatment
   AEXX    =    0.0000 exact exchange contribution

 Linear response parameters
   LEPSILON=     F    determine dielectric tensor
   LRPA    =     F    only Hartree local field effects (RPA)
   LNABLA  =     F    use nabla operator in PAW spheres
   LVEL    =     F    velocity operator in full k-point grid
   CSHIFT  =0.1000    complex shift for real part using Kramers Kronig
   OMEGAMAX=  -1.0    maximum frequency
   DEG_THRESHOLD= 0.2000000E-02 threshold for treating states as degnerate
   RTIME   =   -0.100 relaxation time in fs
  (WPLASMAI=    0.000 imaginary part of plasma frequency in eV, 0.658/RTIME)
   DFIELD  = 0.0000000 0.0000000 0.0000000 field for delta impulse in time
 
  Optional k-point grid parameters
   LKPOINTS_OPT  =     F    use optional k-point grid
   KPOINTS_OPT_MODE=     1    mode for optional k-point grid
 
 Orbital magnetization related:
   ORBITALMAG=     F  switch on orbital magnetization
   LCHIMAG   =     F  perturbation theory with respect to B field
   DQ        =  0.001000  dq finite difference perturbation B field
   LLRAUG    =     F  two centre corrections for induced B field



--------------------------------------------------------------------------------------------------------


 Static calculation
 charge density and potential will be updated during run
 non-spin polarized calculation
 Variant of blocked Davidson
 Davidson routine will perform the subspace rotation
 perform sub-space diagonalisation
    after iterative eigenvector-optimisation
 modified Broyden-mixing scheme, WC =      100.0
 initial mixing is a Kerker type mixing with AMIX =  0.4000 and BMIX =      1.0000
 Hartree-type preconditioning will be used
 using additional bands           64
 reciprocal scheme for non local part
 use partial core corrections
 calculate Harris-corrections to forces 
   (improved forces if not selfconsistent)
 use gradient corrections 
 use of overlap-Matrix (Vanderbilt PP)
 Gauss-broadening in eV      SIGMA  =   0.02


--------------------------------------------------------------------------------------------------------


  energy-cutoff  :      341.21
  volume of cell :     1406.43
      direct lattice vectors                 reciprocal lattice vectors
    11.204002360  0.000000000  0.000000000     0.089253819  0.000000000  0.000000000
     0.000000000 11.204002360  0.000000000     0.000000000  0.089253819  0.000000000
     0.000000000  0.000000000 11.204002360     0.000000000  0.000000000  0.089253819

  length of vectors
    11.204002360 11.204002360 11.204002360     0.089253819  0.089253819  0.089253819


 
 k-points in units of 2pi/SCALE and weight: KPOINTS created by Atomic Simulation Env
   0.00000000  0.00000000  0.00000000       0.125
   0.04462691  0.00000000  0.00000000       0.125
   0.00000000  0.04462691  0.00000000       0.125
   0.00000000  0.00000000  0.04462691       0.125
   0.04462691  0.04462691  0.00000000       0.125
   0.00000000  0.04462691  0.04462691       0.125
   0.04462691  0.00000000  0.04462691       0.125
   0.04462691  0.04462691  0.04462691       0.125
 
 k-points in reciprocal lattice and weights: KPOINTS created by Atomic Simulation Env
   0.00000000  0.00000000  0.00000000       0.125
   0.50000000  0.00000000  0.00000000       0.125
   0.00000000  0.50000000  0.00000000       0.125
   0.00000000  0.00000000  0.50000000       0.125
   0.50000000  0.50000000  0.00000000       0.125
   0.00000000  0.50000000  0.50000000       0.125
   0.50000000  0.00000000  0.50000000       0.125
   0.50000000  0.50000000  0.50000000       0.125
 
 position of ions in fractional coordinates (direct lattice) 
   0.00267761  0.00000000  0.00000000
   0.25000000  0.25000000  0.00267761
   0.25000000  0.00000000  0.25000000
   0.00000000  0.25000000  0.25000000
   0.00000000  0.00000000  0.50000000
   0.25000000  0.25000000  0.50000000
   0.25000000  0.00000000  0.75000000
   0.00000000  0.25000000  0.75000000
   0.00000000  0.50000000  0.00000000
   0.25000000  0.75000000  0.00000000
   0.25000000  0.50000000  0.25000000
   0.00000000  0.75000000  0.25000000
   0.00000000  0.50000000  0.50000000
   0.25000000  0.75000000  0.50000000
   0.25000000  0.50000000  0.75000000
   0.00000000  0.75000000  0.75000000
   0.50000000  0.00000000  0.00000000
   0.75000000  0.25000000  0.00000000
   0.75000000  0.00000000  0.25000000
   0.50000000  0.25000000  0.25000000
   0.50000000  0.00000000  0.50000000
   0.75000000  0.25000000  0.50000000
   0.75000000  0.00000000  0.75000000
   0.50000000  0.25000000  0.75000000
   0.50000000  0.50000000  0.00000000
   0.75000000  0.75000000  0.00000000
   0.75000000  0.50000000  0.25000000
   0.50000000  0.75000000  0.25000000
   0.50000000  0.50000000  0.50000000
   0.75000000  0.75000000  0.50000000
   0.75000000  0.50000000  0.75000000
   0.50000000  0.75000000  0.75000000
   0.25000000  0.25000000  0.25000000
   0.00000000  0.00000000  0.25000000
   0.00000000  0.25000000  0.00000000
   0.25000000  0.00000000  0.00000000
   0.25000000  0.25000000  0.75000000
   0.00000000  0.00000000  0.75000000
   0.00000000  0.25000000  0.50000000
   0.25000000  0.00000000  0.50000000
   0.25000000  0.75000000  0.25000000
   0.00000000  0.50000000  0.25000000
   0.00000000  0.75000000  0.00000000
   0.25000000  0.50000000  0.00000000
   0.25000000  0.75000000  0.75000000
   0.00000000  0.50000000  0.75000000
   0.00000000  0.75000000  0.50000000
   0.25000000  0.50000000  0.50000000
   0.75000000  0.25000000  0.25000000
   0.50000000  0.00000000  0.25000000
   0.50000000  0.25000000  0.00000000
   0.75000000  0.00000000  0.00000000
   0.75000000  0.25000000  0.75000000
   0.50000000  0.00000000  0.75000000
   0.50000000  0.25000000  0.50000000
   0.75000000  0.00000000  0.50000000
   0.75000000  0.75000000  0.25000000
   0.50000000  0.50000000  0.25000000
   0.50000000  0.75000000  0.00000000
   0.75000000  0.50000000  0.00000000
   0.75000000  0.75000000  0.75000000
   0.50000000  0.50000000  0.75000000
   0.50000000  0.75000000  0.50000000
   0.75000000  0.50000000  0.50000000
 
 position of ions in cartesian coordinates  (Angst):
   0.03000000  0.00000000  0.00000000
   2.80100059  2.80100059  0.03000000
   2.80100059  0.00000000  2.80100059
   0.00000000  2.80100059  2.80100059
   0.00000000  0.00000000  5.60200118
   2.80100059  2.80100059  5.60200118
   2.80100059  0.00000000  8.40300177
   0.00000000  2.80100059  8.40300177
   0.00000000  5.60200118  0.00000000
   2.80100059  8.40300177  0.00000000
   2.80100059  5.60200118  2.80100059
   0.00000000  8.40300177  2.80100059
   0.00000000  5.60200118  5.60200118
   2.80100059  8.40300177  5.60200118
   2.80100059  5.60200118  8.40300177
   0.00000000  8.40300177  8.40300177
   5.60200118  0.00000000  0.00000000
   8.40300177  2.80100059  0.00000000
   8.40300177  0.00000000  2.80100059
   5.60200118  2.80100059  2.80100059
   5.60200118  0.00000000  5.60200118
   8.40300177  2.80100059  5.60200118
   8.40300177  0.00000000  8.40300177
   5.60200118  2.80100059  8.40300177
   5.60200118  5.60200118  0.00000000
   8.40300177  8.40300177  0.00000000
   8.40300177  5.60200118  2.80100059
   5.60200118  8.40300177  2.80100059
   5.60200118  5.60200118  5.60200118
   8.40300177  8.40300177  5.60200118
   8.40300177  5.60200118  8.40300177
   5.60200118  8.40300177  8.40300177
   2.80100059  2.80100059  2.80100059
   0.00000000  0.00000000  2.80100059
   0.00000000  2.80100059  0.00000000
   2.80100059  0.00000000  0.00000000
   2.80100059  2.80100059  8.40300177
   0.00000000  0.00000000  8.40300177
   0.00000000  2.80100059  5.60200118
   2.80100059  0.00000000  5.60200118
   2.80100059  8.40300177  2.80100059
   0.00000000  5.60200118  2.80100059
   0.00000000  8.40300177  0.00000000
   2.80100059  5.60200118  0.00000000
   2.80100059  8.40300177  8.40300177
   0.00000000  5.60200118  8.40300177
   0.00000000  8.40300177  5.60200118
   2.80100059  5.60200118  5.60200118
   8.40300177  2.80100059  2.80100059
   5.60200118  0.00000000  2.80100059
   5.60200118  2.80100059  0.00000000
   8.40300177  0.00000000  0.00000000
   8.40300177  2.80100059  8.40300177
   5.60200118  0.00000000  8.40300177
   5.60200118  2.80100059  5.60200118
   8.40300177  0.00000000  5.60200118
   8.40300177  8.40300177  2.80100059
   5.60200118  5.60200118  2.80100059
   5.60200118  8.40300177  0.00000000
   8.40300177  5.60200118  0.00000000
   8.40300177  8.40300177  8.40300177
   5.60200118  5.60200118  8.40300177
   5.60200118  8.40300177  5.60200118
   8.40300177  5.60200118  5.60200118
 


--------------------------------------------------------------------------------------------------------


 k-point   1 :   0.0000 0.0000 0.0000  plane waves:   20005
 k-point   2 :   0.5000 0.0000 0.0000  plane waves:   20138
 k-point   3 :   0.0000 0.5000 0.0000  plane waves:   20138
 k-point   4 :   0.0000 0.0000 0.5000  plane waves:   20138
 k-point   5 :   0.5000 0.5000 0.0000  plane waves:   20160
 k-point   6 :   0.0000 0.5000 0.5000  plane waves:   20160
 k-point   7 :   0.5000 0.0000 0.5000  plane waves:   20160
 k-point   8 :   0.5000 0.5000 0.5000  plane waves:   20336

 maximum and minimum number of plane-waves per node :     20336    20005

 maximum number of plane-waves:     20336
 maximum index in each direction: 
   IXMAX=   16   IYMAX=   16   IZMAX=   16
   IXMIN=  -17   IYMIN=  -17   IZMIN=  -17


 serial   3D FFT for wavefunctions
 parallel 3D FFT for charge:
    minimum data exchange during FFTs selected (reduces bandwidth)


 total amount of memory used by VASP MPI-rank0   129658. kBytes
=======================================================================

   base      :      30000. kBytes
   nonl-proj :      41680. kBytes
   fftplans  :      14405. kBytes
   grid      :      19342. kBytes
   one-center:        196. kBytes
   wavefun   :      24035. kBytes
 
     INWAV:  cpu time      0.0000: real time      0.0000
 Broyden mixing: mesh for mixing (old mesh)
   NGX = 33   NGY = 33   NGZ = 33
  (NGX  =140   NGY  =140   NGZ  =140)
  gives a total of  35937 points

 initial charge density was supplied:
 charge density of overlapping atoms calculated
 number of electron     448.0000000 magnetization 
 keeping initial charge density in first step


--------------------------------------------------------------------------------------------------------


 Maximum index for augmentation-charges         1834 (set IRDMAX)


--------------------------------------------------------------------------------------------------------


 First call to EWALD:  gamma=   0.158
 Maximum number of real-space cells 3x 3x 3
 Maximum number of reciprocal cells 3x 3x 3

    FEWALD:  cpu time      0.0018: real time      0.0018


--------------------------------------- Iteration      1(   1)  ---------------------------------------


    POTLOK:  cpu time      0.0419: real time      0.0424
    SETDIJ:  cpu time      0.0315: real time      0.0317
     EDDAV:  cpu time      9.8742: real time      9.9308
       DOS:  cpu time      0.0012: real time      0.0014
    --------------------------------------------
      LOOP:  cpu time      9.9488: real time     10.0063

 eigenvalue-minimisations  :  4608
 total energy-change (2. order) : 0.4321890E+04  (-0.1716450E+05)
 number of electron     448.0000000 magnetization 
 augmentation part      448.0000000 magnetization 

 Free energy of the ion-electron system (eV)
  ---------------------------------------------------
  alpha Z        PSCENC =       751.52672365
  Ewald energy   TEWEN  =    -22871.34031752
  -Hartree energ DENC   =     -8992.24456453
  -exchange      EXHF   =         0.00000000
  -V(xc)+E(xc)   XCENC  =      1456.53423611
  PAW double counting   =     26466.43774078   -29286.08056155
  entropy T*S    EENTRO =        -0.00258736
  eigenvalues    EBANDS =      -735.12058876
  atomic energy  EATOM  =     37532.17946992
  Solvation  Ediel_sol  =         0.00000000
  ---------------------------------------------------
  free energy    TOTEN  =      4321.88955073 eV

  energy without entropy =     4321.89213809  energy(sigma->0) =     4321.89084441


--------------------------------------------------------------------------------------------------------




--------------------------------------- Iteration      1(   2)  ---------------------------------------


     EDDAV:  cpu time     10.7411: real time     10.8043
       DOS:  cpu time      0.0008: real time      0.0008
    --------------------------------------------
      LOOP:  cpu time     10.7418: real time     10.8051

 eigenvalue-minimisations  :  5120
 total energy-change (2. order) :-0.3958085E+04  (-0.3766207E+04)
 number of electron     448.0000000 magnetization 
 augmentation part      448.0000000 magnetization 

 Free energy of the ion-electron system (eV)
  ---------------------------------------------------
  alpha Z        PSCENC =       751.52672365
  Ewald energy   TEWEN  =    -22871.34031752
  -Hartree energ DENC   =     -8992.24456453
  -exchange      EXHF   =         0.00000000
  -V(xc)+E(xc)   XCENC  =      1456.53423611
  PAW double counting   =     26466.43774078   -29286.08056155
  entropy T*S    EENTRO =        -0.00000000
  eigenvalues    EBANDS =     -4693.20858649
  atomic energy  EATOM  =     37532.17946992
  Solvation  Ediel_sol  =         0.00000000
  ---------------------------------------------------
  free energy    TOTEN  =       363.80414037 eV

  energy without entropy =      363.80414037  energy(sigma->0) =      363.80414037


--------------------------------------------------------------------------------------------------------




--------------------------------------- Iteration      1(   3)  ---------------------------------------


     EDDAV:  cpu time     11.5747: real time     11.6466
       DOS:  cpu time      0.0007: real time      0.0007
    --------------------------------------------
      LOOP:  cpu time     11.5754: real time     11.6473

 eigenvalue-minimisations  :  5600
 total energy-change (2. order) :-0.5699859E+03  (-0.5657304E+03)
 number of electron     448.0000000 magnetization 
 augmentation part      448.0000000 magnetization 

 Free energy of the ion-electron system (eV)
  ---------------------------------------------------
  alpha Z        PSCENC =       751.52672365
  Ewald energy   TEWEN  =    -22871.34031752
  -Hartree energ DENC   =     -8992.24456453
  -exchange      EXHF   =         0.00000000
  -V(xc)+E(xc)   XCENC  =      1456.53423611
  PAW double counting   =     26466.43774078   -29286.08056155
  entropy T*S    EENTRO =        -0.00000000
  eigenvalues    EBANDS =     -5263.19448373
  atomic energy  EATOM  =     37532.17946992
  Solvation  Ediel_sol  =         0.00000000
  ---------------------------------------------------
  free energy    TOTEN  =      -206.18175687 eV

  energy without entropy =     -206.18175687  energy(sigma->0) =     -206.18175687


--------------------------------------------------------------------------------------------------------




--------------------------------------- Iteration      1(   4)  ---------------------------------------


     EDDAV:  cpu time     11.4783: real time     11.5464
       DOS:  cpu time      0.0006: real time      0.0006
    --------------------------------------------
      LOOP:  cpu time     11.4789: real time     11.5470

 eigenvalue-minimisations  :  5536
 total energy-change (2. order) :-0.2201007E+02  (-0.2190906E+02)
 number of electron     448.0000000 magnetization 
 augmentation part      448.0000000 magnetization 

 Free energy of the ion-electron system (eV)
  ---------------------------------------------------
  alpha Z        PSCENC =       751.52672365
  Ewald energy   TEWEN  =    -22871.34031752
  -Hartree energ DENC   =     -8992.24456453
  -exchange      EXHF   =         0.00000000
  -V(xc)+E(xc)   XCENC  =      1456.53423611
  PAW double counting   =     26466.43774078   -29286.08056155
  entropy T*S    EENTRO =        -0.00000000
  eigenvalues    EBANDS =     -5285.20455131
  atomic energy  EATOM  =     37532.17946992
  Solvation  Ediel_sol  =         0.00000000
  ---------------------------------------------------
  free energy    TOTEN  =      -228.19182445 eV

  energy without entropy =     -228.19182445  energy(sigma->0) =     -228.19182445


--------------------------------------------------------------------------------------------------------




--------------------------------------- Iteration      1(   5)  ---------------------------------------


     EDDAV:  cpu time     11.9284: real time     12.0010
       DOS:  cpu time      0.0007: real time      0.0007
    CHARGE:  cpu time      0.3240: real time      0.3259
    MIXING:  cpu time      0.0010: real time      0.0010
    --------------------------------------------
      LOOP:  cpu time     12.2541: real time     12.3286

 eigenvalue-minimisations  :  5824
 total energy-change (2. order) :-0.8126922E+00  (-0.8112267E+00)
 number of electron     448.0000022 magnetization 
 augmentation part      111.6386654 magnetization 

 Broyden mixing:
  rms(total) = 0.10608E+01    rms(broyden)= 0.10604E+01
  rms(prec ) = 0.14936E+01
  weight for this iteration     100.00

 Free energy of the ion-electron system (eV)
  ---------------------------------------------------
  alpha Z        PSCENC =       751.52672365
  Ewald energy   TEWEN  =    -22871.34031752
  -Hartree energ DENC   =     -8992.24456453
  -exchange      EXHF   =         0.00000000
  -V(xc)+E(xc)   XCENC  =      1456.53423611
  PAW double counting   =     26466.43774078   -29286.08056155
  entropy T*S    EENTRO =        -0.00000000
  eigenvalues    EBANDS =     -5286.01724351
  atomic energy  EATOM  =     37532.17946992
  Solvation  Ediel_sol  =         0.00000000
  ---------------------------------------------------
  free energy    TOTEN  =      -229.00451665 eV

  energy without entropy =     -229.00451665  energy(sigma->0) =     -229.00451665


--------------------------------------------------------------------------------------------------------




--------------------------------------- Iteration      1(   6)  ---------------------------------------


    POTLOK:  cpu time      0.0369: real time      0.0386
    SETDIJ:  cpu time      0.0305: real time      0.0308
     EDDAV:  cpu time     11.7559: real time     11.8208
       DOS:  cpu time      0.0004: real time      0.0004
    CHARGE:  cpu time      0.3259: real time      0.3277
    MIXING:  cpu time      0.0012: real time      0.0012
    --------------------------------------------
      LOOP:  cpu time     12.1508: real time     12.2195

 eigenvalue-minimisations  :  5696
 total energy-change (2. order) : 0.4865108E+01  (-0.9473717E+00)
 number of electron     448.0000022 magnetization 
 augmentation part      112.4594297 magnetization 

 Broyden mixing:
  rms(total) = 0.77562E+00    rms(broyden)= 0.77557E+00
  rms(prec ) = 0.89172E+00
  weight for this iteration     100.00

 eigenvalues of (default mixing * dielectric matrix)
  average eigenvalue GAMMA=   1.0769
  1.0769

 Free energy of the ion-electron system (eV)
  ---------------------------------------------------
  alpha Z        PSCENC =       751.52672365
  Ewald energy   TEWEN  =    -22871.34031752
  -Hartree energ DENC   =     -9061.63268024
  -exchange      EXHF   =         0.00000000
  -V(xc)+E(xc)   XCENC  =      1465.42012883
  PAW double counting   =     27291.46599137   -30103.34971378
  entropy T*S    EENTRO =        -0.00000000
  eigenvalues    EBANDS =     -5228.40901095
  atomic energy  EATOM  =     37532.17946992
  Solvation  Ediel_sol  =         0.00000000
  ---------------------------------------------------
  free energy    TOTEN  =      -224.13940871 eV

  energy without entropy =     -224.13940871  energy(sigma->0) =     -224.13940871


--------------------------------------------------------------------------------------------------------




--------------------------------------- Iteration      1(   7)  ---------------------------------------


    POTLOK:  cpu time      0.0358: real time      0.0360
    SETDIJ:  cpu time      0.0302: real time      0.0303
     EDDAV:  cpu time     12.7047: real time     12.7753
       DOS:  cpu time      0.0005: real time      0.0005
    CHARGE:  cpu time      0.3230: real time      0.3250
    MIXING:  cpu time      0.0013: real time      0.0013
    --------------------------------------------
      LOOP:  cpu time     13.0954: real time     13.1683

 eigenvalue-minimisations  :  6272
 total energy-change (2. order) : 0.3618600E+00  (-0.2067920E+00)
 number of electron     448.0000022 magnetization 
 augmentation part      112.8278575 magnetization 

 Broyden mixing:
  rms(total) = 0.53289E+00    rms(broyden)= 0.53286E+00
  rms(prec ) = 0.56284E+00
  weight for this iteration     100.00

 eigenvalues of (default mixing * dielectric matrix)
  average eigenvalue GAMMA=   2.1560
  1.4399  2.8722

 Free energy of the ion-electron system (eV)
  ---------------------------------------------------
  alpha Z        PSCENC =       751.52672365
  Ewald energy   TEWEN  =    -22871.34031752
  -Hartree energ DENC   =     -9085.82813066
  -exchange      EXHF   =         0.00000000
  -V(xc)+E(xc)   XCENC  =      1470.12840710
  PAW double counting   =     28330.71055781   -31143.44200155
  entropy T*S    EENTRO =        -0.00000000
  eigenvalues    EBANDS =     -5207.71225748
  atomic energy  EATOM  =     37532.17946992
  Solvation  Ediel_sol  =         0.00000000
  ---------------------------------------------------
  free energy    TOTEN  =      -223.77754872 eV

  energy without entropy =     -223.77754872  energy(sigma->0) =     -223.77754872


--------------------------------------------------------------------------------------------------------




--------------------------------------- Iteration      1(   8)  ---------------------------------------


    POTLOK:  cpu time      0.0365: real time      0.0400
    SETDIJ:  cpu time      0.0302: real time      0.0304
     EDDAV:  cpu time     11.1219: real time     11.1832
       DOS:  cpu time      0.0006: real time      0.0006
    CHARGE:  cpu time      0.3265: real time      0.3282
    MIXING:  cpu time      0.0016: real time      0.0016
    --------------------------------------------
      LOOP:  cpu time     11.5173: real time     11.5840

 eigenvalue-minimisations  :  5312
 total energy-change (2. order) :-0.1253220E+00  (-0.2676244E-01)
 number of electron     448.0000022 magnetization 
 augmentation part      112.8095556 magnetization 

 Broyden mixing:
  rms(total) = 0.14204E+00    rms(broyden)= 0.14204E+00
  rms(prec ) = 0.14493E+00
  weight for this iteration     100.00

 eigenvalues of (default mixing * dielectric matrix)
  average eigenvalue GAMMA=   1.5558
  2.5246  1.3869  0.7560

 Free energy of the ion-electron system (eV)
  ---------------------------------------------------
  alpha Z        PSCENC =       751.52672365
  Ewald energy   TEWEN  =    -22871.34031752
  -Hartree energ DENC   =     -9075.18202793
  -exchange      EXHF   =         0.00000000
  -V(xc)+E(xc)   XCENC  =      1472.33865207
  PAW double counting   =     29809.76177835   -32629.62434191
  entropy T*S    EENTRO =        -0.00000000
  eigenvalues    EBANDS =     -5213.56280734
  atomic energy  EATOM  =     37532.17946992
  Solvation  Ediel_sol  =         0.00000000
  ---------------------------------------------------
  free energy    TOTEN  =      -223.90287071 eV

  energy without entropy =     -223.90287071  energy(sigma->0) =     -223.90287071


--------------------------------------------------------------------------------------------------------




--------------------------------------- Iteration      1(   9)  ---------------------------------------


    POTLOK:  cpu time      0.0360: real time      0.0363
    SETDIJ:  cpu time      0.0303: real time      0.0304
     EDDAV:  cpu time     11.7590: real time     11.8236
       DOS:  cpu time      0.0006: real time      0.0006
    CHARGE:  cpu time      0.3253: real time      0.3272
    MIXING:  cpu time      0.0014: real time      0.0014
    --------------------------------------------
      LOOP:  cpu time     12.1527: real time     12.2195

 eigenvalue-minimisations  :  5696
 total energy-change (2. order) : 0.5581001E-02  (-0.1115522E-02)
 number of electron     448.0000022 magnetization 
 augmentation part      112.8313796 magnetization 

 Broyden mixing:
  rms(total) = 0.60207E-01    rms(broyden)= 0.60206E-01
  rms(prec ) = 0.62258E-01
  weight for this iteration     100.00

 eigenvalues of (default mixing * dielectric matrix)
  average eigenvalue GAMMA=   2.0161
  2.9693  2.7033  0.9988  1.3929

 Free energy of the ion-electron system (eV)
  ---------------------------------------------------
  alpha Z        PSCENC =       751.52672365
  Ewald energy   TEWEN  =    -22871.34031752
  -Hartree energ DENC   =     -9077.92645323
  -exchange      EXHF   =         0.00000000
  -V(xc)+E(xc)   XCENC  =      1472.35686228
  PAW double counting   =     29630.14869767   -32449.16593123
  entropy T*S    EENTRO =        -0.00000000
  eigenvalues    EBANDS =     -5211.67634126
  atomic energy  EATOM  =     37532.17946992
  Solvation  Ediel_sol  =         0.00000000
  ---------------------------------------------------
  free energy    TOTEN  =      -223.89728971 eV

  energy without entropy =     -223.89728971  energy(sigma->0) =     -223.89728971


--------------------------------------------------------------------------------------------------------




--------------------------------------- Iteration      1(  10)  ---------------------------------------


    POTLOK:  cpu time      0.0363: real time      0.0371
    SETDIJ:  cpu time      0.0301: real time      0.0302
     EDDAV:  cpu time     11.1047: real time     11.1648
       DOS:  cpu time      0.0005: real time      0.0005
    CHARGE:  cpu time      0.3235: real time      0.3253
    MIXING:  cpu time      0.0018: real time      0.0021
    --------------------------------------------
      LOOP:  cpu time     11.4968: real time     11.5601

 eigenvalue-minimisations  :  5312
 total energy-change (2. order) :-0.4320847E-02  (-0.1857740E-02)
 number of electron     448.0000022 magnetization 
 augmentation part      112.8612362 magnetization 

 Broyden mixing:
  rms(total) = 0.29055E-01    rms(broyden)= 0.29052E-01
  rms(prec ) = 0.31123E-01
  weight for this iteration     100.00

 eigenvalues of (default mixing * dielectric matrix)
  average eigenvalue GAMMA=   1.7111
  2.9402  2.5081  1.2943  1.0227  0.7901

 Free energy of the ion-electron system (eV)
  ---------------------------------------------------
  alpha Z        PSCENC =       751.52672365
  Ewald energy   TEWEN  =    -22871.34031752
  -Hartree energ DENC   =     -9079.43327504
  -exchange      EXHF   =         0.00000000
  -V(xc)+E(xc)   XCENC  =      1472.60846554
  PAW double counting   =     29454.95373865   -32274.18461762
  entropy T*S    EENTRO =        -0.00000000
  eigenvalues    EBANDS =     -5210.21179814
  atomic energy  EATOM  =     37532.17946992
  Solvation  Ediel_sol  =         0.00000000
  ---------------------------------------------------
  free energy    TOTEN  =      -223.90161056 eV

  energy without entropy =     -223.90161056  energy(sigma->0) =     -223.90161056


--------------------------------------------------------------------------------------------------------




--------------------------------------- Iteration      1(  11)  ---------------------------------------


    POTLOK:  cpu time      0.0364: real time      0.0383
    SETDIJ:  cpu time      0.0302: real time      0.0303
     EDDAV:  cpu time     11.4432: real time     11.5036
       DOS:  cpu time      0.0004: real time      0.0004
    CHARGE:  cpu time      0.3254: real time      0.3273
    MIXING:  cpu time      0.0018: real time      0.0018
    --------------------------------------------
      LOOP:  cpu time     11.8374: real time     11.9018

 eigenvalue-minimisations  :  5504
 total energy-change (2. order) : 0.7569219E-03  (-0.1707547E-03)
 number of electron     448.0000022 magnetization 
 augmentation part      112.8515006 magnetization 

 Broyden mixing:
  rms(total) = 0.81157E-02    rms(broyden)= 0.81155E-02
  rms(prec ) = 0.85114E-02
  weight for this iteration     100.00

 eigenvalues of (default mixing * dielectric matrix)
  average eigenvalue GAMMA=   1.5818
  2.9132  2.4348  1.3269  1.0106  0.9027  0.9027

 Free energy of the ion-electron system (eV)
  ---------------------------------------------------
  alpha Z        PSCENC =       751.52672365
  Ewald energy   TEWEN  =    -22871.34031752
  -Hartree energ DENC   =     -9078.31066759
  -exchange      EXHF   =         0.00000000
  -V(xc)+E(xc)   XCENC  =      1472.52777940
  PAW double counting   =     29488.11789651   -32307.49482889
  entropy T*S    EENTRO =        -0.00000000
  eigenvalues    EBANDS =     -5211.10690912
  atomic energy  EATOM  =     37532.17946992
  Solvation  Ediel_sol  =         0.00000000
  ---------------------------------------------------
  free energy    TOTEN  =      -223.90085363 eV

  energy without entropy =     -223.90085363  energy(sigma->0) =     -223.90085363


--------------------------------------------------------------------------------------------------------




--------------------------------------- Iteration      1(  12)  ---------------------------------------


    POTLOK:  cpu time      0.0362: real time      0.0364
    SETDIJ:  cpu time      0.0302: real time      0.0303
     EDDAV:  cpu time     12.5441: real time     12.6110
       DOS:  cpu time      0.0004: real time      0.0004
    CHARGE:  cpu time      0.3245: real time      0.3264
    MIXING:  cpu time      0.0014: real time      0.0014
    --------------------------------------------
      LOOP:  cpu time     12.9368: real time     13.0059

 eigenvalue-minimisations  :  6176
 total energy-change (2. order) : 0.3196934E-04  (-0.1396683E-04)
 number of electron     448.0000022 magnetization 
 augmentation part      112.8487313 magnetization 

 Broyden mixing:
  rms(total) = 0.12812E-02    rms(broyden)= 0.12796E-02
  rms(prec ) = 0.15422E-02
  weight for this iteration     100.00

 eigenvalues of (default mixing * dielectric matrix)
  average eigenvalue GAMMA=   1.6271
  2.8884  2.4466  1.7880  1.2118  1.2118  1.0368  0.8063

 Free energy of the ion-electron system (eV)
  ---------------------------------------------------
  alpha Z        PSCENC =       751.52672365
  Ewald energy   TEWEN  =    -22871.34031752
  -Hartree energ DENC   =     -9078.17326144
  -exchange      EXHF   =         0.00000000
  -V(xc)+E(xc)   XCENC  =      1472.51810045
  PAW double counting   =     29498.96791895   -32318.34427945
  entropy T*S    EENTRO =        -0.00000000
  eigenvalues    EBANDS =     -5211.23517623
  atomic energy  EATOM  =     37532.17946992
  Solvation  Ediel_sol  =         0.00000000
  ---------------------------------------------------
  free energy    TOTEN  =      -223.90082166 eV

  energy without entropy =     -223.90082166  energy(sigma->0) =     -223.90082166


--------------------------------------------------------------------------------------------------------




--------------------------------------- Iteration      1(  13)  ---------------------------------------


    POTLOK:  cpu time      0.0365: real time      0.0396
    SETDIJ:  cpu time      0.0299: real time      0.0301
     EDDAV:  cpu time     11.3704: real time     11.4298
       DOS:  cpu time      0.0006: real time      0.0006
    CHARGE:  cpu time      0.3227: real time      0.3243
    MIXING:  cpu time      0.0014: real time      0.0014
    --------------------------------------------
      LOOP:  cpu time     11.7614: real time     11.8257

 eigenvalue-minimisations  :  5472
 total energy-change (2. order) :-0.2754437E-05  (-0.1793660E-05)
 number of electron     448.0000022 magnetization 
 augmentation part      112.8478480 magnetization 

 Broyden mixing:
  rms(total) = 0.28951E-03    rms(broyden)= 0.28589E-03
  rms(prec ) = 0.33798E-03
  weight for this iteration     100.00

 eigenvalues of (default mixing * dielectric matrix)
  average eigenvalue GAMMA=   1.6331
  2.9780  2.3928  2.3928  1.2463  0.9997  0.9997  1.0278  1.0278

 Free energy of the ion-electron system (eV)
  ---------------------------------------------------
  alpha Z        PSCENC =       751.52672365
  Ewald energy   TEWEN  =    -22871.34031752
  -Hartree energ DENC   =     -9078.11199327
  -exchange      EXHF   =         0.00000000
  -V(xc)+E(xc)   XCENC  =      1472.51115914
  PAW double counting   =     29498.52645531   -32317.89670559
  entropy T*S    EENTRO =        -0.00000000
  eigenvalues    EBANDS =     -5211.29561605
  atomic energy  EATOM  =     37532.17946992
  Solvation  Ediel_sol  =         0.00000000
  ---------------------------------------------------
  free energy    TOTEN  =      -223.90082442 eV

  energy without entropy =     -223.90082442  energy(sigma->0) =     -223.90082442


--------------------------------------------------------------------------------------------------------




--------------------------------------- Iteration      1(  14)  ---------------------------------------


    POTLOK:  cpu time      0.0355: real time      0.0358
    SETDIJ:  cpu time      0.0300: real time      0.0304
     EDDAV:  cpu time     12.5580: real time     12.6235
       DOS:  cpu time      0.0005: real time      0.0005
    CHARGE:  cpu time      0.3239: real time      0.3255
    MIXING:  cpu time      0.0016: real time      0.0016
    --------------------------------------------
      LOOP:  cpu time     12.9495: real time     13.0172

 eigenvalue-minimisations  :  6176
 total energy-change (2. order) :-0.3446621E-07  (-0.1768767E-06)
 number of electron     448.0000022 magnetization 
 augmentation part      112.8476455 magnetization 

 Broyden mixing:
  rms(total) = 0.96269E-03    rms(broyden)= 0.96174E-03
  rms(prec ) = 0.98566E-03
  weight for this iteration     100.00

 eigenvalues of (default mixing * dielectric matrix)
  average eigenvalue GAMMA=   1.6506
  3.0157  2.6237  2.6237  1.4054  1.2532  1.2532  0.9554  0.9554  0.7698

 Free energy of the ion-electron system (eV)
  ---------------------------------------------------
  alpha Z        PSCENC =       751.52672365
  Ewald energy   TEWEN  =    -22871.34031752
  -Hartree energ DENC   =     -9078.11511049
  -exchange      EXHF   =         0.00000000
  -V(xc)+E(xc)   XCENC  =      1472.51203709
  PAW double counting   =     29500.15234129   -32319.52252955
  entropy T*S    EENTRO =        -0.00000000
  eigenvalues    EBANDS =     -5211.29343885
  atomic energy  EATOM  =     37532.17946992
  Solvation  Ediel_sol  =         0.00000000
  ---------------------------------------------------
  free energy    TOTEN  =      -223.90082445 eV

  energy without entropy =     -223.90082445  energy(sigma->0) =     -223.90082445


--------------------------------------------------------------------------------------------------------




--------------------------------------- Iteration      1(  15)  ---------------------------------------


    POTLOK:  cpu time      0.0362: real time      0.0373
    SETDIJ:  cpu time      0.0305: real time      0.0306
     EDDAV:  cpu time     10.6646: real time     10.7199
       DOS:  cpu time      0.0005: real time      0.0005
    CHARGE:  cpu time      0.3254: real time      0.3273
    MIXING:  cpu time      0.0015: real time      0.0015
    --------------------------------------------
      LOOP:  cpu time     11.0585: real time     11.1170

 eigenvalue-minimisations  :  5024
 total energy-change (2. order) :-0.1170498E-05  (-0.5007115E-07)
 number of electron     448.0000022 magnetization 
 augmentation part      112.8477476 magnetization 

 Broyden mixing:
  rms(total) = 0.39853E-03    rms(broyden)= 0.39631E-03
  rms(prec ) = 0.40601E-03
  weight for this iteration     100.00

 eigenvalues of (default mixing * dielectric matrix)
  average eigenvalue GAMMA=   1.6149
  3.0895  2.7425  2.4222  1.3830  1.3830  1.3538  0.9726  0.9726  0.9148  0.9148

 Free energy of the ion-electron system (eV)
  ---------------------------------------------------
  alpha Z        PSCENC =       751.52672365
  Ewald energy   TEWEN  =    -22871.34031752
  -Hartree energ DENC   =     -9078.14258185
  -exchange      EXHF   =         0.00000000
  -V(xc)+E(xc)   XCENC  =      1472.51298635
  PAW double counting   =     29499.09027492   -32318.45759295
  entropy T*S    EENTRO =        -0.00000000
  eigenvalues    EBANDS =     -5211.26978816
  atomic energy  EATOM  =     37532.17946992
  Solvation  Ediel_sol  =         0.00000000
  ---------------------------------------------------
  free energy    TOTEN  =      -223.90082562 eV

  energy without entropy =     -223.90082562  energy(sigma->0) =     -223.90082562


--------------------------------------------------------------------------------------------------------




--------------------------------------- Iteration      1(  16)  ---------------------------------------


    POTLOK:  cpu time      0.0365: real time      0.0380
    SETDIJ:  cpu time      0.0304: real time      0.0305
     EDDAV:  cpu time     11.5675: real time     11.6282
       DOS:  cpu time      0.0004: real time      0.0004
    CHARGE:  cpu time      0.3256: real time      0.3275
    MIXING:  cpu time      0.0017: real time      0.0017
    --------------------------------------------
      LOOP:  cpu time     11.9621: real time     12.0263

 eigenvalue-minimisations  :  5568
 total energy-change (2. order) :-0.6426344E-06  (-0.1354765E-07)
 number of electron     448.0000022 magnetization 
 augmentation part      112.8478466 magnetization 

 Broyden mixing:
  rms(total) = 0.72277E-04    rms(broyden)= 0.58783E-04
  rms(prec ) = 0.63587E-04
  weight for this iteration     100.00
  WARNING: grid for Broyden might be to small

 eigenvalues of (default mixing * dielectric matrix)
  average eigenvalue GAMMA=   1.6130
  3.1449  2.7323  2.4027  1.6240  1.6240  1.3186  1.1264  1.1264  0.9557  0.8442
  0.8442

 Free energy of the ion-electron system (eV)
  ---------------------------------------------------
  alpha Z        PSCENC =       751.52672365
  Ewald energy   TEWEN  =    -22871.34031752
  -Hartree energ DENC   =     -9078.15144483
  -exchange      EXHF   =         0.00000000
  -V(xc)+E(xc)   XCENC  =      1472.51321701
  PAW double counting   =     29498.38217161   -32317.74759616
  entropy T*S    EENTRO =        -0.00000000
  eigenvalues    EBANDS =     -5211.26304993
  atomic energy  EATOM  =     37532.17946992
  Solvation  Ediel_sol  =         0.00000000
  ---------------------------------------------------
  free energy    TOTEN  =      -223.90082627 eV

  energy without entropy =     -223.90082627  energy(sigma->0) =     -223.90082627


--------------------------------------------------------------------------------------------------------




--------------------------------------- Iteration      1(  17)  ---------------------------------------


    POTLOK:  cpu time      0.0368: real time      0.0371
    SETDIJ:  cpu time      0.0307: real time      0.0308
     EDDAV:  cpu time      8.5689: real time      8.6138
       DOS:  cpu time      0.0005: real time      0.0005
    CHARGE:  cpu time      0.3304: real time      0.3322
    MIXING:  cpu time      0.0015: real time      0.0015
    --------------------------------------------
      LOOP:  cpu time      8.9687: real time      9.0159

 eigenvalue-minimisations  :  3744
 total energy-change (2. order) :-0.3162859E-07  (-0.7244851E-09)
 number of electron     448.0000022 magnetization 
 augmentation part      112.8478538 magnetization 

 Broyden mixing:
  rms(total) = 0.46054E-04    rms(broyden)= 0.18821E-04
  rms(prec ) = 0.23958E-04
  weight for this iteration     100.00
  WARNING: grid for Broyden might be to small

 eigenvalues of (default mixing * dielectric matrix)
  average eigenvalue GAMMA=   1.5939
  3.1609  2.8504  2.2384  1.9673  1.3977  1.3977  1.2312  1.2312  0.9086  0.9086
  0.9171  0.9171

 Free energy of the ion-electron system (eV)
  ---------------------------------------------------
  alpha Z        PSCENC =       751.52672365
  Ewald energy   TEWEN  =    -22871.34031752
  -Hartree energ DENC   =     -9078.15284103
  -exchange      EXHF   =         0.00000000
  -V(xc)+E(xc)   XCENC  =      1472.51325631
  PAW double counting   =     29498.28741527   -32317.65247167
  entropy T*S    EENTRO =        -0.00000000
  eigenvalues    EBANDS =     -5211.26206124
  atomic energy  EATOM  =     37532.17946992
  Solvation  Ediel_sol  =         0.00000000
  ---------------------------------------------------
  free energy    TOTEN  =      -223.90082630 eV

  energy without entropy =     -223.90082630  energy(sigma->0) =     -223.90082630


--------------------------------------------------------------------------------------------------------




--------------------------------------- Iteration      1(  18)  ---------------------------------------


    POTLOK:  cpu time      0.0366: real time      0.0368
    SETDIJ:  cpu time      0.0308: real time      0.0310
     EDDAV:  cpu time      8.1699: real time      8.2122
       DOS:  cpu time      0.0005: real time      0.0005
    CHARGE:  cpu time      0.3270: real time      0.3287
    MIXING:  cpu time      0.0018: real time      0.0018
    --------------------------------------------
      LOOP:  cpu time      8.5665: real time      8.6109

 eigenvalue-minimisations  :  3488
 total energy-change (2. order) :-0.5712354E-07  (-0.5371166E-09)
 number of electron     448.0000022 magnetization 
 augmentation part      112.8478641 magnetization 

 Broyden mixing:
  rms(total) = 0.48210E-04    rms(broyden)= 0.23612E-04
  rms(prec ) = 0.25332E-04
  weight for this iteration     100.00
  WARNING: grid for Broyden might be to small

 eigenvalues of (default mixing * dielectric matrix)
  average eigenvalue GAMMA=   1.5499
  3.1370  2.8716  2.2079  2.2079  1.2081  1.2081  1.3120  1.1789  1.1789  1.0539
  0.8990  0.8990  0.7867

 Free energy of the ion-electron system (eV)
  ---------------------------------------------------
  alpha Z        PSCENC =       751.52672365
  Ewald energy   TEWEN  =    -22871.34031752
  -Hartree energ DENC   =     -9078.15542481
  -exchange      EXHF   =         0.00000000
  -V(xc)+E(xc)   XCENC  =      1472.51335251
  PAW double counting   =     29498.23632041   -32317.60109788
  entropy T*S    EENTRO =        -0.00000000
  eigenvalues    EBANDS =     -5211.25985264
  atomic energy  EATOM  =     37532.17946992
  Solvation  Ediel_sol  =         0.00000000
  ---------------------------------------------------
  free energy    TOTEN  =      -223.90082635 eV

  energy without entropy =     -223.90082635  energy(sigma->0) =     -223.90082635


--------------------------------------------------------------------------------------------------------




--------------------------------------- Iteration      1(  19)  ---------------------------------------


    POTLOK:  cpu time      0.0369: real time      0.0406
    SETDIJ:  cpu time      0.0309: real time      0.0311
     EDDAV:  cpu time      7.3861: real time      7.4249
       DOS:  cpu time      0.0005: real time      0.0005
    CHARGE:  cpu time      0.3265: real time      0.3281
    MIXING:  cpu time      0.0020: real time      0.0020
    --------------------------------------------
      LOOP:  cpu time      7.7829: real time      7.8271

 eigenvalue-minimisations  :  3008
 total energy-change (2. order) : 0.1618901E-07  (-0.3002752E-09)
 number of electron     448.0000022 magnetization 
 augmentation part      112.8478650 magnetization 

 Broyden mixing:
  rms(total) = 0.45530E-04    rms(broyden)= 0.17502E-04
  rms(prec ) = 0.18925E-04
  weight for this iteration     100.00
  WARNING: grid for Broyden might be to small

 eigenvalues of (default mixing * dielectric matrix)
  average eigenvalue GAMMA=   1.5899
  3.2907  2.9229  2.3932  2.3932  1.5249  1.5249  1.2844  1.1899  1.1899  0.9999
  0.9999  0.8406  0.8522  0.8522

 Free energy of the ion-electron system (eV)
  ---------------------------------------------------
  alpha Z        PSCENC =       751.52672365
  Ewald energy   TEWEN  =    -22871.34031752
  -Hartree energ DENC   =     -9078.15549883
  -exchange      EXHF   =         0.00000000
  -V(xc)+E(xc)   XCENC  =      1472.51336191
  PAW double counting   =     29498.25528600   -32317.62005090
  entropy T*S    EENTRO =        -0.00000000
  eigenvalues    EBANDS =     -5211.25980057
  atomic energy  EATOM  =     37532.17946992
  Solvation  Ediel_sol  =         0.00000000
  ---------------------------------------------------
  free energy    TOTEN  =      -223.90082634 eV

  energy without entropy =     -223.90082634  energy(sigma->0) =     -223.90082634


--------------------------------------------------------------------------------------------------------




--------------------------------------- Iteration      1(  20)  ---------------------------------------


    POTLOK:  cpu time      0.0361: real time      0.0365
    SETDIJ:  cpu time      0.0306: real time      0.0307
     EDDAV:  cpu time      7.7098: real time      7.7500
       DOS:  cpu time      0.0005: real time      0.0005
    CHARGE:  cpu time      0.3278: real time      0.3295
    MIXING:  cpu time      0.0025: real time      0.0025
    --------------------------------------------
      LOOP:  cpu time      8.1073: real time      8.1497

 eigenvalue-minimisations  :  3200
 total energy-change (2. order) : 0.1808803E-07  (-0.7522893E-10)
 number of electron     448.0000022 magnetization 
 augmentation part      112.8478645 magnetization 

 Broyden mixing:
  rms(total) = 0.45325E-04    rms(broyden)= 0.16962E-04
  rms(prec ) = 0.17589E-04
  weight for this iteration     100.00
  WARNING: grid for Broyden might be to small

 eigenvalues of (default mixing * dielectric matrix)
  average eigenvalue GAMMA=   1.6215
  3.6766  3.0004  2.7333  2.3356  1.8140  1.3525  1.3525  1.1968  1.1968  1.1225
  1.1225  0.9028  0.9028  0.8064  0.8064

 Free energy of the ion-electron system (eV)
  ---------------------------------------------------
  alpha Z        PSCENC =       751.52672365
  Ewald energy   TEWEN  =    -22871.34031752
  -Hartree energ DENC   =     -9078.15536472
  -exchange      EXHF   =         0.00000000
  -V(xc)+E(xc)   XCENC  =      1472.51334946
  PAW double counting   =     29498.25338268   -32317.61812104
  entropy T*S    EENTRO =        -0.00000000
  eigenvalues    EBANDS =     -5211.25994876
  atomic energy  EATOM  =     37532.17946992
  Solvation  Ediel_sol  =         0.00000000
  ---------------------------------------------------
  free energy    TOTEN  =      -223.90082632 eV

  energy without entropy =     -223.90082632  energy(sigma->0) =     -223.90082632


--------------------------------------------------------------------------------------------------------




--------------------------------------- Iteration      1(  21)  ---------------------------------------


    POTLOK:  cpu time      0.0362: real time      0.0365
    SETDIJ:  cpu time      0.0306: real time      0.0307
     EDDAV:  cpu time      7.4291: real time      7.4677
       DOS:  cpu time      0.0004: real time      0.0004
    CHARGE:  cpu time      0.3354: real time      0.3372
    MIXING:  cpu time      0.0018: real time      0.0018
    --------------------------------------------
      LOOP:  cpu time      7.8335: real time      7.8742

 eigenvalue-minimisations  :  3040
 total energy-change (2. order) : 0.3247987E-07  (-0.7622192E-10)
 number of electron     448.0000022 magnetization 
 augmentation part      112.8478618 magnetization 

 Broyden mixing:
  rms(total) = 0.42418E-04    rms(broyden)= 0.57165E-05
  rms(prec ) = 0.60789E-05
  weight for this iteration     100.00
  WARNING: grid for Broyden might be to small

 eigenvalues of (default mixing * dielectric matrix)
  average eigenvalue GAMMA=   1.5353
  3.7002  2.9971  2.7445  2.3383  1.7368  1.3079  1.3079  1.2428  1.2428  1.0953
  1.0953  0.9138  0.9138  0.7751  0.7751  0.3775

 Free energy of the ion-electron system (eV)
  ---------------------------------------------------
  alpha Z        PSCENC =       751.52672365
  Ewald energy   TEWEN  =    -22871.34031752
  -Hartree energ DENC   =     -9078.15480669
  -exchange      EXHF   =         0.00000000
  -V(xc)+E(xc)   XCENC  =      1472.51332672
  PAW double counting   =     29498.27979215   -32317.64456294
  entropy T*S    EENTRO =        -0.00000000
  eigenvalues    EBANDS =     -5211.26045157
  atomic energy  EATOM  =     37532.17946992
  Solvation  Ediel_sol  =         0.00000000
  ---------------------------------------------------
  free energy    TOTEN  =      -223.90082629 eV

  energy without entropy =     -223.90082629  energy(sigma->0) =     -223.90082629


--------------------------------------------------------------------------------------------------------




--------------------------------------- Iteration      1(  22)  ---------------------------------------


[...]
         0         1         2         3         4         5         6         7         8         9
 total charge-density along one line
 
 pseudopotential strength for first ion, spin component:           1
-25.387  -0.000   0.000   2.510   0.000  -0.000  -0.000  -0.000
 -0.000 -25.387  -0.000   0.000   2.510   0.000   0.000   0.000
  0.000  -0.000 -25.387  -0.000   0.000   2.510  -0.000  -0.001
  2.510   0.000  -0.000   6.528  -0.000   0.000   0.000  -0.000
  0.000   2.510   0.000  -0.000   6.528  -0.000  -0.000   0.000
 -0.000   0.000   2.510   0.000  -0.000   6.528   0.000   0.000
 -0.000   0.000  -0.000   0.000  -0.000   0.000   1.428   6.993
 -0.000   0.000  -0.001  -0.000   0.000   0.000   6.993  33.989
 total augmentation occupancy for first ion, spin component:           1
  2.002   0.000  -0.000   0.002   0.000  -0.000   0.000  -0.000
  0.000   2.002   0.000   0.000   0.002   0.000  -0.000   0.000
 -0.000   0.000   2.002  -0.000   0.000   0.002   0.001  -0.000
  0.002   0.000  -0.000   0.017   0.000  -0.000   0.000   0.000
  0.000   0.002   0.000   0.000   0.017   0.000   0.000  -0.000
 -0.000   0.000   0.002  -0.000   0.000   0.018   0.003  -0.000
  0.000  -0.000   0.001   0.000   0.000   0.003   0.403  -0.001
 -0.000   0.000  -0.000   0.000  -0.000  -0.000  -0.001   0.000


------------------------ aborting loop because EDIFF is reached ----------------------------------------


    CHARGE:  cpu time      0.3242: real time      0.3261
    FORLOC:  cpu time      0.0113: real time      0.0113
    FORNL :  cpu time      2.2536: real time      2.2677
    STRESS:  cpu time     12.6837: real time     12.7493
    FORCOR:  cpu time      0.0432: real time      0.0434
    FORHAR:  cpu time      0.0172: real time      0.0173
    MIXING:  cpu time      0.0013: real time      0.0013
    OFIELD:  cpu time      0.0000: real time      0.0000

  FORCE on cell =-STRESS in cart. coord.  units (eV):
  Direction    XX          YY          ZZ          XY          YZ          ZX
  --------------------------------------------------------------------------------------
  Alpha Z   751.52672   751.52672   751.52672
  Ewald   -7623.77537 -7623.92711 -7623.77517    -0.00013     0.01423     0.00741
  Hartree  3026.07105  3026.01250  3026.07120    -0.00010     0.01053     0.00575
  E(xc)   -2014.34807 -2014.34813 -2014.34807    -0.00000    -0.00000     0.00000
  Local   -2024.95743 -2024.74971 -2024.95777     0.00022    -0.02452    -0.01313
  n-local  1887.62622  1887.62058  1887.62622    -0.00000    -0.00003     0.00002
  augment   687.00915   687.00945   687.00886    -0.00000    -0.00015    -0.00010
  Kinetic  5310.52505  5310.52314  5310.52505    -0.00000     0.00003     0.00000
  Fock        0.00000     0.00000     0.00000     0.00000     0.00000     0.00000
  -------------------------------------------------------------------------------------
  Total      -0.32268    -0.33256    -0.32297    -0.00000     0.00010    -0.00005
  in kB      -0.36759    -0.37884    -0.36792    -0.00000     0.00011    -0.00005
  external pressure =       -0.37 kB  Pullay stress =        0.00 kB


 VOLUME and BASIS-vectors are now :
 -----------------------------------------------------------------------------
  energy-cutoff  :      341.21
  volume of cell :     1406.43
      direct lattice vectors                 reciprocal lattice vectors
    11.204002360  0.000000000  0.000000000     0.089253819  0.000000000  0.000000000
     0.000000000 11.204002360  0.000000000     0.000000000  0.089253819  0.000000000
     0.000000000  0.000000000 11.204002360     0.000000000  0.000000000  0.089253819

  length of vectors
    11.204002360 11.204002360 11.204002360     0.089253819  0.089253819  0.089253819


 FORCES acting on ions
    electron-ion (+dipol)            ewald-force                    non-local-force                 convergence-correction
 -----------------------------------------------------------------------------------------------
   0.402E+01 -.256E-02 0.305E+00   -.397E+01 0.267E-02 -.313E+00   -.116E+00 -.905E-04 0.656E-02   -.145E-05 -.760E-07 0.362E-05
   -.242E+00 -.445E+00 0.402E+01   0.247E+00 0.479E+00 -.397E+01   -.293E-02 -.273E-01 -.116E+00   -.129E-07 0.148E-05 -.299E-06
   -.242E+00 0.445E+00 -.688E+00   0.247E+00 -.479E+00 0.726E+00   -.292E-02 0.273E-01 -.303E-01   -.493E-07 -.149E-05 0.200E-05
   0.745E+00 0.248E-02 -.240E+00   -.787E+00 -.259E-02 0.244E+00   0.338E-01 0.897E-04 -.283E-02   0.186E-05 -.271E-06 -.416E-07
   0.164E+00 0.752E-03 -.167E+00   -.164E+00 -.777E-03 0.173E+00   -.276E-03 0.205E-04 -.553E-02   0.411E-05 0.193E-06 -.372E-05
   -.721E-02 -.397E-01 -.451E+00   0.709E-02 0.392E-01 0.516E+00   0.919E-04 0.427E-03 -.559E-01   0.536E-06 -.204E-06 -.288E-05
   -.242E+00 -.438E+00 0.200E+00   0.247E+00 0.470E+00 -.228E+00   -.293E-02 -.268E-01 0.243E-01   0.417E-06 0.586E-06 -.151E-05
   -.138E+00 0.248E-02 -.248E+00   0.162E+00 -.259E-02 0.253E+00   -.203E-01 0.895E-04 -.312E-02   0.416E-05 0.846E-07 0.206E-06
   0.161E+00 0.248E-02 0.300E+00   -.161E+00 -.259E-02 -.308E+00   -.387E-03 0.898E-04 0.648E-02   0.410E-05 0.636E-07 0.277E-05
   -.242E+00 0.445E+00 0.164E+00   0.247E+00 -.479E+00 -.163E+00   -.293E-02 0.273E-01 -.292E-03   -.348E-07 -.129E-05 0.325E-05
   -.721E-02 -.445E+00 -.282E+00   0.709E-02 0.479E+00 0.286E+00   0.923E-04 -.273E-01 -.250E-02   -.210E-08 0.129E-05 0.352E-07
   0.340E+00 -.249E-02 -.472E-02   -.347E+00 0.259E-02 0.450E-02   0.606E-02 -.876E-04 0.182E-03   0.193E-05 0.286E-06 -.106E-06
   0.657E-01 -.752E-03 -.167E+00   -.682E-01 0.777E-03 0.173E+00   0.206E-02 -.205E-04 -.553E-02   0.387E-05 0.160E-06 -.309E-05
   -.721E-02 0.397E-01 -.127E+00   0.709E-02 -.392E-01 0.128E+00   0.923E-04 -.427E-03 -.122E-02   -.259E-06 0.372E-06 -.370E-05
   -.721E-02 0.438E+00 -.206E+00   0.709E-02 -.470E+00 0.211E+00   0.924E-04 0.268E-01 -.346E-02   -.212E-06 -.301E-06 0.265E-06
   0.260E+00 -.248E-02 -.113E-01   -.269E+00 0.259E-02 0.114E-01   0.689E-02 -.915E-04 -.548E-04   0.349E-05 -.416E-06 0.187E-06
   -.449E+00 -.248E-02 0.300E+00   0.513E+00 0.259E-02 -.308E+00   -.558E-01 -.898E-04 0.649E-02   -.186E-05 -.224E-06 0.284E-05
   -.246E+00 0.438E+00 0.164E+00   0.250E+00 -.470E+00 -.163E+00   -.303E-02 0.268E-01 -.296E-03   0.611E-06 -.158E-05 0.415E-05
   -.246E+00 0.397E-01 0.430E+00   0.250E+00 -.392E-01 -.463E+00   -.303E-02 -.427E-03 0.269E-01   0.693E-06 -.265E-07 -.160E-05
   -.612E+00 -.750E-03 -.243E+00   0.652E+00 0.777E-03 0.248E+00   -.329E-01 -.222E-04 -.295E-02   -.233E-05 -.223E-06 0.451E-06
   -.127E+00 0.752E-03 -.167E+00   0.129E+00 -.777E-03 0.173E+00   -.124E-02 0.203E-04 -.553E-02   -.446E-05 0.463E-06 -.312E-05
   -.881E-02 0.395E-01 -.127E+00   0.877E-02 -.391E-01 0.128E+00   0.350E-04 -.408E-03 -.122E-02   0.240E-06 -.267E-06 -.422E-05
   -.246E+00 -.395E-01 -.446E+00   0.250E+00 0.391E-01 0.479E+00   -.303E-02 0.407E-03 -.268E-01   -.399E-07 0.287E-06 0.186E-05
   0.271E+00 -.754E-03 -.245E+00   -.297E+00 0.777E-03 0.250E+00   0.213E-01 -.185E-04 -.301E-02   -.368E-05 -.210E-06 -.368E-07
   -.124E+00 0.248E-02 0.300E+00   0.126E+00 -.259E-02 -.308E+00   -.113E-02 0.898E-04 0.648E-02   -.434E-05 0.209E-06 0.284E-05
   -.246E+00 -.438E+00 0.649E-01   0.250E+00 0.470E+00 -.674E-01   -.303E-02 -.268E-01 0.204E-02   -.630E-08 0.182E-05 0.353E-05
   -.881E-02 -.397E-01 0.323E-01   0.877E-02 0.392E-01 -.320E-01   0.347E-04 0.427E-03 -.315E-03   0.395E-06 0.111E-07 -.389E-07
   -.206E+00 0.750E-03 -.796E-02   0.212E+00 -.777E-03 0.787E-02   -.510E-02 0.225E-04 0.716E-04   -.326E-05 -.685E-07 -.134E-06
   -.613E-01 -.752E-03 -.167E+00   0.638E-01 0.777E-03 0.173E+00   -.205E-02 -.204E-04 -.553E-02   -.457E-05 -.301E-06 -.328E-05
   -.881E-02 -.395E-01 -.606E-01   0.877E-02 0.391E-01 0.630E-01   0.350E-04 0.408E-03 -.203E-02   0.270E-06 0.155E-07 -.398E-05
   -.881E-02 0.395E-01 -.484E-01   0.877E-02 -.391E-01 0.478E-01   0.348E-04 -.407E-03 0.442E-03   0.401E-06 -.189E-06 0.984E-07
   -.127E+00 0.754E-03 -.806E-02   0.134E+00 -.777E-03 0.799E-02   -.593E-02 0.185E-04 0.549E-04   -.394E-05 0.231E-06 0.748E-06
   -.611E-01 -.159E+00 -.220E+01   0.614E-01 0.161E+00 0.222E+01   -.539E-03 -.330E-02 0.441E-02   0.840E-06 0.111E-05 0.280E-05
   0.107E+01 0.159E+00 -.459E-01   -.108E+01 -.161E+00 0.462E-01   0.198E-01 0.330E-02 -.590E-03   -.533E-06 -.101E-05 -.283E-06
   0.892E+00 0.152E-01 0.907E+00   -.903E+00 -.153E-01 -.918E+00   0.166E-01 -.458E-04 0.165E-01   -.568E-06 -.848E-06 0.662E-06
   -.204E+01 -.152E-01 0.907E+00   0.206E+01 0.153E-01 -.918E+00   0.769E-02 0.442E-04 0.165E-01   0.118E-05 -.404E-06 0.381E-06
   -.611E-01 -.159E+00 -.182E+01   0.614E-01 0.161E+00 0.184E+01   -.546E-03 -.330E-02 0.590E-02   -.107E-06 -.944E-07 0.787E-06
   0.750E+00 -.157E+00 -.795E-01   -.759E+00 0.159E+00 0.799E-01   0.133E-01 -.325E-02 -.552E-03   0.322E-05 0.980E-06 0.119E-05
   0.110E+00 0.386E-03 -.277E+00   -.111E+00 -.398E-03 0.281E+00   0.155E-02 0.228E-04 -.711E-02   0.171E-05 -.103E-05 -.748E-06
   -.164E-01 0.156E-02 -.277E+00   0.162E-01 -.158E-02 0.281E+00   0.450E-03 0.279E-04 -.711E-02   0.520E-07 0.386E-06 -.357E-06
   -.611E-01 0.159E+00 -.175E+00   0.614E-01 -.161E+00 0.177E+00   -.543E-03 0.330E-02 -.285E-02   -.222E-06 -.889E-06 0.866E-06
   0.267E+00 -.159E+00 -.607E-01   -.270E+00 0.161E+00 0.610E-01   0.483E-02 -.330E-02 -.518E-03   0.109E-05 0.829E-06 -.109E-06
   0.907E+00 -.152E-01 0.108E+00   -.918E+00 0.153E-01 -.109E+00   0.165E-01 0.449E-04 0.153E-02   0.124E-05 0.283E-06 0.232E-05
   -.164E-01 0.152E-01 0.907E+00   0.162E-01 -.153E-01 -.918E+00   0.449E-03 -.454E-04 0.165E-01   -.225E-06 -.729E-06 0.148E-07
   -.611E-01 0.159E+00 0.140E+00   0.614E-01 -.161E+00 -.142E+00   -.545E-03 0.330E-02 0.367E-02   -.133E-05 -.469E-06 -.511E-06
   -.486E-01 0.157E+00 -.646E-01   0.496E-01 -.159E+00 0.650E-01   -.172E-02 0.325E-02 -.620E-03   0.268E-05 0.667E-06 0.970E-07
   0.109E+00 -.381E-03 -.925E-01   -.110E+00 0.398E-03 0.935E-01   0.153E-02 -.259E-04 -.167E-02   0.202E-05 -.911E-06 -.175E-05
   -.165E-02 -.156E-02 -.277E+00   0.163E-02 0.158E-02 0.281E+00   0.246E-04 -.291E-04 -.711E-02   0.100E-05 -.974E-06 -.123E-05
   -.643E-01 0.157E+00 0.141E+00   0.646E-01 -.159E+00 -.143E+00   -.595E-03 0.325E-02 0.369E-02   0.910E-06 -.311E-06 -.127E-05
   -.436E+00 0.159E+00 -.627E-01   0.442E+00 -.161E+00 0.630E-01   -.104E-01 0.330E-02 -.572E-03   -.596E-06 -.949E-06 0.802E-06
   -.262E+00 -.156E-02 0.907E+00   0.266E+00 0.158E-02 -.918E+00   -.715E-02 -.282E-04 0.165E-01   -.750E-06 0.270E-07 0.283E-06
   -.198E+01 -.384E-03 0.108E+00   0.200E+01 0.398E-03 -.109E+00   0.259E-02 -.245E-04 0.153E-02   0.300E-05 0.139E-06 0.297E-05
   -.643E-01 0.157E+00 -.176E+00   0.646E-01 -.159E+00 0.178E+00   -.596E-03 0.325E-02 -.287E-02   0.610E-06 0.192E-07 0.164E-05
   -.120E+00 -.157E+00 -.627E-01   0.122E+00 0.159E+00 0.631E-01   -.386E-02 -.325E-02 -.571E-03   -.283E-05 0.165E-05 0.730E-07
   -.940E-01 -.272E-03 -.277E+00   0.950E-01 0.274E-03 0.281E+00   -.170E-02 -.233E-05 -.711E-02   -.462E-05 0.534E-07 -.119E-05
   -.187E-01 0.273E-03 -.925E-01   0.185E-01 -.274E-03 0.935E-01   0.376E-03 0.178E-05 -.167E-02   0.108E-05 -.800E-06 -.255E-05
   -.643E-01 -.157E+00 0.155E+00   0.646E-01 0.159E+00 -.157E+00   -.596E-03 -.324E-02 0.327E-02   0.606E-06 0.150E-05 0.160E-06
   -.251E+00 -.159E+00 -.614E-01   0.254E+00 0.161E+00 0.617E-01   -.497E-02 -.330E-02 -.546E-03   -.202E-05 0.207E-05 -.552E-06
   -.277E+00 0.156E-02 0.108E+00   0.281E+00 -.158E-02 -.109E+00   -.709E-02 0.269E-04 0.153E-02   -.147E-05 -.577E-06 0.261E-05
   -.187E-01 0.386E-03 0.108E+00   0.185E-01 -.398E-03 -.109E+00   0.376E-03 0.230E-04 0.153E-02   0.722E-06 -.115E-05 0.216E-05
   -.643E-01 -.157E+00 -.160E+00   0.646E-01 0.159E+00 0.162E+00   -.594E-03 -.325E-02 -.325E-02   0.178E-05 0.381E-06 0.620E-06
   0.646E-01 0.157E+00 -.640E-01   -.656E-01 -.159E+00 0.644E-01   0.158E-02 0.324E-02 -.594E-03   -.294E-05 -.136E-05 0.277E-06
   -.927E-01 0.273E-03 -.925E-01   0.937E-01 -.274E-03 0.935E-01   -.167E-02 0.191E-05 -.167E-02   -.194E-05 -.333E-06 -.304E-05
   -.273E-02 -.273E-03 -.925E-01   0.273E-02 0.274E-03 0.935E-01   -.125E-05 -.234E-05 -.167E-02   0.166E-05 0.594E-06 -.213E-05
 -----------------------------------------------------------------------------------------------
   0.150E+00 -.199E-05 0.150E+00   0.136E-12 -.287E-13 -.653E-13   -.149E+00 0.401E-05 -.150E+00   0.183E-05 -.174E-05 0.209E-05
 
 
 POSITION                                       TOTAL-FORCE (eV/Angst)
 -----------------------------------------------------------------------------------
      0.03000      0.00000      0.00000        -0.062797      0.000020     -0.001709
      2.80100      2.80100      0.03000         0.001511      0.005923     -0.062780
      2.80100      0.00000      2.80100         0.001512     -0.005926      0.007440
      0.00000      2.80100      2.80100        -0.007590     -0.000020      0.001493
      0.00000      0.00000      5.60200        -0.000055     -0.000005      0.001165
      2.80100      2.80100      5.60200        -0.000034     -0.000078      0.008915
      2.80100      0.00000      8.40300         0.001514      0.005801     -0.004418
      0.00000      2.80100      8.40300         0.004136     -0.000019      0.001527
      0.00000      5.60200      0.00000        -0.000035     -0.000019     -0.001664
      2.80100      8.40300      0.00000         0.001513     -0.005925     -0.000055
      2.80100      5.60200      2.80100        -0.000034      0.005926      0.001436
      0.00000      8.40300      2.80100        -0.001588      0.000019     -0.000053
      0.00000      5.60200      5.60200        -0.000459      0.000004      0.001164
      2.80100      8.40300      5.60200        -0.000034      0.000077      0.000311
      2.80100      5.60200      8.40300        -0.000033     -0.005801      0.001586
      0.00000      8.40300      8.40300        -0.001738      0.000020     -0.000001
      5.60200      0.00000      0.00000         0.008896      0.000019     -0.001659
      8.40300      2.80100      0.00000         0.001509     -0.005801     -0.000054
      8.40300      0.00000      2.80100         0.001508      0.000078     -0.005835
      5.60200      2.80100      2.80100         0.007090      0.000005      0.001518
      5.60200      0.00000      5.60200         0.000314     -0.000004      0.001165
      8.40300      2.80100      5.60200        -0.000021      0.000073      0.000310
      8.40300      0.00000      8.40300         0.001508     -0.000073      0.005780
      5.60200      2.80100      8.40300        -0.004637      0.000004      0.001504
      5.60200      5.60200      0.00000         0.000290     -0.000019     -0.001665
      8.40300      8.40300      0.00000         0.001508      0.005801     -0.000454
      8.40300      5.60200      2.80100        -0.000021     -0.000077      0.000040
      5.60200      8.40300      2.80100         0.001087     -0.000005     -0.000029
      5.60200      5.60200      5.60200         0.000447      0.000004      0.001164
      8.40300      8.40300      5.60200        -0.000021     -0.000073      0.000443
      8.40300      5.60200      8.40300        -0.000021      0.000073     -0.000094
      5.60200      8.40300      8.40300         0.001237     -0.000004     -0.000025
      2.80100      2.80100      2.80100        -0.000219     -0.001308      0.018924
      0.00000      0.00000      2.80100         0.006307      0.001308     -0.000346
      0.00000      2.80100      0.00000         0.005123     -0.000123      0.005016
      2.80100      0.00000      0.00000         0.020227      0.000124      0.004982
      2.80100      2.80100      8.40300        -0.000220     -0.001303      0.017484
      0.00000      0.00000      8.40300         0.003716     -0.001286     -0.000121
      0.00000      2.80100      5.60200         0.000610      0.000010     -0.002836
      2.80100      0.00000      5.60200         0.000170      0.000012     -0.002836
      2.80100      8.40300      2.80100        -0.000219      0.001306     -0.001136
      0.00000      5.60200      2.80100         0.001903     -0.001305     -0.000209
      0.00000      8.40300      0.00000         0.004990      0.000123      0.000598
      2.80100      5.60200      0.00000         0.000170     -0.000123      0.005001
      2.80100      8.40300      8.40300        -0.000219      0.001305      0.001446
      0.00000      5.60200      8.40300        -0.000686      0.001283     -0.000250
      0.00000      8.40300      5.60200         0.000599     -0.000010     -0.000672
      2.80100      5.60200      5.60200        -0.000001     -0.000012     -0.002835
      8.40300      2.80100      2.80100        -0.000241      0.001283      0.001453
      5.60200      0.00000      2.80100        -0.004143      0.001307     -0.000233
      5.60200      2.80100      0.00000        -0.002959     -0.000012      0.005006
      8.40300      0.00000      0.00000         0.016177     -0.000010      0.000601
      8.40300      2.80100      8.40300        -0.000241      0.001283     -0.001143
      5.60200      0.00000      8.40300        -0.001551     -0.001284     -0.000230
      5.60200      2.80100      5.60200        -0.000684     -0.000001     -0.002836
      8.40300      0.00000      5.60200         0.000140      0.000001     -0.000672
      8.40300      8.40300      2.80100        -0.000241     -0.001283      0.001282
      5.60200      5.60200      2.80100        -0.001978     -0.001306     -0.000220
      5.60200      8.40300      0.00000        -0.002826      0.000012      0.000598
      8.40300      5.60200      0.00000         0.000140      0.000010      0.000597
      8.40300      8.40300      8.40300        -0.000241     -0.001283     -0.001295
      5.60200      5.60200      8.40300         0.000611      0.001283     -0.000240
      5.60200      8.40300      5.60200        -0.000673      0.000001     -0.000672
      8.40300      5.60200      5.60200        -0.000012     -0.000001     -0.000672
 -----------------------------------------------------------------------------------
    total drift:                                0.000583      0.000000      0.000576


--------------------------------------------------------------------------------------------------------



  FREE ENERGIE OF THE ION-ELECTRON SYSTEM (eV)
  ---------------------------------------------------
  free  energy   TOTEN  =      -223.90082629 eV

  energy  without entropy=     -223.90082629  energy(sigma->0) =     -223.90082629
 


--------------------------------------------------------------------------------------------------------


    POTLOK:  cpu time      0.0695: real time      0.0698


--------------------------------------------------------------------------------------------------------


     LOOP+:  cpu time    253.1701: real time    254.5810
    4ORBIT:  cpu time      0.0000: real time      0.0000

 total amount of memory used by VASP MPI-rank0   129658. kBytes
=======================================================================

   base      :      30000. kBytes
   nonl-proj :      41680. kBytes
   fftplans  :      14405. kBytes
   grid      :      19342. kBytes
   one-center:        196. kBytes
   wavefun   :      24035. kBytes
 
  
  
 General timing and accounting informations for this job:
 ========================================================
  
                  Total CPU time used (sec):      257.467
                            User time (sec):      256.847
                          System time (sec):        0.620
                         Elapsed time (sec):      259.307
  
                   Maximum memory used (kb):      322236.
                   Average memory used (kb):          N/A
  
                          Minor page faults:       125472
                          Major page faults:            0
                 Voluntary context switches:          911
