  64  64   0   0
  0.2006348E+02  0.1086915E-08  0.1086915E-08  0.1086915E-08  0.5000000E-15
  1.000000000000000E-004
  CAR 
 unknown system                          
     10.09873459     -6.98190834  301      5.89262627      1.00000000
     -6.982  0.0000E+00  0.0000E+00
     -6.925  0.0000E+00  0.0000E+00
     -6.868  0.0000E+00  0.0000E+00
     -6.811  0.0000E+00  0.0000E+00
     -6.754  0.0000E+00  0.0000E+00
     -6.697  0.0000E+00  0.0000E+00
     -6.640  0.0000E+00  0.0000E+00
     -6.583  0.0000E+00  0.0000E+00
     -6.526  0.0000E+00  0.0000E+00
     -6.469  0.0000E+00  0.0000E+00
     -6.413  0.0000E+00  0.0000E+00
     -6.356  0.0000E+00  0.0000E+00
     -6.299  0.9793E-10  0.5576E-11
     -6.242  0.2285E-01  0.1301E-02
     -6.185  0.4054E+01  0.2321E+00
     -6.128  0.3144E+00  0.2500E+00
     -6.071  0.8828E-07  0.2500E+00
     -6.014  0.8899E-07  0.2500E+00
     -5.957  0.1009E+01  0.3074E+00
     -5.900  0.2502E+02  0.1732E+01
     -5.843  0.3179E+00  0.1750E+01
     -5.786  0.4433E-08  0.1750E+01
     -5.729  0.1008E-03  0.1750E+01
     -5.672  0.1448E+02  0.2574E+01
     -5.615  0.3820E+02  0.4749E+01
     -5.559  0.1630E-01  0.4750E+01
     -5.502  0.1003E-09  0.4750E+01
     -5.445  0.7003E-01  0.4754E+01
     -5.388  0.3050E+02  0.6491E+01
     -5.331  0.4557E+01  0.6750E+01
     -5.274  0.4955E-05  0.6750E+01
     -5.217  0.2149E-09  0.6750E+01
     -5.160  0.8451E-01  0.6755E+01
     -5.103  0.2364E+02  0.8101E+01
     -5.046  0.2623E+01  0.8250E+01
     -4.989  0.1576E-05  0.8250E+01
     -4.932  0.1558E-02  0.8250E+01
     -4.875  0.4518E+02  0.1082E+02
     -4.818  0.6019E+02  0.1425E+02
     -4.761  0.7099E-02  0.1425E+02
     -4.704  0.1156E-02  0.1425E+02
     -4.648  0.4269E+02  0.1668E+02
     -4.591  0.6268E+02  0.2025E+02
     -4.534  0.8810E-02  0.2025E+02
     -4.477  0.0000E+00  0.2025E+02
     -4.420  0.0000E+00  0.2025E+02
     -4.363  0.0000E+00  0.2025E+02
     -4.306  0.0000E+00  0.2025E+02
     -4.249  0.1337E-08  0.2025E+02
     -4.192  0.2545E+00  0.2026E+02
     -4.135  0.4812E+02  0.2300E+02
     -4.078  0.4326E+01  0.2325E+02
     -4.021  0.5696E+02  0.2649E+02
     -3.964  0.4841E+02  0.2925E+02
     -3.907  0.1040E-01  0.2925E+02
     -3.850  0.1344E+02  0.3002E+02
     -3.794  0.2532E+02  0.3146E+02
     -3.737  0.5150E+01  0.3175E+02
     -3.680  0.2378E-04  0.3175E+02
     -3.623  0.1180E+02  0.3242E+02
     -3.566  0.9330E+02  0.3773E+02
     -3.509  0.2007E+01  0.3785E+02
     -3.452  0.9971E+02  0.4352E+02
     -3.395  0.3953E+01  0.4375E+02
     -3.338  0.1308E+02  0.4449E+02
     -3.281  0.9207E+02  0.4974E+02
     -3.224  0.2301E+00  0.4975E+02
     -3.167  0.9993E-08  0.4975E+02
     -3.110  0.9146E+00  0.4980E+02
     -3.053  0.9888E+02  0.5543E+02
     -2.996  0.5585E+01  0.5575E+02
     -2.939  0.1051E-05  0.5575E+02
     -2.883  0.0000E+00  0.5575E+02
     -2.826  0.0000E+00  0.5575E+02
     -2.769  0.0000E+00  0.5575E+02
     -2.712  0.0000E+00  0.5575E+02
     -2.655  0.0000E+00  0.5575E+02
     -2.598  0.0000E+00  0.5575E+02
     -2.541  0.2705E-06  0.5575E+02
     -2.484  0.2298E+01  0.5588E+02
     -2.427  0.4984E+02  0.5872E+02
     -2.370  0.5559E+00  0.5875E+02
     -2.313  0.6801E-08  0.5875E+02
     -2.256  0.0000E+00  0.5875E+02
     -2.199  0.0000E+00  0.5875E+02
     -2.142  0.3238E-08  0.5875E+02
     -2.085  0.2511E+00  0.5876E+02
     -2.029  0.2477E+02  0.6017E+02
     -1.972  0.5367E+02  0.6323E+02
     -1.915  0.5372E+02  0.6629E+02
     -1.858  0.4985E+02  0.6913E+02
     -1.801  0.2158E+01  0.6925E+02
     -1.744  0.3077E-06  0.6925E+02
     -1.687  0.0000E+00  0.6925E+02
     -1.630  0.0000E+00  0.6925E+02
     -1.573  0.1821E-12  0.6925E+02
     -1.516  0.4321E-02  0.6925E+02
     -1.459  0.3149E+02  0.7104E+02
     -1.402  0.2119E+02  0.7225E+02
     -1.345  0.5289E-03  0.7225E+02
     -1.288  0.1296E-02  0.7225E+02
     -1.231  0.1038E+02  0.7284E+02
     -1.174  0.7178E+01  0.7325E+02
     -1.118  0.1835E-03  0.7325E+02
     -1.061  0.6188E+01  0.7360E+02
     -1.004  0.9841E+02  0.7921E+02
     -0.947  0.7839E+00  0.7925E+02
     -0.890  0.7033E-07  0.7925E+02
     -0.833  0.1928E+01  0.7936E+02
     -0.776  0.1004E+03  0.8508E+02
     -0.719  0.3057E+01  0.8525E+02
     -0.662  0.3043E+01  0.8542E+02
     -0.605  0.1959E+03  0.9658E+02
     -0.548  0.1178E+02  0.9725E+02
     -0.491  0.9349E-05  0.9725E+02
     -0.434  0.0000E+00  0.9725E+02
     -0.377  0.0000E+00  0.9725E+02
     -0.320  0.0000E+00  0.9725E+02
     -0.264  0.9444E-04  0.9725E+02
     -0.207  0.2255E+02  0.9853E+02
     -0.150  0.8276E+02  0.1032E+03
     -0.093  0.7523E-01  0.1032E+03
     -0.036  0.3952E-03  0.1033E+03
      0.021  0.1163E+02  0.1039E+03
      0.078  0.1472E+02  0.1047E+03
      0.135  0.1385E-02  0.1048E+03
      0.192  0.9195E-08  0.1048E+03
      0.249  0.5596E+00  0.1048E+03
      0.306  0.4960E+02  0.1076E+03
      0.363  0.2528E+01  0.1077E+03
      0.420  0.7479E-01  0.1078E+03
      0.477  0.8363E+02  0.1125E+03
      0.534  0.2168E+02  0.1137E+03
      0.591  0.7062E-04  0.1138E+03
      0.647  0.0000E+00  0.1138E+03
      0.704  0.0000E+00  0.1138E+03
      0.761  0.0000E+00  0.1138E+03
      0.818  0.0000E+00  0.1138E+03
      0.875  0.0000E+00  0.1138E+03
      0.932  0.0000E+00  0.1138E+03
      0.989  0.0000E+00  0.1138E+03
      1.046  0.0000E+00  0.1138E+03
      1.103  0.0000E+00  0.1138E+03
      1.160  0.0000E+00  0.1138E+03
      1.217  0.0000E+00  0.1138E+03
      1.274  0.0000E+00  0.1138E+03
      1.331  0.2773E-07  0.1138E+03
      1.388  0.9940E+00  0.1138E+03
      1.445  0.5233E+02  0.1168E+03
      1.501  0.1773E+03  0.1269E+03
      1.558  0.3286E+02  0.1287E+03
      1.615  0.2416E-03  0.1288E+03
      1.672  0.0000E+00  0.1288E+03
      1.729  0.7419E-09  0.1288E+03
      1.786  0.1748E+00  0.1288E+03
      1.843  0.3359E+02  0.1307E+03
      1.900  0.5294E+02  0.1337E+03
      1.957  0.7711E+01  0.1341E+03
      2.014  0.4598E+02  0.1367E+03
      2.071  0.1139E+00  0.1367E+03
      2.128  0.4226E-04  0.1368E+03
      2.185  0.1787E+02  0.1378E+03
      2.242  0.9394E+02  0.1431E+03
      2.299  0.1118E+03  0.1495E+03
      2.356  0.1311E+03  0.1569E+03
      2.412  0.9298E+02  0.1622E+03
      2.469  0.2370E+00  0.1622E+03
      2.526  0.3638E-09  0.1622E+03
      2.583  0.0000E+00  0.1622E+03
      2.640  0.0000E+00  0.1622E+03
      2.697  0.0000E+00  0.1622E+03
      2.754  0.0000E+00  0.1622E+03
      2.811  0.1933E-08  0.1623E+03
      2.868  0.2239E+00  0.1623E+03
      2.925  0.2478E+02  0.1637E+03
      2.982  0.5004E+02  0.1665E+03
      3.039  0.1451E+03  0.1748E+03
      3.096  0.6493E+02  0.1785E+03
      3.153  0.7157E+02  0.1826E+03
      3.210  0.9125E+02  0.1877E+03
      3.266  0.9171E+01  0.1883E+03
      3.323  0.1109E+03  0.1946E+03
      3.380  0.3800E+02  0.1967E+03
      3.437  0.1446E-01  0.1967E+03
      3.494  0.2498E-02  0.1968E+03
      3.551  0.4909E+02  0.1995E+03
      3.608  0.1495E+03  0.2081E+03
      3.665  0.1215E+02  0.2087E+03
      3.722  0.9470E-05  0.2088E+03
      3.779  0.1812E-07  0.2088E+03
      3.836  0.7963E+00  0.2088E+03
      3.893  0.5397E+02  0.2119E+03
      3.950  0.1019E+03  0.2177E+03
      4.007  0.1395E+01  0.2177E+03
      4.064  0.2774E-02  0.2178E+03
      4.121  0.2944E+02  0.2194E+03
      4.177  0.8562E+02  0.2243E+03
      4.234  0.4301E+02  0.2267E+03
      4.291  0.2344E+00  0.2268E+03
      4.348  0.9210E+02  0.2320E+03
      4.405  0.1438E+02  0.2328E+03
      4.462  0.7545E+02  0.2371E+03
      4.519  0.9708E+02  0.2426E+03
      4.576  0.3400E+02  0.2446E+03
      4.633  0.1168E+02  0.2452E+03
      4.690  0.1556E-03  0.2452E+03
      4.747  0.0000E+00  0.2452E+03
      4.804  0.0000E+00  0.2452E+03
      4.861  0.6071E-09  0.2453E+03
      4.918  0.2063E+00  0.2453E+03
      4.975  0.4871E+02  0.2480E+03
      5.031  0.7061E+02  0.2521E+03
      5.088  0.3420E+01  0.2522E+03
      5.145  0.7350E-06  0.2522E+03
      5.202  0.0000E+00  0.2522E+03
      5.259  0.0000E+00  0.2522E+03
      5.316  0.0000E+00  0.2522E+03
      5.373  0.1224E-11  0.2523E+03
      5.430  0.1074E-01  0.2523E+03
      5.487  0.3593E+02  0.2543E+03
      5.544  0.1675E+02  0.2552E+03
      5.601  0.1948E-03  0.2552E+03
      5.658  0.4387E-14  0.2552E+03
      5.715  0.3394E-03  0.2553E+03
      5.772  0.6467E+01  0.2556E+03
      5.829  0.6705E+01  0.2560E+03
      5.886  0.4114E-03  0.2560E+03
      5.942  0.0000E+00  0.2560E+03
      5.999  0.0000E+00  0.2560E+03
      6.056  0.0000E+00  0.2560E+03
      6.113  0.0000E+00  0.2560E+03
      6.170  0.1255E-12  0.2560E+03
      6.227  0.2632E-02  0.2560E+03
      6.284  0.1634E+02  0.2569E+03
      6.341  0.1105E+02  0.2576E+03
      6.398  0.2499E+02  0.2590E+03
      6.455  0.3038E+00  0.2590E+03
      6.512  0.4049E-08  0.2590E+03
      6.569  0.0000E+00  0.2590E+03
      6.626  0.0000E+00  0.2590E+03
      6.683  0.0000E+00  0.2590E+03
      6.740  0.1873E-04  0.2590E+03
      6.796  0.5467E+01  0.2593E+03
      6.853  0.3092E+02  0.2611E+03
      6.910  0.4261E+02  0.2635E+03
      6.967  0.4378E-01  0.2635E+03
      7.024  0.1996E-10  0.2635E+03
      7.081  0.3792E-11  0.2635E+03
      7.138  0.2335E-01  0.2635E+03
      7.195  0.8455E+02  0.2683E+03
      7.252  0.6334E+02  0.2719E+03
      7.309  0.1387E+01  0.2720E+03
      7.366  0.4718E-06  0.2720E+03
      7.423  0.0000E+00  0.2720E+03
      7.480  0.0000E+00  0.2720E+03
      7.537  0.1286E-08  0.2720E+03
      7.594  0.4081E+00  0.2720E+03
      7.651  0.1615E+03  0.2812E+03
      7.707  0.6042E+02  0.2847E+03
      7.764  0.4973E+02  0.2875E+03
      7.821  0.1301E+00  0.2875E+03
      7.878  0.7188E-03  0.2875E+03
      7.935  0.3872E+02  0.2897E+03
      7.992  0.6665E+02  0.2935E+03
      8.049  0.2386E+02  0.2949E+03
      8.106  0.8241E+02  0.2995E+03
      8.163  0.1433E+03  0.3077E+03
      8.220  0.1389E+02  0.3085E+03
      8.277  0.2929E+01  0.3087E+03
      8.334  0.1056E+03  0.3147E+03
      8.391  0.1003E+02  0.3152E+03
      8.448  0.5206E-05  0.3153E+03
      8.505  0.3529E-01  0.3153E+03
      8.561  0.7685E+02  0.3196E+03
      8.618  0.2849E+02  0.3212E+03
      8.675  0.1973E-03  0.3213E+03
      8.732  0.5176E+00  0.3213E+03
      8.789  0.1196E+03  0.3281E+03
      8.846  0.6413E+02  0.3317E+03
      8.903  0.2107E+00  0.3317E+03
      8.960  0.1268E-07  0.3318E+03
      9.017  0.1198E+00  0.3318E+03
      9.074  0.1240E+02  0.3325E+03
      9.131  0.6541E+00  0.3325E+03
      9.188  0.4784E-01  0.3325E+03
      9.245  0.2953E+02  0.3342E+03
      9.302  0.7869E+01  0.3346E+03
      9.359  0.2392E+02  0.3360E+03
      9.416  0.1025E+00  0.3360E+03
      9.472  0.3236E-09  0.3360E+03
      9.529  0.0000E+00  0.3360E+03
      9.586  0.0000E+00  0.3360E+03
      9.643  0.0000E+00  0.3360E+03
      9.700  0.0000E+00  0.3360E+03
      9.757  0.0000E+00  0.3360E+03
      9.814  0.0000E+00  0.3360E+03
      9.871  0.0000E+00  0.3360E+03
      9.928  0.0000E+00  0.3360E+03
      9.985  0.0000E+00  0.3360E+03
     10.042  0.0000E+00  0.3360E+03
     10.099  0.0000E+00  0.3360E+03
