 vasp.6.3.2 27Jun22 (build Oct 14 2022 12:13:54) complex                        
  
 executed on             LinuxIFC date 2023.04.03  14:35:42
 running on   32 total cores
 distrk:  each k-point on   32 cores,    1 groups
 distr:  one band on NCORE=   4 cores,    8 groups


--------------------------------------------------------------------------------------------------------


 INCAR:
   ADDGRID = True
   EDIFF = 1e-08
   ENCUT = 318
   GGA = Ps
   IALGO = 38
   IBRION = -1
   ISMEAR = 0
   LCHARG = False
   LREAL = False
   LWAVE = False
   NELMIN = 5
   NPAR = 8
   PREC = Accurate
   SIGMA = 0.02

 POTCAR:    PAW_PBE Si 05Jan2001                  
 POTCAR:    PAW_PBE Si 05Jan2001                  
   SHA256 =  79d9987ad8750f624c4d6acb2a16d13abf6a777132adc04dc6c8399be72b42bb Si/POTCAR             
   COPYR  = (c) Copyright 05Jan2001 Georg Kresse                                                    
   COPYR  = This file is part of the software VASP. Any use, copying, and all other rights are regul
   COPYR  = If you do not have a valid VASP license, you may not use, copy or distribute this file. 
   VRHFIN =Si: s2p2                                                                                 
   LEXCH  = PE                                                                                      
   EATOM  =   103.0669 eV,    7.5752 Ry                                                             
                                                                                                    
   TITEL  = PAW_PBE Si 05Jan2001                                                                    
   LULTRA =        F    use ultrasoft PP ?                                                          
   IUNSCR =        1    unscreen: 0-lin 1-nonlin 2-no                                               
   RPACOR =    1.500    partial core radius                                                         
   POMASS =   28.085; ZVAL   =    4.000    mass and valenz                                          
   RCORE  =    1.900    outmost cutoff radius                                                       
   RWIGS  =    2.480; RWIGS  =    1.312    wigner-seitz radius (au A)                               
   ENMAX  =  245.345; ENMIN  =  184.009 eV                                                          
   ICORE  =        2    local potential                                                             
   LCOR   =        T    correct aug charges                                                         
   LPAW   =        T    paw PP                                                                      
   EAUG   =  322.069                                                                                
   DEXC   =    0.000                                                                                
   RMAX   =    1.950    core radius for proj-oper                                                   
   RAUG   =    1.300    factor for augmentation sphere                                              
   RDEP   =    1.993    radius for radial grids                                                     
   RDEPT  =    1.837    core radius for aug-charge                                                  
                                                                                                    
   Atomic configuration                                                                             
    6 entries                                                                                       
     n  l   j            E        occ.                                                              
     1  0  0.50     -1785.8828   2.0000                                                             
     2  0  0.50      -139.4969   2.0000                                                             
     2  1  1.50       -95.5546   6.0000                                                             
     3  0  0.50       -10.8127   2.0000                                                             
     3  1  0.50        -4.0811   2.0000                                                             
     3  2  1.50        -4.0817   0.0000                                                             
   Description                                                                                      
     l       E           TYP  RCUT    TYP  RCUT                                                     
     0    -10.8127223     23  1.900                                                                 
     0     -7.6451159     23  1.900                                                                 
     1     -4.0811372     23  1.900                                                                 
     1      2.4879257     23  1.900                                                                 
     2     -4.0817478      7  1.900                                                                 
  local pseudopotential read in
  partial core-charges read in
  partial kinetic energy density read in
  atomic valenz-charges read in
  non local Contribution for L=           0  read in
    real space projection operators read in
  non local Contribution for L=           0  read in
    real space projection operators read in
  non local Contribution for L=           1  read in
    real space projection operators read in
  non local Contribution for L=           1  read in
    real space projection operators read in
    PAW grid and wavefunctions read in
 
   number of l-projection  operators is LMAX  =           4
   number of lm-projection operators is LMMAX =           8
 
 -----------------------------------------------------------------------------
|                                                                             |
|               ----> ADVICE to this user running VASP <----                  |
|                                                                             |
|     You have a (more or less) 'large supercell' and for larger cells it     |
|     might be more efficient to use real-space projection operators.         |
|     Therefore, try LREAL= Auto in the INCAR file.                           |
|     Mind: For very accurate calculation, you might also keep the            |
|     reciprocal projection scheme (i.e. LREAL=.FALSE.).                      |
|                                                                             |
 -----------------------------------------------------------------------------

 -----------------------------------------------------------------------------
|                                                                             |
|               ----> ADVICE to this user running VASP <----                  |
|                                                                             |
|     You enforced a specific xc type in the INCAR file but a different       |
|     type was found in the POTCAR file.                                      |
|     I HOPE YOU KNOW WHAT YOU ARE DOING!                                     |
|                                                                             |
 -----------------------------------------------------------------------------

  PAW_PBE Si 05Jan2001                  :
 energy of atom  1       EATOM= -103.0669
 kinetic energy error for atom=    0.0016 (will be added to EATOM!!)
 
 
 POSCAR: Si
  positions in cartesian coordinates
  No initial velocities read in
 exchange correlation table for  LEXCH =       14
   RHO(1)=    0.500       N(1)  =     2000
   RHO(2)=  100.500       N(2)  =     4000
 


--------------------------------------------------------------------------------------------------------


 ion  position               nearest neighbor table
   1  0.251  0.250  0.250-  33 2.35  41 2.35  49 2.36  57 2.36
   2  0.750  0.250  0.250-  34 2.35  42 2.35  50 2.35  58 2.35
   3  0.250  0.750  0.250-  35 2.35  43 2.35  51 2.35  59 2.35
   4  0.750  0.750  0.250-  36 2.35  44 2.35  52 2.35  60 2.35
   5  0.250  0.250  0.750-  37 2.35  45 2.35  53 2.35  61 2.35
   6  0.750  0.250  0.750-  38 2.35  46 2.35  54 2.35  62 2.35
   7  0.250  0.750  0.750-  39 2.35  47 2.35  55 2.35  63 2.35
   8  0.750  0.750  0.750-  40 2.35  48 2.35  56 2.35  64 2.35
   9  0.249  0.000  0.000-  51 2.35  61 2.35  39 2.36  41 2.36
  10  0.750  0.000  0.000-  40 2.35  42 2.35  52 2.35  62 2.35
  11  0.250  0.500  0.000-  37 2.35  43 2.35  49 2.35  63 2.35
  12  0.750  0.500  0.000-  38 2.35  44 2.35  50 2.35  64 2.35
  13  0.250  0.000  0.500-  35 2.35  45 2.35  55 2.35  57 2.35
  14  0.750  0.000  0.500-  36 2.35  46 2.35  56 2.35  58 2.35
  15  0.250  0.500  0.500-  33 2.35  47 2.35  53 2.35  59 2.35
  16  0.750  0.500  0.500-  34 2.35  48 2.35  54 2.35  60 2.35
  17  0.000  0.250  0.000-  38 2.35  42 2.35  49 2.35  61 2.35
  18  0.500  0.250  0.000-  37 2.35  41 2.35  50 2.35  62 2.35
  19  0.000  0.750  0.000-  40 2.35  44 2.35  51 2.35  63 2.35
  20  0.500  0.750  0.000-  39 2.35  43 2.35  52 2.35  64 2.35
  21  0.000  0.250  0.500-  34 2.35  46 2.35  53 2.35  57 2.35
  22  0.500  0.250  0.500-  33 2.35  45 2.35  54 2.35  58 2.35
  23  0.000  0.750  0.500-  36 2.35  48 2.35  55 2.35  59 2.35
  24  0.500  0.750  0.500-  35 2.35  47 2.35  56 2.35  60 2.35
  25  0.000  0.000  0.250-  36 2.35  42 2.35  51 2.35  57 2.35
  26  0.500  0.000  0.250-  35 2.35  41 2.35  52 2.35  58 2.35
  27  0.000  0.500  0.250-  34 2.35  44 2.35  49 2.35  59 2.35
  28  0.500  0.500  0.250-  33 2.35  43 2.35  50 2.35  60 2.35
  29  0.000  0.000  0.750-  40 2.35  46 2.35  55 2.35  61 2.35
  30  0.500  0.000  0.750-  39 2.35  45 2.35  56 2.35  62 2.35
  31  0.000  0.500  0.750-  38 2.35  48 2.35  53 2.35  63 2.35
  32  0.500  0.500  0.750-  37 2.35  47 2.35  54 2.35  64 2.35
  33  0.375  0.375  0.375-   1 2.35  15 2.35  22 2.35  28 2.35
  34  0.875  0.375  0.375-   2 2.35  16 2.35  21 2.35  27 2.35
  35  0.375  0.875  0.375-   3 2.35  13 2.35  24 2.35  26 2.35
  36  0.875  0.875  0.375-   4 2.35  14 2.35  23 2.35  25 2.35
  37  0.375  0.375  0.875-   5 2.35  11 2.35  18 2.35  32 2.35
  38  0.875  0.375  0.875-   6 2.35  12 2.35  17 2.35  31 2.35
  39  0.375  0.875  0.875-   7 2.35  20 2.35  30 2.35   9 2.36
  40  0.875  0.875  0.875-   8 2.35  10 2.35  19 2.35  29 2.35
  41  0.375  0.125  0.125-   1 2.35  18 2.35  26 2.35   9 2.36
  42  0.875  0.125  0.125-   2 2.35  10 2.35  17 2.35  25 2.35
  43  0.375  0.625  0.125-   3 2.35  11 2.35  20 2.35  28 2.35
  44  0.875  0.625  0.125-   4 2.35  12 2.35  19 2.35  27 2.35
  45  0.375  0.125  0.625-   5 2.35  13 2.35  22 2.35  30 2.35
  46  0.875  0.125  0.625-   6 2.35  14 2.35  21 2.35  29 2.35
  47  0.375  0.625  0.625-   7 2.35  15 2.35  24 2.35  32 2.35
  48  0.875  0.625  0.625-   8 2.35  16 2.35  23 2.35  31 2.35
  49  0.125  0.375  0.125-  11 2.35  17 2.35  27 2.35   1 2.36
  50  0.625  0.375  0.125-   2 2.35  12 2.35  18 2.35  28 2.35
  51  0.125  0.875  0.125-   9 2.35   3 2.35  19 2.35  25 2.35
  52  0.625  0.875  0.125-   4 2.35  10 2.35  20 2.35  26 2.35
  53  0.125  0.375  0.625-   5 2.35  15 2.35  21 2.35  31 2.35
  54  0.625  0.375  0.625-   6 2.35  16 2.35  22 2.35  32 2.35
  55  0.125  0.875  0.625-   7 2.35  13 2.35  23 2.35  29 2.35
  56  0.625  0.875  0.625-   8 2.35  14 2.35  24 2.35  30 2.35
  57  0.125  0.125  0.375-  13 2.35  21 2.35  25 2.35   1 2.36
  58  0.625  0.125  0.375-   2 2.35  14 2.35  22 2.35  26 2.35
  59  0.125  0.625  0.375-   3 2.35  15 2.35  23 2.35  27 2.35
  60  0.625  0.625  0.375-   4 2.35  16 2.35  24 2.35  28 2.35
  61  0.125  0.125  0.875-   9 2.35   5 2.35  17 2.35  29 2.35
  62  0.625  0.125  0.875-   6 2.35  10 2.35  18 2.35  30 2.35
  63  0.125  0.625  0.875-   7 2.35  11 2.35  19 2.35  31 2.35
  64  0.625  0.625  0.875-   8 2.35  12 2.35  20 2.35  32 2.35
 
  LATTYP: Found a simple cubic cell.
 ALAT       =    10.8691451200
  
  Lattice vectors:
  
 A1 = (  10.8691451200,  -0.0000000000,  -0.0000000000)
 A2 = (  -0.0000000000,  10.8691451200,   0.0000000000)
 A3 = (   0.0000000000,   0.0000000000,  10.8691451200)


Analysis of symmetry for initial positions (statically):
=====================================================================
 Subroutine PRICEL returns:
 Original cell was already a primitive cell.
 

 Routine SETGRP: Setting up the symmetry group for a 
 simple cubic supercell.


 Subroutine GETGRP returns: Found  2 space group operations
 (whereof  2 operations were pure point group operations)
 out of a pool of 48 trial point group operations.


The static configuration has the point symmetry C_1h.


Analysis of symmetry for dynamics (positions and initial velocities):
=====================================================================
 Subroutine PRICEL returns:
 Original cell was already a primitive cell.
 

 Routine SETGRP: Setting up the symmetry group for a 
 simple cubic supercell.


 Subroutine GETGRP returns: Found  2 space group operations
 (whereof  2 operations were pure point group operations)
 out of a pool of 48 trial point group operations.


The dynamic configuration has the point symmetry C_1h.


 Subroutine INISYM returns: Found  2 space group operations
 (whereof  2 operations are pure point group operations),
 and found     1 'primitive' translations


----------------------------------------------------------------------------------------

                                     Primitive cell                                     

  volume of cell :    1284.0625

  direct lattice vectors                    reciprocal lattice vectors
    10.869145120 -0.000000000 -0.000000000     0.092003556  0.000000000 -0.000000000
    -0.000000000 10.869145120  0.000000000     0.000000000  0.092003556 -0.000000000
     0.000000000  0.000000000 10.869145120     0.000000000 -0.000000000  0.092003556

  length of vectors
    10.869145120 10.869145120 10.869145120     0.092003556  0.092003556  0.092003556

  position of ions in fractional coordinates (direct lattice)
     0.250920036  0.250000000  0.250000000
     0.750000000  0.250000000  0.250000000
     0.250000000  0.750000000  0.250000000
     0.750000000  0.750000000  0.250000000
     0.250000000  0.250000000  0.750000000
     0.750000000  0.250000000  0.750000000
     0.250000000  0.750000000  0.750000000
     0.750000000  0.750000000  0.750000000
     0.249079964  1.000000000  1.000000000
     0.750000000  1.000000000  1.000000000
     0.250000000  0.500000000  0.000000000
     0.750000000  0.500000000  1.000000000
     0.250000000  0.000000000  0.500000000
     0.750000000  1.000000000  0.500000000
     0.250000000  0.500000000  0.500000000
     0.750000000  0.500000000  0.500000000
     1.000000000  0.250000000  0.000000000
     0.500000000  0.250000000  1.000000000
     1.000000000  0.750000000  0.000000000
     0.500000000  0.750000000  0.000000000
     0.000000000  0.250000000  0.500000000
     0.500000000  0.250000000  0.500000000
     1.000000000  0.750000000  0.500000000
     0.500000000  0.750000000  0.500000000
     0.000000000  0.000000000  0.250000000
     0.500000000  1.000000000  0.250000000
     1.000000000  0.500000000  0.250000000
     0.500000000  0.500000000  0.250000000
     0.000000000  0.000000000  0.750000000
     0.500000000  0.000000000  0.750000000
     0.000000000  0.500000000  0.750000000
     0.500000000  0.500000000  0.750000000
     0.375000000  0.375000000  0.375000000
     0.875000000  0.375000000  0.375000000
     0.375000000  0.875000000  0.375000000
     0.875000000  0.875000000  0.375000000
     0.375000000  0.375000000  0.875000000
     0.875000000  0.375000000  0.875000000
     0.375000000  0.875000000  0.875000000
     0.875000000  0.875000000  0.875000000
     0.375000000  0.125000000  0.125000000
     0.875000000  0.125000000  0.125000000
     0.375000000  0.625000000  0.125000000
     0.875000000  0.625000000  0.125000000
     0.375000000  0.125000000  0.625000000
     0.875000000  0.125000000  0.625000000
     0.375000000  0.625000000  0.625000000
     0.875000000  0.625000000  0.625000000
     0.125000000  0.375000000  0.125000000
     0.625000000  0.375000000  0.125000000
     0.125000000  0.875000000  0.125000000
     0.625000000  0.875000000  0.125000000
     0.125000000  0.375000000  0.625000000
     0.625000000  0.375000000  0.625000000
     0.125000000  0.875000000  0.625000000
     0.625000000  0.875000000  0.625000000
     0.125000000  0.125000000  0.375000000
     0.625000000  0.125000000  0.375000000
     0.125000000  0.625000000  0.375000000
     0.625000000  0.625000000  0.375000000
     0.125000000  0.125000000  0.875000000
     0.625000000  0.125000000  0.875000000
     0.125000000  0.625000000  0.875000000
     0.625000000  0.625000000  0.875000000

  ion indices of the primitive-cell ions
   primitive index   ion index
                 1           1
                 2           2
                 3           3
                 4           4
                 5           5
                 6           6
                 7           7
                 8           8
                 9           9
                10          10
                11          11
                12          12
                13          13
                14          14
                15          15
                16          16
                17          17
                18          18
                19          19
                20          20
                21          21
                22          22
                23          23
                24          24
                25          25
                26          26
                27          27
                28          28
                29          29
                30          30
                31          31
                32          32
                33          33
                34          34
                35          35
                36          36
                37          37
                38          38
                39          39
                40          40
                41          41
                42          42
                43          43
                44          44
                45          45
                46          46
                47          47
                48          48
                49          49
                50          50
                51          51
                52          52
                53          53
                54          54
                55          55
                56          56
                57          57
                58          58
                59          59
                60          60
                61          61
                62          62
                63          63
                64          64

----------------------------------------------------------------------------------------

 
 
 KPOINTS: KPOINTS created by Atomic Simulation Env

Automatic generation of k-mesh.
 Grid dimensions read from file:
 generate k-points for:    2    2    2

 Generating k-lattice:

  Cartesian coordinates                     Fractional coordinates (reciprocal lattice)
     0.046001778  0.000000000 -0.000000000     0.500000000 -0.000000000  0.000000000
     0.000000000  0.046001778 -0.000000000    -0.000000000  0.500000000  0.000000000
     0.000000000 -0.000000000  0.046001778    -0.000000000  0.000000000  0.500000000

  Length of vectors
     0.046001778  0.046001778  0.046001778

  Shift w.r.t. Gamma in fractional coordinates (k-lattice)
     0.000000000  0.000000000  0.000000000

 
 Subroutine IBZKPT returns following result:
 ===========================================
 
 Found      6 irreducible k-points:
 
 Following reciprocal coordinates:
            Coordinates               Weight
  0.000000  0.000000  0.000000      1.000000
  0.500000  0.000000  0.000000      1.000000
 -0.000000  0.500000  0.000000      2.000000
  0.500000  0.500000  0.000000      2.000000
  0.000000  0.500000  0.500000      1.000000
  0.500000  0.500000  0.500000      1.000000
 
 Following cartesian coordinates:
            Coordinates               Weight
  0.000000  0.000000  0.000000      1.000000
  0.046002  0.000000  0.000000      1.000000
  0.000000  0.046002  0.000000      2.000000
  0.046002  0.046002  0.000000      2.000000
  0.000000  0.046002  0.046002      1.000000
  0.046002  0.046002  0.046002      1.000000
 


--------------------------------------------------------------------------------------------------------




 Dimension of arrays:
   k-points           NKPTS =      6   k-points in BZ     NKDIM =      6   number of bands    NBANDS=    168
   number of dos      NEDOS =    301   number of ions     NIONS =     64
   non local maximal  LDIM  =      4   non local SUM 2l+1 LMDIM =      8
   total plane-waves  NPLWV = 262144
   max r-space proj   IRMAX =      1   max aug-charges    IRDMAX=  54800
   dimension x,y,z NGX =    64 NGY =   64 NGZ =   64
   dimension x,y,z NGXF=   128 NGYF=  128 NGZF=  128
   support grid    NGXF=   256 NGYF=  256 NGZF=  256
   ions per type =              64
   NGX,Y,Z   is equivalent  to a cutoff of   9.79,  9.79,  9.79 a.u.
   NGXF,Y,Z  is equivalent  to a cutoff of  19.58, 19.58, 19.58 a.u.

 SYSTEM =  unknown system                          
 POSCAR =  Si                                      

 Startparameter for this run:
   NWRITE =      2    write-flag & timer
   PREC   = accura    normal or accurate (medium, high low for compatibility)
   ISTART =      0    job   : 0-new  1-cont  2-samecut
   ICHARG =      2    charge: 1-file 2-atom 10-const
   ISPIN  =      1    spin polarized calculation?
   LNONCOLLINEAR =      F non collinear calculations
   LSORBIT =      F    spin-orbit coupling
   INIWAV =      1    electr: 0-lowe 1-rand  2-diag
   LASPH  =      F    aspherical Exc in radial PAW
 Electronic Relaxation 1
   ENCUT  =  318.0 eV  23.37 Ry    4.83 a.u.  15.80 15.80 15.80*2*pi/ulx,y,z
   ENINI  =  318.0     initial cutoff
   ENAUG  =  322.1 eV  augmentation charge cutoff
   NELM   =     60;   NELMIN=  5; NELMDL= -5     # of ELM steps 
   EDIFF  = 0.1E-07   stopping-criterion for ELM
   LREAL  =      F    real-space projection
   NLSPLINE    = F    spline interpolate recip. space projectors
   LCOMPAT=      F    compatible to vasp.4.4
   GGA_COMPAT  = T    GGA compatible to vasp.4.4-vasp.4.6
   LMAXPAW     = -100 max onsite density
   LMAXMIX     =    2 max onsite mixed and CHGCAR
   VOSKOWN=      0    Vosko Wilk Nusair interpolation
   ROPT   =    0.00000
 Ionic relaxation
   EDIFFG = 0.1E-06   stopping-criterion for IOM
   NSW    =      0    number of steps for IOM
   NBLOCK =      1;   KBLOCK =      1    inner block; outer block 
   IBRION =     -1    ionic relax: 0-MD 1-quasi-New 2-CG
   NFREE  =      0    steps in history (QN), initial steepest desc. (CG)
   ISIF   =      2    stress and relaxation
   IWAVPR =     10    prediction:  0-non 1-charg 2-wave 3-comb
   ISYM   =      2    0-nonsym 1-usesym 2-fastsym
   LCORR  =      T    Harris-Foulkes like correction to forces

   POTIM  = 0.5000    time-step for ionic-motion
   TEIN   =    0.0    initial temperature
   TEBEG  =    0.0;   TEEND  =   0.0 temperature during run
   SMASS  =  -3.00    Nose mass-parameter (am)
   estimated Nose-frequenzy (Omega)   =  0.10E-29 period in steps = 0.13E+47 mass=  -0.270E-26a.u.
   SCALEE = 1.0000    scale energy and forces
   NPACO  =    256;   APACO  = 10.0  distance and # of slots for P.C.
   PSTRESS=    0.0 pullay stress

  Mass of Ions in am
   POMASS =  28.09
  Ionic Valenz
   ZVAL   =   4.00
  Atomic Wigner-Seitz radii
   RWIGS  =  -1.00
  virtual crystal weights 
   VCA    =   1.00
   NELECT =     256.0000    total number of electrons
   NUPDOWN=      -1.0000    fix difference up-down

 DOS related values:
   EMIN   =  10.00;   EMAX   =-10.00  energy-range for DOS
   EFERMI =   0.00
   ISMEAR =     0;   SIGMA  =   0.02  broadening in eV -4-tet -1-fermi 0-gaus

 Electronic relaxation 2 (details)
   IALGO  =     38    algorithm
   LDIAG  =      T    sub-space diagonalisation (order eigenvalues)
   LSUBROT=      F    optimize rotation matrix (better conditioning)
   TURBO    =      0    0=normal 1=particle mesh
   IRESTART =      0    0=no restart 2=restart with 2 vectors
   NREBOOT  =      0    no. of reboots
   NMIN     =      0    reboot dimension
   EREF     =   0.00    reference energy to select bands
   IMIX   =      4    mixing-type and parameters
     AMIX     =   0.40;   BMIX     =  1.00
     AMIX_MAG =   1.60;   BMIX_MAG =  1.00
     AMIN     =   0.10
     WC   =   100.;   INIMIX=   1;  MIXPRE=   1;  MAXMIX= -45

 Intra band minimization:
   WEIMIN = 0.0000     energy-eigenvalue tresh-hold
   EBREAK =  0.15E-10  absolut break condition
   DEPER  =   0.30     relativ break condition  

   TIME   =   0.40     timestep for ELM

  volume/ion in A,a.u.               =      20.06       135.40
  Fermi-wavevector in a.u.,A,eV,Ry     =   0.956370  1.807278 12.444490  0.914644
  Thomas-Fermi vector in A             =   2.085292
 
 Write flags
   LWAVE        =      F    write WAVECAR
   LDOWNSAMPLE  =      F    k-point downsampling of WAVECAR
   LCHARG       =      F    write CHGCAR
   LVTOT        =      F    write LOCPOT, total local potential
   LVHAR        =      F    write LOCPOT, Hartree potential only
   LELF         =      F    write electronic localiz. function (ELF)
   LORBIT       =      0    0 simple, 1 ext, 2 COOP (PROOUT), +10 PAW based schemes


 Dipole corrections
   LMONO  =      F    monopole corrections only (constant potential shift)
   LDIPOL =      F    correct potential (dipole corrections)
   IDIPOL =      0    1-x, 2-y, 3-z, 4-all directions 
   EPSILON=  1.0000000 bulk dielectric constant

 Exchange correlation treatment:
   GGA     =    PS    GGA type
   LEXCH   =    14    internal setting for exchange type
   LIBXC   =     F    Libxc                    
   VOSKOWN =     0    Vosko Wilk Nusair interpolation
   LHFCALC =     F    Hartree Fock is set to
   LHFONE  =     F    Hartree Fock one center treatment
   AEXX    =    0.0000 exact exchange contribution

 Linear response parameters
   LEPSILON=     F    determine dielectric tensor
   LRPA    =     F    only Hartree local field effects (RPA)
   LNABLA  =     F    use nabla operator in PAW spheres
   LVEL    =     F    velocity operator in full k-point grid
   CSHIFT  =0.1000    complex shift for real part using Kramers Kronig
   OMEGAMAX=  -1.0    maximum frequency
   DEG_THRESHOLD= 0.2000000E-02 threshold for treating states as degnerate
   RTIME   =   -0.100 relaxation time in fs
  (WPLASMAI=    0.000 imaginary part of plasma frequency in eV, 0.658/RTIME)
   DFIELD  = 0.0000000 0.0000000 0.0000000 field for delta impulse in time
 
  Optional k-point grid parameters
   LKPOINTS_OPT  =     F    use optional k-point grid
   KPOINTS_OPT_MODE=     1    mode for optional k-point grid
 
 Orbital magnetization related:
   ORBITALMAG=     F  switch on orbital magnetization
   LCHIMAG   =     F  perturbation theory with respect to B field
   DQ        =  0.001000  dq finite difference perturbation B field
   LLRAUG    =     F  two centre corrections for induced B field



--------------------------------------------------------------------------------------------------------


 Static calculation
 charge density and potential will be updated during run
 non-spin polarized calculation
 Variant of blocked Davidson
 Davidson routine will perform the subspace rotation
 perform sub-space diagonalisation
    after iterative eigenvector-optimisation
 modified Broyden-mixing scheme, WC =      100.0
 initial mixing is a Kerker type mixing with AMIX =  0.4000 and BMIX =      1.0000
 Hartree-type preconditioning will be used
 using additional bands           40
 reciprocal scheme for non local part
 use partial core corrections
 calculate Harris-corrections to forces 
   (improved forces if not selfconsistent)
 use gradient corrections 
 use of overlap-Matrix (Vanderbilt PP)
 Gauss-broadening in eV      SIGMA  =   0.02


--------------------------------------------------------------------------------------------------------


  energy-cutoff  :      318.00
  volume of cell :     1284.06
      direct lattice vectors                 reciprocal lattice vectors
    10.869145120 -0.000000000 -0.000000000     0.092003556  0.000000000 -0.000000000
    -0.000000000 10.869145120  0.000000000     0.000000000  0.092003556 -0.000000000
     0.000000000  0.000000000 10.869145120     0.000000000 -0.000000000  0.092003556

  length of vectors
    10.869145120 10.869145120 10.869145120     0.092003556  0.092003556  0.092003556


 
 k-points in units of 2pi/SCALE and weight: KPOINTS created by Atomic Simulation Env
   0.00000000  0.00000000  0.00000000       0.125
   0.04600178  0.00000000  0.00000000       0.125
   0.00000000  0.04600178  0.00000000       0.250
   0.04600178  0.04600178  0.00000000       0.250
   0.00000000  0.04600178  0.04600178       0.125
   0.04600178  0.04600178  0.04600178       0.125
 
 k-points in reciprocal lattice and weights: KPOINTS created by Atomic Simulation Env
   0.00000000  0.00000000  0.00000000       0.125
   0.50000000  0.00000000  0.00000000       0.125
  -0.00000000  0.50000000  0.00000000       0.250
   0.50000000  0.50000000  0.00000000       0.250
   0.00000000  0.50000000  0.50000000       0.125
   0.50000000  0.50000000  0.50000000       0.125
 
 position of ions in fractional coordinates (direct lattice) 
   0.25092004  0.25000000  0.25000000
   0.75000000  0.25000000  0.25000000
   0.25000000  0.75000000  0.25000000
   0.75000000  0.75000000  0.25000000
   0.25000000  0.25000000  0.75000000
   0.75000000  0.25000000  0.75000000
   0.25000000  0.75000000  0.75000000
   0.75000000  0.75000000  0.75000000
   0.24907996  0.00000000  0.00000000
   0.75000000  0.00000000  0.00000000
   0.25000000  0.50000000  0.00000000
   0.75000000  0.50000000  0.00000000
   0.25000000  0.00000000  0.50000000
   0.75000000  0.00000000  0.50000000
   0.25000000  0.50000000  0.50000000
   0.75000000  0.50000000  0.50000000
   0.00000000  0.25000000  0.00000000
   0.50000000  0.25000000  0.00000000
   0.00000000  0.75000000  0.00000000
   0.50000000  0.75000000  0.00000000
   0.00000000  0.25000000  0.50000000
   0.50000000  0.25000000  0.50000000
   0.00000000  0.75000000  0.50000000
   0.50000000  0.75000000  0.50000000
   0.00000000  0.00000000  0.25000000
   0.50000000  0.00000000  0.25000000
   0.00000000  0.50000000  0.25000000
   0.50000000  0.50000000  0.25000000
   0.00000000  0.00000000  0.75000000
   0.50000000  0.00000000  0.75000000
   0.00000000  0.50000000  0.75000000
   0.50000000  0.50000000  0.75000000
   0.37500000  0.37500000  0.37500000
   0.87500000  0.37500000  0.37500000
   0.37500000  0.87500000  0.37500000
   0.87500000  0.87500000  0.37500000
   0.37500000  0.37500000  0.87500000
   0.87500000  0.37500000  0.87500000
   0.37500000  0.87500000  0.87500000
   0.87500000  0.87500000  0.87500000
   0.37500000  0.12500000  0.12500000
   0.87500000  0.12500000  0.12500000
   0.37500000  0.62500000  0.12500000
   0.87500000  0.62500000  0.12500000
   0.37500000  0.12500000  0.62500000
   0.87500000  0.12500000  0.62500000
   0.37500000  0.62500000  0.62500000
   0.87500000  0.62500000  0.62500000
   0.12500000  0.37500000  0.12500000
   0.62500000  0.37500000  0.12500000
   0.12500000  0.87500000  0.12500000
   0.62500000  0.87500000  0.12500000
   0.12500000  0.37500000  0.62500000
   0.62500000  0.37500000  0.62500000
   0.12500000  0.87500000  0.62500000
   0.62500000  0.87500000  0.62500000
   0.12500000  0.12500000  0.37500000
   0.62500000  0.12500000  0.37500000
   0.12500000  0.62500000  0.37500000
   0.62500000  0.62500000  0.37500000
   0.12500000  0.12500000  0.87500000
   0.62500000  0.12500000  0.87500000
   0.12500000  0.62500000  0.87500000
   0.62500000  0.62500000  0.87500000
 
 position of ions in cartesian coordinates  (Angst):
   2.72728628  2.71728628  2.71728628
   8.15185884  2.71728628  2.71728628
   2.71728628  8.15185884  2.71728628
   8.15185884  8.15185884  2.71728628
   2.71728628  2.71728628  8.15185884
   8.15185884  2.71728628  8.15185884
   2.71728628  8.15185884  8.15185884
   8.15185884  8.15185884  8.15185884
   2.70728628 -0.00000000 -0.00000000
   8.15185884 -0.00000000 -0.00000000
   2.71728628  5.43457256  0.00000000
   8.15185884  5.43457256 -0.00000000
   2.71728628  0.00000000  5.43457256
   8.15185884 -0.00000000  5.43457256
   2.71728628  5.43457256  5.43457256
   8.15185884  5.43457256  5.43457256
  -0.00000000  2.71728628  0.00000000
   5.43457256  2.71728628 -0.00000000
  -0.00000000  8.15185884  0.00000000
   5.43457256  8.15185884  0.00000000
   0.00000000  2.71728628  5.43457256
   5.43457256  2.71728628  5.43457256
  -0.00000000  8.15185884  5.43457256
   5.43457256  8.15185884  5.43457256
   0.00000000  0.00000000  2.71728628
   5.43457256 -0.00000000  2.71728628
  -0.00000000  5.43457256  2.71728628
   5.43457256  5.43457256  2.71728628
   0.00000000  0.00000000  8.15185884
   5.43457256  0.00000000  8.15185884
   0.00000000  5.43457256  8.15185884
   5.43457256  5.43457256  8.15185884
   4.07592942  4.07592942  4.07592942
   9.51050198  4.07592942  4.07592942
   4.07592942  9.51050198  4.07592942
   9.51050198  9.51050198  4.07592942
   4.07592942  4.07592942  9.51050198
   9.51050198  4.07592942  9.51050198
   4.07592942  9.51050198  9.51050198
   9.51050198  9.51050198  9.51050198
   4.07592942  1.35864314  1.35864314
   9.51050198  1.35864314  1.35864314
   4.07592942  6.79321570  1.35864314
   9.51050198  6.79321570  1.35864314
   4.07592942  1.35864314  6.79321570
   9.51050198  1.35864314  6.79321570
   4.07592942  6.79321570  6.79321570
   9.51050198  6.79321570  6.79321570
   1.35864314  4.07592942  1.35864314
   6.79321570  4.07592942  1.35864314
   1.35864314  9.51050198  1.35864314
   6.79321570  9.51050198  1.35864314
   1.35864314  4.07592942  6.79321570
   6.79321570  4.07592942  6.79321570
   1.35864314  9.51050198  6.79321570
   6.79321570  9.51050198  6.79321570
   1.35864314  1.35864314  4.07592942
   6.79321570  1.35864314  4.07592942
   1.35864314  6.79321570  4.07592942
   6.79321570  6.79321570  4.07592942
   1.35864314  1.35864314  9.51050198
   6.79321570  1.35864314  9.51050198
   1.35864314  6.79321570  9.51050198
   6.79321570  6.79321570  9.51050198
 


--------------------------------------------------------------------------------------------------------


 k-point   1 :   0.0000 0.0000 0.0000  plane waves:   16519
 k-point   2 :   0.5000 0.0000 0.0000  plane waves:   16488
 k-point   3 :  -0.0000 0.5000 0.0000  plane waves:   16488
 k-point   4 :   0.5000 0.5000 0.0000  plane waves:   16588
 k-point   5 :   0.0000 0.5000 0.5000  plane waves:   16588
 k-point   6 :   0.5000 0.5000 0.5000  plane waves:   16560

 maximum and minimum number of plane-waves per node :      4170     4090

 maximum number of plane-waves:     16588
 maximum index in each direction: 
   IXMAX=   15   IYMAX=   15   IZMAX=   15
   IXMIN=  -16   IYMIN=  -16   IZMIN=  -16


 parallel 3D FFT for wavefunctions:
    minimum data exchange during FFTs selected (reduces bandwidth)
 parallel 3D FFT for charge:
    minimum data exchange during FFTs selected (reduces bandwidth)


 total amount of memory used by VASP MPI-rank0    61993. kBytes
=======================================================================

   base      :      30000. kBytes
   nonl-proj :       5879. kBytes
   fftplans  :      11573. kBytes
   grid      :       5816. kBytes
   one-center:         49. kBytes
   wavefun   :       8676. kBytes
 
     INWAV:  cpu time      0.0000: real time      0.0000
 Broyden mixing: mesh for mixing (old mesh)
   NGX = 31   NGY = 31   NGZ = 31
  (NGX  =128   NGY  =128   NGZ  =128)
  gives a total of  29791 points

 initial charge density was supplied:
 charge density of overlapping atoms calculated
 number of electron     256.0000000 magnetization 
 keeping initial charge density in first step


--------------------------------------------------------------------------------------------------------


 Maximum index for augmentation-charges         1701 (set IRDMAX)


--------------------------------------------------------------------------------------------------------


 First call to EWALD:  gamma=   0.163
 Maximum number of real-space cells 3x 3x 3
 Maximum number of reciprocal cells 3x 3x 3

    FEWALD:  cpu time      0.0015: real time      0.0015


--------------------------------------- Iteration      1(   1)  ---------------------------------------


    POTLOK:  cpu time      0.0234: real time      0.0236
    SETDIJ:  cpu time      0.0230: real time      0.0231
     EDDAV:  cpu time      1.6898: real time      1.6987
       DOS:  cpu time      0.0005: real time      0.0005
    --------------------------------------------
      LOOP:  cpu time      1.7368: real time      1.7460

 eigenvalue-minimisations  :  2016
 total energy-change (2. order) : 0.4553369E+03  (-0.7271899E+04)
 number of electron     256.0000000 magnetization 
 augmentation part      256.0000000 magnetization 

 Free energy of the ion-electron system (eV)
  ---------------------------------------------------
  alpha Z        PSCENC =       107.38120932
  Ewald energy   TEWEN  =     -7307.87573524
  -Hartree energ DENC   =      -353.25057159
  -exchange      EXHF   =         0.00000000
  -V(xc)+E(xc)   XCENC  =      -558.85370957
  PAW double counting   =      5598.62625415    -4492.17844134
  entropy T*S    EENTRO =        -0.00538089
  eigenvalues    EBANDS =       896.72624166
  atomic energy  EATOM  =      6564.76702419
  Solvation  Ediel_sol  =         0.00000000
  ---------------------------------------------------
  free energy    TOTEN  =       455.33689069 eV

  energy without entropy =      455.34227159  energy(sigma->0) =      455.33958114


--------------------------------------------------------------------------------------------------------




--------------------------------------- Iteration      1(   2)  ---------------------------------------


     EDDAV:  cpu time      1.9427: real time      1.9552
       DOS:  cpu time      0.0002: real time      0.0002
    --------------------------------------------
      LOOP:  cpu time      1.9429: real time      1.9554

 eigenvalue-minimisations  :  2424
 total energy-change (2. order) :-0.7765124E+03  (-0.7332968E+03)
 number of electron     256.0000000 magnetization 
 augmentation part      256.0000000 magnetization 

 Free energy of the ion-electron system (eV)
  ---------------------------------------------------
  alpha Z        PSCENC =       107.38120932
  Ewald energy   TEWEN  =     -7307.87573524
  -Hartree energ DENC   =      -353.25057159
  -exchange      EXHF   =         0.00000000
  -V(xc)+E(xc)   XCENC  =      -558.85370957
  PAW double counting   =      5598.62625415    -4492.17844134
  entropy T*S    EENTRO =        -0.00000000
  eigenvalues    EBANDS =       120.20843880
  atomic energy  EATOM  =      6564.76702419
  Solvation  Ediel_sol  =         0.00000000
  ---------------------------------------------------
  free energy    TOTEN  =      -321.17553128 eV

  energy without entropy =     -321.17553128  energy(sigma->0) =     -321.17553128


--------------------------------------------------------------------------------------------------------




--------------------------------------- Iteration      1(   3)  ---------------------------------------


     EDDAV:  cpu time      1.9721: real time      1.9842
       DOS:  cpu time      0.0002: real time      0.0002
    --------------------------------------------
      LOOP:  cpu time      1.9723: real time      1.9844

 eigenvalue-minimisations  :  2472
 total energy-change (2. order) :-0.5225606E+02  (-0.5144184E+02)
 number of electron     256.0000000 magnetization 
 augmentation part      256.0000000 magnetization 

 Free energy of the ion-electron system (eV)
  ---------------------------------------------------
  alpha Z        PSCENC =       107.38120932
  Ewald energy   TEWEN  =     -7307.87573524
  -Hartree energ DENC   =      -353.25057159
  -exchange      EXHF   =         0.00000000
  -V(xc)+E(xc)   XCENC  =      -558.85370957
  PAW double counting   =      5598.62625415    -4492.17844134
  entropy T*S    EENTRO =        -0.00000000
  eigenvalues    EBANDS =        67.95238099
  atomic energy  EATOM  =      6564.76702419
  Solvation  Ediel_sol  =         0.00000000
  ---------------------------------------------------
  free energy    TOTEN  =      -373.43158908 eV

  energy without entropy =     -373.43158908  energy(sigma->0) =     -373.43158908


--------------------------------------------------------------------------------------------------------




--------------------------------------- Iteration      1(   4)  ---------------------------------------


     EDDAV:  cpu time      1.9399: real time      1.9518
       DOS:  cpu time      0.0002: real time      0.0002
    --------------------------------------------
      LOOP:  cpu time      1.9401: real time      1.9520

 eigenvalue-minimisations  :  2424
 total energy-change (2. order) :-0.1168987E+01  (-0.1160960E+01)
 number of electron     256.0000000 magnetization 
 augmentation part      256.0000000 magnetization 

 Free energy of the ion-electron system (eV)
  ---------------------------------------------------
  alpha Z        PSCENC =       107.38120932
  Ewald energy   TEWEN  =     -7307.87573524
  -Hartree energ DENC   =      -353.25057159
  -exchange      EXHF   =         0.00000000
  -V(xc)+E(xc)   XCENC  =      -558.85370957
  PAW double counting   =      5598.62625415    -4492.17844134
  entropy T*S    EENTRO =        -0.00000000
  eigenvalues    EBANDS =        66.78339370
  atomic energy  EATOM  =      6564.76702419
  Solvation  Ediel_sol  =         0.00000000
  ---------------------------------------------------
  free energy    TOTEN  =      -374.60057638 eV

  energy without entropy =     -374.60057638  energy(sigma->0) =     -374.60057638


--------------------------------------------------------------------------------------------------------




--------------------------------------- Iteration      1(   5)  ---------------------------------------


     EDDAV:  cpu time      1.9140: real time      1.9259
       DOS:  cpu time      0.0002: real time      0.0002
    CHARGE:  cpu time      0.0793: real time      0.0796
    MIXING:  cpu time      0.0012: real time      0.0012
    --------------------------------------------
      LOOP:  cpu time      1.9947: real time      2.0070

 eigenvalue-minimisations  :  2376
 total energy-change (2. order) :-0.4015292E-01  (-0.4010227E-01)
 number of electron     255.9999994 magnetization 
 augmentation part      -14.9588531 magnetization 

 Broyden mixing:
  rms(total) = 0.28467E+01    rms(broyden)= 0.28467E+01
  rms(prec ) = 0.31323E+01
  weight for this iteration     100.00

 Free energy of the ion-electron system (eV)
  ---------------------------------------------------
  alpha Z        PSCENC =       107.38120932
  Ewald energy   TEWEN  =     -7307.87573524
  -Hartree energ DENC   =      -353.25057159
  -exchange      EXHF   =         0.00000000
  -V(xc)+E(xc)   XCENC  =      -558.85370957
  PAW double counting   =      5598.62625415    -4492.17844134
  entropy T*S    EENTRO =        -0.00000000
  eigenvalues    EBANDS =        66.74324078
  atomic energy  EATOM  =      6564.76702419
  Solvation  Ediel_sol  =         0.00000000
  ---------------------------------------------------
  free energy    TOTEN  =      -374.64072930 eV

  energy without entropy =     -374.64072930  energy(sigma->0) =     -374.64072930


--------------------------------------------------------------------------------------------------------




--------------------------------------- Iteration      1(   6)  ---------------------------------------


    POTLOK:  cpu time      0.0225: real time      0.0227
    SETDIJ:  cpu time      0.0219: real time      0.0220
     EDDAV:  cpu time      1.8474: real time      1.8584
       DOS:  cpu time      0.0005: real time      0.0005
    CHARGE:  cpu time      0.0774: real time      0.0778
    MIXING:  cpu time      0.0010: real time      0.0010
    --------------------------------------------
      LOOP:  cpu time      1.9706: real time      1.9825

 eigenvalue-minimisations  :  2280
 total energy-change (2. order) : 0.4918960E+01  (-0.2590112E+00)
 number of electron     255.9999994 magnetization 
 augmentation part      -14.7997281 magnetization 

 Broyden mixing:
  rms(total) = 0.17162E+01    rms(broyden)= 0.17162E+01
  rms(prec ) = 0.18754E+01
  weight for this iteration     100.00

 eigenvalues of (default mixing * dielectric matrix)
  average eigenvalue GAMMA=   2.5107
  2.5107

 Free energy of the ion-electron system (eV)
  ---------------------------------------------------
  alpha Z        PSCENC =       107.38120932
  Ewald energy   TEWEN  =     -7307.87573524
  -Hartree energ DENC   =      -399.23321916
  -exchange      EXHF   =         0.00000000
  -V(xc)+E(xc)   XCENC  =      -551.57560130
  PAW double counting   =     12483.38206040   -11380.17960985
  entropy T*S    EENTRO =        -0.00000000
  eigenvalues    EBANDS =       113.61210199
  atomic energy  EATOM  =      6564.76702419
  Solvation  Ediel_sol  =         0.00000000
  ---------------------------------------------------
  free energy    TOTEN  =      -369.72176965 eV

  energy without entropy =     -369.72176965  energy(sigma->0) =     -369.72176965


--------------------------------------------------------------------------------------------------------




--------------------------------------- Iteration      1(   7)  ---------------------------------------


    POTLOK:  cpu time      0.0218: real time      0.0220
    SETDIJ:  cpu time      0.0222: real time      0.0223
     EDDAV:  cpu time      1.8322: real time      1.8431
       DOS:  cpu time      0.0002: real time      0.0002
    CHARGE:  cpu time      0.0786: real time      0.0790
    MIXING:  cpu time      0.0013: real time      0.0014
    --------------------------------------------
      LOOP:  cpu time      1.9564: real time      1.9680

 eigenvalue-minimisations  :  2256
 total energy-change (2. order) : 0.2231403E+01  (-0.5238825E+00)
 number of electron     255.9999994 magnetization 
 augmentation part      -14.5985662 magnetization 

 Broyden mixing:
  rms(total) = 0.99606E-01    rms(broyden)= 0.99605E-01
  rms(prec ) = 0.12384E+00
  weight for this iteration     100.00

 eigenvalues of (default mixing * dielectric matrix)
  average eigenvalue GAMMA=   2.2524
  2.2524  2.2524

 Free energy of the ion-electron system (eV)
  ---------------------------------------------------
  alpha Z        PSCENC =       107.38120932
  Ewald energy   TEWEN  =     -7307.87573524
  -Hartree energ DENC   =      -473.64427422
  -exchange      EXHF   =         0.00000000
  -V(xc)+E(xc)   XCENC  =      -539.13828487
  PAW double counting   =     29120.54985896   -28021.71913013
  entropy T*S    EENTRO =        -0.00000000
  eigenvalues    EBANDS =       182.18896557
  atomic energy  EATOM  =      6564.76702419
  Solvation  Ediel_sol  =         0.00000000
  ---------------------------------------------------
  free energy    TOTEN  =      -367.49036642 eV

  energy without entropy =     -367.49036642  energy(sigma->0) =     -367.49036642


--------------------------------------------------------------------------------------------------------




--------------------------------------- Iteration      1(   8)  ---------------------------------------


    POTLOK:  cpu time      0.0213: real time      0.0215
    SETDIJ:  cpu time      0.0220: real time      0.0221
     EDDAV:  cpu time      1.8541: real time      1.8654
       DOS:  cpu time      0.0002: real time      0.0002
    CHARGE:  cpu time      0.0785: real time      0.0789
    MIXING:  cpu time      0.0011: real time      0.0011
    --------------------------------------------
      LOOP:  cpu time      1.9771: real time      1.9891

 eigenvalue-minimisations  :  2288
 total energy-change (2. order) :-0.7191091E-02  (-0.2830435E-01)
 number of electron     255.9999994 magnetization 
 augmentation part      -14.6403775 magnetization 

 Broyden mixing:
  rms(total) = 0.35177E-01    rms(broyden)= 0.35176E-01
  rms(prec ) = 0.40511E-01
  weight for this iteration     100.00

 eigenvalues of (default mixing * dielectric matrix)
  average eigenvalue GAMMA=   2.4205
  2.7988  2.2313  2.2313

 Free energy of the ion-electron system (eV)
  ---------------------------------------------------
  alpha Z        PSCENC =       107.38120932
  Ewald energy   TEWEN  =     -7307.87573524
  -Hartree energ DENC   =      -466.68478093
  -exchange      EXHF   =         0.00000000
  -V(xc)+E(xc)   XCENC  =      -539.74274074
  PAW double counting   =     28624.04383306   -27524.41215094
  entropy T*S    EENTRO =        -0.00000000
  eigenvalues    EBANDS =       175.02578376
  atomic energy  EATOM  =      6564.76702419
  Solvation  Ediel_sol  =         0.00000000
  ---------------------------------------------------
  free energy    TOTEN  =      -367.49755751 eV

  energy without entropy =     -367.49755751  energy(sigma->0) =     -367.49755751


--------------------------------------------------------------------------------------------------------




--------------------------------------- Iteration      1(   9)  ---------------------------------------


    POTLOK:  cpu time      0.0217: real time      0.0219
    SETDIJ:  cpu time      0.0223: real time      0.0224
     EDDAV:  cpu time      1.9740: real time      1.9860
       DOS:  cpu time      0.0002: real time      0.0002
    CHARGE:  cpu time      0.0789: real time      0.0793
    MIXING:  cpu time      0.0009: real time      0.0009
    --------------------------------------------
      LOOP:  cpu time      2.0981: real time      2.1108

 eigenvalue-minimisations  :  2488
 total energy-change (2. order) :-0.1452905E-02  (-0.7237893E-03)
 number of electron     255.9999994 magnetization 
 augmentation part      -14.6409419 magnetization 

 Broyden mixing:
  rms(total) = 0.30951E-01    rms(broyden)= 0.30951E-01
  rms(prec ) = 0.32069E-01
  weight for this iteration     100.00

 eigenvalues of (default mixing * dielectric matrix)
  average eigenvalue GAMMA=   2.3608
  3.8154  2.3895  2.3895  0.8486

 Free energy of the ion-electron system (eV)
  ---------------------------------------------------
  alpha Z        PSCENC =       107.38120932
  Ewald energy   TEWEN  =     -7307.87573524
  -Hartree energ DENC   =      -468.63957397
  -exchange      EXHF   =         0.00000000
  -V(xc)+E(xc)   XCENC  =      -539.41512026
  PAW double counting   =     28767.28572888   -27667.75936691
  entropy T*S    EENTRO =        -0.00000000
  eigenvalues    EBANDS =       176.75682358
  atomic energy  EATOM  =      6564.76702419
  Solvation  Ediel_sol  =         0.00000000
  ---------------------------------------------------
  free energy    TOTEN  =      -367.49901041 eV

  energy without entropy =     -367.49901041  energy(sigma->0) =     -367.49901041


--------------------------------------------------------------------------------------------------------




--------------------------------------- Iteration      1(  10)  ---------------------------------------


    POTLOK:  cpu time      0.0215: real time      0.0217
    SETDIJ:  cpu time      0.0219: real time      0.0220
     EDDAV:  cpu time      1.8174: real time      1.8284
       DOS:  cpu time      0.0002: real time      0.0002
    CHARGE:  cpu time      0.0784: real time      0.0788
    MIXING:  cpu time      0.0011: real time      0.0011
    --------------------------------------------
      LOOP:  cpu time      1.9406: real time      1.9523

 eigenvalue-minimisations  :  2232
 total energy-change (2. order) :-0.8628321E-03  (-0.2100798E-03)
 number of electron     255.9999994 magnetization 
 augmentation part      -14.6429296 magnetization 

 Broyden mixing:
  rms(total) = 0.22860E-01    rms(broyden)= 0.22860E-01
  rms(prec ) = 0.22978E-01
  weight for this iteration     100.00

 eigenvalues of (default mixing * dielectric matrix)
  average eigenvalue GAMMA=   1.8664
  2.8592  2.2492  2.2492  0.9872  0.9872

 Free energy of the ion-electron system (eV)
  ---------------------------------------------------
  alpha Z        PSCENC =       107.38120932
  Ewald energy   TEWEN  =     -7307.87573524
  -Hartree energ DENC   =      -468.88081272
  -exchange      EXHF   =         0.00000000
  -V(xc)+E(xc)   XCENC  =      -539.34015010
  PAW double counting   =     28254.22140821   -27154.66367938
  entropy T*S    EENTRO =        -0.00000000
  eigenvalues    EBANDS =       176.89086248
  atomic energy  EATOM  =      6564.76702419
  Solvation  Ediel_sol  =         0.00000000
  ---------------------------------------------------
  free energy    TOTEN  =      -367.49987324 eV

  energy without entropy =     -367.49987324  energy(sigma->0) =     -367.49987324


--------------------------------------------------------------------------------------------------------




--------------------------------------- Iteration      1(  11)  ---------------------------------------


    POTLOK:  cpu time      0.0219: real time      0.0227
    SETDIJ:  cpu time      0.0221: real time      0.0222
     EDDAV:  cpu time      1.8779: real time      1.8876
       DOS:  cpu time      0.0002: real time      0.0002
    CHARGE:  cpu time      0.0779: real time      0.0782
    MIXING:  cpu time      0.0014: real time      0.0014
    --------------------------------------------
      LOOP:  cpu time      2.0015: real time      2.0124

 eigenvalue-minimisations  :  2320
 total energy-change (2. order) :-0.3765852E-04  (-0.8850683E-05)
 number of electron     255.9999994 magnetization 
 augmentation part      -14.6438065 magnetization 

 Broyden mixing:
  rms(total) = 0.90306E-03    rms(broyden)= 0.90304E-03
  rms(prec ) = 0.99787E-03
  weight for this iteration     100.00

 eigenvalues of (default mixing * dielectric matrix)
  average eigenvalue GAMMA=   1.7447
  2.8870  2.2547  2.2547  1.1606  1.1606  0.7508

 Free energy of the ion-electron system (eV)
  ---------------------------------------------------
  alpha Z        PSCENC =       107.38120932
  Ewald energy   TEWEN  =     -7307.87573524
  -Hartree energ DENC   =      -468.75080887
  -exchange      EXHF   =         0.00000000
  -V(xc)+E(xc)   XCENC  =      -539.35265875
  PAW double counting   =     28480.11310089   -27380.54327632
  entropy T*S    EENTRO =        -0.00000000
  eigenvalues    EBANDS =       176.76123387
  atomic energy  EATOM  =      6564.76702419
  Solvation  Ediel_sol  =         0.00000000
  ---------------------------------------------------
  free energy    TOTEN  =      -367.49991090 eV

  energy without entropy =     -367.49991090  energy(sigma->0) =     -367.49991090


--------------------------------------------------------------------------------------------------------




--------------------------------------- Iteration      1(  12)  ---------------------------------------


    POTLOK:  cpu time      0.0215: real time      0.0217
    SETDIJ:  cpu time      0.0219: real time      0.0220
     EDDAV:  cpu time      1.9340: real time      1.9438
       DOS:  cpu time      0.0005: real time      0.0005
    CHARGE:  cpu time      0.0790: real time      0.0793
    MIXING:  cpu time      0.0020: real time      0.0020
    --------------------------------------------
      LOOP:  cpu time      2.0589: real time      2.0694

 eigenvalue-minimisations  :  2416
 total energy-change (2. order) :-0.2297324E-05  (-0.3344609E-06)
 number of electron     255.9999994 magnetization 
 augmentation part      -14.6436994 magnetization 

 Broyden mixing:
  rms(total) = 0.81856E-03    rms(broyden)= 0.81856E-03
  rms(prec ) = 0.84907E-03
  weight for this iteration     100.00

 eigenvalues of (default mixing * dielectric matrix)
  average eigenvalue GAMMA=   1.8536
  3.0042  2.4982  2.4982  2.1973  0.9839  0.8968  0.8968

 Free energy of the ion-electron system (eV)
  ---------------------------------------------------
  alpha Z        PSCENC =       107.38120932
  Ewald energy   TEWEN  =     -7307.87573524
  -Hartree energ DENC   =      -468.78210384
  -exchange      EXHF   =         0.00000000
  -V(xc)+E(xc)   XCENC  =      -539.35106541
  PAW double counting   =     28481.66408322   -27382.09346078
  entropy T*S    EENTRO =        -0.00000000
  eigenvalues    EBANDS =       176.79013534
  atomic energy  EATOM  =      6564.76702419
  Solvation  Ediel_sol  =         0.00000000
  ---------------------------------------------------
  free energy    TOTEN  =      -367.49991320 eV

  energy without entropy =     -367.49991320  energy(sigma->0) =     -367.49991320


--------------------------------------------------------------------------------------------------------




--------------------------------------- Iteration      1(  13)  ---------------------------------------


    POTLOK:  cpu time      0.0214: real time      0.0216
    SETDIJ:  cpu time      0.0220: real time      0.0220
     EDDAV:  cpu time      1.8347: real time      1.8442
       DOS:  cpu time      0.0002: real time      0.0002
    CHARGE:  cpu time      0.0772: real time      0.0775
    MIXING:  cpu time      0.0027: real time      0.0027
    --------------------------------------------
      LOOP:  cpu time      1.9582: real time      1.9683

 eigenvalue-minimisations  :  2256
 total energy-change (2. order) : 0.9449777E-06  (-0.8654563E-07)
 number of electron     255.9999994 magnetization 
 augmentation part      -14.6436569 magnetization 

 Broyden mixing:
  rms(total) = 0.20537E-03    rms(broyden)= 0.20537E-03
  rms(prec ) = 0.21217E-03
  weight for this iteration     100.00

 eigenvalues of (default mixing * dielectric matrix)
  average eigenvalue GAMMA=   1.7725
  3.0631  2.6153  2.3631  2.2202  0.9558  0.9558  1.0033  1.0033

 Free energy of the ion-electron system (eV)
  ---------------------------------------------------
  alpha Z        PSCENC =       107.38120932
  Ewald energy   TEWEN  =     -7307.87573524
  -Hartree energ DENC   =      -468.78644374
  -exchange      EXHF   =         0.00000000
  -V(xc)+E(xc)   XCENC  =      -539.35326533
  PAW double counting   =     28476.63988923   -27377.06683342
  entropy T*S    EENTRO =        -0.00000000
  eigenvalues    EBANDS =       176.79424274
  atomic energy  EATOM  =      6564.76702419
  Solvation  Ediel_sol  =         0.00000000
  ---------------------------------------------------
  free energy    TOTEN  =      -367.49991225 eV

  energy without entropy =     -367.49991225  energy(sigma->0) =     -367.49991225


--------------------------------------------------------------------------------------------------------




--------------------------------------- Iteration      1(  14)  ---------------------------------------


    POTLOK:  cpu time      0.0214: real time      0.0216
    SETDIJ:  cpu time      0.0224: real time      0.0224
     EDDAV:  cpu time      1.6420: real time      1.6502
       DOS:  cpu time      0.0002: real time      0.0002
    CHARGE:  cpu time      0.0775: real time      0.0778
    MIXING:  cpu time      0.0022: real time      0.0022
    --------------------------------------------
      LOOP:  cpu time      1.7657: real time      1.7745

 eigenvalue-minimisations  :  1928
 total energy-change (2. order) : 0.1714807E-06  (-0.2988759E-08)
 number of electron     255.9999994 magnetization 
 augmentation part      -14.6436505 magnetization 

 Broyden mixing:
  rms(total) = 0.52520E-04    rms(broyden)= 0.52520E-04
  rms(prec ) = 0.55397E-04
  weight for this iteration     100.00

 eigenvalues of (default mixing * dielectric matrix)
  average eigenvalue GAMMA=   1.7897
  3.0678  2.5043  2.5043  2.1531  1.8603  1.2025  0.9858  0.9144  0.9144

 Free energy of the ion-electron system (eV)
  ---------------------------------------------------
  alpha Z        PSCENC =       107.38120932
  Ewald energy   TEWEN  =     -7307.87573524
  -Hartree energ DENC   =      -468.78631942
  -exchange      EXHF   =         0.00000000
  -V(xc)+E(xc)   XCENC  =      -539.35372126
  PAW double counting   =     28475.05354117   -27375.48025852
  entropy T*S    EENTRO =        -0.00000000
  eigenvalues    EBANDS =       176.79434767
  atomic energy  EATOM  =      6564.76702419
  Solvation  Ediel_sol  =         0.00000000
  ---------------------------------------------------
  free energy    TOTEN  =      -367.49991208 eV

  energy without entropy =     -367.49991208  energy(sigma->0) =     -367.49991208


--------------------------------------------------------------------------------------------------------




--------------------------------------- Iteration      1(  15)  ---------------------------------------


    POTLOK:  cpu time      0.0212: real time      0.0213
    SETDIJ:  cpu time      0.0214: real time      0.0221
     EDDAV:  cpu time      1.3237: real time      1.3304
       DOS:  cpu time      0.0002: real time      0.0002
    CHARGE:  cpu time      0.0774: real time      0.0777
    MIXING:  cpu time      0.0024: real time      0.0024
    --------------------------------------------
      LOOP:  cpu time      1.4463: real time      1.4542

 eigenvalue-minimisations  :  1400
 total energy-change (2. order) : 0.1207809E-07  (-0.1151504E-08)
 number of electron     255.9999994 magnetization 
 augmentation part      -14.6436498 magnetization 

 Broyden mixing:
  rms(total) = 0.14923E-04    rms(broyden)= 0.14922E-04
  rms(prec ) = 0.16215E-04
  weight for this iteration     100.00

 eigenvalues of (default mixing * dielectric matrix)
  average eigenvalue GAMMA=   1.7717
  3.0938  2.6420  2.3127  2.3127  1.7705  1.7705  0.9756  0.9756  0.9320  0.9320

 Free energy of the ion-electron system (eV)
  ---------------------------------------------------
  alpha Z        PSCENC =       107.38120932
  Ewald energy   TEWEN  =     -7307.87573524
  -Hartree energ DENC   =      -468.78582063
  -exchange      EXHF   =         0.00000000
  -V(xc)+E(xc)   XCENC  =      -539.35378488
  PAW double counting   =     28474.94475056   -27375.37150866
  entropy T*S    EENTRO =        -0.00000000
  eigenvalues    EBANDS =       176.79395327
  atomic energy  EATOM  =      6564.76702419
  Solvation  Ediel_sol  =         0.00000000
  ---------------------------------------------------
  free energy    TOTEN  =      -367.49991207 eV

  energy without entropy =     -367.49991207  energy(sigma->0) =     -367.49991207


--------------------------------------------------------------------------------------------------------




--------------------------------------- Iteration      1(  16)  ---------------------------------------


    POTLOK:  cpu time      0.0214: real time      0.0216
    SETDIJ:  cpu time      0.0220: real time      0.0221
     EDDAV:  cpu time      1.2610: real time      1.2676
       DOS:  cpu time      0.0002: real time      0.0002
    CHARGE:  cpu time      0.0783: real time      0.0787
    MIXING:  cpu time      0.0016: real time      0.0016
    --------------------------------------------
      LOOP:  cpu time      1.3846: real time      1.3919

 eigenvalue-minimisations  :  1288
 total energy-change (2. order) : 0.1390163E-07  (-0.2191869E-09)
 number of electron     255.9999994 magnetization 
 augmentation part      -14.6436492 magnetization 

 Broyden mixing:
  rms(total) = 0.61099E-05    rms(broyden)= 0.61089E-05
  rms(prec ) = 0.65986E-05
  weight for this iteration     100.00

 eigenvalues of (default mixing * dielectric matrix)
  average eigenvalue GAMMA=   1.6924
  3.0799  2.6154  2.2778  2.2778  1.6557  1.6557  1.1256  1.1256  0.9379  0.9379
  0.9278

 Free energy of the ion-electron system (eV)
  ---------------------------------------------------
  alpha Z        PSCENC =       107.38120932
  Ewald energy   TEWEN  =     -7307.87573524
  -Hartree energ DENC   =      -468.78570452
  -exchange      EXHF   =         0.00000000
  -V(xc)+E(xc)   XCENC  =      -539.35381705
  PAW double counting   =     28474.88539159   -27375.31213650
  entropy T*S    EENTRO =        -0.00000000
  eigenvalues    EBANDS =       176.79385616
  atomic energy  EATOM  =      6564.76702419
  Solvation  Ediel_sol  =         0.00000000
  ---------------------------------------------------
  free energy    TOTEN  =      -367.49991206 eV

  energy without entropy =     -367.49991206  energy(sigma->0) =     -367.49991206


--------------------------------------------------------------------------------------------------------




--------------------------------------- Iteration      1(  17)  ---------------------------------------


    POTLOK:  cpu time      0.0212: real time      0.0214
    SETDIJ:  cpu time      0.0213: real time      0.0214
     EDDAV:  cpu time      1.2469: real time      1.2531
       DOS:  cpu time      0.0002: real time      0.0002
    --------------------------------------------
      LOOP:  cpu time      1.2896: real time      1.2961

 eigenvalue-minimisations  :  1272
 total energy-change (2. order) : 0.4575668E-08  (-0.3496276E-10)
 number of electron     255.9999994 magnetization 
 augmentation part      -14.6436492 magnetization 

 Free energy of the ion-electron system (eV)
  ---------------------------------------------------
  alpha Z        PSCENC =       107.38120932
  Ewald energy   TEWEN  =     -7307.87573524
  -Hartree energ DENC   =      -468.78554637
  -exchange      EXHF   =         0.00000000
  -V(xc)+E(xc)   XCENC  =      -539.35383641
  PAW double counting   =     28474.81627893   -27375.24302217
  entropy T*S    EENTRO =        -0.00000000
  eigenvalues    EBANDS =       176.79371570
  atomic energy  EATOM  =      6564.76702419
  Solvation  Ediel_sol  =         0.00000000
  ---------------------------------------------------
  free energy    TOTEN  =      -367.49991205 eV

  energy without entropy =     -367.49991205  energy(sigma->0) =     -367.49991205


--------------------------------------------------------------------------------------------------------




 average (electrostatic) potential at core
  the test charge radii are     0.9892
  (the norm of the test charge is              1.0000)
       1 -83.0552       2 -83.0576       3 -83.0594       4 -83.0570       5 -83.0594
       6 -83.0570       7 -83.0552       8 -83.0576       9 -83.0595      10 -83.0570
      11 -83.0552      12 -83.0576      13 -83.0552      14 -83.0576      15 -83.0594
      16 -83.0570      17 -83.0573      18 -83.0573      19 -83.0571      20 -83.0575
      21 -83.0575      22 -83.0571      23 -83.0573      24 -83.0573      25 -83.0573
      26 -83.0573      27 -83.0575      28 -83.0571      29 -83.0571      30 -83.0575
      31 -83.0573      32 -83.0573      33 -83.0558      34 -83.0572      35 -83.0573
      36 -83.0573      37 -83.0573      38 -83.0573      39 -83.0588      40 -83.0575
      41 -83.0573      42 -83.0573      43 -83.0573      44 -83.0573      45 -83.0573
      46 -83.0573      47 -83.0573      48 -83.0573      49 -83.0573      50 -83.0579
      51 -83.0573      52 -83.0567      53 -83.0588      54 -83.0569      55 -83.0558
      56 -83.0577      57 -83.0573      58 -83.0579      59 -83.0588      60 -83.0569
      61 -83.0573      62 -83.0567      63 -83.0558      64 -83.0577
 
 
 
 E-fermi :   5.8926     XC(G=0):  -9.5445     alpha+bet :-11.9543

 Fermi energy:         5.8926262687

 k-point     1 :       0.0000    0.0000    0.0000
  band No.  band energies     occupation 
      1      -6.2055      2.00000
      2      -5.1234      2.00000
      3      -5.1218      2.00000
      4      -5.1213      2.00000
      5      -5.1213      2.00000
      6      -5.1208      2.00000
      7      -5.1191      2.00000
      8      -4.1590      2.00000
      9      -4.1583      2.00000
     10      -4.1563      2.00000
     11      -4.1553      2.00000
     12      -4.1552      2.00000
     13      -4.1550      2.00000
     14      -4.1550      2.00000
     15      -4.1548      2.00000
     16      -4.1547      2.00000
     17      -4.1538      2.00000
     18      -4.1518      2.00000
     19      -4.1511      2.00000
     20      -3.8607      2.00000
     21      -3.8607      2.00000
     22      -3.8606      2.00000
     23      -3.8606      2.00000
     24      -2.0555      2.00000
     25      -2.0520      2.00000
     26      -2.0519      2.00000
     27      -2.0519      2.00000
     28      -2.0519      2.00000
     29      -2.0486      2.00000
     30      -1.8876      2.00000
     31      -1.8858      2.00000
     32      -1.8846      2.00000
     33      -1.8831      2.00000
     34      -1.8828      2.00000
     35      -1.8827      2.00000
     36      -1.8827      2.00000
     37      -1.8827      2.00000
     38      -1.8823      2.00000
     39      -1.8808      2.00000
     40      -1.8796      2.00000
     41      -1.8777      2.00000
     42      -1.2347      2.00000
     43      -1.2347      2.00000
     44      -1.2347      2.00000
     45      -1.2347      2.00000
     46       0.2774      2.00000
     47       0.2793      2.00000
     48       0.2793      2.00000
     49       0.2817      2.00000
     50       0.2817      2.00000
     51       0.2819      2.00000
     52       0.2819      2.00000
     53       0.2822      2.00000
     54       0.2822      2.00000
     55       0.2846      2.00000
     56       0.2846      2.00000
     57       0.2865      2.00000
     58       1.8684      2.00000
     59       1.8696      2.00000
     60       1.8703      2.00000
     61       1.8706      2.00000
     62       1.8709      2.00000
     63       1.8710      2.00000
     64       1.8714      2.00000
     65       1.8715      2.00000
     66       1.8718      2.00000
     67       1.8721      2.00000
     68       1.8727      2.00000
     69       1.8739      2.00000
     70       1.9709      2.00000
     71       1.9716      2.00000
     72       1.9716      2.00000
     73       1.9722      2.00000
     74       1.9726      2.00000
     75       1.9733      2.00000
     76       1.9733      2.00000
     77       1.9740      2.00000
     78       1.9744      2.00000
     79       1.9749      2.00000
     80       1.9751      2.00000
     81       1.9758      2.00000
     82       2.2491      2.00000
     83       2.2495      2.00000
     84       2.2514      2.00000
     85       2.2514      2.00000
     86       2.2533      2.00000
     87       2.2537      2.00000
     88       2.9009      2.00000
     89       2.9009      2.00000
     90       2.9017      2.00000
     91       2.9017      2.00000
     92       2.9025      2.00000
     93       2.9025      2.00000
     94       3.8640      2.00000
     95       3.8640      2.00000
     96       3.8661      2.00000
     97       3.8661      2.00000
     98       3.8667      2.00000
     99       3.8667      2.00000
    100       3.8667      2.00000
    101       3.8667      2.00000
    102       3.8672      2.00000
    103       3.8672      2.00000
    104       3.8693      2.00000
    105       3.8693      2.00000
    106       4.4338      2.00000
    107       4.4342      2.00000
    108       4.4357      2.00000
    109       4.4365      2.00000
    110       4.4368      2.00000
    111       4.4370      2.00000
    112       4.4370      2.00000
    113       4.4372      2.00000
    114       4.4376      2.00000
    115       4.4384      2.00000
    116       4.4398      2.00000
    117       4.4402      2.00000
    118       4.5681      2.00000
    119       4.5681      2.00000
    120       4.5698      2.00000
    121       4.5698      2.00000
    122       4.5698      2.00000
    123       4.5699      2.00000
    124       4.5716      2.00000
    125       4.5716      2.00000
    126       5.7719      2.00000
    127       5.7720      2.00000
    128       5.7720      2.00000
    129       6.3648      0.00000
    130       6.3658      0.00000
    131       6.3658      0.00000
    132       6.3658      0.00000
    133       6.3658      0.00000
    134       6.3668      0.00000
    135       6.8061      0.00000
    136       6.8067      0.00000
    137       6.8080      0.00000
    138       6.8081      0.00000
    139       6.8095      0.00000
    140       6.8100      0.00000
    141       7.2320      0.00000
    142       7.2320      0.00000
    143       7.2320      0.00000
    144       7.2320      0.00000
    145       8.1352      0.00000
    146       8.1354      0.00000
    147       8.1364      0.00000
    148       8.1368      0.00000
    149       8.1378      0.00000
    150       8.1379      0.00000
    151       8.1379      0.00000
    152       8.1380      0.00000
    153       8.1391      0.00000
    154       8.1394      0.00000
    155       8.1404      0.00000
    156       8.1406      0.00000
    157       8.2889      0.00000
    158       8.2889      0.00000
    159       8.2889      0.00000
    160       8.7968      0.00000
    161       8.7968      0.00000
    162       8.7979      0.00000
    163       8.7979      0.00000
    164       8.7990      0.00000
    165       8.7991      0.00000
    166       9.0489      0.00000
    167       9.0506      0.00000
    168       9.0520      0.00000

 k-point     2 :       0.5000    0.0000    0.0000
  band No.  band energies     occupation 
      1      -5.9320      2.00000
      2      -5.9320      2.00000
      3      -4.8750      2.00000
      4      -4.8740      2.00000
      5      -4.8739      2.00000
      6      -4.8729      2.00000
      7      -4.8726      2.00000
      8      -4.8716      2.00000
      9      -4.8715      2.00000
     10      -4.8705      2.00000
     11      -4.0233      2.00000
     12      -4.0232      2.00000
     13      -4.0227      2.00000
     14      -4.0227      2.00000
     15      -4.0227      2.00000
     16      -4.0227      2.00000
     17      -4.0222      2.00000
     18      -4.0222      2.00000
     19      -3.8057      2.00000
     20      -3.8056      2.00000
     21      -3.0802      2.00000
     22      -3.0789      2.00000
     23      -3.0776      2.00000
     24      -3.0766      2.00000
     25      -3.0762      2.00000
     26      -3.0752      2.00000
     27      -3.0739      2.00000
     28      -3.0726      2.00000
     29      -1.9715      2.00000
     30      -1.9715      2.00000
     31      -1.9715      2.00000
     32      -1.9715      2.00000
     33      -1.9715      2.00000
     34      -1.9715      2.00000
     35      -1.9715      2.00000
     36      -1.9715      2.00000
     37      -0.8067      2.00000
     38      -0.8049      2.00000
     39      -0.8046      2.00000
     40      -0.8032      2.00000
     41      -0.8028      2.00000
     42      -0.8015      2.00000
     43      -0.8011      2.00000
     44      -0.7994      2.00000
     45      -0.6348      2.00000
     46      -0.6348      2.00000
     47      -0.6340      2.00000
     48      -0.6340      2.00000
     49      -0.6340      2.00000
     50      -0.6340      2.00000
     51      -0.6331      2.00000
     52      -0.6331      2.00000
     53       0.0232      2.00000
     54       0.0233      2.00000
     55       1.4706      2.00000
     56       1.4713      2.00000
     57       1.4734      2.00000
     58       1.4742      2.00000
     59       1.4744      2.00000
     60       1.4753      2.00000
     61       1.4768      2.00000
     62       1.4778      2.00000
     63       1.4914      2.00000
     64       1.4919      2.00000
     65       1.4925      2.00000
     66       1.4928      2.00000
     67       1.4937      2.00000
     68       1.4946      2.00000
     69       1.4947      2.00000
     70       1.4954      2.00000
     71       2.3180      2.00000
     72       2.3180      2.00000
     73       2.3180      2.00000
     74       2.3180      2.00000
     75       2.3180      2.00000
     76       2.3181      2.00000
     77       2.3181      2.00000
     78       2.3181      2.00000
     79       3.0224      2.00000
     80       3.0225      2.00000
     81       3.0240      2.00000
     82       3.0241      2.00000
     83       3.0255      2.00000
     84       3.0256      2.00000
     85       3.0271      2.00000
     86       3.0272      2.00000
     87       3.1479      2.00000
     88       3.1479      2.00000
     89       3.1481      2.00000
     90       3.1481      2.00000
     91       3.1570      2.00000
     92       3.1579      2.00000
     93       3.1580      2.00000
     94       3.1589      2.00000
     95       3.1595      2.00000
     96       3.1606      2.00000
     97       3.1606      2.00000
     98       3.1616      2.00000
     99       3.2856      2.00000
    100       3.2856      2.00000
    101       3.2857      2.00000
    102       3.2858      2.00000
    103       3.2858      2.00000
    104       3.2858      2.00000
    105       3.2859      2.00000
    106       3.2859      2.00000
    107       4.3303      2.00000
    108       4.3309      2.00000
    109       4.3315      2.00000
    110       4.3315      2.00000
    111       4.3321      2.00000
    112       4.3322      2.00000
    113       4.3327      2.00000
    114       4.3334      2.00000
    115       4.4330      2.00000
    116       4.4330      2.00000
    117       4.5006      2.00000
    118       4.5006      2.00000
    119       4.5008      2.00000
    120       4.5009      2.00000
    121       4.5009      2.00000
    122       4.5009      2.00000
    123       4.5011      2.00000
    124       4.5011      2.00000
    125       4.9552      2.00000
    126       4.9552      2.00000
    127       4.9552      2.00000
    128       4.9553      2.00000
    129       6.2797      0.00000
    130       6.2797      0.00000
    131       7.1939      0.00000
    132       7.1940      0.00000
    133       7.6456      0.00000
    134       7.6458      0.00000
    135       7.6458      0.00000
    136       7.6459      0.00000
    137       7.6459      0.00000
    138       7.6459      0.00000
    139       7.6459      0.00000
    140       7.6459      0.00000
    141       7.7141      0.00000
    142       7.7142      0.00000
    143       8.0597      0.00000
    144       8.0597      0.00000
    145       8.0597      0.00000
    146       8.0597      0.00000
    147       8.0597      0.00000
    148       8.0597      0.00000
    149       8.0597      0.00000
    150       8.0597      0.00000
    151       8.1435      0.00000
    152       8.1436      0.00000
    153       8.1451      0.00000
    154       8.1452      0.00000
    155       8.1460      0.00000
    156       8.1462      0.00000
    157       8.1477      0.00000
    158       8.1478      0.00000
    159       8.5502      0.00000
    160       8.5513      0.00000
    161       8.5514      0.00000
    162       8.5525      0.00000
    163       8.5531      0.00000
    164       8.5542      0.00000
    165       8.5543      0.00000
    166       8.5554      0.00000
    167       9.3192      0.00000
    168       9.3223      0.00000

 k-point     3 :      -0.0000    0.5000    0.0000
  band No.  band energies     occupation 
      1      -5.9320      2.00000
      2      -5.9320      2.00000
      3      -4.8759      2.00000
      4      -4.8744      2.00000
      5      -4.8734      2.00000
      6      -4.8728      2.00000
      7      -4.8727      2.00000
      8      -4.8720      2.00000
      9      -4.8711      2.00000
     10      -4.8696      2.00000
     11      -4.0250      2.00000
     12      -4.0250      2.00000
     13      -4.0228      2.00000
     14      -4.0228      2.00000
     15      -4.0226      2.00000
     16      -4.0226      2.00000
     17      -4.0205      2.00000
     18      -4.0205      2.00000
[...]
         0         1         2         3         4         5         6         7         8         9
 total charge-density along one line
 
 pseudopotential strength for first ion, spin component:           1
 18.404  25.675   0.000   0.000   0.000   0.000   0.000   0.000
 25.675  35.824   0.000   0.000   0.000   0.000   0.000   0.000
  0.000   0.000   4.177   0.000   0.000   7.782   0.000   0.000
  0.000   0.000   0.000   4.177   0.000   0.000   7.782   0.000
  0.000   0.000   0.000   0.000   4.177   0.000   0.000   7.782
  0.000   0.000   7.782   0.000   0.000  14.509   0.000   0.000
  0.000   0.000   0.000   7.782   0.000   0.000  14.509   0.000
  0.000   0.000   0.000   0.000   7.782   0.000   0.000  14.509
 total augmentation occupancy for first ion, spin component:           1
  5.948  -2.288   0.000   0.000   0.019  -0.000  -0.000  -0.006
 -2.288   0.989  -0.000  -0.000  -0.008   0.000   0.000   0.003
  0.000  -0.000   3.001   0.022  -0.000  -0.682  -0.006   0.000
  0.000  -0.000   0.022   3.001  -0.000  -0.006  -0.682   0.000
  0.019  -0.008  -0.000  -0.000   3.000   0.000   0.000  -0.681
 -0.000   0.000  -0.682  -0.006   0.000   0.164   0.002   0.000
 -0.000   0.000  -0.006  -0.682   0.000   0.002   0.164   0.000
 -0.006   0.003   0.000   0.000  -0.681   0.000   0.000   0.164


------------------------ aborting loop because EDIFF is reached ----------------------------------------


    CHARGE:  cpu time      0.0773: real time      0.0777
    FORLOC:  cpu time      0.0082: real time      0.0082
    FORNL :  cpu time      0.8246: real time      0.8280
    STRESS:  cpu time      1.6856: real time      1.6935
    FORCOR:  cpu time      0.0281: real time      0.0281
    FORHAR:  cpu time      0.0115: real time      0.0115
    MIXING:  cpu time      0.0009: real time      0.0009
    OFIELD:  cpu time      0.0000: real time      0.0000

  FORCE on cell =-STRESS in cart. coord.  units (eV):
  Direction    XX          YY          ZZ          XY          YZ          ZX
  --------------------------------------------------------------------------------------
  Alpha Z   107.38121   107.38121   107.38121
  Ewald   -2435.98562 -2435.96800 -2435.96800    -0.00001    -0.00056    -0.00001
  Hartree   156.26016   156.26271   156.26271    -0.00000    -0.00030    -0.00000
  E(xc)    -817.39767  -817.39793  -817.39793    -0.00000     0.00000    -0.00000
  Local    -931.44742  -931.46661  -931.46661     0.00001     0.00086     0.00001
  n-local  2483.02249  2483.30923  2482.74360    -0.00000    -0.00005    -0.00000
  augment  -368.16886  -368.16908  -368.16908     0.00000    -0.00000     0.00000
  Kinetic  1806.30918  1807.67102  1804.94571    -0.00000     0.00002    -0.00000
  Fock        0.00000     0.00000     0.00000     0.00000     0.00000     0.00000
  -------------------------------------------------------------------------------------
  Total      -0.02653    -0.02291    -0.02291    -0.00000    -0.00003    -0.00000
  in kB      -0.03310    -0.02858    -0.02858    -0.00000    -0.00004    -0.00000
  external pressure =       -0.03 kB  Pullay stress =        0.00 kB


 VOLUME and BASIS-vectors are now :
 -----------------------------------------------------------------------------
  energy-cutoff  :      318.00
  volume of cell :     1284.06
      direct lattice vectors                 reciprocal lattice vectors
    10.869145120 -0.000000000 -0.000000000     0.092003556  0.000000000 -0.000000000
    -0.000000000 10.869145120  0.000000000     0.000000000  0.092003556 -0.000000000
     0.000000000  0.000000000 10.869145120     0.000000000 -0.000000000  0.092003556

  length of vectors
    10.869145120 10.869145120 10.869145120     0.092003556  0.092003556  0.092003556


 FORCES acting on ions
    electron-ion (+dipol)            ewald-force                    non-local-force                 convergence-correction
 -----------------------------------------------------------------------------------------------
   0.494E+00 -.449E-02 -.449E-02   -.437E+00 -.319E-03 -.319E-03   -.185E+00 0.576E-02 0.576E-02   0.379E-05 -.295E-05 -.295E-05
   -.407E-01 0.544E-04 0.544E-04   0.408E-01 0.318E-04 0.318E-04   0.103E-03 -.621E-05 -.621E-05   -.304E-05 -.310E-05 -.310E-05
   -.571E-02 -.497E-02 0.497E-02   0.173E-01 0.106E-03 -.106E-03   -.679E-02 0.582E-02 -.582E-02   0.505E-06 0.338E-05 -.322E-05
   0.391E-02 0.112E-03 -.108E-03   -.536E-02 -.318E-04 0.318E-04   0.154E-02 -.648E-05 0.305E-05   -.863E-06 0.321E-05 -.361E-05
   -.571E-02 0.497E-02 -.497E-02   0.173E-01 -.106E-03 0.106E-03   -.679E-02 -.582E-02 0.582E-02   0.505E-06 -.322E-05 0.338E-05
   0.391E-02 -.108E-03 0.112E-03   -.536E-02 0.318E-04 -.318E-04   0.154E-02 0.305E-05 -.648E-05   -.863E-06 -.361E-05 0.321E-05
   -.291E-01 0.470E-02 0.470E-02   0.287E-01 0.106E-03 0.106E-03   0.715E-03 -.575E-02 -.575E-02   0.441E-07 0.281E-05 0.281E-05
   0.131E-01 -.534E-04 -.534E-04   -.131E-01 -.318E-04 -.318E-04   0.293E-03 0.477E-05 0.477E-05   -.983E-06 0.366E-05 0.366E-05
   -.494E+00 -.517E-02 -.517E-02   0.437E+00 0.319E-03 0.319E-03   0.185E+00 0.580E-02 0.580E-02   -.163E-05 0.155E-05 0.155E-05
   0.407E-01 0.109E-03 0.109E-03   -.408E-01 -.318E-04 -.318E-04   -.953E-04 -.179E-05 -.179E-05   0.265E-06 0.135E-05 0.135E-05
   0.575E-02 -.469E-02 0.469E-02   -.173E-01 -.106E-03 0.106E-03   0.676E-02 0.574E-02 -.574E-02   0.179E-05 -.959E-06 0.753E-06
   -.391E-02 0.488E-04 -.540E-04   0.536E-02 0.318E-04 -.318E-04   -.154E-02 -.270E-05 0.700E-05   -.197E-05 -.138E-05 0.174E-05
   0.575E-02 0.469E-02 -.469E-02   -.173E-01 0.106E-03 -.106E-03   0.676E-02 -.574E-02 0.574E-02   0.179E-05 0.753E-06 -.959E-06
   -.391E-02 -.540E-04 0.488E-04   0.536E-02 -.318E-04 0.318E-04   -.154E-02 0.700E-05 -.270E-05   -.197E-05 0.174E-05 -.138E-05
   0.290E-01 0.496E-02 0.496E-02   -.287E-01 -.106E-03 -.106E-03   -.696E-03 -.581E-02 -.581E-02   0.172E-05 -.151E-05 -.151E-05
   -.131E-01 -.109E-03 -.109E-03   0.131E-01 0.318E-04 0.318E-04   -.286E-03 0.308E-05 0.308E-05   -.178E-05 -.197E-05 -.197E-05
   -.141E-03 -.577E-01 -.574E-01   0.139E-03 0.567E-01 0.564E-01   -.116E-04 0.189E-02 0.194E-02   -.125E-05 -.448E-05 -.155E-06
   0.142E-03 0.540E-01 0.544E-01   -.139E-03 -.564E-01 -.567E-01   0.982E-05 -.417E-03 -.473E-03   0.132E-05 -.168E-05 0.249E-05
   0.293E-01 0.555E-01 -.437E-02   -.286E-01 -.567E-01 0.466E-02   -.222E-02 -.745E-03 0.545E-04   -.798E-06 0.400E-05 0.146E-05
   0.295E-01 -.562E-01 0.772E-02   -.288E-01 0.564E-01 -.467E-02   -.222E-02 0.160E-02 -.151E-02   0.159E-05 0.139E-05 0.176E-05
   -.295E-01 -.440E-02 0.552E-01   0.288E-01 0.467E-02 -.564E-01   0.222E-02 0.835E-04 -.754E-03   -.153E-05 -.330E-05 -.137E-06
   -.293E-01 0.779E-02 -.566E-01   0.286E-01 -.466E-02 0.567E-01   0.222E-02 -.156E-02 0.162E-02   0.893E-06 -.351E-05 -.287E-05
   -.755E-04 0.658E-02 0.657E-02   0.687E-04 -.467E-02 -.466E-02   0.661E-05 -.124E-02 -.123E-02   -.424E-06 0.395E-05 -.130E-05
   0.770E-04 -.557E-02 -.556E-02   -.687E-04 0.466E-02 0.467E-02   -.875E-05 0.376E-03 0.370E-03   0.633E-06 0.391E-05 -.139E-05
   -.141E-03 -.574E-01 -.577E-01   0.139E-03 0.564E-01 0.567E-01   -.116E-04 0.194E-02 0.189E-02   -.125E-05 -.155E-06 -.448E-05
   0.142E-03 0.544E-01 0.540E-01   -.139E-03 -.567E-01 -.564E-01   0.982E-05 -.473E-03 -.417E-03   0.132E-05 0.249E-05 -.168E-05
   -.295E-01 0.552E-01 -.440E-02   0.288E-01 -.564E-01 0.467E-02   0.222E-02 -.754E-03 0.835E-04   -.153E-05 -.137E-06 -.330E-05
   -.293E-01 -.566E-01 0.779E-02   0.286E-01 0.567E-01 -.466E-02   0.222E-02 0.162E-02 -.156E-02   0.893E-06 -.287E-05 -.351E-05
   0.293E-01 -.437E-02 0.555E-01   -.286E-01 0.466E-02 -.567E-01   -.222E-02 0.545E-04 -.745E-03   -.798E-06 0.146E-05 0.400E-05
   0.295E-01 0.772E-02 -.562E-01   -.288E-01 -.467E-02 0.564E-01   -.222E-02 -.151E-02 0.160E-02   0.159E-05 0.176E-05 0.139E-05
   -.755E-04 0.657E-02 0.658E-02   0.687E-04 -.466E-02 -.467E-02   0.661E-05 -.123E-02 -.124E-02   -.424E-06 -.130E-05 0.395E-05
   0.770E-04 -.556E-02 -.557E-02   -.687E-04 0.467E-02 0.466E-02   -.875E-05 0.370E-03 0.376E-03   0.633E-06 -.139E-05 0.391E-05
   -.223E-01 -.202E+00 -.202E+00   0.141E-01 0.173E+00 0.173E+00   0.386E-01 0.524E-01 0.524E-01   0.282E-05 -.415E-05 -.415E-05
   -.441E-01 0.151E-01 0.151E-01   0.447E-01 -.140E-01 -.140E-01   -.507E-03 -.459E-03 -.459E-03   -.262E-05 -.326E-05 -.326E-05
   0.149E-03 0.126E-01 0.127E-01   -.149E-03 -.100E-01 -.101E-01   -.478E-05 -.182E-02 -.183E-02   0.183E-05 0.382E-05 -.247E-05
   -.457E-04 -.499E-02 -.511E-02   0.452E-04 0.442E-02 0.451E-02   -.310E-05 0.104E-02 0.107E-02   -.173E-05 0.317E-05 -.369E-05
   0.149E-03 0.127E-01 0.126E-01   -.149E-03 -.101E-01 -.100E-01   -.478E-05 -.183E-02 -.182E-02   0.183E-05 -.247E-05 0.382E-05
   -.457E-04 -.511E-02 -.499E-02   0.452E-04 0.451E-02 0.442E-02   -.310E-05 0.107E-02 0.104E-02   -.173E-05 -.369E-05 0.317E-05
   0.243E-01 -.201E+00 -.201E+00   -.159E-01 0.172E+00 0.172E+00   -.385E-01 0.516E-01 0.516E-01   0.235E-06 0.221E-05 0.221E-05
   0.442E-01 0.153E-01 0.153E-01   -.448E-01 -.142E-01 -.142E-01   0.504E-03 -.464E-03 -.464E-03   0.820E-07 0.384E-05 0.384E-05
   0.201E-02 0.404E+00 0.404E+00   -.175E-02 -.352E+00 -.352E+00   0.292E-04 -.979E-01 -.979E-01   0.199E-05 0.372E-06 0.372E-06
   0.126E-03 -.348E-01 -.348E-01   -.117E-03 0.335E-01 0.335E-01   -.695E-05 0.558E-03 0.558E-03   -.188E-05 -.208E-05 -.208E-05
   0.147E-03 -.357E-01 0.105E-01   -.149E-03 0.335E-01 -.134E-01   -.453E-05 0.155E-02 0.211E-02   0.177E-05 -.930E-07 -.121E-05
   -.481E-04 0.176E-01 -.750E-02   0.452E-04 -.162E-01 0.724E-02   -.960E-06 -.187E-02 -.240E-03   -.152E-05 0.225E-05 -.169E-05
   0.147E-03 0.105E-01 -.357E-01   -.149E-03 -.134E-01 0.335E-01   -.453E-05 0.211E-02 0.155E-02   0.177E-05 -.121E-05 -.930E-07
   -.481E-04 -.750E-02 0.176E-01   0.452E-04 0.724E-02 -.162E-01   -.960E-06 -.240E-03 -.187E-02   -.152E-05 -.169E-05 0.225E-05
   0.488E-04 -.170E-02 -.170E-02   -.534E-04 0.724E-02 0.724E-02   0.125E-04 -.605E-02 -.605E-02   0.136E-05 0.172E-05 0.172E-05
   -.337E-04 0.433E-02 0.433E-02   0.350E-04 -.523E-02 -.523E-02   -.578E-06 0.365E-03 0.365E-03   -.101E-05 0.157E-05 0.157E-05
   -.237E-01 0.184E+00 -.207E+00   0.233E-01 -.159E+00 0.182E+00   0.331E-01 -.478E-01 0.475E-01   0.107E-05 -.301E-05 -.197E-05
   -.363E-01 -.870E-02 0.212E-01   0.373E-01 0.880E-02 -.205E-01   -.124E-02 -.649E-03 -.143E-03   -.959E-06 -.306E-05 -.798E-06
   0.216E-01 0.185E+00 -.208E+00   -.214E-01 -.159E+00 0.183E+00   -.331E-01 -.486E-01 0.483E-01   -.121E-05 0.290E-05 -.197E-05
   0.363E-01 -.846E-02 0.211E-01   -.372E-01 0.856E-02 -.203E-01   0.126E-02 -.664E-03 -.173E-03   0.111E-05 0.314E-05 -.455E-06
   -.739E-03 0.440E-02 0.187E-01   -.724E-02 -.309E-02 -.204E-01   0.538E-02 -.197E-02 0.224E-02   0.238E-06 -.334E-05 0.191E-05
   -.782E-02 -.163E-02 -.110E-01   0.747E-02 0.102E-02 0.107E-01   0.745E-03 0.794E-04 0.756E-03   -.547E-06 -.402E-05 0.112E-05
   0.543E-03 0.436E-02 0.187E-01   0.745E-02 -.305E-02 -.204E-01   -.539E-02 -.197E-02 0.226E-02   0.326E-06 0.335E-05 0.209E-05
   0.790E-02 -.155E-02 -.109E-01   -.755E-02 0.979E-03 0.107E-01   -.738E-03 0.470E-04 0.747E-03   -.117E-06 0.384E-05 0.203E-06
   -.237E-01 -.207E+00 0.184E+00   0.233E-01 0.182E+00 -.159E+00   0.331E-01 0.475E-01 -.478E-01   0.107E-05 -.197E-05 -.301E-05
   -.363E-01 0.212E-01 -.870E-02   0.373E-01 -.205E-01 0.880E-02   -.124E-02 -.143E-03 -.649E-03   -.959E-06 -.798E-06 -.306E-05
   -.739E-03 0.187E-01 0.440E-02   -.724E-02 -.204E-01 -.309E-02   0.538E-02 0.224E-02 -.197E-02   0.238E-06 0.191E-05 -.334E-05
   -.782E-02 -.110E-01 -.163E-02   0.747E-02 0.107E-01 0.102E-02   0.745E-03 0.756E-03 0.794E-04   -.547E-06 0.112E-05 -.402E-05
   0.216E-01 -.208E+00 0.185E+00   -.214E-01 0.183E+00 -.159E+00   -.331E-01 0.483E-01 -.486E-01   -.121E-05 -.197E-05 0.290E-05
   0.363E-01 0.211E-01 -.846E-02   -.372E-01 -.203E-01 0.856E-02   0.126E-02 -.173E-03 -.664E-03   0.111E-05 -.455E-06 0.314E-05
   0.543E-03 0.187E-01 0.436E-02   0.745E-02 -.204E-01 -.305E-02   -.539E-02 0.226E-02 -.197E-02   0.326E-06 0.209E-05 0.335E-05
   0.790E-02 -.109E-01 -.155E-02   -.755E-02 0.107E-01 0.979E-03   -.738E-03 0.747E-03 0.470E-04   -.117E-06 0.203E-06 0.384E-05
 -----------------------------------------------------------------------------------------------
   0.242E-04 -.141E-05 -.141E-05   -.669E-13 0.382E-13 0.137E-13   -.240E-04 0.118E-05 0.118E-05   -.277E-06 0.126E-06 0.126E-06
 
 
 POSITION                                       TOTAL-FORCE (eV/Angst)
 -----------------------------------------------------------------------------------
      2.72729      2.71729      2.71729        -0.127860      0.000941      0.000941
      8.15186      2.71729      2.71729         0.000218      0.000077      0.000077
      2.71729      8.15186      2.71729         0.004758      0.000953     -0.000953
      8.15186      8.15186      2.71729         0.000087      0.000077     -0.000076
      2.71729      2.71729      8.15186         0.004758     -0.000953      0.000953
      8.15186      2.71729      8.15186         0.000087     -0.000076      0.000077
      2.71729      8.15186      8.15186         0.000339     -0.000941     -0.000941
      8.15186      8.15186      8.15186         0.000262     -0.000077     -0.000077
      2.70729     -0.00000     -0.00000         0.127869      0.000954      0.000954
      8.15186     -0.00000     -0.00000        -0.000221      0.000076      0.000076
      2.71729      5.43457      0.00000        -0.004749      0.000942     -0.000942
      8.15186      5.43457     -0.00000        -0.000084      0.000077     -0.000077
      2.71729      0.00000      5.43457        -0.004749     -0.000942      0.000942
      8.15186     -0.00000      5.43457        -0.000084     -0.000077      0.000077
      2.71729      5.43457      5.43457        -0.000351     -0.000954     -0.000954
      8.15186      5.43457      5.43457        -0.000266     -0.000077     -0.000077
     -0.00000      2.71729      0.00000        -0.000015      0.000925      0.000900
      5.43457      2.71729     -0.00000         0.000014     -0.002809     -0.002805
     -0.00000      8.15186      0.00000        -0.001549     -0.001942      0.000348
      5.43457      8.15186      0.00000        -0.001533      0.001777      0.001544
      0.00000      2.71729      5.43457         0.001534      0.000342     -0.001931
      5.43457      2.71729      5.43457         0.001551      0.001557      0.001789
     -0.00000      8.15186      5.43457        -0.000001      0.000679      0.000680
      5.43457      8.15186      5.43457         0.000000     -0.000527     -0.000525
      0.00000      0.00000      2.71729        -0.000015      0.000900      0.000925
      5.43457     -0.00000      2.71729         0.000014     -0.002805     -0.002809
     -0.00000      5.43457      2.71729         0.001534     -0.001931      0.000342
      5.43457      5.43457      2.71729         0.001551      0.001789      0.001557
      0.00000      0.00000      8.15186        -0.001549      0.000348     -0.001942
      5.43457      0.00000      8.15186        -0.001533      0.001544      0.001777
      0.00000      5.43457      8.15186        -0.000001      0.000680      0.000679
      5.43457      5.43457      8.15186         0.000000     -0.000525     -0.000527
      4.07593      4.07593      4.07593         0.030406      0.023258      0.023258
      9.51050      4.07593      4.07593         0.000090      0.000610      0.000610
      4.07593      9.51050      4.07593        -0.000004      0.000752      0.000745
      9.51050      9.51050      4.07593        -0.000005      0.000467      0.000467
      4.07593      4.07593      9.51050        -0.000004      0.000745      0.000752
      9.51050      4.07593      9.51050        -0.000005      0.000467      0.000467
      4.07593      9.51050      9.51050        -0.030096      0.022651      0.022651
      9.51050      9.51050      9.51050        -0.000091      0.000610      0.000610
      4.07593      1.35864      1.35864         0.000296     -0.045405     -0.045405
      9.51050      1.35864      1.35864        -0.000001     -0.000680     -0.000680
      4.07593      6.79322      1.35864        -0.000005     -0.000681     -0.000816
      9.51050      6.79322      1.35864        -0.000005     -0.000429     -0.000505
      4.07593      1.35864      6.79322        -0.000005     -0.000816     -0.000681
      9.51050      1.35864      6.79322        -0.000005     -0.000505     -0.000429
      4.07593      6.79322      6.79322         0.000009     -0.000505     -0.000505
      9.51050      6.79322      6.79322        -0.000000     -0.000540     -0.000540
      1.35864      4.07593      1.35864         0.032697     -0.022743      0.022804
      6.79322      4.07593      1.35864        -0.000307     -0.000552      0.000589
      1.35864      9.51050      1.35864        -0.033000     -0.023342      0.023417
      6.79322      9.51050      1.35864         0.000311     -0.000558      0.000597
      1.35864      4.07593      6.79322        -0.002600     -0.000663      0.000592
      6.79322      4.07593      6.79322         0.000402     -0.000526      0.000487
      1.35864      9.51050      6.79322         0.002595     -0.000659      0.000594
      6.79322      9.51050      6.79322        -0.000396     -0.000520      0.000482
      1.35864      1.35864      4.07593         0.032697      0.022804     -0.022743
      6.79322      1.35864      4.07593        -0.000307      0.000589     -0.000552
      1.35864      6.79322      4.07593        -0.002600      0.000592     -0.000663
      6.79322      6.79322      4.07593         0.000402      0.000487     -0.000526
      1.35864      1.35864      9.51050        -0.033000      0.023417     -0.023342
      6.79322      1.35864      9.51050         0.000311      0.000597     -0.000558
      1.35864      6.79322      9.51050         0.002595      0.000594     -0.000659
      6.79322      6.79322      9.51050        -0.000396      0.000482     -0.000520
 -----------------------------------------------------------------------------------
    total drift:                               -0.000000     -0.000000     -0.000000


--------------------------------------------------------------------------------------------------------



  FREE ENERGIE OF THE ION-ELECTRON SYSTEM (eV)
  ---------------------------------------------------
  free  energy   TOTEN  =      -367.49991205 eV

  energy  without entropy=     -367.49991205  energy(sigma->0) =     -367.49991205
 


--------------------------------------------------------------------------------------------------------


    POTLOK:  cpu time      0.0427: real time      0.0429


--------------------------------------------------------------------------------------------------------


     LOOP+:  cpu time     34.1409: real time     34.3410
    4ORBIT:  cpu time      0.0000: real time      0.0000

 total amount of memory used by VASP MPI-rank0    61993. kBytes
=======================================================================

   base      :      30000. kBytes
   nonl-proj :       5879. kBytes
   fftplans  :      11573. kBytes
   grid      :       5816. kBytes
   one-center:         49. kBytes
   wavefun   :       8676. kBytes
 
  
  
 General timing and accounting informations for this job:
 ========================================================
  
                  Total CPU time used (sec):       35.847
                            User time (sec):       34.830
                          System time (sec):        1.017
                         Elapsed time (sec):       36.223
  
                   Maximum memory used (kb):      221252.
                   Average memory used (kb):          N/A
  
                          Minor page faults:        98805
                          Major page faults:            0
                 Voluntary context switches:          749
