 running on   32 total cores
 distrk:  each k-point on   32 cores,    1 groups
 distr:  one band on    4 cores,    8 groups
 vasp.6.3.2 27Jun22 (build Oct 14 2022 12:13:54) complex                        
  
 POSCAR found type information on POSCAR Si
 POSCAR found :  1 types and      64 ions
 scaLAPACK will be used
 -----------------------------------------------------------------------------
|                                                                             |
|               ----> ADVICE to this user running VASP <----                  |
|                                                                             |
|     You have a (more or less) 'large supercell' and for larger cells it     |
|     might be more efficient to use real-space projection operators.         |
|     Therefore, try LREAL= Auto in the INCAR file.                           |
|     Mind: For very accurate calculation, you might also keep the            |
|     reciprocal projection scheme (i.e. LREAL=.FALSE.).                      |
|                                                                             |
 -----------------------------------------------------------------------------

 -----------------------------------------------------------------------------
|                                                                             |
|               ----> ADVICE to this user running VASP <----                  |
|                                                                             |
|     You enforced a specific xc type in the INCAR file but a different       |
|     type was found in the POTCAR file.                                      |
|     I HOPE YOU KNOW WHAT YOU ARE DOING!                                     |
|                                                                             |
 -----------------------------------------------------------------------------

 LDA part: xc-table for Pade appr. of Perdew
 POSCAR, INCAR and KPOINTS ok, starting setup
 FFT: planning ... GRIDC
 FFT: planning ... GRID_SOFT
 FFT: planning ... GRID
 WAVECAR not read
 entering main loop
       N       E                     dE             d eps       ncg     rms          rms(c)
DAV:   1     0.455336890695E+03    0.45534E+03   -0.72719E+04  2016   0.852E+02
DAV:   2    -0.321175531279E+03   -0.77651E+03   -0.73330E+03  2424   0.156E+02
DAV:   3    -0.373431589084E+03   -0.52256E+02   -0.51442E+02  2472   0.369E+01
DAV:   4    -0.374600576378E+03   -0.11690E+01   -0.11610E+01  2424   0.670E+00
DAV:   5    -0.374640729300E+03   -0.40153E-01   -0.40102E-01  2376   0.111E+00    0.285E+01
DAV:   6    -0.369721769650E+03    0.49190E+01   -0.25901E+00  2280   0.242E+00    0.172E+01
DAV:   7    -0.367490366416E+03    0.22314E+01   -0.52388E+00  2256   0.349E+00    0.996E-01
DAV:   8    -0.367497557507E+03   -0.71911E-02   -0.28304E-01  2288   0.969E-01    0.352E-01
DAV:   9    -0.367499010412E+03   -0.14529E-02   -0.72379E-03  2488   0.163E-01    0.310E-01
DAV:  10    -0.367499873244E+03   -0.86283E-03   -0.21008E-03  2232   0.835E-02    0.229E-01
DAV:  11    -0.367499910902E+03   -0.37659E-04   -0.88507E-05  2320   0.189E-02    0.903E-03
DAV:  12    -0.367499913200E+03   -0.22973E-05   -0.33446E-06  2416   0.360E-03    0.819E-03
DAV:  13    -0.367499912255E+03    0.94498E-06   -0.86546E-07  2256   0.196E-03    0.205E-03
DAV:  14    -0.367499912083E+03    0.17148E-06   -0.29888E-08  1928   0.393E-04    0.525E-04
DAV:  15    -0.367499912071E+03    0.12078E-07   -0.11515E-08  1400   0.213E-04    0.149E-04
DAV:  16    -0.367499912057E+03    0.13902E-07   -0.21919E-09  1288   0.108E-04    0.611E-05
DAV:  17    -0.367499912053E+03    0.45757E-08   -0.34963E-10  1272   0.397E-05
   1 F= -.36749991E+03 E0= -.36749991E+03  d E =-.656665E-18
