<?xml version="1.0" encoding="ISO-8859-1"?>
<modeling>
 <generator>
  <i name="program" type="string">vasp </i>
  <i name="version" type="string">6.3.2  </i>
  <i name="subversion" type="string">27Jun22 (build Oct 14 2022 12:13:54) complex                          parallel </i>
  <i name="platform" type="string">LinuxIFC </i>
  <i name="date" type="string">2023 04 03 </i>
  <i name="time" type="string">14:35:42 </i>
 </generator>
 <incar>
  <i type="string" name="PREC">Accurate</i>
  <i type="int" name="IALGO">    38</i>
  <i type="logical" name="ADDGRID"> T  </i>
  <i type="int" name="NELMIN">     5</i>
  <i type="int" name="IBRION">    -1</i>
  <i name="EDIFF">      0.00000001</i>
  <i name="ENCUT">    318.00000000</i>
  <i type="logical" name="LREAL"> F  </i>
  <i type="int" name="ISMEAR">     0</i>
  <i name="SIGMA">      0.02000000</i>
  <i type="logical" name="LWAVE"> F  </i>
  <i type="logical" name="LCHARG"> F  </i>
  <i type="string" name="GGA">Ps</i>
 </incar>
 <primitive_cell>
  <structure name="primitive_cell" >
   <crystal>
    <varray name="basis" >
     <v>      10.86914512      -0.00000000      -0.00000000 </v>
     <v>      -0.00000000      10.86914512       0.00000000 </v>
     <v>       0.00000000       0.00000000      10.86914512 </v>
    </varray>
    <i name="volume">   1284.06249692 </i>
    <varray name="rec_basis" >
     <v>       0.09200356       0.00000000      -0.00000000 </v>
     <v>       0.00000000       0.09200356      -0.00000000 </v>
     <v>       0.00000000      -0.00000000       0.09200356 </v>
    </varray>
   </crystal>
   <varray name="positions" >
    <v>       0.25092004       0.25000000       0.25000000 </v>
    <v>       0.75000000       0.25000000       0.25000000 </v>
    <v>       0.25000000       0.75000000       0.25000000 </v>
    <v>       0.75000000       0.75000000       0.25000000 </v>
    <v>       0.25000000       0.25000000       0.75000000 </v>
    <v>       0.75000000       0.25000000       0.75000000 </v>
    <v>       0.25000000       0.75000000       0.75000000 </v>
    <v>       0.75000000       0.75000000       0.75000000 </v>
    <v>       0.24907996       1.00000000       1.00000000 </v>
    <v>       0.75000000       1.00000000       1.00000000 </v>
    <v>       0.25000000       0.50000000       0.00000000 </v>
    <v>       0.75000000       0.50000000       1.00000000 </v>
    <v>       0.25000000       0.00000000       0.50000000 </v>
    <v>       0.75000000       1.00000000       0.50000000 </v>
    <v>       0.25000000       0.50000000       0.50000000 </v>
    <v>       0.75000000       0.50000000       0.50000000 </v>
    <v>       1.00000000       0.25000000       0.00000000 </v>
    <v>       0.50000000       0.25000000       1.00000000 </v>
    <v>       1.00000000       0.75000000       0.00000000 </v>
    <v>       0.50000000       0.75000000       0.00000000 </v>
    <v>       0.00000000       0.25000000       0.50000000 </v>
    <v>       0.50000000       0.25000000       0.50000000 </v>
    <v>       1.00000000       0.75000000       0.50000000 </v>
    <v>       0.50000000       0.75000000       0.50000000 </v>
    <v>       0.00000000       0.00000000       0.25000000 </v>
    <v>       0.50000000       1.00000000       0.25000000 </v>
    <v>       1.00000000       0.50000000       0.25000000 </v>
    <v>       0.50000000       0.50000000       0.25000000 </v>
    <v>       0.00000000       0.00000000       0.75000000 </v>
    <v>       0.50000000       0.00000000       0.75000000 </v>
    <v>       0.00000000       0.50000000       0.75000000 </v>
    <v>       0.50000000       0.50000000       0.75000000 </v>
    <v>       0.37500000       0.37500000       0.37500000 </v>
    <v>       0.87500000       0.37500000       0.37500000 </v>
    <v>       0.37500000       0.87500000       0.37500000 </v>
    <v>       0.87500000       0.87500000       0.37500000 </v>
    <v>       0.37500000       0.37500000       0.87500000 </v>
    <v>       0.87500000       0.37500000       0.87500000 </v>
    <v>       0.37500000       0.87500000       0.87500000 </v>
    <v>       0.87500000       0.87500000       0.87500000 </v>
    <v>       0.37500000       0.12500000       0.12500000 </v>
    <v>       0.87500000       0.12500000       0.12500000 </v>
    <v>       0.37500000       0.62500000       0.12500000 </v>
    <v>       0.87500000       0.62500000       0.12500000 </v>
    <v>       0.37500000       0.12500000       0.62500000 </v>
    <v>       0.87500000       0.12500000       0.62500000 </v>
    <v>       0.37500000       0.62500000       0.62500000 </v>
    <v>       0.87500000       0.62500000       0.62500000 </v>
    <v>       0.12500000       0.37500000       0.12500000 </v>
    <v>       0.62500000       0.37500000       0.12500000 </v>
    <v>       0.12500000       0.87500000       0.12500000 </v>
    <v>       0.62500000       0.87500000       0.12500000 </v>
    <v>       0.12500000       0.37500000       0.62500000 </v>
    <v>       0.62500000       0.37500000       0.62500000 </v>
    <v>       0.12500000       0.87500000       0.62500000 </v>
    <v>       0.62500000       0.87500000       0.62500000 </v>
    <v>       0.12500000       0.12500000       0.37500000 </v>
    <v>       0.62500000       0.12500000       0.37500000 </v>
    <v>       0.12500000       0.62500000       0.37500000 </v>
    <v>       0.62500000       0.62500000       0.37500000 </v>
    <v>       0.12500000       0.12500000       0.87500000 </v>
    <v>       0.62500000       0.12500000       0.87500000 </v>
    <v>       0.12500000       0.62500000       0.87500000 </v>
    <v>       0.62500000       0.62500000       0.87500000 </v>
   </varray>
  </structure>
  <varray name="primitive_index" >
   <v type="int" >        1 </v>
   <v type="int" >        2 </v>
   <v type="int" >        3 </v>
   <v type="int" >        4 </v>
   <v type="int" >        5 </v>
   <v type="int" >        6 </v>
   <v type="int" >        7 </v>
   <v type="int" >        8 </v>
   <v type="int" >        9 </v>
   <v type="int" >       10 </v>
   <v type="int" >       11 </v>
   <v type="int" >       12 </v>
   <v type="int" >       13 </v>
   <v type="int" >       14 </v>
   <v type="int" >       15 </v>
   <v type="int" >       16 </v>
   <v type="int" >       17 </v>
   <v type="int" >       18 </v>
   <v type="int" >       19 </v>
   <v type="int" >       20 </v>
   <v type="int" >       21 </v>
   <v type="int" >       22 </v>
   <v type="int" >       23 </v>
   <v type="int" >       24 </v>
   <v type="int" >       25 </v>
   <v type="int" >       26 </v>
   <v type="int" >       27 </v>
   <v type="int" >       28 </v>
   <v type="int" >       29 </v>
   <v type="int" >       30 </v>
   <v type="int" >       31 </v>
   <v type="int" >       32 </v>
   <v type="int" >       33 </v>
   <v type="int" >       34 </v>
   <v type="int" >       35 </v>
   <v type="int" >       36 </v>
   <v type="int" >       37 </v>
   <v type="int" >       38 </v>
   <v type="int" >       39 </v>
   <v type="int" >       40 </v>
   <v type="int" >       41 </v>
   <v type="int" >       42 </v>
   <v type="int" >       43 </v>
   <v type="int" >       44 </v>
   <v type="int" >       45 </v>
   <v type="int" >       46 </v>
   <v type="int" >       47 </v>
   <v type="int" >       48 </v>
   <v type="int" >       49 </v>
   <v type="int" >       50 </v>
   <v type="int" >       51 </v>
   <v type="int" >       52 </v>
   <v type="int" >       53 </v>
   <v type="int" >       54 </v>
   <v type="int" >       55 </v>
   <v type="int" >       56 </v>
   <v type="int" >       57 </v>
   <v type="int" >       58 </v>
   <v type="int" >       59 </v>
   <v type="int" >       60 </v>
   <v type="int" >       61 </v>
   <v type="int" >       62 </v>
   <v type="int" >       63 </v>
   <v type="int" >       64 </v>
  </varray>
 </primitive_cell>
 <kpoints>
  <generation param="Gamma">
   <v type="int" name="divisions">       2        2        2 </v>
   <v name="usershift">      0.00000000       0.00000000       0.00000000 </v>
   <v name="genvec1">      0.50000000      -0.00000000       0.00000000 </v>
   <v name="genvec2">     -0.00000000       0.50000000       0.00000000 </v>
   <v name="genvec3">     -0.00000000       0.00000000       0.50000000 </v>
   <v name="shift">      0.00000000       0.00000000       0.00000000 </v>
  </generation>
  <varray name="kpointlist" >
   <v>       0.00000000       0.00000000       0.00000000 </v>
   <v>       0.50000000       0.00000000       0.00000000 </v>
   <v>      -0.00000000       0.50000000       0.00000000 </v>
   <v>       0.50000000       0.50000000       0.00000000 </v>
   <v>       0.00000000       0.50000000       0.50000000 </v>
   <v>       0.50000000       0.50000000       0.50000000 </v>
  </varray>
  <varray name="weights" >
   <v>       0.12500000 </v>
   <v>       0.12500000 </v>
   <v>       0.25000000 </v>
   <v>       0.25000000 </v>
   <v>       0.12500000 </v>
   <v>       0.12500000 </v>
  </varray>
 </kpoints>
 <parameters>
  <separator name="general" >
   <i type="string" name="SYSTEM">unknown system</i>
   <i type="logical" name="LCOMPAT"> F  </i>
  </separator>
  <separator name="electronic" >
   <i type="string" name="PREC">accura</i>
   <i name="ENMAX">    318.00000000</i>
   <i name="ENAUG">    322.06900000</i>
   <i name="EDIFF">      0.00000001</i>
   <i type="int" name="IALGO">    38</i>
   <i type="int" name="IWAVPR">    10</i>
   <i type="int" name="NBANDS">   168</i>
   <i type="int" name="NBANDSLOW">    -1</i>
   <i type="int" name="NBANDSHIGH">    -1</i>
   <i name="NELECT">    256.00000000</i>
   <i type="int" name="TURBO">     0</i>
   <i type="int" name="IRESTART">     0</i>
   <i type="int" name="NREBOOT">     0</i>
   <i type="int" name="NMIN">     0</i>
   <i name="EREF">      0.00000000</i>
   <separator name="electronic smearing" >
    <i type="int" name="ISMEAR">     0</i>
    <i name="SIGMA">      0.02000000</i>
    <i name="KSPACING">      0.50000000</i>
    <i type="logical" name="KGAMMA"> T  </i>
    <i type="logical" name="KBLOWUP"> T  </i>
   </separator>
   <separator name="electronic projectors" >
    <i type="logical" name="LREAL"> F  </i>
    <v name="ROPT">      0.00000000</v>
    <i type="int" name="LMAXPAW">  -100</i>
    <i type="int" name="LMAXMIX">     2</i>
    <i type="logical" name="NLSPLINE"> F  </i>
   </separator>
   <separator name="electronic startup" >
    <i type="int" name="ISTART">     0</i>
    <i type="int" name="ICHARG">     2</i>
    <i type="int" name="INIWAV">     1</i>
   </separator>
   <separator name="electronic spin" >
    <i type="int" name="ISPIN">     1</i>
    <i type="logical" name="LNONCOLLINEAR"> F  </i>
    <v name="MAGMOM">      1.00000000      1.00000000      1.00000000      1.00000000      1.00000000      1.00000000      1.00000000      1.00000000      1.00000000      1.00000000      1.00000000      1.00000000      1.00000000      1.00000000      1.00000000      1.00000000      1.00000000      1.00000000      1.00000000      1.00000000
      1.00000000      1.00000000      1.00000000      1.00000000      1.00000000      1.00000000      1.00000000      1.00000000      1.00000000      1.00000000      1.00000000      1.00000000      1.00000000      1.00000000      1.00000000      1.00000000      1.00000000      1.00000000      1.00000000      1.00000000
      1.00000000      1.00000000      1.00000000      1.00000000      1.00000000      1.00000000      1.00000000      1.00000000      1.00000000      1.00000000      1.00000000      1.00000000      1.00000000      1.00000000      1.00000000      1.00000000      1.00000000      1.00000000      1.00000000      1.00000000
      1.00000000      1.00000000      1.00000000      1.00000000</v>
    <i name="NUPDOWN">     -1.00000000</i>
    <i type="logical" name="LSORBIT"> F  </i>
    <v name="SAXIS">      0.00000000      0.00000000      1.00000000</v>
    <i type="logical" name="LSPIRAL"> F  </i>
    <v name="QSPIRAL">      0.00000000      0.00000000      0.00000000</v>
    <i type="logical" name="LZEROZ"> F  </i>
   </separator>
   <separator name="electronic exchange-correlation" >
    <i type="logical" name="LASPH"> F  </i>
    <i type="logical" name="LMETAGGA"> F  </i>
   </separator>
   <separator name="electronic convergence" >
    <i type="int" name="NELM">    60</i>
    <i type="int" name="NELMDL">    -5</i>
    <i type="int" name="NELMIN">     5</i>
    <i name="ENINI">    318.00000000</i>
    <separator name="electronic convergence detail" >
     <i type="logical" name="LDIAG"> T  </i>
     <i type="logical" name="LSUBROT"> F  </i>
     <i name="WEIMIN">      0.00000000</i>
     <i name="EBREAK">      0.00000000</i>
     <i name="DEPER">      0.30000000</i>
     <i type="int" name="NRMM">     4</i>
     <i name="TIME">      0.40000000</i>
    </separator>
   </separator>
   <separator name="electronic mixer" >
    <i name="AMIX">      0.40000000</i>
    <i name="BMIX">      1.00000000</i>
    <i name="AMIN">      0.10000000</i>
    <i name="AMIX_MAG">      1.60000000</i>
    <i name="BMIX_MAG">      1.00000000</i>
    <separator name="electronic mixer details" >
     <i type="int" name="IMIX">     4</i>
     <i type="logical" name="MIXFIRST"> F  </i>
     <i type="int" name="MAXMIX">   -45</i>
     <i name="WC">    100.00000000</i>
     <i type="int" name="INIMIX">     1</i>
     <i type="int" name="MIXPRE">     1</i>
     <i type="int" name="MREMOVE">     5</i>
    </separator>
   </separator>
   <separator name="electronic dipolcorrection" >
    <i type="logical" name="LDIPOL"> F  </i>
    <i type="logical" name="LMONO"> F  </i>
    <i type="int" name="IDIPOL">     0</i>
    <i name="EPSILON">      1.00000000</i>
    <v name="DIPOL">   -100.00000000   -100.00000000   -100.00000000</v>
    <i name="EFIELD">      0.00000000</i>
   </separator>
  </separator>
  <separator name="grids" >
   <i type="int" name="NGX">    64</i>
   <i type="int" name="NGY">    64</i>
   <i type="int" name="NGZ">    64</i>
   <i type="int" name="NGXF">   128</i>
   <i type="int" name="NGYF">   128</i>
   <i type="int" name="NGZF">   128</i>
   <i type="logical" name="ADDGRID"> T  </i>
  </separator>
  <separator name="ionic" >
   <i type="int" name="NSW">     0</i>
   <i type="int" name="IBRION">    -1</i>
   <i type="int" name="MDALGO">     0</i>
   <i type="int" name="ISIF">     2</i>
   <i name="PSTRESS">      0.00000000</i>
   <i name="EDIFFG">      0.00000010</i>
   <i type="int" name="NFREE">     0</i>
   <i name="POTIM">      0.50000000</i>
   <i name="SMASS">     -3.00000000</i>
   <i name="SCALEE">      1.00000000</i>
  </separator>
  <separator name="ionic md" >
   <i name="TEBEG">      0.00010000</i>
   <i name="TEEND">      0.00010000</i>
   <i type="int" name="NBLOCK">     1</i>
   <i type="int" name="KBLOCK">     1</i>
   <i type="int" name="NPACO">   256</i>
   <i name="APACO">     10.00000000</i>
  </separator>
  <separator name="symmetry" >
   <i type="int" name="ISYM">     2</i>
   <i name="SYMPREC">      0.00001000</i>
  </separator>
  <separator name="dos" >
   <i type="int" name="LORBIT">     0</i>
   <v name="RWIGS">     -1.00000000</v>
   <i type="int" name="NEDOS">   301</i>
   <i name="EMIN">     10.00000000</i>
   <i name="EMAX">    -10.00000000</i>
   <i name="EFERMI">      0.00000000</i>
  </separator>
  <separator name="writing" >
   <i type="int" name="NWRITE">     2</i>
   <i type="logical" name="LWAVE"> F  </i>
   <i type="logical" name="LDOWNSAMPLE"> F  </i>
   <i type="logical" name="LCHARG"> F  </i>
   <i type="logical" name="LPARD"> F  </i>
   <i type="logical" name="LVTOT"> F  </i>
   <i type="logical" name="LVHAR"> F  </i>
   <i type="logical" name="LELF"> F  </i>
   <i type="logical" name="LOPTICS"> F  </i>
   <v name="STM">      0.00000000      0.00000000      0.00000000      0.00000000      0.00000000      0.00000000      0.00000000</v>
  </separator>
  <separator name="performance" >
   <i type="int" name="NPAR">     8</i>
   <i type="int" name="NSIM">     4</i>
   <i type="int" name="NBLK">    -1</i>
   <i type="logical" name="LPLANE"> T  </i>
   <i type="logical" name="LSCALAPACK"> T  </i>
   <i type="logical" name="LSCAAWARE"> F  </i>
   <i type="logical" name="LSCALU"> F  </i>
   <i type="logical" name="LASYNC"> F  </i>
   <i type="logical" name="LORBITALREAL"> F  </i>
  </separator>
  <separator name="miscellaneous" >
   <i type="int" name="IDIOT">     3</i>
   <i type="int" name="PHON_NSTRUCT">    -1</i>
   <i type="logical" name="LMUSIC"> F  </i>
   <v name="POMASS">     28.08500000</v>
   <v name="DARWINR">      0.00000000</v>
   <v name="DARWINV">      1.00000000</v>
   <i type="logical" name="LCORR"> T  </i>
  </separator>
  <i type="logical" name="GGA_COMPAT"> T  </i>
  <i type="logical" name="LBERRY"> F  </i>
  <i type="int" name="ICORELEVEL">     0</i>
  <i type="logical" name="LDAU"> F  </i>
  <i type="int" name="I_CONSTRAINED_M">     0</i>
  <separator name="electronic exchange-correlation" >
   <i type="string" name="GGA">PS</i>
   <i type="int" name="VOSKOWN">     0</i>
   <i type="logical" name="LHFCALC"> F  </i>
   <i type="string" name="PRECFOCK"></i>
   <i type="logical" name="LSYMGRAD"> F  </i>
   <i type="logical" name="LHFONE"> F  </i>
   <i type="logical" name="LRHFCALC"> F  </i>
   <i type="logical" name="LTHOMAS"> F  </i>
   <i type="logical" name="LMODELHF"> F  </i>
   <i type="logical" name="LFOCKACE"> F  </i>
   <i name="ENCUT4O">     -1.00000000</i>
   <i type="int" name="EXXOEP">     0</i>
   <i type="int" name="FOURORBIT">     0</i>
   <i name="AEXX">      0.00000000</i>
   <i name="HFALPHA">      0.00000000</i>
   <i name="MCALPHA">      0.00000000</i>
   <i name="ALDAX">      1.00000000</i>
   <i name="AGGAX">      1.00000000</i>
   <i name="ALDAC">      1.00000000</i>
   <i name="AGGAC">      1.00000000</i>
   <i type="int" name="NKREDX">     1</i>
   <i type="int" name="NKREDY">     1</i>
   <i type="int" name="NKREDZ">     1</i>
   <i type="logical" name="SHIFTRED"> F  </i>
   <i type="logical" name="ODDONLY"> F  </i>
   <i type="logical" name="EVENONLY"> F  </i>
   <i type="int" name="LMAXFOCK">     0</i>
   <i type="int" name="NMAXFOCKAE">     0</i>
   <i type="logical" name="LFOCKAEDFT"> F  </i>
   <i name="HFSCREEN">      0.00000000</i>
   <i name="HFSCREENC">      0.00000000</i>
   <i type="int" name="NBANDSGWLOW">     0</i>
  </separator>
  <separator name="vdW DFT" >
   <i type="logical" name="LUSE_VDW"> F  </i>
   <i name="Zab_VDW">     -0.84910000</i>
   <i name="PARAM1">      0.12340000</i>
   <i name="PARAM2">      1.00000000</i>
   <i name="PARAM3">      0.00000000</i>
  </separator>
  <separator name="model GW" >
   <i type="int" name="MODEL_GW">     0</i>
   <i name="MODEL_EPS0">     12.03808591</i>
   <i name="MODEL_ALPHA">      1.00000000</i>
  </separator>
  <separator name="linear response parameters" >
   <i type="logical" name="LEPSILON"> F  </i>
   <i type="logical" name="LRPA"> F  </i>
   <i type="logical" name="LNABLA"> F  </i>
   <i type="logical" name="LVEL"> F  </i>
   <i name="CSHIFT">      0.10000000</i>
   <i name="OMEGAMAX">     -1.00000000</i>
   <i name="DEG_THRESHOLD">      0.00200000</i>
   <i name="RTIME">     -0.10000000</i>
   <i name="WPLASMAI">      0.00000000</i>
   <v name="DFIELD">      0.00000000      0.00000000      0.00000000</v>
   <v name="WPLASMA">      0.00000000      0.00000000      0.00000000      0.00000000      0.00000000      0.00000000      0.00000000      0.00000000      0.00000000</v>
  </separator>
  <separator name="orbital magnetization" >
   <i type="logical" name="NUCIND"> F  </i>
   <v name="MAGPOS">      0.00000000      0.00000000      0.00000000</v>
   <i type="logical" name="LNICSALL"> T  </i>
   <i type="logical" name="ORBITALMAG"> F  </i>
   <i type="logical" name="LMAGBLOCH"> F  </i>
   <i type="logical" name="LCHIMAG"> F  </i>
   <i type="logical" name="LGAUGE"> T  </i>
   <i type="int" name="MAGATOM">     0</i>
   <v name="MAGDIPOL">      0.00000000      0.00000000      0.00000000</v>
   <v name="AVECCONST">      0.00000000      0.00000000      0.00000000</v>
  </separator>
  <separator name="response functions" >
   <i type="logical" name="LFINITE_TEMPERATURE"> F  </i>
   <i type="logical" name="LADDER"> F  </i>
   <i type="logical" name="LRPAFORCE"> F  </i>
   <i type="logical" name="LFXC"> F  </i>
   <i type="logical" name="LHARTREE"> T  </i>
   <i type="int" name="IBSE">     0</i>
   <v type="int" name="KPOINT">    -1     0     0     0</v>
   <i type="logical" name="LTCTC"> F  </i>
   <i type="logical" name="LTCTE"> F  </i>
   <i type="logical" name="LTETE"> F  </i>
   <i type="logical" name="LTRIPLET"> F  </i>
   <i type="logical" name="LFXCEPS"> F  </i>
   <i type="logical" name="LFXHEG"> F  </i>
   <i type="int" name="NATURALO">     2</i>
   <i type="logical" name="LHOLEGF"> F  </i>
   <i type="logical" name="L2ORDER"> F  </i>
   <i type="logical" name="LDMP1"> F  </i>
   <i type="logical" name="LMP2LT"> F  </i>
   <i type="logical" name="LSMP2LT"> F  </i>
   <i type="logical" name="LGWLF"> F  </i>
   <i name="ENCUTGW">     -2.00000000</i>
   <i name="ENCUTGWSOFT">     -2.00000000</i>
   <i name="ENCUTLF">     -1.00000000</i>
   <i type="logical" name="LESF_SPLINES"> F  </i>
   <i type="int" name="LMAXMP2">    -1</i>
   <i name="SCISSOR">      0.00000000</i>
   <i type="int" name="NOMEGA">     0</i>
   <i type="int" name="NOMEGAR">     0</i>
   <i type="int" name="NBANDSGW">    -1</i>
   <i type="int" name="NBANDSO">    -1</i>
   <i type="int" name="NBANDSV">    -1</i>
   <i type="int" name="NELMGW">     1</i>
   <i type="int" name="NELMHF">     1</i>
   <i type="int" name="DIM">     3</i>
   <i type="int" name="IESPILON">     4</i>
   <i type="int" name="ANTIRES">     0</i>
   <i name="OMEGAMAX">    -30.00000000</i>
   <i name="OMEGAMIN">    -30.00000000</i>
   <i name="OMEGATL">   -200.00000000</i>
   <i type="int" name="OMEGAGRID">     0</i>
   <i name="CSHIFT">     -0.10000000</i>
   <i type="logical" name="LSELFENERGY"> F  </i>
   <i type="logical" name="LSPECTRAL"> F  </i>
   <i type="logical" name="LSPECTRALGW"> F  </i>
   <i type="logical" name="LSINGLES"> F  </i>
   <i type="logical" name="LFERMIGW"> F  </i>
   <i type="logical" name="ODDONLYGW"> F  </i>
   <i type="logical" name="EVENONLYGW"> F  </i>
   <i type="int" name="NKREDLFX">     1</i>
   <i type="int" name="NKREDLFY">     1</i>
   <i type="int" name="NKREDLFZ">     1</i>
   <i type="int" name="MAXMEM">  2800</i>
   <i type="int" name="TELESCOPE">     0</i>
   <i type="int" name="NTAUPAR">    -1</i>
   <i type="int" name="NOMEGAPAR">    -1</i>
   <i name="DAMP_NEWTON">      0.80000001</i>
   <i name="LAMBDA">      1.00000000</i>
  </separator>
  <separator name="External order field" >
   <i name="OFIELD_KAPPA">      0.00000000</i>
   <v name="OFIELD_K">      0.00000000      0.00000000      0.00000000</v>
   <i name="OFIELD_Q6_NEAR">      0.00000000</i>
   <i name="OFIELD_Q6_FAR">      0.00000000</i>
   <i name="OFIELD_A">      0.00000000</i>
  </separator>
  <separator name="optional k-points parameters" >
   <i type="int" name="KPOINTS_OPT_MODE">     1</i>
   <i type="logical" name="LKPOINTS_OPT"> F  </i>
  </separator>
 </parameters>
 <atominfo>
  <atoms>      64 </atoms>
  <types>       1 </types>
  <array name="atoms" >
   <dimension dim="1">ion</dimension>
   <field type="string">element</field>
   <field type="int">atomtype</field>
   <set>
    <rc><c>Si</c><c>   1</c></rc>
    <rc><c>Si</c><c>   1</c></rc>
    <rc><c>Si</c><c>   1</c></rc>
    <rc><c>Si</c><c>   1</c></rc>
    <rc><c>Si</c><c>   1</c></rc>
    <rc><c>Si</c><c>   1</c></rc>
    <rc><c>Si</c><c>   1</c></rc>
    <rc><c>Si</c><c>   1</c></rc>
    <rc><c>Si</c><c>   1</c></rc>
    <rc><c>Si</c><c>   1</c></rc>
    <rc><c>Si</c><c>   1</c></rc>
    <rc><c>Si</c><c>   1</c></rc>
    <rc><c>Si</c><c>   1</c></rc>
    <rc><c>Si</c><c>   1</c></rc>
    <rc><c>Si</c><c>   1</c></rc>
    <rc><c>Si</c><c>   1</c></rc>
    <rc><c>Si</c><c>   1</c></rc>
    <rc><c>Si</c><c>   1</c></rc>
    <rc><c>Si</c><c>   1</c></rc>
    <rc><c>Si</c><c>   1</c></rc>
    <rc><c>Si</c><c>   1</c></rc>
    <rc><c>Si</c><c>   1</c></rc>
    <rc><c>Si</c><c>   1</c></rc>
    <rc><c>Si</c><c>   1</c></rc>
    <rc><c>Si</c><c>   1</c></rc>
    <rc><c>Si</c><c>   1</c></rc>
    <rc><c>Si</c><c>   1</c></rc>
    <rc><c>Si</c><c>   1</c></rc>
    <rc><c>Si</c><c>   1</c></rc>
    <rc><c>Si</c><c>   1</c></rc>
    <rc><c>Si</c><c>   1</c></rc>
    <rc><c>Si</c><c>   1</c></rc>
    <rc><c>Si</c><c>   1</c></rc>
    <rc><c>Si</c><c>   1</c></rc>
    <rc><c>Si</c><c>   1</c></rc>
    <rc><c>Si</c><c>   1</c></rc>
    <rc><c>Si</c><c>   1</c></rc>
    <rc><c>Si</c><c>   1</c></rc>
    <rc><c>Si</c><c>   1</c></rc>
    <rc><c>Si</c><c>   1</c></rc>
    <rc><c>Si</c><c>   1</c></rc>
    <rc><c>Si</c><c>   1</c></rc>
    <rc><c>Si</c><c>   1</c></rc>
    <rc><c>Si</c><c>   1</c></rc>
    <rc><c>Si</c><c>   1</c></rc>
    <rc><c>Si</c><c>   1</c></rc>
    <rc><c>Si</c><c>   1</c></rc>
    <rc><c>Si</c><c>   1</c></rc>
    <rc><c>Si</c><c>   1</c></rc>
    <rc><c>Si</c><c>   1</c></rc>
    <rc><c>Si</c><c>   1</c></rc>
    <rc><c>Si</c><c>   1</c></rc>
    <rc><c>Si</c><c>   1</c></rc>
    <rc><c>Si</c><c>   1</c></rc>
    <rc><c>Si</c><c>   1</c></rc>
    <rc><c>Si</c><c>   1</c></rc>
    <rc><c>Si</c><c>   1</c></rc>
    <rc><c>Si</c><c>   1</c></rc>
    <rc><c>Si</c><c>   1</c></rc>
    <rc><c>Si</c><c>   1</c></rc>
    <rc><c>Si</c><c>   1</c></rc>
    <rc><c>Si</c><c>   1</c></rc>
    <rc><c>Si</c><c>   1</c></rc>
    <rc><c>Si</c><c>   1</c></rc>
   </set>
  </array>
  <array name="atomtypes" >
   <dimension dim="1">type</dimension>
   <field type="int">atomspertype</field>
   <field type="string">element</field>
   <field>mass</field>
   <field>valence</field>
   <field type="string">pseudopotential</field>
   <set>
    <rc><c>  64</c><c>Si</c><c>     28.08500000</c><c>      4.00000000</c><c>  PAW_PBE Si 05Jan2001                  </c></rc>
   </set>
  </array>
 </atominfo>
 <structure name="initialpos" >
  <crystal>
   <varray name="basis" >
    <v>      10.86914512      -0.00000000      -0.00000000 </v>
    <v>      -0.00000000      10.86914512       0.00000000 </v>
    <v>       0.00000000       0.00000000      10.86914512 </v>
   </varray>
   <i name="volume">   1284.06249692 </i>
   <varray name="rec_basis" >
    <v>       0.09200356       0.00000000      -0.00000000 </v>
    <v>       0.00000000       0.09200356      -0.00000000 </v>
    <v>       0.00000000      -0.00000000       0.09200356 </v>
   </varray>
  </crystal>
  <varray name="positions" >
   <v>       0.25092004       0.25000000       0.25000000 </v>
   <v>       0.75000000       0.25000000       0.25000000 </v>
   <v>       0.25000000       0.75000000       0.25000000 </v>
   <v>       0.75000000       0.75000000       0.25000000 </v>
   <v>       0.25000000       0.25000000       0.75000000 </v>
   <v>       0.75000000       0.25000000       0.75000000 </v>
   <v>       0.25000000       0.75000000       0.75000000 </v>
   <v>       0.75000000       0.75000000       0.75000000 </v>
   <v>       0.24907996       0.00000000       0.00000000 </v>
   <v>       0.75000000       0.00000000       0.00000000 </v>
   <v>       0.25000000       0.50000000       0.00000000 </v>
   <v>       0.75000000       0.50000000       0.00000000 </v>
   <v>       0.25000000       0.00000000       0.50000000 </v>
   <v>       0.75000000       0.00000000       0.50000000 </v>
   <v>       0.25000000       0.50000000       0.50000000 </v>
   <v>       0.75000000       0.50000000       0.50000000 </v>
   <v>       0.00000000       0.25000000       0.00000000 </v>
   <v>       0.50000000       0.25000000       0.00000000 </v>
   <v>       0.00000000       0.75000000       0.00000000 </v>
   <v>       0.50000000       0.75000000       0.00000000 </v>
   <v>       0.00000000       0.25000000       0.50000000 </v>
   <v>       0.50000000       0.25000000       0.50000000 </v>
   <v>       0.00000000       0.75000000       0.50000000 </v>
   <v>       0.50000000       0.75000000       0.50000000 </v>
   <v>       0.00000000       0.00000000       0.25000000 </v>
   <v>       0.50000000       0.00000000       0.25000000 </v>
   <v>       0.00000000       0.50000000       0.25000000 </v>
   <v>       0.50000000       0.50000000       0.25000000 </v>
   <v>       0.00000000       0.00000000       0.75000000 </v>
   <v>       0.50000000       0.00000000       0.75000000 </v>
   <v>       0.00000000       0.50000000       0.75000000 </v>
   <v>       0.50000000       0.50000000       0.75000000 </v>
   <v>       0.37500000       0.37500000       0.37500000 </v>
   <v>       0.87500000       0.37500000       0.37500000 </v>
   <v>       0.37500000       0.87500000       0.37500000 </v>
   <v>       0.87500000       0.87500000       0.37500000 </v>
   <v>       0.37500000       0.37500000       0.87500000 </v>
   <v>       0.87500000       0.37500000       0.87500000 </v>
   <v>       0.37500000       0.87500000       0.87500000 </v>
   <v>       0.87500000       0.87500000       0.87500000 </v>
   <v>       0.37500000       0.12500000       0.12500000 </v>
   <v>       0.87500000       0.12500000       0.12500000 </v>
   <v>       0.37500000       0.62500000       0.12500000 </v>
   <v>       0.87500000       0.62500000       0.12500000 </v>
   <v>       0.37500000       0.12500000       0.62500000 </v>
   <v>       0.87500000       0.12500000       0.62500000 </v>
   <v>       0.37500000       0.62500000       0.62500000 </v>
   <v>       0.87500000       0.62500000       0.62500000 </v>
   <v>       0.12500000       0.37500000       0.12500000 </v>
   <v>       0.62500000       0.37500000       0.12500000 </v>
   <v>       0.12500000       0.87500000       0.12500000 </v>
   <v>       0.62500000       0.87500000       0.12500000 </v>
   <v>       0.12500000       0.37500000       0.62500000 </v>
   <v>       0.62500000       0.37500000       0.62500000 </v>
   <v>       0.12500000       0.87500000       0.62500000 </v>
   <v>       0.62500000       0.87500000       0.62500000 </v>
   <v>       0.12500000       0.12500000       0.37500000 </v>
   <v>       0.62500000       0.12500000       0.37500000 </v>
   <v>       0.12500000       0.62500000       0.37500000 </v>
   <v>       0.62500000       0.62500000       0.37500000 </v>
   <v>       0.12500000       0.12500000       0.87500000 </v>
   <v>       0.62500000       0.12500000       0.87500000 </v>
   <v>       0.12500000       0.62500000       0.87500000 </v>
   <v>       0.62500000       0.62500000       0.87500000 </v>
  </varray>
 </structure>
 <calculation>
  <scstep>
   <time name="dav">    1.69    1.70</time>
   <time name="total">    1.74    1.75</time>
   <energy>
    <i name="alphaZ">    107.38120932 </i>
    <i name="ewald">  -7307.87573524 </i>
    <i name="hartreedc">   -353.25057159 </i>
    <i name="XCdc">   -558.85370957 </i>
    <i name="pawpsdc">   5598.62625415 </i>
    <i name="pawaedc">  -4492.17844134 </i>
    <i name="eentropy">     -0.00538089 </i>
    <i name="bandstr">    896.72624166 </i>
    <i name="atom">   6564.76702419 </i>
    <i name="e_fr_energy">    455.33689069 </i>
    <i name="e_wo_entrp">    455.34227159 </i>
    <i name="e_0_energy">    455.33958114 </i>
   </energy>
  </scstep>
  <scstep>
   <time name="dav">    1.94    1.96</time>
   <time name="total">    1.94    1.96</time>
   <energy>
    <i name="e_fr_energy">   -321.17553128 </i>
    <i name="e_wo_entrp">   -321.17553128 </i>
    <i name="e_0_energy">   -321.17553128 </i>
   </energy>
  </scstep>
  <scstep>
   <time name="dav">    1.97    1.98</time>
   <time name="total">    1.97    1.98</time>
   <energy>
    <i name="e_fr_energy">   -373.43158908 </i>
    <i name="e_wo_entrp">   -373.43158908 </i>
    <i name="e_0_energy">   -373.43158908 </i>
   </energy>
  </scstep>
  <scstep>
   <time name="dav">    1.94    1.95</time>
   <time name="total">    1.94    1.95</time>
   <energy>
    <i name="e_fr_energy">   -374.60057638 </i>
    <i name="e_wo_entrp">   -374.60057638 </i>
    <i name="e_0_energy">   -374.60057638 </i>
   </energy>
  </scstep>
  <scstep>
   <time name="dav">    1.91    1.93</time>
   <time name="total">    1.99    2.01</time>
   <energy>
    <i name="e_fr_energy">   -374.64072930 </i>
    <i name="e_wo_entrp">   -374.64072930 </i>
    <i name="e_0_energy">   -374.64072930 </i>
   </energy>
  </scstep>
  <scstep>
   <time name="dav">    1.85    1.86</time>
   <time name="total">    1.97    1.98</time>
   <energy>
    <i name="e_fr_energy">   -369.72176965 </i>
    <i name="e_wo_entrp">   -369.72176965 </i>
    <i name="e_0_energy">   -369.72176965 </i>
   </energy>
  </scstep>
  <scstep>
   <time name="dav">    1.83    1.84</time>
   <time name="total">    1.96    1.97</time>
   <energy>
    <i name="e_fr_energy">   -367.49036642 </i>
    <i name="e_wo_entrp">   -367.49036642 </i>
    <i name="e_0_energy">   -367.49036642 </i>
   </energy>
  </scstep>
  <scstep>
   <time name="dav">    1.85    1.87</time>
   <time name="total">    1.98    1.99</time>
   <energy>
    <i name="e_fr_energy">   -367.49755751 </i>
    <i name="e_wo_entrp">   -367.49755751 </i>
    <i name="e_0_energy">   -367.49755751 </i>
   </energy>
  </scstep>
  <scstep>
   <time name="dav">    1.97    1.99</time>
   <time name="total">    2.10    2.11</time>
   <energy>
    <i name="e_fr_energy">   -367.49901041 </i>
    <i name="e_wo_entrp">   -367.49901041 </i>
    <i name="e_0_energy">   -367.49901041 </i>
   </energy>
  </scstep>
  <scstep>
   <time name="dav">    1.82    1.83</time>
   <time name="total">    1.94    1.95</time>
   <energy>
    <i name="e_fr_energy">   -367.49987324 </i>
    <i name="e_wo_entrp">   -367.49987324 </i>
    <i name="e_0_energy">   -367.49987324 </i>
   </energy>
  </scstep>
  <scstep>
   <time name="dav">    1.88    1.89</time>
   <time name="total">    2.00    2.01</time>
   <energy>
    <i name="e_fr_energy">   -367.49991090 </i>
    <i name="e_wo_entrp">   -367.49991090 </i>
    <i name="e_0_energy">   -367.49991090 </i>
   </energy>
  </scstep>
  <scstep>
   <time name="dav">    1.93    1.94</time>
   <time name="total">    2.06    2.07</time>
   <energy>
    <i name="e_fr_energy">   -367.49991320 </i>
    <i name="e_wo_entrp">   -367.49991320 </i>
    <i name="e_0_energy">   -367.49991320 </i>
   </energy>
  </scstep>
  <scstep>
   <time name="dav">    1.83    1.84</time>
   <time name="total">    1.96    1.97</time>
   <energy>
    <i name="e_fr_energy">   -367.49991225 </i>
    <i name="e_wo_entrp">   -367.49991225 </i>
    <i name="e_0_energy">   -367.49991225 </i>
   </energy>
  </scstep>
  <scstep>
   <time name="dav">    1.64    1.65</time>
   <time name="total">    1.77    1.77</time>
   <energy>
    <i name="e_fr_energy">   -367.49991208 </i>
    <i name="e_wo_entrp">   -367.49991208 </i>
    <i name="e_0_energy">   -367.49991208 </i>
   </energy>
  </scstep>
  <scstep>
   <time name="dav">    1.32    1.33</time>
   <time name="total">    1.45    1.45</time>
   <energy>
    <i name="e_fr_energy">   -367.49991207 </i>
    <i name="e_wo_entrp">   -367.49991207 </i>
    <i name="e_0_energy">   -367.49991207 </i>
   </energy>
  </scstep>
  <scstep>
   <time name="dav">    1.26    1.27</time>
   <time name="total">    1.38    1.39</time>
   <energy>
    <i name="e_fr_energy">   -367.49991206 </i>
    <i name="e_wo_entrp">   -367.49991206 </i>
    <i name="e_0_energy">   -367.49991206 </i>
   </energy>
  </scstep>
  <scstep>
   <time name="dav">    1.25    1.25</time>
   <time name="total">    1.29    1.30</time>
   <energy>
    <i name="alphaZ">    107.38120932 </i>
    <i name="ewald">  -7307.87573524 </i>
    <i name="hartreedc">   -468.78554637 </i>
    <i name="XCdc">   -539.35383641 </i>
    <i name="pawpsdc">  28474.81627893 </i>
    <i name="pawaedc"> -27375.24302217 </i>
    <i name="eentropy">     -0.00000000 </i>
    <i name="bandstr">    176.79371570 </i>
    <i name="atom">   6564.76702419 </i>
    <i name="e_fr_energy">   -367.49991205 </i>
    <i name="e_wo_entrp">   -367.49991205 </i>
    <i name="e_0_energy">   -367.49991205 </i>
   </energy>
  </scstep>
  <structure>
   <crystal>
    <varray name="basis" >
     <v>      10.86914512      -0.00000000      -0.00000000 </v>
     <v>      -0.00000000      10.86914512       0.00000000 </v>
     <v>       0.00000000       0.00000000      10.86914512 </v>
    </varray>
    <i name="volume">   1284.06249692 </i>
    <varray name="rec_basis" >
     <v>       0.09200356       0.00000000      -0.00000000 </v>
     <v>       0.00000000       0.09200356      -0.00000000 </v>
     <v>       0.00000000      -0.00000000       0.09200356 </v>
    </varray>
   </crystal>
   <varray name="positions" >
    <v>       0.25092004       0.25000000       0.25000000 </v>
    <v>       0.75000000       0.25000000       0.25000000 </v>
    <v>       0.25000000       0.75000000       0.25000000 </v>
    <v>       0.75000000       0.75000000       0.25000000 </v>
    <v>       0.25000000       0.25000000       0.75000000 </v>
    <v>       0.75000000       0.25000000       0.75000000 </v>
    <v>       0.25000000       0.75000000       0.75000000 </v>
    <v>       0.75000000       0.75000000       0.75000000 </v>
    <v>       0.24907996       0.00000000       0.00000000 </v>
    <v>       0.75000000       0.00000000       0.00000000 </v>
    <v>       0.25000000       0.50000000       0.00000000 </v>
    <v>       0.75000000       0.50000000       0.00000000 </v>
    <v>       0.25000000       0.00000000       0.50000000 </v>
    <v>       0.75000000       0.00000000       0.50000000 </v>
    <v>       0.25000000       0.50000000       0.50000000 </v>
    <v>       0.75000000       0.50000000       0.50000000 </v>
    <v>       0.00000000       0.25000000       0.00000000 </v>
    <v>       0.50000000       0.25000000       0.00000000 </v>
    <v>       0.00000000       0.75000000       0.00000000 </v>
    <v>       0.50000000       0.75000000       0.00000000 </v>
    <v>       0.00000000       0.25000000       0.50000000 </v>
    <v>       0.50000000       0.25000000       0.50000000 </v>
    <v>       0.00000000       0.75000000       0.50000000 </v>
    <v>       0.50000000       0.75000000       0.50000000 </v>
    <v>       0.00000000       0.00000000       0.25000000 </v>
    <v>       0.50000000       0.00000000       0.25000000 </v>
    <v>       0.00000000       0.50000000       0.25000000 </v>
    <v>       0.50000000       0.50000000       0.25000000 </v>
    <v>       0.00000000       0.00000000       0.75000000 </v>
    <v>       0.50000000       0.00000000       0.75000000 </v>
    <v>       0.00000000       0.50000000       0.75000000 </v>
    <v>       0.50000000       0.50000000       0.75000000 </v>
    <v>       0.37500000       0.37500000       0.37500000 </v>
    <v>       0.87500000       0.37500000       0.37500000 </v>
    <v>       0.37500000       0.87500000       0.37500000 </v>
    <v>       0.87500000       0.87500000       0.37500000 </v>
    <v>       0.37500000       0.37500000       0.87500000 </v>
    <v>       0.87500000       0.37500000       0.87500000 </v>
    <v>       0.37500000       0.87500000       0.87500000 </v>
    <v>       0.87500000       0.87500000       0.87500000 </v>
    <v>       0.37500000       0.12500000       0.12500000 </v>
    <v>       0.87500000       0.12500000       0.12500000 </v>
    <v>       0.37500000       0.62500000       0.12500000 </v>
    <v>       0.87500000       0.62500000       0.12500000 </v>
    <v>       0.37500000       0.12500000       0.62500000 </v>
    <v>       0.87500000       0.12500000       0.62500000 </v>
    <v>       0.37500000       0.62500000       0.62500000 </v>
    <v>       0.87500000       0.62500000       0.62500000 </v>
    <v>       0.12500000       0.37500000       0.12500000 </v>
    <v>       0.62500000       0.37500000       0.12500000 </v>
    <v>       0.12500000       0.87500000       0.12500000 </v>
    <v>       0.62500000       0.87500000       0.12500000 </v>
    <v>       0.12500000       0.37500000       0.62500000 </v>
    <v>       0.62500000       0.37500000       0.62500000 </v>
    <v>       0.12500000       0.87500000       0.62500000 </v>
    <v>       0.62500000       0.87500000       0.62500000 </v>
    <v>       0.12500000       0.12500000       0.37500000 </v>
    <v>       0.62500000       0.12500000       0.37500000 </v>
    <v>       0.12500000       0.62500000       0.37500000 </v>
    <v>       0.62500000       0.62500000       0.37500000 </v>
    <v>       0.12500000       0.12500000       0.87500000 </v>
    <v>       0.62500000       0.12500000       0.87500000 </v>
    <v>       0.12500000       0.62500000       0.87500000 </v>
    <v>       0.62500000       0.62500000       0.87500000 </v>
   </varray>
  </structure>
  <varray name="forces" >
   <v>      -0.12785957       0.00094093       0.00094093 </v>
   <v>       0.00021796       0.00007696       0.00007696 </v>
   <v>       0.00475806       0.00095303      -0.00095342 </v>
   <v>       0.00008705       0.00007667      -0.00007632 </v>
   <v>       0.00475806      -0.00095342       0.00095303 </v>
   <v>       0.00008705      -0.00007632       0.00007667 </v>
   <v>       0.00033892      -0.00094113      -0.00094113 </v>
   <v>       0.00026188      -0.00007677      -0.00007677 </v>
   <v>       0.12786909       0.00095431       0.00095431 </v>
   <v>      -0.00022128       0.00007635       0.00007635 </v>
   <v>      -0.00474855       0.00094194      -0.00094158 </v>
   <v>      -0.00008359       0.00007654      -0.00007711 </v>
   <v>      -0.00474855      -0.00094158       0.00094194 </v>
   <v>      -0.00008359      -0.00007711       0.00007654 </v>
   <v>      -0.00035069      -0.00095406      -0.00095406 </v>
   <v>      -0.00026580      -0.00007652      -0.00007652 </v>
   <v>      -0.00001511       0.00092451       0.00090001 </v>
   <v>       0.00001433      -0.00280884      -0.00280549 </v>
   <v>      -0.00154922      -0.00194227       0.00034775 </v>
   <v>      -0.00153276       0.00177664       0.00154374 </v>
   <v>       0.00153398       0.00034200      -0.00193064 </v>
   <v>       0.00155058       0.00155662       0.00178941 </v>
   <v>      -0.00000055       0.00067919       0.00067954 </v>
   <v>       0.00000014      -0.00052652      -0.00052534 </v>
   <v>      -0.00001511       0.00090001       0.00092451 </v>
   <v>       0.00001433      -0.00280549      -0.00280884 </v>
   <v>       0.00153398      -0.00193064       0.00034200 </v>
   <v>       0.00155058       0.00178941       0.00155662 </v>
   <v>      -0.00154922       0.00034775      -0.00194227 </v>
   <v>      -0.00153276       0.00154374       0.00177664 </v>
   <v>      -0.00000055       0.00067954       0.00067919 </v>
   <v>       0.00000014      -0.00052534      -0.00052652 </v>
   <v>       0.03040600       0.02325814       0.02325814 </v>
   <v>       0.00008999       0.00061037       0.00061037 </v>
   <v>      -0.00000367       0.00075225       0.00074454 </v>
   <v>      -0.00000533       0.00046723       0.00046718 </v>
   <v>      -0.00000367       0.00074454       0.00075225 </v>
   <v>      -0.00000533       0.00046718       0.00046723 </v>
   <v>      -0.03009639       0.02265145       0.02265145 </v>
   <v>      -0.00009085       0.00061020       0.00061020 </v>
   <v>       0.00029552      -0.04540469      -0.04540469 </v>
   <v>      -0.00000054      -0.00068029      -0.00068029 </v>
   <v>      -0.00000485      -0.00068053      -0.00081619 </v>
   <v>      -0.00000539      -0.00042888      -0.00050528 </v>
   <v>      -0.00000485      -0.00081619      -0.00068053 </v>
   <v>      -0.00000539      -0.00050528      -0.00042888 </v>
   <v>       0.00000934      -0.00050527      -0.00050527 </v>
   <v>      -0.00000024      -0.00054030      -0.00054030 </v>
   <v>       0.03269683      -0.02274301       0.02280356 </v>
   <v>      -0.00030664      -0.00055161       0.00058855 </v>
   <v>      -0.03299983      -0.02334209       0.02341741 </v>
   <v>       0.00031140      -0.00055753       0.00059708 </v>
   <v>      -0.00259954      -0.00066266       0.00059208 </v>
   <v>       0.00040224      -0.00052613       0.00048728 </v>
   <v>       0.00259503      -0.00065903       0.00059383 </v>
   <v>      -0.00039628      -0.00051951       0.00048170 </v>
   <v>       0.03269683       0.02280356      -0.02274301 </v>
   <v>      -0.00030664       0.00058855      -0.00055161 </v>
   <v>      -0.00259954       0.00059208      -0.00066266 </v>
   <v>       0.00040224       0.00048728      -0.00052613 </v>
   <v>      -0.03299983       0.02341741      -0.02334209 </v>
   <v>       0.00031140       0.00059708      -0.00055753 </v>
   <v>       0.00259503       0.00059383      -0.00065903 </v>
   <v>      -0.00039628       0.00048170      -0.00051951 </v>
  </varray>
  <varray name="stress" >
   <v>      -0.03310494      -0.00000148      -0.00000148 </v>
   <v>      -0.00000151      -0.02858158      -0.00004274 </v>
   <v>      -0.00000151      -0.00004274      -0.02858158 </v>
  </varray>
  <energy>
   <i name="e_fr_energy">   -367.49991205 </i>
   <i name="e_wo_entrp">   -367.49991205 </i>
   <i name="e_0_energy">   -367.49991205 </i>
  </energy>
  <time name="totalsc">   34.14   34.34</time>
  <eigenvalues>
   <array>
    <dimension dim="1">band</dimension>
    <dimension dim="2">kpoint</dimension>
    <dimension dim="3">spin</dimension>
    <field>eigene</field>
    <field>occ</field>
    <set>
     <set comment="spin 1">
      <set comment="kpoint 1">
       <r>   -6.2055    1.0000 </r>
       <r>   -5.1234    1.0000 </r>
       <r>   -5.1218    1.0000 </r>
       <r>   -5.1213    1.0000 </r>
       <r>   -5.1213    1.0000 </r>
       <r>   -5.1208    1.0000 </r>
       <r>   -5.1191    1.0000 </r>
       <r>   -4.1590    1.0000 </r>
       <r>   -4.1583    1.0000 </r>
       <r>   -4.1563    1.0000 </r>
       <r>   -4.1553    1.0000 </r>
       <r>   -4.1552    1.0000 </r>
       <r>   -4.1550    1.0000 </r>
       <r>   -4.1550    1.0000 </r>
       <r>   -4.1548    1.0000 </r>
       <r>   -4.1547    1.0000 </r>
       <r>   -4.1538    1.0000 </r>
       <r>   -4.1518    1.0000 </r>
       <r>   -4.1511    1.0000 </r>
       <r>   -3.8607    1.0000 </r>
       <r>   -3.8607    1.0000 </r>
       <r>   -3.8606    1.0000 </r>
       <r>   -3.8606    1.0000 </r>
       <r>   -2.0555    1.0000 </r>
       <r>   -2.0520    1.0000 </r>
       <r>   -2.0519    1.0000 </r>
       <r>   -2.0519    1.0000 </r>
       <r>   -2.0519    1.0000 </r>
       <r>   -2.0486    1.0000 </r>
       <r>   -1.8876    1.0000 </r>
       <r>   -1.8858    1.0000 </r>
       <r>   -1.8846    1.0000 </r>
       <r>   -1.8831    1.0000 </r>
       <r>   -1.8828    1.0000 </r>
       <r>   -1.8827    1.0000 </r>
       <r>   -1.8827    1.0000 </r>
       <r>   -1.8827    1.0000 </r>
       <r>   -1.8823    1.0000 </r>
       <r>   -1.8808    1.0000 </r>
       <r>   -1.8796    1.0000 </r>
       <r>   -1.8777    1.0000 </r>
       <r>   -1.2347    1.0000 </r>
       <r>   -1.2347    1.0000 </r>
       <r>   -1.2347    1.0000 </r>
       <r>   -1.2347    1.0000 </r>
       <r>    0.2774    1.0000 </r>
       <r>    0.2793    1.0000 </r>
       <r>    0.2793    1.0000 </r>
       <r>    0.2817    1.0000 </r>
       <r>    0.2817    1.0000 </r>
       <r>    0.2819    1.0000 </r>
       <r>    0.2819    1.0000 </r>
       <r>    0.2822    1.0000 </r>
       <r>    0.2822    1.0000 </r>
       <r>    0.2846    1.0000 </r>
       <r>    0.2846    1.0000 </r>
       <r>    0.2865    1.0000 </r>
       <r>    1.8684    1.0000 </r>
       <r>    1.8696    1.0000 </r>
       <r>    1.8703    1.0000 </r>
       <r>    1.8706    1.0000 </r>
       <r>    1.8709    1.0000 </r>
       <r>    1.8710    1.0000 </r>
       <r>    1.8714    1.0000 </r>
       <r>    1.8715    1.0000 </r>
       <r>    1.8718    1.0000 </r>
       <r>    1.8721    1.0000 </r>
       <r>    1.8727    1.0000 </r>
       <r>    1.8739    1.0000 </r>
       <r>    1.9709    1.0000 </r>
       <r>    1.9716    1.0000 </r>
       <r>    1.9716    1.0000 </r>
       <r>    1.9722    1.0000 </r>
       <r>    1.9726    1.0000 </r>
       <r>    1.9733    1.0000 </r>
       <r>    1.9733    1.0000 </r>
       <r>    1.9740    1.0000 </r>
       <r>    1.9744    1.0000 </r>
       <r>    1.9749    1.0000 </r>
       <r>    1.9751    1.0000 </r>
       <r>    1.9758    1.0000 </r>
       <r>    2.2491    1.0000 </r>
       <r>    2.2495    1.0000 </r>
       <r>    2.2514    1.0000 </r>
       <r>    2.2514    1.0000 </r>
       <r>    2.2533    1.0000 </r>
       <r>    2.2537    1.0000 </r>
       <r>    2.9009    1.0000 </r>
       <r>    2.9009    1.0000 </r>
       <r>    2.9017    1.0000 </r>
       <r>    2.9017    1.0000 </r>
       <r>    2.9025    1.0000 </r>
       <r>    2.9025    1.0000 </r>
       <r>    3.8640    1.0000 </r>
       <r>    3.8640    1.0000 </r>
       <r>    3.8661    1.0000 </r>
       <r>    3.8661    1.0000 </r>
       <r>    3.8667    1.0000 </r>
       <r>    3.8667    1.0000 </r>
       <r>    3.8667    1.0000 </r>
       <r>    3.8667    1.0000 </r>
       <r>    3.8672    1.0000 </r>
       <r>    3.8672    1.0000 </r>
       <r>    3.8693    1.0000 </r>
       <r>    3.8693    1.0000 </r>
       <r>    4.4338    1.0000 </r>
       <r>    4.4342    1.0000 </r>
       <r>    4.4357    1.0000 </r>
       <r>    4.4365    1.0000 </r>
       <r>    4.4368    1.0000 </r>
       <r>    4.4370    1.0000 </r>
       <r>    4.4370    1.0000 </r>
       <r>    4.4372    1.0000 </r>
       <r>    4.4376    1.0000 </r>
       <r>    4.4384    1.0000 </r>
       <r>    4.4398    1.0000 </r>
       <r>    4.4402    1.0000 </r>
       <r>    4.5681    1.0000 </r>
       <r>    4.5681    1.0000 </r>
       <r>    4.5698    1.0000 </r>
       <r>    4.5698    1.0000 </r>
       <r>    4.5698    1.0000 </r>
       <r>    4.5699    1.0000 </r>
       <r>    4.5716    1.0000 </r>
       <r>    4.5716    1.0000 </r>
       <r>    5.7719    1.0000 </r>
       <r>    5.7720    1.0000 </r>
       <r>    5.7720    1.0000 </r>
       <r>    6.3648    0.0000 </r>
       <r>    6.3658    0.0000 </r>
       <r>    6.3658    0.0000 </r>
       <r>    6.3658    0.0000 </r>
       <r>    6.3658    0.0000 </r>
       <r>    6.3668    0.0000 </r>
       <r>    6.8061    0.0000 </r>
       <r>    6.8067    0.0000 </r>
       <r>    6.8080    0.0000 </r>
       <r>    6.8081    0.0000 </r>
       <r>    6.8095    0.0000 </r>
       <r>    6.8100    0.0000 </r>
       <r>    7.2320    0.0000 </r>
       <r>    7.2320    0.0000 </r>
       <r>    7.2320    0.0000 </r>
       <r>    7.2320    0.0000 </r>
       <r>    8.1352    0.0000 </r>
       <r>    8.1354    0.0000 </r>
       <r>    8.1364    0.0000 </r>
       <r>    8.1368    0.0000 </r>
       <r>    8.1378    0.0000 </r>
       <r>    8.1379    0.0000 </r>
       <r>    8.1379    0.0000 </r>
       <r>    8.1380    0.0000 </r>
       <r>    8.1391    0.0000 </r>
       <r>    8.1394    0.0000 </r>
       <r>    8.1404    0.0000 </r>
       <r>    8.1406    0.0000 </r>
       <r>    8.2889    0.0000 </r>
       <r>    8.2889    0.0000 </r>
       <r>    8.2889    0.0000 </r>
       <r>    8.7968    0.0000 </r>
       <r>    8.7968    0.0000 </r>
       <r>    8.7979    0.0000 </r>
       <r>    8.7979    0.0000 </r>
       <r>    8.7990    0.0000 </r>
       <r>    8.7991    0.0000 </r>
       <r>    9.0489    0.0000 </r>
       <r>    9.0506    0.0000 </r>
       <r>    9.0520    0.0000 </r>
      </set>
      <set comment="kpoint 2">
       <r>   -5.9320    1.0000 </r>
       <r>   -5.9320    1.0000 </r>
       <r>   -4.8750    1.0000 </r>
       <r>   -4.8740    1.0000 </r>
       <r>   -4.8739    1.0000 </r>
       <r>   -4.8729    1.0000 </r>
       <r>   -4.8726    1.0000 </r>
       <r>   -4.8716    1.0000 </r>
       <r>   -4.8715    1.0000 </r>
       <r>   -4.8705    1.0000 </r>
       <r>   -4.0233    1.0000 </r>
       <r>   -4.0232    1.0000 </r>
       <r>   -4.0227    1.0000 </r>
       <r>   -4.0227    1.0000 </r>
       <r>   -4.0227    1.0000 </r>
       <r>   -4.0227    1.0000 </r>
       <r>   -4.0222    1.0000 </r>
       <r>   -4.0222    1.0000 </r>
       <r>   -3.8057    1.0000 </r>
       <r>   -3.8056    1.0000 </r>
       <r>   -3.0802    1.0000 </r>
       <r>   -3.0789    1.0000 </r>
       <r>   -3.0776    1.0000 </r>
       <r>   -3.0766    1.0000 </r>
       <r>   -3.0762    1.0000 </r>
       <r>   -3.0752    1.0000 </r>
       <r>   -3.0739    1.0000 </r>
       <r>   -3.0726    1.0000 </r>
       <r>   -1.9715    1.0000 </r>
       <r>   -1.9715    1.0000 </r>
       <r>   -1.9715    1.0000 </r>
       <r>   -1.9715    1.0000 </r>
       <r>   -1.9715    1.0000 </r>
       <r>   -1.9715    1.0000 </r>
       <r>   -1.9715    1.0000 </r>
       <r>   -1.9715    1.0000 </r>
       <r>   -0.8067    1.0000 </r>
       <r>   -0.8049    1.0000 </r>
       <r>   -0.8046    1.0000 </r>
       <r>   -0.8032    1.0000 </r>
       <r>   -0.8028    1.0000 </r>
       <r>   -0.8015    1.0000 </r>
       <r>   -0.8011    1.0000 </r>
       <r>   -0.7994    1.0000 </r>
       <r>   -0.6348    1.0000 </r>
       <r>   -0.6348    1.0000 </r>
       <r>   -0.6340    1.0000 </r>
       <r>   -0.6340    1.0000 </r>
       <r>   -0.6340    1.0000 </r>
       <r>   -0.6340    1.0000 </r>
       <r>   -0.6331    1.0000 </r>
       <r>   -0.6331    1.0000 </r>
       <r>    0.0232    1.0000 </r>
       <r>    0.0233    1.0000 </r>
       <r>    1.4706    1.0000 </r>
       <r>    1.4713    1.0000 </r>
       <r>    1.4734    1.0000 </r>
       <r>    1.4742    1.0000 </r>
       <r>    1.4744    1.0000 </r>
       <r>    1.4753    1.0000 </r>
       <r>    1.4768    1.0000 </r>
       <r>    1.4778    1.0000 </r>
       <r>    1.4914    1.0000 </r>
       <r>    1.4919    1.0000 </r>
       <r>    1.4925    1.0000 </r>
       <r>    1.4928    1.0000 </r>
       <r>    1.4937    1.0000 </r>
       <r>    1.4946    1.0000 </r>
       <r>    1.4947    1.0000 </r>
       <r>    1.4954    1.0000 </r>
       <r>    2.3180    1.0000 </r>
       <r>    2.3180    1.0000 </r>
       <r>    2.3180    1.0000 </r>
       <r>    2.3180    1.0000 </r>
       <r>    2.3180    1.0000 </r>
       <r>    2.3181    1.0000 </r>
       <r>    2.3181    1.0000 </r>
       <r>    2.3181    1.0000 </r>
       <r>    3.0224    1.0000 </r>
       <r>    3.0225    1.0000 </r>
       <r>    3.0240    1.0000 </r>
       <r>    3.0241    1.0000 </r>
       <r>    3.0255    1.0000 </r>
       <r>    3.0256    1.0000 </r>
       <r>    3.0271    1.0000 </r>
       <r>    3.0272    1.0000 </r>
       <r>    3.1479    1.0000 </r>
       <r>    3.1479    1.0000 </r>
       <r>    3.1481    1.0000 </r>
       <r>    3.1481    1.0000 </r>
       <r>    3.1570    1.0000 </r>
       <r>    3.1579    1.0000 </r>
       <r>    3.1580    1.0000 </r>
       <r>    3.1589    1.0000 </r>
       <r>    3.1595    1.0000 </r>
       <r>    3.1606    1.0000 </r>
       <r>    3.1606    1.0000 </r>
       <r>    3.1616    1.0000 </r>
       <r>    3.2856    1.0000 </r>
       <r>    3.2856    1.0000 </r>
       <r>    3.2857    1.0000 </r>
       <r>    3.2858    1.0000 </r>
       <r>    3.2858    1.0000 </r>
       <r>    3.2858    1.0000 </r>
       <r>    3.2859    1.0000 </r>
       <r>    3.2859    1.0000 </r>
       <r>    4.3303    1.0000 </r>
       <r>    4.3309    1.0000 </r>
       <r>    4.3315    1.0000 </r>
       <r>    4.3315    1.0000 </r>
       <r>    4.3321    1.0000 </r>
       <r>    4.3322    1.0000 </r>
       <r>    4.3327    1.0000 </r>
       <r>    4.3334    1.0000 </r>
       <r>    4.4330    1.0000 </r>
       <r>    4.4330    1.0000 </r>
       <r>    4.5006    1.0000 </r>
       <r>    4.5006    1.0000 </r>
       <r>    4.5008    1.0000 </r>
       <r>    4.5009    1.0000 </r>
       <r>    4.5009    1.0000 </r>
       <r>    4.5009    1.0000 </r>
       <r>    4.5011    1.0000 </r>
       <r>    4.5011    1.0000 </r>
       <r>    4.9552    1.0000 </r>
       <r>    4.9552    1.0000 </r>
       <r>    4.9552    1.0000 </r>
       <r>    4.9553    1.0000 </r>
       <r>    6.2797    0.0000 </r>
       <r>    6.2797    0.0000 </r>
       <r>    7.1939    0.0000 </r>
       <r>    7.1940    0.0000 </r>
       <r>    7.6456    0.0000 </r>
       <r>    7.6458    0.0000 </r>
       <r>    7.6458    0.0000 </r>
       <r>    7.6459    0.0000 </r>
       <r>    7.6459    0.0000 </r>
       <r>    7.6459    0.0000 </r>
       <r>    7.6459    0.0000 </r>
       <r>    7.6459    0.0000 </r>
       <r>    7.7141    0.0000 </r>
       <r>    7.7142    0.0000 </r>
       <r>    8.0597    0.0000 </r>
       <r>    8.0597    0.0000 </r>
       <r>    8.0597    0.0000 </r>
       <r>    8.0597    0.0000 </r>
       <r>    8.0597    0.0000 </r>
       <r>    8.0597    0.0000 </r>
       <r>    8.0597    0.0000 </r>
       <r>    8.0597    0.0000 </r>
       <r>    8.1435    0.0000 </r>
       <r>    8.1436    0.0000 </r>
       <r>    8.1451    0.0000 </r>
       <r>    8.1452    0.0000 </r>
       <r>    8.1460    0.0000 </r>
       <r>    8.1462    0.0000 </r>
       <r>    8.1477    0.0000 </r>
       <r>    8.1478    0.0000 </r>
       <r>    8.5502    0.0000 </r>
       <r>    8.5513    0.0000 </r>
       <r>    8.5514    0.0000 </r>
       <r>    8.5525    0.0000 </r>
       <r>    8.5531    0.0000 </r>
       <r>    8.5542    0.0000 </r>
       <r>    8.5543    0.0000 </r>
       <r>    8.5554    0.0000 </r>
       <r>    9.3192    0.0000 </r>
       <r>    9.3223    0.0000 </r>
      </set>
      <set comment="kpoint 3">
       <r>   -5.9320    1.0000 </r>
       <r>   -5.9320    1.0000 </r>
       <r>   -4.8759    1.0000 </r>
       <r>   -4.8744    1.0000 </r>
       <r>   -4.8734    1.0000 </r>
       <r>   -4.8728    1.0000 </r>
       <r>   -4.8727    1.0000 </r>
       <r>   -4.8720    1.0000 </r>
       <r>   -4.8711    1.0000 </r>
       <r>   -4.8696    1.0000 </r>
       <r>   -4.0250    1.0000 </r>
       <r>   -4.0250    1.0000 </r>
       <r>   -4.0228    1.0000 </r>
       <r>   -4.0228    1.0000 </r>
       <r>   -4.0226    1.0000 </r>
       <r>   -4.0226    1.0000 </r>
       <r>   -4.0205    1.0000 </r>
       <r>   -4.0205    1.0000 </r>
       <r>   -3.8057    1.0000 </r>
       <r>   -3.8057    1.0000 </r>
       <r>   -3.0784    1.0000 </r>
       <r>   -3.0780    1.0000 </r>
       <r>   -3.0772    1.0000 </r>
       <r>   -3.0764    1.0000 </r>
       <r>   -3.0764    1.0000 </r>
       <r>   -3.0756    1.0000 </r>
       <r>   -3.0748    1.0000 </r>
       <r>   -3.0744    1.0000 </r>
       <r>   -1.9755    1.0000 </r>
       <r>   -1.9734    1.0000 </r>
       <r>   -1.9715    1.0000 </r>
       <r>   -1.9715    1.0000 </r>
       <r>   -1.9715    1.0000 </r>
       <r>   -1.9714    1.0000 </r>
       <r>   -1.9695    1.0000 </r>
       <r>   -1.9674    1.0000 </r>
       <r>   -0.8062    1.0000 </r>
       <r>   -0.8047    1.0000 </r>
       <r>   -0.8043    1.0000 </r>
       <r>   -0.8031    1.0000 </r>
       <r>   -0.8029    1.0000 </r>
       <r>   -0.8017    1.0000 </r>
       <r>   -0.8013    1.0000 </r>
       <r>   -0.7999    1.0000 </r>
       <r>   -0.6361    1.0000 </r>
       <r>   -0.6360    1.0000 </r>
       <r>   -0.6342    1.0000 </r>
       <r>   -0.6341    1.0000 </r>
       <r>   -0.6338    1.0000 </r>
       <r>   -0.6338    1.0000 </r>
       <r>   -0.6318    1.0000 </r>
       <r>   -0.6318    1.0000 </r>
       <r>    0.0232    1.0000 </r>
       <r>    0.0232    1.0000 </r>
       <r>    1.4719    1.0000 </r>
       <r>    1.4728    1.0000 </r>
       <r>    1.4733    1.0000 </r>
       <r>    1.4741    1.0000 </r>
       <r>    1.4743    1.0000 </r>
       <r>    1.4752    1.0000 </r>
       <r>    1.4756    1.0000 </r>
       <r>    1.4765    1.0000 </r>
       <r>    1.4916    1.0000 </r>
       <r>    1.4921    1.0000 </r>
       <r>    1.4930    1.0000 </r>
       <r>    1.4933    1.0000 </r>
       <r>    1.4935    1.0000 </r>
       <r>    1.4935    1.0000 </r>
       <r>    1.4946    1.0000 </r>
       <r>    1.4953    1.0000 </r>
       <r>    2.3164    1.0000 </r>
       <r>    2.3172    1.0000 </r>
       <r>    2.3173    1.0000 </r>
       <r>    2.3177    1.0000 </r>
       <r>    2.3183    1.0000 </r>
       <r>    2.3188    1.0000 </r>
       <r>    2.3189    1.0000 </r>
       <r>    2.3197    1.0000 </r>
       <r>    3.0235    1.0000 </r>
       <r>    3.0240    1.0000 </r>
       <r>    3.0243    1.0000 </r>
       <r>    3.0247    1.0000 </r>
       <r>    3.0249    1.0000 </r>
       <r>    3.0254    1.0000 </r>
       <r>    3.0256    1.0000 </r>
       <r>    3.0262    1.0000 </r>
       <r>    3.1480    1.0000 </r>
       <r>    3.1480    1.0000 </r>
       <r>    3.1481    1.0000 </r>
       <r>    3.1481    1.0000 </r>
       <r>    3.1577    1.0000 </r>
       <r>    3.1582    1.0000 </r>
       <r>    3.1584    1.0000 </r>
       <r>    3.1589    1.0000 </r>
       <r>    3.1595    1.0000 </r>
       <r>    3.1601    1.0000 </r>
       <r>    3.1603    1.0000 </r>
       <r>    3.1607    1.0000 </r>
       <r>    3.2843    1.0000 </r>
       <r>    3.2843    1.0000 </r>
       <r>    3.2849    1.0000 </r>
       <r>    3.2849    1.0000 </r>
       <r>    3.2866    1.0000 </r>
       <r>    3.2866    1.0000 </r>
       <r>    3.2872    1.0000 </r>
       <r>    3.2872    1.0000 </r>
       <r>    4.3288    1.0000 </r>
       <r>    4.3301    1.0000 </r>
       <r>    4.3310    1.0000 </r>
       <r>    4.3317    1.0000 </r>
       <r>    4.3320    1.0000 </r>
       <r>    4.3327    1.0000 </r>
       <r>    4.3335    1.0000 </r>
       <r>    4.3347    1.0000 </r>
       <r>    4.4329    1.0000 </r>
       <r>    4.4329    1.0000 </r>
       <r>    4.4995    1.0000 </r>
       <r>    4.4995    1.0000 </r>
       <r>    4.5009    1.0000 </r>
       <r>    4.5009    1.0000 </r>
       <r>    4.5009    1.0000 </r>
       <r>    4.5011    1.0000 </r>
       <r>    4.5023    1.0000 </r>
       <r>    4.5024    1.0000 </r>
       <r>    4.9552    1.0000 </r>
       <r>    4.9552    1.0000 </r>
       <r>    4.9552    1.0000 </r>
       <r>    4.9552    1.0000 </r>
       <r>    6.2797    0.0000 </r>
       <r>    6.2797    0.0000 </r>
       <r>    7.1939    0.0000 </r>
       <r>    7.1939    0.0000 </r>
       <r>    7.6434    0.0000 </r>
       <r>    7.6442    0.0000 </r>
       <r>    7.6451    0.0000 </r>
       <r>    7.6456    0.0000 </r>
       <r>    7.6462    0.0000 </r>
       <r>    7.6466    0.0000 </r>
       <r>    7.6475    0.0000 </r>
       <r>    7.6481    0.0000 </r>
       <r>    7.7141    0.0000 </r>
       <r>    7.7142    0.0000 </r>
       <r>    8.0590    0.0000 </r>
       <r>    8.0590    0.0000 </r>
       <r>    8.0594    0.0000 </r>
       <r>    8.0594    0.0000 </r>
       <r>    8.0600    0.0000 </r>
       <r>    8.0600    0.0000 </r>
       <r>    8.0603    0.0000 </r>
       <r>    8.0604    0.0000 </r>
       <r>    8.1441    0.0000 </r>
       <r>    8.1442    0.0000 </r>
       <r>    8.1448    0.0000 </r>
       <r>    8.1455    0.0000 </r>
       <r>    8.1458    0.0000 </r>
       <r>    8.1465    0.0000 </r>
       <r>    8.1471    0.0000 </r>
       <r>    8.1473    0.0000 </r>
       <r>    8.5517    0.0000 </r>
       <r>    8.5521    0.0000 </r>
       <r>    8.5524    0.0000 </r>
       <r>    8.5528    0.0000 </r>
       <r>    8.5528    0.0000 </r>
       <r>    8.5532    0.0000 </r>
       <r>    8.5535    0.0000 </r>
       <r>    8.5539    0.0000 </r>
       <r>    9.3201    0.0000 </r>
       <r>    9.3216    0.0000 </r>
      </set>
      <set comment="kpoint 4">
       <r>   -5.6646    1.0000 </r>
       <r>   -5.6646    1.0000 </r>
       <r>   -5.6632    1.0000 </r>
       <r>   -5.6632    1.0000 </r>
       <r>   -4.6457    1.0000 </r>
       <r>   -4.6457    1.0000 </r>
       <r>   -4.6442    1.0000 </r>
       <r>   -4.6442    1.0000 </r>
       <r>   -4.6440    1.0000 </r>
       <r>   -4.6440    1.0000 </r>
       <r>   -4.6426    1.0000 </r>
       <r>   -4.6426    1.0000 </r>
       <r>   -3.6095    1.0000 </r>
       <r>   -3.6069    1.0000 </r>
       <r>   -3.6055    1.0000 </r>
       <r>   -3.6054    1.0000 </r>
       <r>   -3.6053    1.0000 </r>
       <r>   -3.6052    1.0000 </r>
       <r>   -3.6038    1.0000 </r>
       <r>   -3.6014    1.0000 </r>
       <r>   -3.3240    1.0000 </r>
       <r>   -3.3240    1.0000 </r>
       <r>   -3.3217    1.0000 </r>
       <r>   -3.3217    1.0000 </r>
       <r>   -3.3216    1.0000 </r>
       <r>   -3.3216    1.0000 </r>
       <r>   -3.3193    1.0000 </r>
       <r>   -3.3192    1.0000 </r>
       <r>   -2.4600    1.0000 </r>
       <r>   -2.4600    1.0000 </r>
       <r>   -2.4595    1.0000 </r>
       <r>   -2.4595    1.0000 </r>
       <r>   -1.4637    1.0000 </r>
       <r>   -1.4637    1.0000 </r>
       <r>   -1.4616    1.0000 </r>
       <r>   -1.4616    1.0000 </r>
       <r>   -1.0405    1.0000 </r>
       <r>   -1.0404    1.0000 </r>
       <r>   -1.0385    1.0000 </r>
       <r>   -1.0385    1.0000 </r>
       <r>   -1.0382    1.0000 </r>
       <r>   -1.0382    1.0000 </r>
       <r>   -1.0362    1.0000 </r>
       <r>   -1.0362    1.0000 </r>
       <r>   -0.1988    1.0000 </r>
       <r>   -0.1978    1.0000 </r>
       <r>   -0.1954    1.0000 </r>
       <r>   -0.1954    1.0000 </r>
       <r>   -0.1951    1.0000 </r>
       <r>   -0.1951    1.0000 </r>
       <r>   -0.1928    1.0000 </r>
       <r>   -0.1916    1.0000 </r>
       <r>    0.4633    1.0000 </r>
       <r>    0.4633    1.0000 </r>
       <r>    0.4648    1.0000 </r>
       <r>    0.4648    1.0000 </r>
       <r>    0.4651    1.0000 </r>
       <r>    0.4651    1.0000 </r>
       <r>    0.4667    1.0000 </r>
       <r>    0.4667    1.0000 </r>
       <r>    1.4166    1.0000 </r>
       <r>    1.4166    1.0000 </r>
       <r>    1.4174    1.0000 </r>
       <r>    1.4174    1.0000 </r>
       <r>    2.2858    1.0000 </r>
       <r>    2.2858    1.0000 </r>
       <r>    2.2871    1.0000 </r>
       <r>    2.2871    1.0000 </r>
       <r>    2.2874    1.0000 </r>
       <r>    2.2874    1.0000 </r>
       <r>    2.2888    1.0000 </r>
       <r>    2.2888    1.0000 </r>
       <r>    2.3707    1.0000 </r>
       <r>    2.3713    1.0000 </r>
       <r>    2.3714    1.0000 </r>
       <r>    2.3720    1.0000 </r>
       <r>    2.3723    1.0000 </r>
       <r>    2.3730    1.0000 </r>
       <r>    2.3731    1.0000 </r>
       <r>    2.3737    1.0000 </r>
       <r>    2.9815    1.0000 </r>
       <r>    2.9826    1.0000 </r>
       <r>    2.9828    1.0000 </r>
       <r>    2.9829    1.0000 </r>
       <r>    2.9835    1.0000 </r>
       <r>    2.9837    1.0000 </r>
       <r>    2.9838    1.0000 </r>
       <r>    2.9849    1.0000 </r>
       <r>    3.0761    1.0000 </r>
       <r>    3.0762    1.0000 </r>
       <r>    3.0773    1.0000 </r>
       <r>    3.0773    1.0000 </r>
       <r>    3.3309    1.0000 </r>
       <r>    3.3309    1.0000 </r>
       <r>    3.3319    1.0000 </r>
       <r>    3.3320    1.0000 </r>
       <r>    3.5900    1.0000 </r>
       <r>    3.5900    1.0000 </r>
       <r>    3.5910    1.0000 </r>
       <r>    3.5910    1.0000 </r>
       <r>    3.5912    1.0000 </r>
       <r>    3.5912    1.0000 </r>
       <r>    3.5922    1.0000 </r>
       <r>    3.5922    1.0000 </r>
       <r>    3.9164    1.0000 </r>
       <r>    3.9165    1.0000 </r>
       <r>    3.9182    1.0000 </r>
       <r>    3.9182    1.0000 </r>
       <r>    3.9182    1.0000 </r>
       <r>    3.9182    1.0000 </r>
       <r>    3.9200    1.0000 </r>
       <r>    3.9200    1.0000 </r>
       <r>    4.1183    1.0000 </r>
       <r>    4.1184    1.0000 </r>
       <r>    4.1185    1.0000 </r>
       <r>    4.1185    1.0000 </r>
       <r>    4.1733    1.0000 </r>
       <r>    4.1733    1.0000 </r>
       <r>    4.1741    1.0000 </r>
       <r>    4.1741    1.0000 </r>
       <r>    4.1742    1.0000 </r>
       <r>    4.1744    1.0000 </r>
       <r>    4.1750    1.0000 </r>
       <r>    4.1750    1.0000 </r>
       <r>    5.4800    1.0000 </r>
       <r>    5.4801    1.0000 </r>
       <r>    5.4804    1.0000 </r>
       <r>    5.4804    1.0000 </r>
       <r>    6.8653    0.0000 </r>
       <r>    6.8653    0.0000 </r>
       <r>    6.8663    0.0000 </r>
       <r>    6.8663    0.0000 </r>
       <r>    7.6294    0.0000 </r>
       <r>    7.6297    0.0000 </r>
       <r>    7.6309    0.0000 </r>
       <r>    7.6310    0.0000 </r>
       <r>    7.6322    0.0000 </r>
       <r>    7.6324    0.0000 </r>
       <r>    7.6334    0.0000 </r>
       <r>    7.6338    0.0000 </r>
       <r>    7.9391    0.0000 </r>
       <r>    7.9391    0.0000 </r>
       <r>    7.9394    0.0000 </r>
       <r>    7.9394    0.0000 </r>
       <r>    7.9406    0.0000 </r>
       <r>    7.9406    0.0000 </r>
       <r>    7.9409    0.0000 </r>
       <r>    7.9409    0.0000 </r>
       <r>    8.3142    0.0000 </r>
       <r>    8.3146    0.0000 </r>
       <r>    8.3147    0.0000 </r>
       <r>    8.3150    0.0000 </r>
       <r>    8.3153    0.0000 </r>
       <r>    8.3156    0.0000 </r>
       <r>    8.3158    0.0000 </r>
       <r>    8.3162    0.0000 </r>
       <r>    8.7643    0.0000 </r>
       <r>    8.7668    0.0000 </r>
       <r>    8.7680    0.0000 </r>
       <r>    8.7698    0.0000 </r>
       <r>    8.7705    0.0000 </r>
       <r>    8.7719    0.0000 </r>
       <r>    8.7726    0.0000 </r>
       <r>    8.7762    0.0000 </r>
       <r>    8.7827    0.0000 </r>
       <r>    8.7866    0.0000 </r>
       <r>    8.8016    0.0000 </r>
       <r>    8.8085    0.0000 </r>
      </set>
      <set comment="kpoint 5">
       <r>   -5.6645    1.0000 </r>
       <r>   -5.6639    1.0000 </r>
       <r>   -5.6639    1.0000 </r>
       <r>   -5.6634    1.0000 </r>
       <r>   -4.6474    1.0000 </r>
       <r>   -4.6466    1.0000 </r>
       <r>   -4.6441    1.0000 </r>
       <r>   -4.6441    1.0000 </r>
       <r>   -4.6441    1.0000 </r>
       <r>   -4.6441    1.0000 </r>
       <r>   -4.6417    1.0000 </r>
       <r>   -4.6409    1.0000 </r>
       <r>   -3.6064    1.0000 </r>
       <r>   -3.6061    1.0000 </r>
       <r>   -3.6054    1.0000 </r>
       <r>   -3.6054    1.0000 </r>
       <r>   -3.6054    1.0000 </r>
       <r>   -3.6054    1.0000 </r>
       <r>   -3.6046    1.0000 </r>
       <r>   -3.6043    1.0000 </r>
       <r>   -3.3228    1.0000 </r>
       <r>   -3.3228    1.0000 </r>
       <r>   -3.3217    1.0000 </r>
       <r>   -3.3216    1.0000 </r>
       <r>   -3.3216    1.0000 </r>
       <r>   -3.3216    1.0000 </r>
       <r>   -3.3205    1.0000 </r>
       <r>   -3.3204    1.0000 </r>
       <r>   -2.4621    1.0000 </r>
       <r>   -2.4598    1.0000 </r>
       <r>   -2.4598    1.0000 </r>
       <r>   -2.4574    1.0000 </r>
       <r>   -1.4638    1.0000 </r>
       <r>   -1.4627    1.0000 </r>
       <r>   -1.4627    1.0000 </r>
       <r>   -1.4615    1.0000 </r>
       <r>   -1.0415    1.0000 </r>
       <r>   -1.0398    1.0000 </r>
       <r>   -1.0383    1.0000 </r>
       <r>   -1.0383    1.0000 </r>
       <r>   -1.0383    1.0000 </r>
       <r>   -1.0383    1.0000 </r>
       <r>   -1.0369    1.0000 </r>
       <r>   -1.0352    1.0000 </r>
       <r>   -0.1985    1.0000 </r>
       <r>   -0.1975    1.0000 </r>
       <r>   -0.1953    1.0000 </r>
       <r>   -0.1953    1.0000 </r>
       <r>   -0.1953    1.0000 </r>
       <r>   -0.1952    1.0000 </r>
       <r>   -0.1930    1.0000 </r>
       <r>   -0.1920    1.0000 </r>
       <r>    0.4633    1.0000 </r>
       <r>    0.4635    1.0000 </r>
       <r>    0.4650    1.0000 </r>
       <r>    0.4650    1.0000 </r>
       <r>    0.4650    1.0000 </r>
       <r>    0.4650    1.0000 </r>
       <r>    0.4664    1.0000 </r>
       <r>    0.4667    1.0000 </r>
       <r>    1.4161    1.0000 </r>
       <r>    1.4170    1.0000 </r>
       <r>    1.4170    1.0000 </r>
       <r>    1.4179    1.0000 </r>
       <r>    2.2863    1.0000 </r>
       <r>    2.2864    1.0000 </r>
       <r>    2.2873    1.0000 </r>
       <r>    2.2873    1.0000 </r>
       <r>    2.2873    1.0000 </r>
       <r>    2.2873    1.0000 </r>
       <r>    2.2882    1.0000 </r>
       <r>    2.2883    1.0000 </r>
       <r>    2.3709    1.0000 </r>
       <r>    2.3717    1.0000 </r>
       <r>    2.3722    1.0000 </r>
       <r>    2.3722    1.0000 </r>
       <r>    2.3722    1.0000 </r>
       <r>    2.3722    1.0000 </r>
       <r>    2.3727    1.0000 </r>
       <r>    2.3735    1.0000 </r>
       <r>    2.9821    1.0000 </r>
       <r>    2.9822    1.0000 </r>
       <r>    2.9832    1.0000 </r>
       <r>    2.9832    1.0000 </r>
       <r>    2.9832    1.0000 </r>
       <r>    2.9832    1.0000 </r>
       <r>    2.9841    1.0000 </r>
       <r>    2.9842    1.0000 </r>
       <r>    3.0757    1.0000 </r>
       <r>    3.0768    1.0000 </r>
       <r>    3.0769    1.0000 </r>
       <r>    3.0777    1.0000 </r>
       <r>    3.3298    1.0000 </r>
       <r>    3.3314    1.0000 </r>
       <r>    3.3314    1.0000 </r>
       <r>    3.3330    1.0000 </r>
       <r>    3.5901    1.0000 </r>
       <r>    3.5902    1.0000 </r>
       <r>    3.5911    1.0000 </r>
       <r>    3.5911    1.0000 </r>
       <r>    3.5911    1.0000 </r>
       <r>    3.5911    1.0000 </r>
       <r>    3.5920    1.0000 </r>
       <r>    3.5922    1.0000 </r>
       <r>    3.9169    1.0000 </r>
       <r>    3.9176    1.0000 </r>
       <r>    3.9182    1.0000 </r>
       <r>    3.9182    1.0000 </r>
       <r>    3.9182    1.0000 </r>
       <r>    3.9183    1.0000 </r>
       <r>    3.9189    1.0000 </r>
       <r>    3.9196    1.0000 </r>
       <r>    4.1180    1.0000 </r>
       <r>    4.1184    1.0000 </r>
       <r>    4.1185    1.0000 </r>
       <r>    4.1190    1.0000 </r>
       <r>    4.1697    1.0000 </r>
       <r>    4.1737    1.0000 </r>
       <r>    4.1741    1.0000 </r>
       <r>    4.1741    1.0000 </r>
       <r>    4.1741    1.0000 </r>
       <r>    4.1742    1.0000 </r>
       <r>    4.1745    1.0000 </r>
       <r>    4.1785    1.0000 </r>
       <r>    5.4771    1.0000 </r>
       <r>    5.4802    1.0000 </r>
       <r>    5.4802    1.0000 </r>
       <r>    5.4834    1.0000 </r>
       <r>    6.8641    0.0000 </r>
       <r>    6.8658    0.0000 </r>
       <r>    6.8658    0.0000 </r>
       <r>    6.8675    0.0000 </r>
       <r>    7.6289    0.0000 </r>
       <r>    7.6299    0.0000 </r>
       <r>    7.6316    0.0000 </r>
       <r>    7.6316    0.0000 </r>
       <r>    7.6316    0.0000 </r>
       <r>    7.6316    0.0000 </r>
       <r>    7.6333    0.0000 </r>
       <r>    7.6342    0.0000 </r>
       <r>    7.9364    0.0000 </r>
       <r>    7.9396    0.0000 </r>
       <r>    7.9400    0.0000 </r>
       <r>    7.9400    0.0000 </r>
       <r>    7.9400    0.0000 </r>
       <r>    7.9400    0.0000 </r>
       <r>    7.9404    0.0000 </r>
       <r>    7.9436    0.0000 </r>
       <r>    8.3135    0.0000 </r>
       <r>    8.3136    0.0000 </r>
       <r>    8.3151    0.0000 </r>
       <r>    8.3152    0.0000 </r>
       <r>    8.3152    0.0000 </r>
       <r>    8.3152    0.0000 </r>
       <r>    8.3168    0.0000 </r>
       <r>    8.3168    0.0000 </r>
       <r>    8.7630    0.0000 </r>
       <r>    8.7656    0.0000 </r>
       <r>    8.7677    0.0000 </r>
       <r>    8.7696    0.0000 </r>
       <r>    8.7712    0.0000 </r>
       <r>    8.7722    0.0000 </r>
       <r>    8.7757    0.0000 </r>
       <r>    8.7821    0.0000 </r>
       <r>    8.7839    0.0000 </r>
       <r>    8.7972    0.0000 </r>
       <r>    8.8045    0.0000 </r>
       <r>    8.8205    0.0000 </r>
      </set>
      <set comment="kpoint 6">
       <r>   -5.4060    1.0000 </r>
       <r>   -5.4053    1.0000 </r>
       <r>   -5.4037    1.0000 </r>
       <r>   -5.4037    1.0000 </r>
       <r>   -5.4037    1.0000 </r>
       <r>   -5.4037    1.0000 </r>
       <r>   -5.4022    1.0000 </r>
       <r>   -5.4015    1.0000 </r>
       <r>   -3.4875    1.0000 </r>
       <r>   -3.4830    1.0000 </r>
       <r>   -3.4809    1.0000 </r>
       <r>   -3.4786    1.0000 </r>
       <r>   -3.4785    1.0000 </r>
       <r>   -3.4783    1.0000 </r>
       <r>   -3.4781    1.0000 </r>
       <r>   -3.4780    1.0000 </r>
       <r>   -3.4779    1.0000 </r>
       <r>   -3.4779    1.0000 </r>
       <r>   -3.4778    1.0000 </r>
       <r>   -3.4778    1.0000 </r>
       <r>   -3.4778    1.0000 </r>
       <r>   -3.4778    1.0000 </r>
       <r>   -3.4776    1.0000 </r>
       <r>   -3.4776    1.0000 </r>
       <r>   -3.4776    1.0000 </r>
       <r>   -3.4774    1.0000 </r>
       <r>   -3.4772    1.0000 </r>
       <r>   -3.4770    1.0000 </r>
       <r>   -3.4769    1.0000 </r>
       <r>   -3.4746    1.0000 </r>
       <r>   -3.4725    1.0000 </r>
       <r>   -3.4681    1.0000 </r>
       <r>   -0.6337    1.0000 </r>
       <r>   -0.6303    1.0000 </r>
       <r>   -0.6294    1.0000 </r>
       <r>   -0.6257    1.0000 </r>
       <r>   -0.6254    1.0000 </r>
       <r>   -0.6251    1.0000 </r>
       <r>   -0.6250    1.0000 </r>
       <r>   -0.6249    1.0000 </r>
       <r>   -0.6248    1.0000 </r>
       <r>   -0.6248    1.0000 </r>
       <r>   -0.6246    1.0000 </r>
       <r>   -0.6246    1.0000 </r>
       <r>   -0.6246    1.0000 </r>
       <r>   -0.6246    1.0000 </r>
       <r>   -0.6244    1.0000 </r>
       <r>   -0.6244    1.0000 </r>
       <r>   -0.6242    1.0000 </r>
       <r>   -0.6242    1.0000 </r>
       <r>   -0.6241    1.0000 </r>
       <r>   -0.6237    1.0000 </r>
       <r>   -0.6235    1.0000 </r>
       <r>   -0.6198    1.0000 </r>
       <r>   -0.6189    1.0000 </r>
       <r>   -0.6154    1.0000 </r>
       <r>    1.8212    1.0000 </r>
       <r>    1.8218    1.0000 </r>
       <r>    1.8226    1.0000 </r>
       <r>    1.8227    1.0000 </r>
       <r>    1.8227    1.0000 </r>
       <r>    1.8227    1.0000 </r>
       <r>    1.8236    1.0000 </r>
       <r>    1.8242    1.0000 </r>
       <r>    2.1935    1.0000 </r>
       <r>    2.1947    1.0000 </r>
       <r>    2.1951    1.0000 </r>
       <r>    2.1965    1.0000 </r>
       <r>    2.1969    1.0000 </r>
       <r>    2.1977    1.0000 </r>
       <r>    2.1978    1.0000 </r>
       <r>    2.1980    1.0000 </r>
       <r>    2.1981    1.0000 </r>
       <r>    2.1982    1.0000 </r>
       <r>    2.1984    1.0000 </r>
       <r>    2.1984    1.0000 </r>
       <r>    2.1984    1.0000 </r>
       <r>    2.1984    1.0000 </r>
       <r>    2.1985    1.0000 </r>
       <r>    2.1986    1.0000 </r>
       <r>    2.1988    1.0000 </r>
       <r>    2.1989    1.0000 </r>
       <r>    2.1991    1.0000 </r>
       <r>    2.1998    1.0000 </r>
       <r>    2.2002    1.0000 </r>
       <r>    2.2017    1.0000 </r>
       <r>    2.2021    1.0000 </r>
       <r>    2.2033    1.0000 </r>
       <r>    3.5471    1.0000 </r>
       <r>    3.5482    1.0000 </r>
       <r>    3.5499    1.0000 </r>
       <r>    3.5510    1.0000 </r>
       <r>    3.5514    1.0000 </r>
       <r>    3.5517    1.0000 </r>
       <r>    3.5519    1.0000 </r>
       <r>    3.5520    1.0000 </r>
       <r>    3.5522    1.0000 </r>
       <r>    3.5524    1.0000 </r>
       <r>    3.5525    1.0000 </r>
       <r>    3.5525    1.0000 </r>
       <r>    3.5525    1.0000 </r>
       <r>    3.5525    1.0000 </r>
       <r>    3.5526    1.0000 </r>
[...]
      </set>
     </set>
    </set>
   </array>
  </eigenvalues>
  <separator name="orbital magnetization" >
   <v name="MAGDIPOLOUT">      0.00000000      0.00000000      0.00000000</v>
  </separator>
  <dos>
   <i name="efermi">      5.89262627 </i>
   <total>
    <array>
     <dimension dim="1">gridpoints</dimension>
     <dimension dim="2">spin</dimension>
     <field>energy</field>
     <field>total</field>
     <field>integrated</field>
     <set>
      <set comment="spin 1">
       <r>    -6.9819     0.0000     0.0000 </r>
       <r>    -6.9250     0.0000     0.0000 </r>
       <r>    -6.8680     0.0000     0.0000 </r>
       <r>    -6.8111     0.0000     0.0000 </r>
       <r>    -6.7542     0.0000     0.0000 </r>
       <r>    -6.6972     0.0000     0.0000 </r>
       <r>    -6.6403     0.0000     0.0000 </r>
       <r>    -6.5834     0.0000     0.0000 </r>
       <r>    -6.5264     0.0000     0.0000 </r>
       <r>    -6.4695     0.0000     0.0000 </r>
       <r>    -6.4126     0.0000     0.0000 </r>
       <r>    -6.3556     0.0000     0.0000 </r>
       <r>    -6.2987     0.0000     0.0000 </r>
       <r>    -6.2417     0.0229     0.0013 </r>
       <r>    -6.1848     4.0537     0.2321 </r>
       <r>    -6.1279     0.3144     0.2500 </r>
       <r>    -6.0709     0.0000     0.2500 </r>
       <r>    -6.0140     0.0000     0.2500 </r>
       <r>    -5.9571     1.0086     0.3074 </r>
       <r>    -5.9001    25.0191     1.7319 </r>
       <r>    -5.8432     0.3179     1.7500 </r>
       <r>    -5.7863     0.0000     1.7500 </r>
       <r>    -5.7293     0.0001     1.7500 </r>
       <r>    -5.6724    14.4751     2.5742 </r>
       <r>    -5.6155    38.1997     4.7491 </r>
       <r>    -5.5585     0.0163     4.7500 </r>
       <r>    -5.5016     0.0000     4.7500 </r>
       <r>    -5.4447     0.0700     4.7540 </r>
       <r>    -5.3877    30.5008     6.4906 </r>
       <r>    -5.3308     4.5567     6.7500 </r>
       <r>    -5.2738     0.0000     6.7500 </r>
       <r>    -5.2169     0.0000     6.7500 </r>
       <r>    -5.1600     0.0845     6.7548 </r>
       <r>    -5.1030    23.6382     8.1007 </r>
       <r>    -5.0461     2.6229     8.2500 </r>
       <r>    -4.9892     0.0000     8.2500 </r>
       <r>    -4.9322     0.0016     8.2501 </r>
       <r>    -4.8753    45.1792    10.8224 </r>
       <r>    -4.8184    60.1946    14.2496 </r>
       <r>    -4.7614     0.0071    14.2500 </r>
       <r>    -4.7045     0.0012    14.2501 </r>
       <r>    -4.6476    42.6919    16.6807 </r>
       <r>    -4.5906    62.6806    20.2495 </r>
       <r>    -4.5337     0.0088    20.2500 </r>
       <r>    -4.4767     0.0000    20.2500 </r>
       <r>    -4.4198     0.0000    20.2500 </r>
       <r>    -4.3629     0.0000    20.2500 </r>
       <r>    -4.3059     0.0000    20.2500 </r>
       <r>    -4.2490     0.0000    20.2500 </r>
       <r>    -4.1921     0.2545    20.2645 </r>
       <r>    -4.1351    48.1154    23.0040 </r>
       <r>    -4.0782     4.3263    23.2503 </r>
       <r>    -4.0213    56.9606    26.4934 </r>
       <r>    -3.9643    48.4149    29.2499 </r>
       <r>    -3.9074     0.0104    29.2505 </r>
       <r>    -3.8505    13.4362    30.0155 </r>
       <r>    -3.7935    25.3153    31.4568 </r>
       <r>    -3.7366     5.1496    31.7500 </r>
       <r>    -3.6797     0.0000    31.7500 </r>
       <r>    -3.6227    11.7952    32.4216 </r>
       <r>    -3.5658    93.2981    37.7335 </r>
       <r>    -3.5088     2.0069    37.8478 </r>
       <r>    -3.4519    99.7117    43.5249 </r>
       <r>    -3.3950     3.9530    43.7500 </r>
       <r>    -3.3380    13.0817    44.4948 </r>
       <r>    -3.2811    92.0706    49.7369 </r>
       <r>    -3.2242     0.2301    49.7500 </r>
       <r>    -3.1672     0.0000    49.7500 </r>
       <r>    -3.1103     0.9146    49.8021 </r>
       <r>    -3.0534    98.8824    55.4320 </r>
       <r>    -2.9964     5.5854    55.7500 </r>
       <r>    -2.9395     0.0000    55.7500 </r>
       <r>    -2.8826     0.0000    55.7500 </r>
       <r>    -2.8256     0.0000    55.7500 </r>
       <r>    -2.7687     0.0000    55.7500 </r>
       <r>    -2.7117     0.0000    55.7500 </r>
       <r>    -2.6548     0.0000    55.7500 </r>
       <r>    -2.5979     0.0000    55.7500 </r>
       <r>    -2.5409     0.0000    55.7500 </r>
       <r>    -2.4840     2.2980    55.8808 </r>
       <r>    -2.4271    49.8373    58.7183 </r>
       <r>    -2.3701     0.5559    58.7500 </r>
       <r>    -2.3132     0.0000    58.7500 </r>
       <r>    -2.2563     0.0000    58.7500 </r>
       <r>    -2.1993     0.0000    58.7500 </r>
       <r>    -2.1424     0.0000    58.7500 </r>
       <r>    -2.0855     0.2511    58.7643 </r>
       <r>    -2.0285    24.7714    60.1747 </r>
       <r>    -1.9716    53.6723    63.2305 </r>
       <r>    -1.9147    53.7166    66.2889 </r>
       <r>    -1.8577    49.8499    69.1271 </r>
       <r>    -1.8008     2.1581    69.2500 </r>
       <r>    -1.7438     0.0000    69.2500 </r>
       <r>    -1.6869     0.0000    69.2500 </r>
       <r>    -1.6300     0.0000    69.2500 </r>
       <r>    -1.5730     0.0000    69.2500 </r>
       <r>    -1.5161     0.0043    69.2502 </r>
       <r>    -1.4592    31.4931    71.0433 </r>
       <r>    -1.4022    21.1932    72.2500 </r>
       <r>    -1.3453     0.0005    72.2500 </r>
       <r>    -1.2884     0.0013    72.2501 </r>
       <r>    -1.2314    10.3841    72.8413 </r>
       <r>    -1.1745     7.1781    73.2500 </r>
       <r>    -1.1176     0.0002    73.2500 </r>
       <r>    -1.0606     6.1882    73.6023 </r>
       <r>    -1.0037    98.4103    79.2054 </r>
       <r>    -0.9467     0.7839    79.2500 </r>
       <r>    -0.8898     0.0000    79.2500 </r>
       <r>    -0.8329     1.9281    79.3598 </r>
       <r>    -0.7759   100.3974    85.0759 </r>
       <r>    -0.7190     3.0570    85.2500 </r>
       <r>    -0.6621     3.0434    85.4233 </r>
       <r>    -0.6051   195.9407    96.5793 </r>
       <r>    -0.5482    11.7808    97.2500 </r>
       <r>    -0.4913     0.0000    97.2500 </r>
       <r>    -0.4343     0.0000    97.2500 </r>
       <r>    -0.3774     0.0000    97.2500 </r>
       <r>    -0.3205     0.0000    97.2500 </r>
       <r>    -0.2635     0.0001    97.2500 </r>
       <r>    -0.2066    22.5503    98.5339 </r>
       <r>    -0.1497    82.7568   103.2457 </r>
       <r>    -0.0927     0.0752   103.2500 </r>
       <r>    -0.0358     0.0004   103.2500 </r>
       <r>     0.0212    11.6273   103.9120 </r>
       <r>     0.0781    14.7165   104.7499 </r>
       <r>     0.1350     0.0014   104.7500 </r>
       <r>     0.1920     0.0000   104.7500 </r>
       <r>     0.2489     0.5596   104.7819 </r>
       <r>     0.3058    49.6040   107.6061 </r>
       <r>     0.3628     2.5277   107.7500 </r>
       <r>     0.4197     0.0748   107.7543 </r>
       <r>     0.4766    83.6312   112.5158 </r>
       <r>     0.5336    21.6764   113.7500 </r>
       <r>     0.5905     0.0001   113.7500 </r>
       <r>     0.6474     0.0000   113.7500 </r>
       <r>     0.7044     0.0000   113.7500 </r>
       <r>     0.7613     0.0000   113.7500 </r>
       <r>     0.8183     0.0000   113.7500 </r>
       <r>     0.8752     0.0000   113.7500 </r>
       <r>     0.9321     0.0000   113.7500 </r>
       <r>     0.9891     0.0000   113.7500 </r>
       <r>     1.0460     0.0000   113.7500 </r>
       <r>     1.1029     0.0000   113.7500 </r>
       <r>     1.1599     0.0000   113.7500 </r>
       <r>     1.2168     0.0000   113.7500 </r>
       <r>     1.2737     0.0000   113.7500 </r>
       <r>     1.3307     0.0000   113.7500 </r>
       <r>     1.3876     0.9940   113.8066 </r>
       <r>     1.4445    52.3314   116.7861 </r>
       <r>     1.5015   177.2751   126.8793 </r>
       <r>     1.5584    32.8555   128.7500 </r>
       <r>     1.6153     0.0002   128.7500 </r>
       <r>     1.6723     0.0000   128.7500 </r>
       <r>     1.7292     0.0000   128.7500 </r>
       <r>     1.7862     0.1748   128.7600 </r>
       <r>     1.8431    33.5918   130.6725 </r>
       <r>     1.9000    52.9371   133.6865 </r>
       <r>     1.9570     7.7111   134.1256 </r>
       <r>     2.0139    45.9812   136.7435 </r>
       <r>     2.0708     0.1139   136.7500 </r>
       <r>     2.1278     0.0000   136.7500 </r>
       <r>     2.1847    17.8685   137.7674 </r>
       <r>     2.2416    93.9395   143.1158 </r>
       <r>     2.2986   111.7617   149.4791 </r>
       <r>     2.3555   131.0851   156.9425 </r>
       <r>     2.4124    92.9835   162.2365 </r>
       <r>     2.4694     0.2370   162.2500 </r>
       <r>     2.5263     0.0000   162.2500 </r>
       <r>     2.5833     0.0000   162.2500 </r>
       <r>     2.6402     0.0000   162.2500 </r>
       <r>     2.6971     0.0000   162.2500 </r>
       <r>     2.7541     0.0000   162.2500 </r>
       <r>     2.8110     0.0000   162.2500 </r>
       <r>     2.8679     0.2239   162.2627 </r>
       <r>     2.9249    24.7797   163.6736 </r>
       <r>     2.9818    50.0385   166.5226 </r>
       <r>     3.0387   145.0649   174.7819 </r>
       <r>     3.0957    64.9317   178.4788 </r>
       <r>     3.1526    71.5678   182.5536 </r>
       <r>     3.2095    91.2479   187.7488 </r>
       <r>     3.2665     9.1708   188.2709 </r>
       <r>     3.3234   110.9053   194.5854 </r>
       <r>     3.3803    38.0042   196.7492 </r>
       <r>     3.4373     0.0145   196.7500 </r>
       <r>     3.4942     0.0025   196.7501 </r>
       <r>     3.5512    49.0937   199.5453 </r>
       <r>     3.6081   149.5156   208.0581 </r>
       <r>     3.6650    12.1531   208.7500 </r>
       <r>     3.7220     0.0000   208.7500 </r>
       <r>     3.7789     0.0000   208.7500 </r>
       <r>     3.8358     0.7963   208.7953 </r>
       <r>     3.8928    53.9721   211.8683 </r>
       <r>     3.9497   101.9098   217.6706 </r>
       <r>     4.0066     1.3954   217.7500 </r>
       <r>     4.0636     0.0028   217.7502 </r>
       <r>     4.1205    29.4385   219.4263 </r>
       <r>     4.1774    85.6192   224.3010 </r>
       <r>     4.2344    43.0120   226.7499 </r>
       <r>     4.2913     0.2344   226.7633 </r>
       <r>     4.3483    92.0993   232.0070 </r>
       <r>     4.4052    14.3816   232.8258 </r>
       <r>     4.4621    75.4544   237.1218 </r>
       <r>     4.5191    97.0779   242.6490 </r>
       <r>     4.5760    34.0027   244.5850 </r>
       <r>     4.6329    11.6799   245.2500 </r>
       <r>     4.6899     0.0002   245.2500 </r>
       <r>     4.7468     0.0000   245.2500 </r>
       <r>     4.8037     0.0000   245.2500 </r>
       <r>     4.8607     0.0000   245.2500 </r>
       <r>     4.9176     0.2063   245.2617 </r>
       <r>     4.9745    48.7105   248.0351 </r>
       <r>     5.0315    70.6093   252.0553 </r>
       <r>     5.0884     3.4201   252.2500 </r>
       <r>     5.1453     0.0000   252.2500 </r>
       <r>     5.2023     0.0000   252.2500 </r>
       <r>     5.2592     0.0000   252.2500 </r>
       <r>     5.3162     0.0000   252.2500 </r>
       <r>     5.3731     0.0000   252.2500 </r>
       <r>     5.4300     0.0107   252.2506 </r>
       <r>     5.4870    35.9310   254.2964 </r>
       <r>     5.5439    16.7493   255.2500 </r>
       <r>     5.6008     0.0002   255.2500 </r>
       <r>     5.6578     0.0000   255.2500 </r>
       <r>     5.7147     0.0003   255.2500 </r>
       <r>     5.7716     6.4672   255.6182 </r>
       <r>     5.8286     6.7048   256.0000 </r>
       <r>     5.8855     0.0004   256.0000 </r>
       <r>     5.9424     0.0000   256.0000 </r>
       <r>     5.9994     0.0000   256.0000 </r>
       <r>     6.0563     0.0000   256.0000 </r>
       <r>     6.1133     0.0000   256.0000 </r>
       <r>     6.1702     0.0000   256.0000 </r>
       <r>     6.2271     0.0026   256.0001 </r>
       <r>     6.2841    16.3433   256.9307 </r>
       <r>     6.3410    11.0543   257.5600 </r>
       <r>     6.3979    24.9872   258.9827 </r>
       <r>     6.4549     0.3038   259.0000 </r>
       <r>     6.5118     0.0000   259.0000 </r>
       <r>     6.5687     0.0000   259.0000 </r>
       <r>     6.6257     0.0000   259.0000 </r>
       <r>     6.6826     0.0000   259.0000 </r>
       <r>     6.7395     0.0000   259.0000 </r>
       <r>     6.7965     5.4665   259.3112 </r>
       <r>     6.8534    30.9182   261.0716 </r>
       <r>     6.9103    42.6083   263.4975 </r>
       <r>     6.9673     0.0438   263.5000 </r>
       <r>     7.0242     0.0000   263.5000 </r>
       <r>     7.0812     0.0000   263.5000 </r>
       <r>     7.1381     0.0234   263.5013 </r>
       <r>     7.1950    84.5462   268.3150 </r>
       <r>     7.2520    63.3356   271.9210 </r>
       <r>     7.3089     1.3867   272.0000 </r>
       <r>     7.3658     0.0000   272.0000 </r>
       <r>     7.4228     0.0000   272.0000 </r>
       <r>     7.4797     0.0000   272.0000 </r>
       <r>     7.5366     0.0000   272.0000 </r>
       <r>     7.5936     0.4081   272.0232 </r>
       <r>     7.6505   161.5488   281.2211 </r>
       <r>     7.7074    60.4161   284.6609 </r>
       <r>     7.7644    49.7349   287.4926 </r>
       <r>     7.8213     0.1301   287.5000 </r>
       <r>     7.8783     0.0007   287.5000 </r>
       <r>     7.9352    38.7165   289.7044 </r>
       <r>     7.9921    66.6527   293.4993 </r>
       <r>     8.0491    23.8623   294.8579 </r>
       <r>     8.1060    82.4107   299.5500 </r>
       <r>     8.1629   143.3073   307.7093 </r>
       <r>     8.2199    13.8883   308.5000 </r>
       <r>     8.2768     2.9289   308.6668 </r>
       <r>     8.3337   105.5942   314.6788 </r>
       <r>     8.3907    10.0321   315.2500 </r>
       <r>     8.4476     0.0000   315.2500 </r>
       <r>     8.5045     0.0353   315.2520 </r>
       <r>     8.5615    76.8538   319.6277 </r>
       <r>     8.6184    28.4932   321.2500 </r>
       <r>     8.6753     0.0002   321.2500 </r>
       <r>     8.7323     0.5176   321.2795 </r>
       <r>     8.7892   119.5642   328.0869 </r>
       <r>     8.8462    64.1267   331.7380 </r>
       <r>     8.9031     0.2107   331.7500 </r>
       <r>     8.9600     0.0000   331.7500 </r>
       <r>     9.0170     0.1198   331.7568 </r>
       <r>     9.0739    12.3989   332.4628 </r>
       <r>     9.1308     0.6541   332.5000 </r>
       <r>     9.1878     0.0478   332.5027 </r>
       <r>     9.2447    29.5333   334.1842 </r>
       <r>     9.3016     7.8692   334.6323 </r>
       <r>     9.3586    23.9203   335.9942 </r>
       <r>     9.4155     0.1025   336.0000 </r>
       <r>     9.4724     0.0000   336.0000 </r>
       <r>     9.5294     0.0000   336.0000 </r>
       <r>     9.5863     0.0000   336.0000 </r>
       <r>     9.6433     0.0000   336.0000 </r>
       <r>     9.7002     0.0000   336.0000 </r>
       <r>     9.7571     0.0000   336.0000 </r>
       <r>     9.8141     0.0000   336.0000 </r>
       <r>     9.8710     0.0000   336.0000 </r>
       <r>     9.9279     0.0000   336.0000 </r>
       <r>     9.9849     0.0000   336.0000 </r>
       <r>    10.0418     0.0000   336.0000 </r>
       <r>    10.0987     0.0000   336.0000 </r>
      </set>
     </set>
    </array>
   </total>
  </dos>
 </calculation>
 <structure name="finalpos" >
  <crystal>
   <varray name="basis" >
    <v>      10.86914512      -0.00000000      -0.00000000 </v>
    <v>      -0.00000000      10.86914512       0.00000000 </v>
    <v>       0.00000000       0.00000000      10.86914512 </v>
   </varray>
   <i name="volume">   1284.06249692 </i>
   <varray name="rec_basis" >
    <v>       0.09200356       0.00000000      -0.00000000 </v>
    <v>       0.00000000       0.09200356      -0.00000000 </v>
    <v>       0.00000000      -0.00000000       0.09200356 </v>
   </varray>
  </crystal>
  <varray name="positions" >
   <v>       0.25092004       0.25000000       0.25000000 </v>
   <v>       0.75000000       0.25000000       0.25000000 </v>
   <v>       0.25000000       0.75000000       0.25000000 </v>
   <v>       0.75000000       0.75000000       0.25000000 </v>
   <v>       0.25000000       0.25000000       0.75000000 </v>
   <v>       0.75000000       0.25000000       0.75000000 </v>
   <v>       0.25000000       0.75000000       0.75000000 </v>
   <v>       0.75000000       0.75000000       0.75000000 </v>
   <v>       0.24907996       0.00000000       0.00000000 </v>
   <v>       0.75000000       0.00000000       0.00000000 </v>
   <v>       0.25000000       0.50000000       0.00000000 </v>
   <v>       0.75000000       0.50000000       0.00000000 </v>
   <v>       0.25000000       0.00000000       0.50000000 </v>
   <v>       0.75000000       0.00000000       0.50000000 </v>
   <v>       0.25000000       0.50000000       0.50000000 </v>
   <v>       0.75000000       0.50000000       0.50000000 </v>
   <v>       0.00000000       0.25000000       0.00000000 </v>
   <v>       0.50000000       0.25000000       0.00000000 </v>
   <v>       0.00000000       0.75000000       0.00000000 </v>
   <v>       0.50000000       0.75000000       0.00000000 </v>
   <v>       0.00000000       0.25000000       0.50000000 </v>
   <v>       0.50000000       0.25000000       0.50000000 </v>
   <v>       0.00000000       0.75000000       0.50000000 </v>
   <v>       0.50000000       0.75000000       0.50000000 </v>
   <v>       0.00000000       0.00000000       0.25000000 </v>
   <v>       0.50000000       0.00000000       0.25000000 </v>
   <v>       0.00000000       0.50000000       0.25000000 </v>
   <v>       0.50000000       0.50000000       0.25000000 </v>
   <v>       0.00000000       0.00000000       0.75000000 </v>
   <v>       0.50000000       0.00000000       0.75000000 </v>
   <v>       0.00000000       0.50000000       0.75000000 </v>
   <v>       0.50000000       0.50000000       0.75000000 </v>
   <v>       0.37500000       0.37500000       0.37500000 </v>
   <v>       0.87500000       0.37500000       0.37500000 </v>
   <v>       0.37500000       0.87500000       0.37500000 </v>
   <v>       0.87500000       0.87500000       0.37500000 </v>
   <v>       0.37500000       0.37500000       0.87500000 </v>
   <v>       0.87500000       0.37500000       0.87500000 </v>
   <v>       0.37500000       0.87500000       0.87500000 </v>
   <v>       0.87500000       0.87500000       0.87500000 </v>
   <v>       0.37500000       0.12500000       0.12500000 </v>
   <v>       0.87500000       0.12500000       0.12500000 </v>
   <v>       0.37500000       0.62500000       0.12500000 </v>
   <v>       0.87500000       0.62500000       0.12500000 </v>
   <v>       0.37500000       0.12500000       0.62500000 </v>
   <v>       0.87500000       0.12500000       0.62500000 </v>
   <v>       0.37500000       0.62500000       0.62500000 </v>
   <v>       0.87500000       0.62500000       0.62500000 </v>
   <v>       0.12500000       0.37500000       0.12500000 </v>
   <v>       0.62500000       0.37500000       0.12500000 </v>
   <v>       0.12500000       0.87500000       0.12500000 </v>
   <v>       0.62500000       0.87500000       0.12500000 </v>
   <v>       0.12500000       0.37500000       0.62500000 </v>
   <v>       0.62500000       0.37500000       0.62500000 </v>
   <v>       0.12500000       0.87500000       0.62500000 </v>
   <v>       0.62500000       0.87500000       0.62500000 </v>
   <v>       0.12500000       0.12500000       0.37500000 </v>
   <v>       0.62500000       0.12500000       0.37500000 </v>
   <v>       0.12500000       0.62500000       0.37500000 </v>
   <v>       0.62500000       0.62500000       0.37500000 </v>
   <v>       0.12500000       0.12500000       0.87500000 </v>
   <v>       0.62500000       0.12500000       0.87500000 </v>
   <v>       0.12500000       0.62500000       0.87500000 </v>
   <v>       0.62500000       0.62500000       0.87500000 </v>
  </varray>
 </structure>
</modeling>
