  64  64   0   0
  0.2197554E+02  0.1120400E-08  0.1120400E-08  0.1120400E-08  0.5000000E-15
  1.000000000000000E-004
  CAR 
 unknown system                          
     11.04154694    -22.84955982  301     -0.56615712      1.00000000
    -22.850  0.0000E+00  0.0000E+00
    -22.737  0.0000E+00  0.0000E+00
    -22.624  0.0000E+00  0.0000E+00
    -22.511  0.0000E+00  0.0000E+00
    -22.398  0.0000E+00  0.0000E+00
    -22.285  0.0000E+00  0.0000E+00
    -22.172  0.0000E+00  0.0000E+00
    -22.059  0.0000E+00  0.0000E+00
    -21.946  0.0000E+00  0.0000E+00
    -21.833  0.0000E+00  0.0000E+00
    -21.720  0.0000E+00  0.0000E+00
    -21.607  0.0000E+00  0.0000E+00
    -21.494  0.0000E+00  0.0000E+00
    -21.381  0.7184E-05  0.8116E-06
    -21.268  0.1306E+04  0.1476E+03
    -21.155  0.3932E+03  0.1920E+03
    -21.042  0.0000E+00  0.1920E+03
    -20.929  0.0000E+00  0.1920E+03
    -20.816  0.0000E+00  0.1920E+03
    -20.703  0.0000E+00  0.1920E+03
    -20.590  0.0000E+00  0.1920E+03
    -20.477  0.0000E+00  0.1920E+03
    -20.364  0.0000E+00  0.1920E+03
    -20.251  0.0000E+00  0.1920E+03
    -20.138  0.0000E+00  0.1920E+03
    -20.025  0.0000E+00  0.1920E+03
    -19.912  0.0000E+00  0.1920E+03
    -19.799  0.0000E+00  0.1920E+03
    -19.686  0.0000E+00  0.1920E+03
    -19.573  0.0000E+00  0.1920E+03
    -19.460  0.0000E+00  0.1920E+03
    -19.347  0.0000E+00  0.1920E+03
    -19.235  0.0000E+00  0.1920E+03
    -19.122  0.0000E+00  0.1920E+03
    -19.009  0.0000E+00  0.1920E+03
    -18.896  0.0000E+00  0.1920E+03
    -18.783  0.0000E+00  0.1920E+03
    -18.670  0.0000E+00  0.1920E+03
    -18.557  0.0000E+00  0.1920E+03
    -18.444  0.0000E+00  0.1920E+03
    -18.331  0.0000E+00  0.1920E+03
    -18.218  0.0000E+00  0.1920E+03
    -18.105  0.0000E+00  0.1920E+03
    -17.992  0.0000E+00  0.1920E+03
    -17.879  0.0000E+00  0.1920E+03
    -17.766  0.0000E+00  0.1920E+03
    -17.653  0.0000E+00  0.1920E+03
    -17.540  0.0000E+00  0.1920E+03
    -17.427  0.0000E+00  0.1920E+03
    -17.314  0.0000E+00  0.1920E+03
    -17.201  0.0000E+00  0.1920E+03
    -17.088  0.0000E+00  0.1920E+03
    -16.975  0.0000E+00  0.1920E+03
    -16.862  0.0000E+00  0.1920E+03
    -16.749  0.0000E+00  0.1920E+03
    -16.636  0.0000E+00  0.1920E+03
    -16.523  0.0000E+00  0.1920E+03
    -16.410  0.0000E+00  0.1920E+03
    -16.297  0.0000E+00  0.1920E+03
    -16.184  0.0000E+00  0.1920E+03
    -16.071  0.0000E+00  0.1920E+03
    -15.958  0.0000E+00  0.1920E+03
    -15.845  0.0000E+00  0.1920E+03
    -15.732  0.0000E+00  0.1920E+03
    -15.619  0.0000E+00  0.1920E+03
    -15.506  0.0000E+00  0.1920E+03
    -15.394  0.0000E+00  0.1920E+03
    -15.281  0.0000E+00  0.1920E+03
    -15.168  0.0000E+00  0.1920E+03
    -15.055  0.0000E+00  0.1920E+03
    -14.942  0.0000E+00  0.1920E+03
    -14.829  0.0000E+00  0.1920E+03
    -14.716  0.0000E+00  0.1920E+03
    -14.603  0.0000E+00  0.1920E+03
    -14.490  0.0000E+00  0.1920E+03
    -14.377  0.0000E+00  0.1920E+03
    -14.264  0.0000E+00  0.1920E+03
    -14.151  0.0000E+00  0.1920E+03
    -14.038  0.0000E+00  0.1920E+03
    -13.925  0.0000E+00  0.1920E+03
    -13.812  0.0000E+00  0.1920E+03
    -13.699  0.0000E+00  0.1920E+03
    -13.586  0.0000E+00  0.1920E+03
    -13.473  0.4914E-15  0.1920E+03
    -13.360  0.9850E+00  0.1921E+03
    -13.247  0.1835E+02  0.1942E+03
    -13.134  0.4862E+02  0.1997E+03
    -13.021  0.1233E+03  0.2136E+03
    -12.908  0.3685E+03  0.2552E+03
    -12.795  0.6782E+01  0.2560E+03
    -12.682  0.0000E+00  0.2560E+03
    -12.569  0.0000E+00  0.2560E+03
    -12.456  0.0000E+00  0.2560E+03
    -12.343  0.0000E+00  0.2560E+03
    -12.230  0.0000E+00  0.2560E+03
    -12.117  0.0000E+00  0.2560E+03
    -12.004  0.0000E+00  0.2560E+03
    -11.891  0.0000E+00  0.2560E+03
    -11.778  0.0000E+00  0.2560E+03
    -11.665  0.0000E+00  0.2560E+03
    -11.553  0.0000E+00  0.2560E+03
    -11.440  0.0000E+00  0.2560E+03
    -11.327  0.0000E+00  0.2560E+03
    -11.214  0.0000E+00  0.2560E+03
    -11.101  0.0000E+00  0.2560E+03
    -10.988  0.0000E+00  0.2560E+03
    -10.875  0.0000E+00  0.2560E+03
    -10.762  0.0000E+00  0.2560E+03
    -10.649  0.0000E+00  0.2560E+03
    -10.536  0.0000E+00  0.2560E+03
    -10.423  0.0000E+00  0.2560E+03
    -10.310  0.0000E+00  0.2560E+03
    -10.197  0.0000E+00  0.2560E+03
    -10.084  0.0000E+00  0.2560E+03
     -9.971  0.0000E+00  0.2560E+03
     -9.858  0.0000E+00  0.2560E+03
     -9.745  0.0000E+00  0.2560E+03
     -9.632  0.0000E+00  0.2560E+03
     -9.519  0.0000E+00  0.2560E+03
     -9.406  0.0000E+00  0.2560E+03
     -9.293  0.0000E+00  0.2560E+03
     -9.180  0.0000E+00  0.2560E+03
     -9.067  0.0000E+00  0.2560E+03
     -8.954  0.0000E+00  0.2560E+03
     -8.841  0.0000E+00  0.2560E+03
     -8.728  0.0000E+00  0.2560E+03
     -8.615  0.0000E+00  0.2560E+03
     -8.502  0.0000E+00  0.2560E+03
     -8.389  0.0000E+00  0.2560E+03
     -8.276  0.0000E+00  0.2560E+03
     -8.163  0.0000E+00  0.2560E+03
     -8.050  0.0000E+00  0.2560E+03
     -7.937  0.0000E+00  0.2560E+03
     -7.825  0.0000E+00  0.2560E+03
     -7.712  0.0000E+00  0.2560E+03
     -7.599  0.0000E+00  0.2560E+03
     -7.486  0.0000E+00  0.2560E+03
     -7.373  0.0000E+00  0.2560E+03
     -7.260  0.0000E+00  0.2560E+03
     -7.147  0.0000E+00  0.2560E+03
     -7.034  0.0000E+00  0.2560E+03
     -6.921  0.0000E+00  0.2560E+03
     -6.808  0.0000E+00  0.2560E+03
     -6.695  0.0000E+00  0.2560E+03
     -6.582  0.0000E+00  0.2560E+03
     -6.469  0.0000E+00  0.2560E+03
     -6.356  0.0000E+00  0.2560E+03
     -6.243  0.0000E+00  0.2560E+03
     -6.130  0.0000E+00  0.2560E+03
     -6.017  0.0000E+00  0.2560E+03
     -5.904  0.0000E+00  0.2560E+03
     -5.791  0.0000E+00  0.2560E+03
     -5.678  0.0000E+00  0.2560E+03
     -5.565  0.0000E+00  0.2560E+03
     -5.452  0.0000E+00  0.2560E+03
     -5.339  0.0000E+00  0.2560E+03
     -5.226  0.0000E+00  0.2560E+03
     -5.113  0.0000E+00  0.2560E+03
     -5.000  0.0000E+00  0.2560E+03
     -4.887  0.0000E+00  0.2560E+03
     -4.774  0.0000E+00  0.2560E+03
     -4.661  0.0000E+00  0.2560E+03
     -4.548  0.0000E+00  0.2560E+03
     -4.435  0.0000E+00  0.2560E+03
     -4.322  0.0000E+00  0.2560E+03
     -4.209  0.0000E+00  0.2560E+03
     -4.096  0.0000E+00  0.2560E+03
     -3.984  0.0000E+00  0.2560E+03
     -3.871  0.0000E+00  0.2560E+03
     -3.758  0.0000E+00  0.2560E+03
     -3.645  0.0000E+00  0.2560E+03
     -3.532  0.0000E+00  0.2560E+03
     -3.419  0.0000E+00  0.2560E+03
     -3.306  0.0000E+00  0.2560E+03
     -3.193  0.0000E+00  0.2560E+03
     -3.080  0.0000E+00  0.2560E+03
     -2.967  0.0000E+00  0.2560E+03
     -2.854  0.0000E+00  0.2560E+03
     -2.741  0.1725E-01  0.2560E+03
     -2.628  0.8835E+01  0.2570E+03
     -2.515  0.1228E+02  0.2584E+03
     -2.402  0.8859E+02  0.2684E+03
     -2.289  0.7943E+02  0.2774E+03
     -2.176  0.1601E+03  0.2955E+03
     -2.063  0.7786E+02  0.3042E+03
     -1.950  0.5380E+02  0.3103E+03
     -1.837  0.5228E+02  0.3162E+03
     -1.724  0.8424E+02  0.3257E+03
     -1.611  0.2276E-11  0.3258E+03
     -1.498  0.4105E+02  0.3304E+03
     -1.385  0.2154E+03  0.3547E+03
     -1.272  0.3494E+02  0.3587E+03
     -1.159  0.2311E+03  0.3848E+03
     -1.046  0.1559E+03  0.4024E+03
     -0.933  0.2367E+03  0.4291E+03
     -0.820  0.8032E+02  0.4382E+03
     -0.707  0.7974E+02  0.4472E+03
     -0.594  0.6986E+01  0.4480E+03
     -0.481  0.0000E+00  0.4480E+03
     -0.368  0.0000E+00  0.4480E+03
     -0.255  0.0000E+00  0.4480E+03
     -0.143  0.0000E+00  0.4480E+03
     -0.030  0.0000E+00  0.4480E+03
      0.083  0.0000E+00  0.4480E+03
      0.196  0.0000E+00  0.4480E+03
      0.309  0.0000E+00  0.4480E+03
      0.422  0.0000E+00  0.4480E+03
      0.535  0.0000E+00  0.4480E+03
      0.648  0.0000E+00  0.4480E+03
      0.761  0.0000E+00  0.4480E+03
      0.874  0.0000E+00  0.4480E+03
      0.987  0.0000E+00  0.4480E+03
      1.100  0.0000E+00  0.4480E+03
      1.213  0.0000E+00  0.4480E+03
      1.326  0.0000E+00  0.4480E+03
      1.439  0.0000E+00  0.4480E+03
      1.552  0.0000E+00  0.4480E+03
      1.665  0.0000E+00  0.4480E+03
      1.778  0.0000E+00  0.4480E+03
      1.891  0.0000E+00  0.4480E+03
      2.004  0.0000E+00  0.4480E+03
      2.117  0.0000E+00  0.4480E+03
      2.230  0.0000E+00  0.4480E+03
      2.343  0.0000E+00  0.4480E+03
      2.456  0.0000E+00  0.4480E+03
      2.569  0.0000E+00  0.4480E+03
      2.682  0.0000E+00  0.4480E+03
      2.795  0.0000E+00  0.4480E+03
      2.908  0.0000E+00  0.4480E+03
      3.021  0.0000E+00  0.4480E+03
      3.134  0.0000E+00  0.4480E+03
      3.247  0.0000E+00  0.4480E+03
      3.360  0.0000E+00  0.4480E+03
      3.473  0.0000E+00  0.4480E+03
      3.586  0.0000E+00  0.4480E+03
      3.698  0.0000E+00  0.4480E+03
      3.811  0.0000E+00  0.4480E+03
      3.924  0.0000E+00  0.4480E+03
      4.037  0.0000E+00  0.4480E+03
      4.150  0.0000E+00  0.4480E+03
      4.263  0.5834E-07  0.4480E+03
      4.376  0.2201E+01  0.4482E+03
      4.489  0.1205E-01  0.4482E+03
      4.602  0.0000E+00  0.4482E+03
      4.715  0.0000E+00  0.4482E+03
      4.828  0.0000E+00  0.4482E+03
      4.941  0.9799E-07  0.4483E+03
      5.054  0.1310E+02  0.4497E+03
      5.167  0.1763E+00  0.4498E+03
      5.280  0.0000E+00  0.4498E+03
      5.393  0.0000E+00  0.4498E+03
      5.506  0.3017E+00  0.4498E+03
      5.619  0.2625E+02  0.4527E+03
      5.732  0.2424E-09  0.4528E+03
      5.845  0.1441E+02  0.4544E+03
      5.958  0.3291E+01  0.4548E+03
      6.071  0.0000E+00  0.4548E+03
      6.184  0.0000E+00  0.4548E+03
      6.297  0.9989E-05  0.4548E+03
      6.410  0.1331E+02  0.4563E+03
      6.523  0.8823E+01  0.4572E+03
      6.636  0.2172E+02  0.4597E+03
      6.749  0.8342E+02  0.4691E+03
      6.862  0.5533E+02  0.4754E+03
      6.975  0.1340E+02  0.4769E+03
      7.088  0.5374E+01  0.4775E+03
      7.201  0.2182E+01  0.4777E+03
      7.314  0.4467E+01  0.4783E+03
      7.426  0.7796E+02  0.4871E+03
      7.539  0.1586E+03  0.5050E+03
      7.652  0.1572E+02  0.5068E+03
      7.765  0.2655E+02  0.5097E+03
      7.878  0.7680E-02  0.5098E+03
      7.991  0.5310E+02  0.5157E+03
      8.104  0.6941E-04  0.5158E+03
      8.217  0.1330E+02  0.5173E+03
      8.330  0.9258E+02  0.5277E+03
      8.443  0.3316E+00  0.5278E+03
      8.556  0.1180E+03  0.5411E+03
      8.669  0.4132E+02  0.5457E+03
      8.782  0.1085E-08  0.5458E+03
      8.895  0.5840E+02  0.5523E+03
      9.008  0.1316E+03  0.5672E+03
      9.121  0.2022E+02  0.5695E+03
      9.234  0.9018E+01  0.5705E+03
      9.347  0.3524E+02  0.5745E+03
      9.460  0.1585E+00  0.5745E+03
      9.573  0.1312E+02  0.5760E+03
      9.686  0.0000E+00  0.5760E+03
      9.799  0.0000E+00  0.5760E+03
      9.912  0.0000E+00  0.5760E+03
     10.025  0.0000E+00  0.5760E+03
     10.138  0.0000E+00  0.5760E+03
     10.251  0.0000E+00  0.5760E+03
     10.364  0.0000E+00  0.5760E+03
     10.477  0.0000E+00  0.5760E+03
     10.590  0.0000E+00  0.5760E+03
     10.703  0.0000E+00  0.5760E+03
     10.816  0.0000E+00  0.5760E+03
     10.929  0.0000E+00  0.5760E+03
     11.042  0.0000E+00  0.5760E+03
