       N       E                     dE             d eps       ncg     rms          rms(c)
DAV:   1     0.431655311166E+04    0.43166E+04   -0.17183E+05  3456   0.125E+03
DAV:   2     0.363200792696E+03   -0.39534E+04   -0.37631E+04  3840   0.367E+02
DAV:   3    -0.206235250485E+03   -0.56944E+03   -0.56518E+03  4192   0.155E+02
DAV:   4    -0.228193996846E+03   -0.21959E+02   -0.21857E+02  4160   0.330E+01
DAV:   5    -0.229003608137E+03   -0.80961E+00   -0.80821E+00  4256   0.616E+00    0.106E+01
DAV:   6    -0.224137706766E+03    0.48659E+01   -0.94820E+00  4288   0.529E+00    0.776E+00
DAV:   7    -0.223776687153E+03    0.36102E+00   -0.20670E+00  4736   0.235E+00    0.533E+00
DAV:   8    -0.223901935799E+03   -0.12525E+00   -0.26655E-01  3968   0.124E+00    0.142E+00
DAV:   9    -0.223896418764E+03    0.55170E-02   -0.11495E-02  4320   0.263E-01    0.602E-01
DAV:  10    -0.223900704922E+03   -0.42862E-02   -0.18190E-02  4000   0.227E-01    0.286E-01
DAV:  11    -0.223899984203E+03    0.72072E-03   -0.15717E-03  4416   0.811E-02    0.869E-02
DAV:  12    -0.223899944512E+03    0.39691E-04   -0.15422E-04  4384   0.232E-02    0.134E-02
DAV:  13    -0.223899945915E+03   -0.14031E-05   -0.19273E-05  4384   0.738E-03    0.377E-03
DAV:  14    -0.223899947000E+03   -0.10853E-05   -0.19554E-06  4128   0.331E-03    0.937E-03
DAV:  15    -0.223899948486E+03   -0.14856E-05   -0.54857E-07  4096   0.175E-03    0.292E-03
DAV:  16    -0.223899948955E+03   -0.46923E-06   -0.13369E-07  4192   0.836E-04    0.450E-04
DAV:  17    -0.223899948895E+03    0.60252E-07   -0.63355E-09  2784   0.630E-04    0.184E-04
DAV:  18    -0.223899948996E+03   -0.10061E-06   -0.95914E-09  2752   0.417E-04    0.428E-04
DAV:  19    -0.223899948978E+03    0.17477E-07   -0.61355E-09  2304   0.283E-04    0.343E-04
DAV:  20    -0.223899948949E+03    0.28733E-07   -0.21169E-09  2368   0.310E-04    0.264E-04
DAV:  21    -0.223899948899E+03    0.50779E-07   -0.19360E-09  2240   0.156E-04    0.885E-05
DAV:  22    -0.223899948898E+03    0.75670E-09   -0.10299E-09  2304   0.127E-04
   1 F= -.22389995E+03 E0= -.22389995E+03  d E =-.113125E-12
