<?xml version="1.0" encoding="ISO-8859-1"?>
<modeling>
 <generator>
  <i name="program" type="string">vasp </i>
  <i name="version" type="string">6.3.2  </i>
  <i name="subversion" type="string">27Jun22 (build Oct 14 2022 12:13:54) complex                          parallel </i>
  <i name="platform" type="string">LinuxIFC </i>
  <i name="date" type="string">2025 08 28 </i>
  <i name="time" type="string">22:07:24 </i>
 </generator>
 <incar>
  <i type="string" name="PREC">Accurate</i>
  <i type="int" name="IALGO">    38</i>
  <i type="logical" name="ADDGRID"> T  </i>
  <i type="int" name="NELMIN">     5</i>
  <i type="int" name="IBRION">    -1</i>
  <i name="EDIFF">      0.00000001</i>
  <i name="ENCUT">    341.21360000</i>
  <i type="logical" name="LREAL"> F  </i>
  <i type="int" name="ISMEAR">     0</i>
  <i name="SIGMA">      0.02000000</i>
  <i type="logical" name="LWAVE"> F  </i>
  <i type="logical" name="LCHARG"> F  </i>
  <i type="string" name="GGA">PS</i>
 </incar>
 <primitive_cell>
  <structure name="primitive_cell" >
   <crystal>
    <varray name="basis" >
     <v>      11.20400236       0.00000000       0.00000000 </v>
     <v>       0.00000000      11.20400236       0.00000000 </v>
     <v>       0.00000000       0.00000000      11.20400236 </v>
    </varray>
    <i name="volume">   1406.43470641 </i>
    <varray name="rec_basis" >
     <v>       0.08925382       0.00000000       0.00000000 </v>
     <v>       0.00000000       0.08925382       0.00000000 </v>
     <v>       0.00000000       0.00000000       0.08925382 </v>
    </varray>
   </crystal>
   <varray name="positions" >
    <v>       0.00267761       0.00000000       0.00000000 </v>
    <v>       0.25000000       0.25000000       0.00000000 </v>
    <v>       0.25000000       0.00000000       0.25000000 </v>
    <v>       0.00000000       0.25000000       0.25000000 </v>
    <v>       0.00000000       0.00000000       0.50000000 </v>
    <v>       0.25000000       0.25000000       0.50000000 </v>
    <v>       0.25000000       0.00000000       0.75000000 </v>
    <v>       0.00000000       0.25000000       0.75000000 </v>
    <v>       0.00000000       0.50000000       0.00000000 </v>
    <v>       0.25000000       0.75000000       0.00000000 </v>
    <v>       0.25000000       0.50000000       0.25000000 </v>
    <v>       0.00000000       0.75000000       0.25000000 </v>
    <v>       0.00000000       0.50000000       0.50000000 </v>
    <v>       0.25000000       0.75000000       0.50000000 </v>
    <v>       0.25000000       0.50000000       0.75000000 </v>
    <v>       0.00000000       0.75000000       0.75000000 </v>
    <v>       0.50000000       0.00000000       0.00000000 </v>
    <v>       0.75000000       0.25000000       0.00000000 </v>
    <v>       0.75000000       0.00000000       0.25000000 </v>
    <v>       0.50000000       0.25000000       0.25000000 </v>
    <v>       0.50000000       0.00000000       0.50000000 </v>
    <v>       0.75000000       0.25000000       0.50000000 </v>
    <v>       0.75000000       0.00000000       0.75000000 </v>
    <v>       0.50000000       0.25000000       0.75000000 </v>
    <v>       0.50000000       0.50000000       0.00000000 </v>
    <v>       0.75000000       0.75000000       0.00000000 </v>
    <v>       0.75000000       0.50000000       0.25000000 </v>
    <v>       0.50000000       0.75000000       0.25000000 </v>
    <v>       0.50000000       0.50000000       0.50000000 </v>
    <v>       0.75000000       0.75000000       0.50000000 </v>
    <v>       0.75000000       0.50000000       0.75000000 </v>
    <v>       0.50000000       0.75000000       0.75000000 </v>
    <v>       0.25000000       0.25000000       0.25000000 </v>
    <v>       0.00000000       0.00000000       0.25000000 </v>
    <v>       0.00000000       0.25000000       0.00000000 </v>
    <v>       0.24732239       0.00000000       0.00000000 </v>
    <v>       0.25000000       0.25000000       0.75000000 </v>
    <v>       0.00000000       0.00000000       0.75000000 </v>
    <v>       0.00000000       0.25000000       0.50000000 </v>
    <v>       0.25000000       0.00000000       0.50000000 </v>
    <v>       0.25000000       0.75000000       0.25000000 </v>
    <v>       0.00000000       0.50000000       0.25000000 </v>
    <v>       0.00000000       0.75000000       0.00000000 </v>
    <v>       0.25000000       0.50000000       0.00000000 </v>
    <v>       0.25000000       0.75000000       0.75000000 </v>
    <v>       0.00000000       0.50000000       0.75000000 </v>
    <v>       0.00000000       0.75000000       0.50000000 </v>
    <v>       0.25000000       0.50000000       0.50000000 </v>
    <v>       0.75000000       0.25000000       0.25000000 </v>
    <v>       0.50000000       0.00000000       0.25000000 </v>
    <v>       0.50000000       0.25000000       0.00000000 </v>
    <v>       0.75000000       0.00000000       0.00000000 </v>
    <v>       0.75000000       0.25000000       0.75000000 </v>
    <v>       0.50000000       0.00000000       0.75000000 </v>
    <v>       0.50000000       0.25000000       0.50000000 </v>
    <v>       0.75000000       0.00000000       0.50000000 </v>
    <v>       0.75000000       0.75000000       0.25000000 </v>
    <v>       0.50000000       0.50000000       0.25000000 </v>
    <v>       0.50000000       0.75000000       0.00000000 </v>
    <v>       0.75000000       0.50000000       0.00000000 </v>
    <v>       0.75000000       0.75000000       0.75000000 </v>
    <v>       0.50000000       0.50000000       0.75000000 </v>
    <v>       0.50000000       0.75000000       0.50000000 </v>
    <v>       0.75000000       0.50000000       0.50000000 </v>
   </varray>
  </structure>
  <varray name="primitive_index" >
   <v type="int" >        1 </v>
   <v type="int" >        2 </v>
   <v type="int" >        3 </v>
   <v type="int" >        4 </v>
   <v type="int" >        5 </v>
   <v type="int" >        6 </v>
   <v type="int" >        7 </v>
   <v type="int" >        8 </v>
   <v type="int" >        9 </v>
   <v type="int" >       10 </v>
   <v type="int" >       11 </v>
   <v type="int" >       12 </v>
   <v type="int" >       13 </v>
   <v type="int" >       14 </v>
   <v type="int" >       15 </v>
   <v type="int" >       16 </v>
   <v type="int" >       17 </v>
   <v type="int" >       18 </v>
   <v type="int" >       19 </v>
   <v type="int" >       20 </v>
   <v type="int" >       21 </v>
   <v type="int" >       22 </v>
   <v type="int" >       23 </v>
   <v type="int" >       24 </v>
   <v type="int" >       25 </v>
   <v type="int" >       26 </v>
   <v type="int" >       27 </v>
   <v type="int" >       28 </v>
   <v type="int" >       29 </v>
   <v type="int" >       30 </v>
   <v type="int" >       31 </v>
   <v type="int" >       32 </v>
   <v type="int" >       33 </v>
   <v type="int" >       34 </v>
   <v type="int" >       35 </v>
   <v type="int" >       36 </v>
   <v type="int" >       37 </v>
   <v type="int" >       38 </v>
   <v type="int" >       39 </v>
   <v type="int" >       40 </v>
   <v type="int" >       41 </v>
   <v type="int" >       42 </v>
   <v type="int" >       43 </v>
   <v type="int" >       44 </v>
   <v type="int" >       45 </v>
   <v type="int" >       46 </v>
   <v type="int" >       47 </v>
   <v type="int" >       48 </v>
   <v type="int" >       49 </v>
   <v type="int" >       50 </v>
   <v type="int" >       51 </v>
   <v type="int" >       52 </v>
   <v type="int" >       53 </v>
   <v type="int" >       54 </v>
   <v type="int" >       55 </v>
   <v type="int" >       56 </v>
   <v type="int" >       57 </v>
   <v type="int" >       58 </v>
   <v type="int" >       59 </v>
   <v type="int" >       60 </v>
   <v type="int" >       61 </v>
   <v type="int" >       62 </v>
   <v type="int" >       63 </v>
   <v type="int" >       64 </v>
  </varray>
 </primitive_cell>
 <kpoints>
  <generation param="Gamma">
   <v type="int" name="divisions">       2        2        2 </v>
   <v name="usershift">      0.00000000       0.00000000       0.00000000 </v>
   <v name="genvec1">      0.50000000       0.00000000       0.00000000 </v>
   <v name="genvec2">      0.00000000       0.50000000       0.00000000 </v>
   <v name="genvec3">      0.00000000       0.00000000       0.50000000 </v>
   <v name="shift">      0.00000000       0.00000000       0.00000000 </v>
  </generation>
  <varray name="kpointlist" >
   <v>       0.00000000       0.00000000       0.00000000 </v>
   <v>       0.50000000       0.00000000       0.00000000 </v>
   <v>       0.00000000       0.50000000       0.00000000 </v>
   <v>       0.50000000       0.50000000       0.00000000 </v>
   <v>       0.00000000       0.50000000       0.50000000 </v>
   <v>       0.50000000       0.50000000       0.50000000 </v>
  </varray>
  <varray name="weights" >
   <v>       0.12500000 </v>
   <v>       0.12500000 </v>
   <v>       0.25000000 </v>
   <v>       0.25000000 </v>
   <v>       0.12500000 </v>
   <v>       0.12500000 </v>
  </varray>
 </kpoints>
 <parameters>
  <separator name="general" >
   <i type="string" name="SYSTEM">unknown system</i>
   <i type="logical" name="LCOMPAT"> F  </i>
  </separator>
  <separator name="electronic" >
   <i type="string" name="PREC">accura</i>
   <i name="ENMAX">    341.21360000</i>
   <i name="ENAUG">    368.05600000</i>
   <i name="EDIFF">      0.00000001</i>
   <i type="int" name="IALGO">    38</i>
   <i type="int" name="IWAVPR">    10</i>
   <i type="int" name="NBANDS">   288</i>
   <i type="int" name="NBANDSLOW">    -1</i>
   <i type="int" name="NBANDSHIGH">    -1</i>
   <i name="NELECT">    448.00000000</i>
   <i type="int" name="TURBO">     0</i>
   <i type="int" name="IRESTART">     0</i>
   <i type="int" name="NREBOOT">     0</i>
   <i type="int" name="NMIN">     0</i>
   <i name="EREF">      0.00000000</i>
   <separator name="electronic smearing" >
    <i type="int" name="ISMEAR">     0</i>
    <i name="SIGMA">      0.02000000</i>
    <i name="KSPACING">      0.50000000</i>
    <i type="logical" name="KGAMMA"> T  </i>
    <i type="logical" name="KBLOWUP"> T  </i>
   </separator>
   <separator name="electronic projectors" >
    <i type="logical" name="LREAL"> F  </i>
    <v name="ROPT">      0.00000000      0.00000000</v>
    <i type="int" name="LMAXPAW">  -100</i>
    <i type="int" name="LMAXMIX">     2</i>
    <i type="logical" name="NLSPLINE"> F  </i>
   </separator>
   <separator name="electronic startup" >
    <i type="int" name="ISTART">     0</i>
    <i type="int" name="ICHARG">     2</i>
    <i type="int" name="INIWAV">     1</i>
   </separator>
   <separator name="electronic spin" >
    <i type="int" name="ISPIN">     1</i>
    <i type="logical" name="LNONCOLLINEAR"> F  </i>
    <v name="MAGMOM">      1.00000000      1.00000000      1.00000000      1.00000000      1.00000000      1.00000000      1.00000000      1.00000000      1.00000000      1.00000000      1.00000000      1.00000000      1.00000000      1.00000000      1.00000000      1.00000000      1.00000000      1.00000000      1.00000000      1.00000000
      1.00000000      1.00000000      1.00000000      1.00000000      1.00000000      1.00000000      1.00000000      1.00000000      1.00000000      1.00000000      1.00000000      1.00000000      1.00000000      1.00000000      1.00000000      1.00000000      1.00000000      1.00000000      1.00000000      1.00000000
      1.00000000      1.00000000      1.00000000      1.00000000      1.00000000      1.00000000      1.00000000      1.00000000      1.00000000      1.00000000      1.00000000      1.00000000      1.00000000      1.00000000      1.00000000      1.00000000      1.00000000      1.00000000      1.00000000      1.00000000
      1.00000000      1.00000000      1.00000000      1.00000000</v>
    <i name="NUPDOWN">     -1.00000000</i>
    <i type="logical" name="LSORBIT"> F  </i>
    <v name="SAXIS">      0.00000000      0.00000000      1.00000000</v>
    <i type="logical" name="LSPIRAL"> F  </i>
    <v name="QSPIRAL">      0.00000000      0.00000000      0.00000000</v>
    <i type="logical" name="LZEROZ"> F  </i>
   </separator>
   <separator name="electronic exchange-correlation" >
    <i type="logical" name="LASPH"> F  </i>
    <i type="logical" name="LMETAGGA"> F  </i>
   </separator>
   <separator name="electronic convergence" >
    <i type="int" name="NELM">    60</i>
    <i type="int" name="NELMDL">    -5</i>
    <i type="int" name="NELMIN">     5</i>
    <i name="ENINI">    341.21360000</i>
    <separator name="electronic convergence detail" >
     <i type="logical" name="LDIAG"> T  </i>
     <i type="logical" name="LSUBROT"> F  </i>
     <i name="WEIMIN">      0.00000000</i>
     <i name="EBREAK">      0.00000000</i>
     <i name="DEPER">      0.30000000</i>
     <i type="int" name="NRMM">     4</i>
     <i name="TIME">      0.40000000</i>
    </separator>
   </separator>
   <separator name="electronic mixer" >
    <i name="AMIX">      0.40000000</i>
    <i name="BMIX">      1.00000000</i>
    <i name="AMIN">      0.10000000</i>
    <i name="AMIX_MAG">      1.60000000</i>
    <i name="BMIX_MAG">      1.00000000</i>
    <separator name="electronic mixer details" >
     <i type="int" name="IMIX">     4</i>
     <i type="logical" name="MIXFIRST"> F  </i>
     <i type="int" name="MAXMIX">   -45</i>
     <i name="WC">    100.00000000</i>
     <i type="int" name="INIMIX">     1</i>
     <i type="int" name="MIXPRE">     1</i>
     <i type="int" name="MREMOVE">     5</i>
    </separator>
   </separator>
   <separator name="electronic dipolcorrection" >
    <i type="logical" name="LDIPOL"> F  </i>
    <i type="logical" name="LMONO"> F  </i>
    <i type="int" name="IDIPOL">     0</i>
    <i name="EPSILON">      1.00000000</i>
    <v name="DIPOL">   -100.00000000   -100.00000000   -100.00000000</v>
    <i name="EFIELD">      0.00000000</i>
   </separator>
  </separator>
  <separator name="grids" >
   <i type="int" name="NGX">    70</i>
   <i type="int" name="NGY">    70</i>
   <i type="int" name="NGZ">    70</i>
   <i type="int" name="NGXF">   140</i>
   <i type="int" name="NGYF">   140</i>
   <i type="int" name="NGZF">   140</i>
   <i type="logical" name="ADDGRID"> T  </i>
  </separator>
  <separator name="ionic" >
   <i type="int" name="NSW">     0</i>
   <i type="int" name="IBRION">    -1</i>
   <i type="int" name="MDALGO">     0</i>
   <i type="int" name="ISIF">     2</i>
   <i name="PSTRESS">      0.00000000</i>
   <i name="EDIFFG">      0.00000010</i>
   <i type="int" name="NFREE">     0</i>
   <i name="POTIM">      0.50000000</i>
   <i name="SMASS">     -3.00000000</i>
   <i name="SCALEE">      1.00000000</i>
  </separator>
  <separator name="ionic md" >
   <i name="TEBEG">      0.00010000</i>
   <i name="TEEND">      0.00010000</i>
   <i type="int" name="NBLOCK">     1</i>
   <i type="int" name="KBLOCK">     1</i>
   <i type="int" name="NPACO">   256</i>
   <i name="APACO">     10.00000000</i>
  </separator>
  <separator name="symmetry" >
   <i type="int" name="ISYM">     2</i>
   <i name="SYMPREC">      0.00001000</i>
  </separator>
  <separator name="dos" >
   <i type="int" name="LORBIT">     0</i>
   <v name="RWIGS">     -1.00000000     -1.00000000</v>
   <i type="int" name="NEDOS">   301</i>
   <i name="EMIN">     10.00000000</i>
   <i name="EMAX">    -10.00000000</i>
   <i name="EFERMI">      0.00000000</i>
  </separator>
  <separator name="writing" >
   <i type="int" name="NWRITE">     2</i>
   <i type="logical" name="LWAVE"> F  </i>
   <i type="logical" name="LDOWNSAMPLE"> F  </i>
   <i type="logical" name="LCHARG"> F  </i>
   <i type="logical" name="LPARD"> F  </i>
   <i type="logical" name="LVTOT"> F  </i>
   <i type="logical" name="LVHAR"> F  </i>
   <i type="logical" name="LELF"> F  </i>
   <i type="logical" name="LOPTICS"> F  </i>
   <v name="STM">      0.00000000      0.00000000      0.00000000      0.00000000      0.00000000      0.00000000      0.00000000</v>
  </separator>
  <separator name="performance" >
   <i type="int" name="NPAR">    32</i>
   <i type="int" name="NSIM">     4</i>
   <i type="int" name="NBLK">    -1</i>
   <i type="logical" name="LPLANE"> T  </i>
   <i type="logical" name="LSCALAPACK"> T  </i>
   <i type="logical" name="LSCAAWARE"> F  </i>
   <i type="logical" name="LSCALU"> F  </i>
   <i type="logical" name="LASYNC"> F  </i>
   <i type="logical" name="LORBITALREAL"> F  </i>
  </separator>
  <separator name="miscellaneous" >
   <i type="int" name="IDIOT">     3</i>
   <i type="int" name="PHON_NSTRUCT">    -1</i>
   <i type="logical" name="LMUSIC"> F  </i>
   <v name="POMASS">     22.99000000     35.45300000</v>
   <v name="DARWINR">      0.00000000      0.00000000</v>
   <v name="DARWINV">      1.00000000      1.00000000</v>
   <i type="logical" name="LCORR"> T  </i>
  </separator>
  <i type="logical" name="GGA_COMPAT"> T  </i>
  <i type="logical" name="LBERRY"> F  </i>
  <i type="int" name="ICORELEVEL">     0</i>
  <i type="logical" name="LDAU"> F  </i>
  <i type="int" name="I_CONSTRAINED_M">     0</i>
  <separator name="electronic exchange-correlation" >
   <i type="string" name="GGA">PS</i>
   <i type="int" name="VOSKOWN">     0</i>
   <i type="logical" name="LHFCALC"> F  </i>
   <i type="string" name="PRECFOCK"></i>
   <i type="logical" name="LSYMGRAD"> F  </i>
   <i type="logical" name="LHFONE"> F  </i>
   <i type="logical" name="LRHFCALC"> F  </i>
   <i type="logical" name="LTHOMAS"> F  </i>
   <i type="logical" name="LMODELHF"> F  </i>
   <i type="logical" name="LFOCKACE"> F  </i>
   <i name="ENCUT4O">     -1.00000000</i>
   <i type="int" name="EXXOEP">     0</i>
   <i type="int" name="FOURORBIT">     0</i>
   <i name="AEXX">      0.00000000</i>
   <i name="HFALPHA">      0.00000000</i>
   <i name="MCALPHA">      0.00000000</i>
   <i name="ALDAX">      1.00000000</i>
   <i name="AGGAX">      1.00000000</i>
   <i name="ALDAC">      1.00000000</i>
   <i name="AGGAC">      1.00000000</i>
   <i type="int" name="NKREDX">     1</i>
   <i type="int" name="NKREDY">     1</i>
   <i type="int" name="NKREDZ">     1</i>
   <i type="logical" name="SHIFTRED"> F  </i>
   <i type="logical" name="ODDONLY"> F  </i>
   <i type="logical" name="EVENONLY"> F  </i>
   <i type="int" name="LMAXFOCK">     0</i>
   <i type="int" name="NMAXFOCKAE">     0</i>
   <i type="logical" name="LFOCKAEDFT"> F  </i>
   <i name="HFSCREEN">      0.00000000</i>
   <i name="HFSCREENC">      0.00000000</i>
   <i type="int" name="NBANDSGWLOW">     0</i>
  </separator>
  <separator name="vdW DFT" >
   <i type="logical" name="LUSE_VDW"> F  </i>
   <i name="Zab_VDW">     -0.84910000</i>
   <i name="PARAM1">      0.12340000</i>
   <i name="PARAM2">      1.00000000</i>
   <i name="PARAM3">      0.00000000</i>
  </separator>
  <separator name="model GW" >
   <i type="int" name="MODEL_GW">     0</i>
   <i name="MODEL_EPS0">     13.18532537</i>
   <i name="MODEL_ALPHA">      1.00000000</i>
  </separator>
  <separator name="linear response parameters" >
   <i type="logical" name="LEPSILON"> F  </i>
   <i type="logical" name="LRPA"> F  </i>
   <i type="logical" name="LNABLA"> F  </i>
   <i type="logical" name="LVEL"> F  </i>
   <i name="CSHIFT">      0.10000000</i>
   <i name="OMEGAMAX">     -1.00000000</i>
   <i name="DEG_THRESHOLD">      0.00200000</i>
   <i name="RTIME">     -0.10000000</i>
   <i name="WPLASMAI">      0.00000000</i>
   <v name="DFIELD">      0.00000000      0.00000000      0.00000000</v>
   <v name="WPLASMA">      0.00000000      0.00000000      0.00000000      0.00000000      0.00000000      0.00000000      0.00000000      0.00000000      0.00000000</v>
  </separator>
  <separator name="orbital magnetization" >
   <i type="logical" name="NUCIND"> F  </i>
   <v name="MAGPOS">      0.00000000      0.00000000      0.00000000</v>
   <i type="logical" name="LNICSALL"> T  </i>
   <i type="logical" name="ORBITALMAG"> F  </i>
   <i type="logical" name="LMAGBLOCH"> F  </i>
   <i type="logical" name="LCHIMAG"> F  </i>
   <i type="logical" name="LGAUGE"> T  </i>
   <i type="int" name="MAGATOM">     0</i>
   <v name="MAGDIPOL">      0.00000000      0.00000000      0.00000000</v>
   <v name="AVECCONST">      0.00000000      0.00000000      0.00000000</v>
  </separator>
  <separator name="response functions" >
   <i type="logical" name="LFINITE_TEMPERATURE"> F  </i>
   <i type="logical" name="LADDER"> F  </i>
   <i type="logical" name="LRPAFORCE"> F  </i>
   <i type="logical" name="LFXC"> F  </i>
   <i type="logical" name="LHARTREE"> T  </i>
   <i type="int" name="IBSE">     0</i>
   <v type="int" name="KPOINT">    -1     0     0     0</v>
   <i type="logical" name="LTCTC"> F  </i>
   <i type="logical" name="LTCTE"> F  </i>
   <i type="logical" name="LTETE"> F  </i>
   <i type="logical" name="LTRIPLET"> F  </i>
   <i type="logical" name="LFXCEPS"> F  </i>
   <i type="logical" name="LFXHEG"> F  </i>
   <i type="int" name="NATURALO">     2</i>
   <i type="logical" name="LHOLEGF"> F  </i>
   <i type="logical" name="L2ORDER"> F  </i>
   <i type="logical" name="LDMP1"> F  </i>
   <i type="logical" name="LMP2LT"> F  </i>
   <i type="logical" name="LSMP2LT"> F  </i>
   <i type="logical" name="LGWLF"> F  </i>
   <i name="ENCUTGW">     -2.00000000</i>
   <i name="ENCUTGWSOFT">     -2.00000000</i>
   <i name="ENCUTLF">     -1.00000000</i>
   <i type="logical" name="LESF_SPLINES"> F  </i>
   <i type="int" name="LMAXMP2">    -1</i>
   <i name="SCISSOR">      0.00000000</i>
   <i type="int" name="NOMEGA">     0</i>
   <i type="int" name="NOMEGAR">     0</i>
   <i type="int" name="NBANDSGW">    -1</i>
   <i type="int" name="NBANDSO">    -1</i>
   <i type="int" name="NBANDSV">    -1</i>
   <i type="int" name="NELMGW">     1</i>
   <i type="int" name="NELMHF">     1</i>
   <i type="int" name="DIM">     3</i>
   <i type="int" name="IESPILON">     4</i>
   <i type="int" name="ANTIRES">     0</i>
   <i name="OMEGAMAX">    -30.00000000</i>
   <i name="OMEGAMIN">    -30.00000000</i>
   <i name="OMEGATL">   -200.00000000</i>
   <i type="int" name="OMEGAGRID">     0</i>
   <i name="CSHIFT">     -0.10000000</i>
   <i type="logical" name="LSELFENERGY"> F  </i>
   <i type="logical" name="LSPECTRAL"> F  </i>
   <i type="logical" name="LSPECTRALGW"> F  </i>
   <i type="logical" name="LSINGLES"> F  </i>
   <i type="logical" name="LFERMIGW"> F  </i>
   <i type="logical" name="ODDONLYGW"> F  </i>
   <i type="logical" name="EVENONLYGW"> F  </i>
   <i type="int" name="NKREDLFX">     1</i>
   <i type="int" name="NKREDLFY">     1</i>
   <i type="int" name="NKREDLFZ">     1</i>
   <i type="int" name="MAXMEM">  2800</i>
   <i type="int" name="TELESCOPE">     0</i>
   <i type="int" name="NTAUPAR">    -1</i>
   <i type="int" name="NOMEGAPAR">    -1</i>
   <i name="DAMP_NEWTON">      0.80000001</i>
   <i name="LAMBDA">      1.00000000</i>
  </separator>
  <separator name="External order field" >
   <i name="OFIELD_KAPPA">      0.00000000</i>
   <v name="OFIELD_K">      0.00000000      0.00000000      0.00000000</v>
   <i name="OFIELD_Q6_NEAR">      0.00000000</i>
   <i name="OFIELD_Q6_FAR">      0.00000000</i>
   <i name="OFIELD_A">      0.00000000</i>
  </separator>
  <separator name="optional k-points parameters" >
   <i type="int" name="KPOINTS_OPT_MODE">     1</i>
   <i type="logical" name="LKPOINTS_OPT"> F  </i>
  </separator>
 </parameters>
 <atominfo>
  <atoms>      64 </atoms>
  <types>       2 </types>
  <array name="atoms" >
   <dimension dim="1">ion</dimension>
   <field type="string">element</field>
   <field type="int">atomtype</field>
   <set>
    <rc><c>Na</c><c>   1</c></rc>
    <rc><c>Na</c><c>   1</c></rc>
    <rc><c>Na</c><c>   1</c></rc>
    <rc><c>Na</c><c>   1</c></rc>
    <rc><c>Na</c><c>   1</c></rc>
    <rc><c>Na</c><c>   1</c></rc>
    <rc><c>Na</c><c>   1</c></rc>
    <rc><c>Na</c><c>   1</c></rc>
    <rc><c>Na</c><c>   1</c></rc>
    <rc><c>Na</c><c>   1</c></rc>
    <rc><c>Na</c><c>   1</c></rc>
    <rc><c>Na</c><c>   1</c></rc>
    <rc><c>Na</c><c>   1</c></rc>
    <rc><c>Na</c><c>   1</c></rc>
    <rc><c>Na</c><c>   1</c></rc>
    <rc><c>Na</c><c>   1</c></rc>
    <rc><c>Na</c><c>   1</c></rc>
    <rc><c>Na</c><c>   1</c></rc>
    <rc><c>Na</c><c>   1</c></rc>
    <rc><c>Na</c><c>   1</c></rc>
    <rc><c>Na</c><c>   1</c></rc>
    <rc><c>Na</c><c>   1</c></rc>
    <rc><c>Na</c><c>   1</c></rc>
    <rc><c>Na</c><c>   1</c></rc>
    <rc><c>Na</c><c>   1</c></rc>
    <rc><c>Na</c><c>   1</c></rc>
    <rc><c>Na</c><c>   1</c></rc>
    <rc><c>Na</c><c>   1</c></rc>
    <rc><c>Na</c><c>   1</c></rc>
    <rc><c>Na</c><c>   1</c></rc>
    <rc><c>Na</c><c>   1</c></rc>
    <rc><c>Na</c><c>   1</c></rc>
    <rc><c>Cl</c><c>   2</c></rc>
    <rc><c>Cl</c><c>   2</c></rc>
    <rc><c>Cl</c><c>   2</c></rc>
    <rc><c>Cl</c><c>   2</c></rc>
    <rc><c>Cl</c><c>   2</c></rc>
    <rc><c>Cl</c><c>   2</c></rc>
    <rc><c>Cl</c><c>   2</c></rc>
    <rc><c>Cl</c><c>   2</c></rc>
    <rc><c>Cl</c><c>   2</c></rc>
    <rc><c>Cl</c><c>   2</c></rc>
    <rc><c>Cl</c><c>   2</c></rc>
    <rc><c>Cl</c><c>   2</c></rc>
    <rc><c>Cl</c><c>   2</c></rc>
    <rc><c>Cl</c><c>   2</c></rc>
    <rc><c>Cl</c><c>   2</c></rc>
    <rc><c>Cl</c><c>   2</c></rc>
    <rc><c>Cl</c><c>   2</c></rc>
    <rc><c>Cl</c><c>   2</c></rc>
    <rc><c>Cl</c><c>   2</c></rc>
    <rc><c>Cl</c><c>   2</c></rc>
    <rc><c>Cl</c><c>   2</c></rc>
    <rc><c>Cl</c><c>   2</c></rc>
    <rc><c>Cl</c><c>   2</c></rc>
    <rc><c>Cl</c><c>   2</c></rc>
    <rc><c>Cl</c><c>   2</c></rc>
    <rc><c>Cl</c><c>   2</c></rc>
    <rc><c>Cl</c><c>   2</c></rc>
    <rc><c>Cl</c><c>   2</c></rc>
    <rc><c>Cl</c><c>   2</c></rc>
    <rc><c>Cl</c><c>   2</c></rc>
    <rc><c>Cl</c><c>   2</c></rc>
    <rc><c>Cl</c><c>   2</c></rc>
   </set>
  </array>
  <array name="atomtypes" >
   <dimension dim="1">type</dimension>
   <field type="int">atomspertype</field>
   <field type="string">element</field>
   <field>mass</field>
   <field>valence</field>
   <field type="string">pseudopotential</field>
   <set>
    <rc><c>  32</c><c>Na</c><c>     22.99000000</c><c>      7.00000000</c><c>  PAW_PBE Na_pv 19Sep2006               </c></rc>
    <rc><c>  32</c><c>Cl</c><c>     35.45300000</c><c>      7.00000000</c><c>  PAW_PBE Cl 06Sep2000                  </c></rc>
   </set>
  </array>
 </atominfo>
 <structure name="initialpos" >
  <crystal>
   <varray name="basis" >
    <v>      11.20400236       0.00000000       0.00000000 </v>
    <v>       0.00000000      11.20400236       0.00000000 </v>
    <v>       0.00000000       0.00000000      11.20400236 </v>
   </varray>
   <i name="volume">   1406.43470641 </i>
   <varray name="rec_basis" >
    <v>       0.08925382       0.00000000       0.00000000 </v>
    <v>       0.00000000       0.08925382       0.00000000 </v>
    <v>       0.00000000       0.00000000       0.08925382 </v>
   </varray>
  </crystal>
  <varray name="positions" >
   <v>       0.00267761       0.00000000       0.00000000 </v>
   <v>       0.25000000       0.25000000       0.00000000 </v>
   <v>       0.25000000       0.00000000       0.25000000 </v>
   <v>       0.00000000       0.25000000       0.25000000 </v>
   <v>       0.00000000       0.00000000       0.50000000 </v>
   <v>       0.25000000       0.25000000       0.50000000 </v>
   <v>       0.25000000       0.00000000       0.75000000 </v>
   <v>       0.00000000       0.25000000       0.75000000 </v>
   <v>       0.00000000       0.50000000       0.00000000 </v>
   <v>       0.25000000       0.75000000       0.00000000 </v>
   <v>       0.25000000       0.50000000       0.25000000 </v>
   <v>       0.00000000       0.75000000       0.25000000 </v>
   <v>       0.00000000       0.50000000       0.50000000 </v>
   <v>       0.25000000       0.75000000       0.50000000 </v>
   <v>       0.25000000       0.50000000       0.75000000 </v>
   <v>       0.00000000       0.75000000       0.75000000 </v>
   <v>       0.50000000       0.00000000       0.00000000 </v>
   <v>       0.75000000       0.25000000       0.00000000 </v>
   <v>       0.75000000       0.00000000       0.25000000 </v>
   <v>       0.50000000       0.25000000       0.25000000 </v>
   <v>       0.50000000       0.00000000       0.50000000 </v>
   <v>       0.75000000       0.25000000       0.50000000 </v>
   <v>       0.75000000       0.00000000       0.75000000 </v>
   <v>       0.50000000       0.25000000       0.75000000 </v>
   <v>       0.50000000       0.50000000       0.00000000 </v>
   <v>       0.75000000       0.75000000       0.00000000 </v>
   <v>       0.75000000       0.50000000       0.25000000 </v>
   <v>       0.50000000       0.75000000       0.25000000 </v>
   <v>       0.50000000       0.50000000       0.50000000 </v>
   <v>       0.75000000       0.75000000       0.50000000 </v>
   <v>       0.75000000       0.50000000       0.75000000 </v>
   <v>       0.50000000       0.75000000       0.75000000 </v>
   <v>       0.25000000       0.25000000       0.25000000 </v>
   <v>       0.00000000       0.00000000       0.25000000 </v>
   <v>       0.00000000       0.25000000       0.00000000 </v>
   <v>       0.24732239       0.00000000       0.00000000 </v>
   <v>       0.25000000       0.25000000       0.75000000 </v>
   <v>       0.00000000       0.00000000       0.75000000 </v>
   <v>       0.00000000       0.25000000       0.50000000 </v>
   <v>       0.25000000       0.00000000       0.50000000 </v>
   <v>       0.25000000       0.75000000       0.25000000 </v>
   <v>       0.00000000       0.50000000       0.25000000 </v>
   <v>       0.00000000       0.75000000       0.00000000 </v>
   <v>       0.25000000       0.50000000       0.00000000 </v>
   <v>       0.25000000       0.75000000       0.75000000 </v>
   <v>       0.00000000       0.50000000       0.75000000 </v>
   <v>       0.00000000       0.75000000       0.50000000 </v>
   <v>       0.25000000       0.50000000       0.50000000 </v>
   <v>       0.75000000       0.25000000       0.25000000 </v>
   <v>       0.50000000       0.00000000       0.25000000 </v>
   <v>       0.50000000       0.25000000       0.00000000 </v>
   <v>       0.75000000       0.00000000       0.00000000 </v>
   <v>       0.75000000       0.25000000       0.75000000 </v>
   <v>       0.50000000       0.00000000       0.75000000 </v>
   <v>       0.50000000       0.25000000       0.50000000 </v>
   <v>       0.75000000       0.00000000       0.50000000 </v>
   <v>       0.75000000       0.75000000       0.25000000 </v>
   <v>       0.50000000       0.50000000       0.25000000 </v>
   <v>       0.50000000       0.75000000       0.00000000 </v>
   <v>       0.75000000       0.50000000       0.00000000 </v>
   <v>       0.75000000       0.75000000       0.75000000 </v>
   <v>       0.50000000       0.50000000       0.75000000 </v>
   <v>       0.50000000       0.75000000       0.50000000 </v>
   <v>       0.75000000       0.50000000       0.50000000 </v>
  </varray>
 </structure>
 <calculation>
  <scstep>
   <time name="dav">    7.08    7.12</time>
   <time name="total">    7.15    7.19</time>
   <energy>
    <i name="alphaZ">    751.52672365 </i>
    <i name="ewald"> -22871.27757009 </i>
    <i name="hartreedc">  -8992.30159917 </i>
    <i name="XCdc">   1456.53458457 </i>
    <i name="pawpsdc">  26466.43774078 </i>
    <i name="pawaedc"> -29286.08056155 </i>
    <i name="eentropy">     -0.00291974 </i>
    <i name="bandstr">   -740.46275673 </i>
    <i name="atom">  37532.17946992 </i>
    <i name="e_fr_energy">   4316.55311166 </i>
    <i name="e_wo_entrp">   4316.55603140 </i>
    <i name="e_0_energy">   4316.55457153 </i>
   </energy>
  </scstep>
  <scstep>
   <time name="dav">    7.71    7.75</time>
   <time name="total">    7.71    7.75</time>
   <energy>
    <i name="e_fr_energy">    363.20079270 </i>
    <i name="e_wo_entrp">    363.20079270 </i>
    <i name="e_0_energy">    363.20079270 </i>
   </energy>
  </scstep>
  <scstep>
   <time name="dav">    8.27    8.32</time>
   <time name="total">    8.27    8.32</time>
   <energy>
    <i name="e_fr_energy">   -206.23525048 </i>
    <i name="e_wo_entrp">   -206.23525048 </i>
    <i name="e_0_energy">   -206.23525048 </i>
   </energy>
  </scstep>
  <scstep>
   <time name="dav">    8.23    8.28</time>
   <time name="total">    8.23    8.29</time>
   <energy>
    <i name="e_fr_energy">   -228.19399685 </i>
    <i name="e_wo_entrp">   -228.19399685 </i>
    <i name="e_0_energy">   -228.19399685 </i>
   </energy>
  </scstep>
  <scstep>
   <time name="dav">    8.38    8.43</time>
   <time name="total">    8.66    8.71</time>
   <energy>
    <i name="e_fr_energy">   -229.00360814 </i>
    <i name="e_wo_entrp">   -229.00360814 </i>
    <i name="e_0_energy">   -229.00360814 </i>
   </energy>
  </scstep>
  <scstep>
   <time name="dav">    8.46    8.50</time>
   <time name="total">    8.80    8.85</time>
   <energy>
    <i name="e_fr_energy">   -224.13770677 </i>
    <i name="e_wo_entrp">   -224.13770677 </i>
    <i name="e_0_energy">   -224.13770677 </i>
   </energy>
  </scstep>
  <scstep>
   <time name="dav">    9.18    9.23</time>
   <time name="total">    9.52    9.57</time>
   <energy>
    <i name="e_fr_energy">   -223.77668715 </i>
    <i name="e_wo_entrp">   -223.77668715 </i>
    <i name="e_0_energy">   -223.77668715 </i>
   </energy>
  </scstep>
  <scstep>
   <time name="dav">    7.95    7.99</time>
   <time name="total">    8.29    8.33</time>
   <energy>
    <i name="e_fr_energy">   -223.90193580 </i>
    <i name="e_wo_entrp">   -223.90193580 </i>
    <i name="e_0_energy">   -223.90193580 </i>
   </energy>
  </scstep>
  <scstep>
   <time name="dav">    8.53    8.57</time>
   <time name="total">    8.87    8.92</time>
   <energy>
    <i name="e_fr_energy">   -223.89641876 </i>
    <i name="e_wo_entrp">   -223.89641876 </i>
    <i name="e_0_energy">   -223.89641876 </i>
   </energy>
  </scstep>
  <scstep>
   <time name="dav">    8.34    8.39</time>
   <time name="total">    8.68    8.74</time>
   <energy>
    <i name="e_fr_energy">   -223.90070492 </i>
    <i name="e_wo_entrp">   -223.90070492 </i>
    <i name="e_0_energy">   -223.90070492 </i>
   </energy>
  </scstep>
  <scstep>
   <time name="dav">    8.66    8.70</time>
   <time name="total">    8.99    9.04</time>
   <energy>
    <i name="e_fr_energy">   -223.89998420 </i>
    <i name="e_wo_entrp">   -223.89998420 </i>
    <i name="e_0_energy">   -223.89998420 </i>
   </energy>
  </scstep>
  <scstep>
   <time name="dav">    8.61    8.66</time>
   <time name="total">    8.95    8.99</time>
   <energy>
    <i name="e_fr_energy">   -223.89994451 </i>
    <i name="e_wo_entrp">   -223.89994451 </i>
    <i name="e_0_energy">   -223.89994451 </i>
   </energy>
  </scstep>
  <scstep>
   <time name="dav">    8.62    8.66</time>
   <time name="total">    8.96    9.01</time>
   <energy>
    <i name="e_fr_energy">   -223.89994592 </i>
    <i name="e_wo_entrp">   -223.89994592 </i>
    <i name="e_0_energy">   -223.89994592 </i>
   </energy>
  </scstep>
  <scstep>
   <time name="dav">    8.19    8.23</time>
   <time name="total">    8.52    8.57</time>
   <energy>
    <i name="e_fr_energy">   -223.89994700 </i>
    <i name="e_wo_entrp">   -223.89994700 </i>
    <i name="e_0_energy">   -223.89994700 </i>
   </energy>
  </scstep>
  <scstep>
   <time name="dav">    8.14    8.18</time>
   <time name="total">    8.47    8.52</time>
   <energy>
    <i name="e_fr_energy">   -223.89994849 </i>
    <i name="e_wo_entrp">   -223.89994849 </i>
    <i name="e_0_energy">   -223.89994849 </i>
   </energy>
  </scstep>
  <scstep>
   <time name="dav">    8.33    8.37</time>
   <time name="total">    8.67    8.71</time>
   <energy>
    <i name="e_fr_energy">   -223.89994896 </i>
    <i name="e_wo_entrp">   -223.89994896 </i>
    <i name="e_0_energy">   -223.89994896 </i>
   </energy>
  </scstep>
  <scstep>
   <time name="dav">    6.13    6.16</time>
   <time name="total">    6.47    6.50</time>
   <energy>
    <i name="e_fr_energy">   -223.89994889 </i>
    <i name="e_wo_entrp">   -223.89994889 </i>
    <i name="e_0_energy">   -223.89994889 </i>
   </energy>
  </scstep>
  <scstep>
   <time name="dav">    6.07    6.10</time>
   <time name="total">    6.41    6.44</time>
   <energy>
    <i name="e_fr_energy">   -223.89994900 </i>
    <i name="e_wo_entrp">   -223.89994900 </i>
    <i name="e_0_energy">   -223.89994900 </i>
   </energy>
  </scstep>
  <scstep>
   <time name="dav">    5.37    5.40</time>
   <time name="total">    5.71    5.74</time>
   <energy>
    <i name="e_fr_energy">   -223.89994898 </i>
    <i name="e_wo_entrp">   -223.89994898 </i>
    <i name="e_0_energy">   -223.89994898 </i>
   </energy>
  </scstep>
  <scstep>
   <time name="dav">    5.46    5.49</time>
   <time name="total">    5.79    5.82</time>
   <energy>
    <i name="e_fr_energy">   -223.89994895 </i>
    <i name="e_wo_entrp">   -223.89994895 </i>
    <i name="e_0_energy">   -223.89994895 </i>
   </energy>
  </scstep>
  <scstep>
   <time name="dav">    5.26    5.29</time>
   <time name="total">    5.59    5.62</time>
   <energy>
    <i name="e_fr_energy">   -223.89994890 </i>
    <i name="e_wo_entrp">   -223.89994890 </i>
    <i name="e_0_energy">   -223.89994890 </i>
   </energy>
  </scstep>
  <scstep>
   <time name="dav">    5.37    5.39</time>
   <time name="total">    5.43    5.46</time>
   <energy>
    <i name="alphaZ">    751.52672365 </i>
    <i name="ewald"> -22871.27757009 </i>
    <i name="hartreedc">  -9078.22411662 </i>
    <i name="XCdc">   1472.51400035 </i>
    <i name="pawpsdc">  29498.36196867 </i>
    <i name="pawaedc"> -32317.72759106 </i>
    <i name="eentropy">     -0.00000000 </i>
    <i name="bandstr">  -5211.25283373 </i>
    <i name="atom">  37532.17946992 </i>
    <i name="e_fr_energy">   -223.89994890 </i>
    <i name="e_wo_entrp">   -223.89994890 </i>
    <i name="e_0_energy">   -223.89994890 </i>
   </energy>
  </scstep>
  <structure>
   <crystal>
    <varray name="basis" >
     <v>      11.20400236       0.00000000       0.00000000 </v>
     <v>       0.00000000      11.20400236       0.00000000 </v>
     <v>       0.00000000       0.00000000      11.20400236 </v>
    </varray>
    <i name="volume">   1406.43470641 </i>
    <varray name="rec_basis" >
     <v>       0.08925382       0.00000000       0.00000000 </v>
     <v>       0.00000000       0.08925382       0.00000000 </v>
     <v>       0.00000000       0.00000000       0.08925382 </v>
    </varray>
   </crystal>
   <varray name="positions" >
    <v>       0.00267761       0.00000000       0.00000000 </v>
    <v>       0.25000000       0.25000000       0.00000000 </v>
    <v>       0.25000000       0.00000000       0.25000000 </v>
    <v>       0.00000000       0.25000000       0.25000000 </v>
    <v>       0.00000000       0.00000000       0.50000000 </v>
    <v>       0.25000000       0.25000000       0.50000000 </v>
    <v>       0.25000000       0.00000000       0.75000000 </v>
    <v>       0.00000000       0.25000000       0.75000000 </v>
    <v>       0.00000000       0.50000000       0.00000000 </v>
    <v>       0.25000000       0.75000000       0.00000000 </v>
    <v>       0.25000000       0.50000000       0.25000000 </v>
    <v>       0.00000000       0.75000000       0.25000000 </v>
    <v>       0.00000000       0.50000000       0.50000000 </v>
    <v>       0.25000000       0.75000000       0.50000000 </v>
    <v>       0.25000000       0.50000000       0.75000000 </v>
    <v>       0.00000000       0.75000000       0.75000000 </v>
    <v>       0.50000000       0.00000000       0.00000000 </v>
    <v>       0.75000000       0.25000000       0.00000000 </v>
    <v>       0.75000000       0.00000000       0.25000000 </v>
    <v>       0.50000000       0.25000000       0.25000000 </v>
    <v>       0.50000000       0.00000000       0.50000000 </v>
    <v>       0.75000000       0.25000000       0.50000000 </v>
    <v>       0.75000000       0.00000000       0.75000000 </v>
    <v>       0.50000000       0.25000000       0.75000000 </v>
    <v>       0.50000000       0.50000000       0.00000000 </v>
    <v>       0.75000000       0.75000000       0.00000000 </v>
    <v>       0.75000000       0.50000000       0.25000000 </v>
    <v>       0.50000000       0.75000000       0.25000000 </v>
    <v>       0.50000000       0.50000000       0.50000000 </v>
    <v>       0.75000000       0.75000000       0.50000000 </v>
    <v>       0.75000000       0.50000000       0.75000000 </v>
    <v>       0.50000000       0.75000000       0.75000000 </v>
    <v>       0.25000000       0.25000000       0.25000000 </v>
    <v>       0.00000000       0.00000000       0.25000000 </v>
    <v>       0.00000000       0.25000000       0.00000000 </v>
    <v>       0.24732239       0.00000000       0.00000000 </v>
    <v>       0.25000000       0.25000000       0.75000000 </v>
    <v>       0.00000000       0.00000000       0.75000000 </v>
    <v>       0.00000000       0.25000000       0.50000000 </v>
    <v>       0.25000000       0.00000000       0.50000000 </v>
    <v>       0.25000000       0.75000000       0.25000000 </v>
    <v>       0.00000000       0.50000000       0.25000000 </v>
    <v>       0.00000000       0.75000000       0.00000000 </v>
    <v>       0.25000000       0.50000000       0.00000000 </v>
    <v>       0.25000000       0.75000000       0.75000000 </v>
    <v>       0.00000000       0.50000000       0.75000000 </v>
    <v>       0.00000000       0.75000000       0.50000000 </v>
    <v>       0.25000000       0.50000000       0.50000000 </v>
    <v>       0.75000000       0.25000000       0.25000000 </v>
    <v>       0.50000000       0.00000000       0.25000000 </v>
    <v>       0.50000000       0.25000000       0.00000000 </v>
    <v>       0.75000000       0.00000000       0.00000000 </v>
    <v>       0.75000000       0.25000000       0.75000000 </v>
    <v>       0.50000000       0.00000000       0.75000000 </v>
    <v>       0.50000000       0.25000000       0.50000000 </v>
    <v>       0.75000000       0.00000000       0.50000000 </v>
    <v>       0.75000000       0.75000000       0.25000000 </v>
    <v>       0.50000000       0.50000000       0.25000000 </v>
    <v>       0.50000000       0.75000000       0.00000000 </v>
    <v>       0.75000000       0.50000000       0.00000000 </v>
    <v>       0.75000000       0.75000000       0.75000000 </v>
    <v>       0.50000000       0.50000000       0.75000000 </v>
    <v>       0.50000000       0.75000000       0.50000000 </v>
    <v>       0.75000000       0.50000000       0.50000000 </v>
   </varray>
  </structure>
  <varray name="forces" >
   <v>      -0.08759728      -0.00000000       0.00000000 </v>
   <v>      -0.00349618       0.00583828       0.00000000 </v>
   <v>      -0.00349618      -0.00000000       0.00583828 </v>
   <v>      -0.00145598      -0.00131549      -0.00131549 </v>
   <v>      -0.00022190      -0.00000000       0.00000000 </v>
   <v>      -0.00064200      -0.00007970       0.00000000 </v>
   <v>      -0.00349618      -0.00000000      -0.00583828 </v>
   <v>      -0.00145598      -0.00131549       0.00131549 </v>
   <v>      -0.00022190      -0.00000000       0.00000000 </v>
   <v>      -0.00349618      -0.00583828       0.00000000 </v>
   <v>      -0.00064200      -0.00000000      -0.00007970 </v>
   <v>      -0.00145598       0.00131549      -0.00131549 </v>
   <v>      -0.00046252      -0.00000000       0.00000000 </v>
   <v>      -0.00064200       0.00007970       0.00000000 </v>
   <v>      -0.00064200      -0.00000000       0.00007970 </v>
   <v>      -0.00145598       0.00131549       0.00131549 </v>
   <v>      -0.00730131      -0.00000000       0.00000000 </v>
   <v>       0.00433618      -0.00580334       0.00000000 </v>
   <v>       0.00433618      -0.00000000      -0.00580334 </v>
   <v>       0.00139941       0.00129060       0.00129060 </v>
   <v>       0.00015836      -0.00000000       0.00000000 </v>
   <v>       0.00064666       0.00006995       0.00000000 </v>
   <v>       0.00433618      -0.00000000       0.00580334 </v>
   <v>       0.00139941       0.00129060      -0.00129060 </v>
   <v>       0.00015836      -0.00000000       0.00000000 </v>
   <v>       0.00433618       0.00580334       0.00000000 </v>
   <v>       0.00064666      -0.00000000       0.00006995 </v>
   <v>       0.00139941      -0.00129060       0.00129060 </v>
   <v>       0.00044510      -0.00000000       0.00000000 </v>
   <v>       0.00064666      -0.00006995       0.00000000 </v>
   <v>       0.00064666      -0.00000000      -0.00006995 </v>
   <v>       0.00139941      -0.00129060      -0.00129060 </v>
   <v>       0.00211398      -0.00134066      -0.00134066 </v>
   <v>       0.00107682      -0.00000000       0.00576519 </v>
   <v>       0.00107682       0.00576519       0.00000000 </v>
   <v>       0.10089189      -0.00000000       0.00000000 </v>
   <v>       0.00211398      -0.00134066       0.00134066 </v>
   <v>       0.00107682      -0.00000000      -0.00576519 </v>
   <v>       0.00065103       0.00058463       0.00000000 </v>
   <v>       0.00171537      -0.00000000       0.00000000 </v>
   <v>       0.00211398       0.00134066      -0.00134066 </v>
   <v>       0.00065103      -0.00000000       0.00058463 </v>
   <v>       0.00107682      -0.00576519       0.00000000 </v>
   <v>       0.00171537      -0.00000000       0.00000000 </v>
   <v>       0.00211398       0.00134066       0.00134066 </v>
   <v>       0.00065103      -0.00000000      -0.00058463 </v>
   <v>       0.00065103      -0.00058463       0.00000000 </v>
   <v>       0.00051657      -0.00000000       0.00000000 </v>
   <v>      -0.00178580       0.00128653       0.00128653 </v>
   <v>      -0.00669628      -0.00000000      -0.00573078 </v>
   <v>      -0.00669628      -0.00573078       0.00000000 </v>
   <v>       0.01233689      -0.00000000       0.00000000 </v>
   <v>      -0.00178580       0.00128653      -0.00128653 </v>
   <v>      -0.00669628      -0.00000000       0.00573078 </v>
   <v>      -0.00063772      -0.00056627       0.00000000 </v>
   <v>      -0.00181688      -0.00000000       0.00000000 </v>
   <v>      -0.00178580      -0.00128653       0.00128653 </v>
   <v>      -0.00063772      -0.00000000      -0.00056627 </v>
   <v>      -0.00669628       0.00573078       0.00000000 </v>
   <v>      -0.00181688      -0.00000000       0.00000000 </v>
   <v>      -0.00178580      -0.00128653      -0.00128653 </v>
   <v>      -0.00063772      -0.00000000       0.00056627 </v>
   <v>      -0.00063772       0.00056627       0.00000000 </v>
   <v>      -0.00053970      -0.00000000       0.00000000 </v>
  </varray>
  <varray name="stress" >
   <v>      -0.34274436       0.00000000      -0.00000000 </v>
   <v>       0.00000000      -0.37838458       0.00000000 </v>
   <v>      -0.00000000       0.00000000      -0.37838458 </v>
  </varray>
  <energy>
   <i name="e_fr_energy">   -223.89994890 </i>
   <i name="e_wo_entrp">   -223.89994890 </i>
   <i name="e_0_energy">   -223.89994890 </i>
  </energy>
  <time name="totalsc">  183.61  184.65</time>
  <eigenvalues>
   <array>
    <dimension dim="1">band</dimension>
    <dimension dim="2">kpoint</dimension>
    <dimension dim="3">spin</dimension>
    <field>eigene</field>
    <field>occ</field>
    <set>
     <set comment="spin 1">
      <set comment="kpoint 1">
       <r>  -21.3091    1.0000 </r>
       <r>  -21.3091    1.0000 </r>
       <r>  -21.3089    1.0000 </r>
       <r>  -21.3045    1.0000 </r>
       <r>  -21.3010    1.0000 </r>
       <r>  -21.3000    1.0000 </r>
       <r>  -21.3000    1.0000 </r>
       <r>  -21.2945    1.0000 </r>
       <r>  -21.2945    1.0000 </r>
       <r>  -21.2944    1.0000 </r>
       <r>  -21.2942    1.0000 </r>
       <r>  -21.2939    1.0000 </r>
       <r>  -21.2938    1.0000 </r>
       <r>  -21.2933    1.0000 </r>
       <r>  -21.2933    1.0000 </r>
       <r>  -21.2928    1.0000 </r>
       <r>  -21.2923    1.0000 </r>
       <r>  -21.2921    1.0000 </r>
       <r>  -21.2921    1.0000 </r>
       <r>  -21.2900    1.0000 </r>
       <r>  -21.2900    1.0000 </r>
       <r>  -21.2882    1.0000 </r>
       <r>  -21.2878    1.0000 </r>
       <r>  -21.2878    1.0000 </r>
       <r>  -21.2873    1.0000 </r>
       <r>  -21.2870    1.0000 </r>
       <r>  -21.2864    1.0000 </r>
       <r>  -21.2862    1.0000 </r>
       <r>  -21.2862    1.0000 </r>
       <r>  -21.2856    1.0000 </r>
       <r>  -21.2847    1.0000 </r>
       <r>  -21.2847    1.0000 </r>
       <r>  -21.2836    1.0000 </r>
       <r>  -21.2836    1.0000 </r>
       <r>  -21.2835    1.0000 </r>
       <r>  -21.2835    1.0000 </r>
       <r>  -21.2833    1.0000 </r>
       <r>  -21.2831    1.0000 </r>
       <r>  -21.2821    1.0000 </r>
       <r>  -21.2820    1.0000 </r>
       <r>  -21.2820    1.0000 </r>
       <r>  -21.2818    1.0000 </r>
       <r>  -21.2818    1.0000 </r>
       <r>  -21.2816    1.0000 </r>
       <r>  -21.2816    1.0000 </r>
       <r>  -21.2813    1.0000 </r>
       <r>  -21.2812    1.0000 </r>
       <r>  -21.2806    1.0000 </r>
       <r>  -21.2806    1.0000 </r>
       <r>  -21.2803    1.0000 </r>
       <r>  -21.2798    1.0000 </r>
       <r>  -21.2798    1.0000 </r>
       <r>  -21.2792    1.0000 </r>
       <r>  -21.2787    1.0000 </r>
       <r>  -21.2783    1.0000 </r>
       <r>  -21.2773    1.0000 </r>
       <r>  -21.2773    1.0000 </r>
       <r>  -21.2769    1.0000 </r>
       <r>  -21.2769    1.0000 </r>
       <r>  -21.2767    1.0000 </r>
       <r>  -21.2762    1.0000 </r>
       <r>  -21.2762    1.0000 </r>
       <r>  -21.2760    1.0000 </r>
       <r>  -21.2752    1.0000 </r>
       <r>  -21.2752    1.0000 </r>
       <r>  -21.2752    1.0000 </r>
       <r>  -21.2750    1.0000 </r>
       <r>  -21.2749    1.0000 </r>
       <r>  -21.2749    1.0000 </r>
       <r>  -21.2749    1.0000 </r>
       <r>  -21.2747    1.0000 </r>
       <r>  -21.2730    1.0000 </r>
       <r>  -21.2729    1.0000 </r>
       <r>  -21.2721    1.0000 </r>
       <r>  -21.2721    1.0000 </r>
       <r>  -21.2715    1.0000 </r>
       <r>  -21.2714    1.0000 </r>
       <r>  -21.2714    1.0000 </r>
       <r>  -21.2713    1.0000 </r>
       <r>  -21.2713    1.0000 </r>
       <r>  -21.2712    1.0000 </r>
       <r>  -21.2709    1.0000 </r>
       <r>  -21.2707    1.0000 </r>
       <r>  -21.2707    1.0000 </r>
       <r>  -21.2706    1.0000 </r>
       <r>  -21.2699    1.0000 </r>
       <r>  -21.2693    1.0000 </r>
       <r>  -21.2693    1.0000 </r>
       <r>  -21.2688    1.0000 </r>
       <r>  -21.2677    1.0000 </r>
       <r>  -21.2676    1.0000 </r>
       <r>  -21.2676    1.0000 </r>
       <r>  -21.2673    1.0000 </r>
       <r>  -21.2552    1.0000 </r>
       <r>  -21.2551    1.0000 </r>
       <r>  -21.2551    1.0000 </r>
       <r>  -13.3581    1.0000 </r>
       <r>  -13.1426    1.0000 </r>
       <r>  -13.1378    1.0000 </r>
       <r>  -13.1374    1.0000 </r>
       <r>  -13.1374    1.0000 </r>
       <r>  -13.1374    1.0000 </r>
       <r>  -13.1331    1.0000 </r>
       <r>  -13.0219    1.0000 </r>
       <r>  -13.0145    1.0000 </r>
       <r>  -13.0145    1.0000 </r>
       <r>  -13.0115    1.0000 </r>
       <r>  -13.0113    1.0000 </r>
       <r>  -13.0112    1.0000 </r>
       <r>  -13.0112    1.0000 </r>
       <r>  -13.0111    1.0000 </r>
       <r>  -13.0110    1.0000 </r>
       <r>  -13.0087    1.0000 </r>
       <r>  -13.0087    1.0000 </r>
       <r>  -13.0043    1.0000 </r>
       <r>  -12.9897    1.0000 </r>
       <r>  -12.9891    1.0000 </r>
       <r>  -12.9891    1.0000 </r>
       <r>  -12.9885    1.0000 </r>
       <r>  -12.9416    1.0000 </r>
       <r>  -12.9412    1.0000 </r>
       <r>  -12.9402    1.0000 </r>
       <r>  -12.9244    1.0000 </r>
       <r>  -12.9230    1.0000 </r>
       <r>  -12.9213    1.0000 </r>
       <r>  -12.9213    1.0000 </r>
       <r>  -12.9188    1.0000 </r>
       <r>  -12.9151    1.0000 </r>
       <r>   -2.7001    1.0000 </r>
       <r>   -2.7001    1.0000 </r>
       <r>   -2.7000    1.0000 </r>
       <r>   -2.7000    1.0000 </r>
       <r>   -2.4240    1.0000 </r>
       <r>   -2.4240    1.0000 </r>
       <r>   -2.4240    1.0000 </r>
       <r>   -2.2076    1.0000 </r>
       <r>   -2.2076    1.0000 </r>
       <r>   -2.2056    1.0000 </r>
       <r>   -2.2044    1.0000 </r>
       <r>   -2.2042    1.0000 </r>
       <r>   -2.2041    1.0000 </r>
       <r>   -2.2041    1.0000 </r>
       <r>   -2.2041    1.0000 </r>
       <r>   -2.2040    1.0000 </r>
       <r>   -2.2033    1.0000 </r>
       <r>   -2.2013    1.0000 </r>
       <r>   -2.2013    1.0000 </r>
       <r>   -1.9291    1.0000 </r>
       <r>   -1.9291    1.0000 </r>
       <r>   -1.9249    1.0000 </r>
       <r>   -1.9249    1.0000 </r>
       <r>   -1.9247    1.0000 </r>
       <r>   -1.9247    1.0000 </r>
       <r>   -1.9247    1.0000 </r>
       <r>   -1.9246    1.0000 </r>
       <r>   -1.9237    1.0000 </r>
       <r>   -1.9237    1.0000 </r>
       <r>   -1.9212    1.0000 </r>
       <r>   -1.9212    1.0000 </r>
       <r>   -1.7978    1.0000 </r>
       <r>   -1.7966    1.0000 </r>
       <r>   -1.7966    1.0000 </r>
       <r>   -1.7966    1.0000 </r>
       <r>   -1.7966    1.0000 </r>
       <r>   -1.7955    1.0000 </r>
       <r>   -1.5097    1.0000 </r>
       <r>   -1.5097    1.0000 </r>
       <r>   -1.5062    1.0000 </r>
       <r>   -1.5056    1.0000 </r>
       <r>   -1.5054    1.0000 </r>
       <r>   -1.5053    1.0000 </r>
       <r>   -1.5052    1.0000 </r>
       <r>   -1.5048    1.0000 </r>
       <r>   -1.5044    1.0000 </r>
       <r>   -1.5044    1.0000 </r>
       <r>   -1.5024    1.0000 </r>
       <r>   -1.5024    1.0000 </r>
       <r>   -1.4642    1.0000 </r>
       <r>   -1.4637    1.0000 </r>
       <r>   -1.4624    1.0000 </r>
       <r>   -1.4624    1.0000 </r>
       <r>   -1.4622    1.0000 </r>
       <r>   -1.4610    1.0000 </r>
       <r>   -1.2948    1.0000 </r>
       <r>   -1.2948    1.0000 </r>
       <r>   -1.2947    1.0000 </r>
       <r>   -1.2946    1.0000 </r>
       <r>   -1.2946    1.0000 </r>
       <r>   -1.2946    1.0000 </r>
       <r>   -1.0056    1.0000 </r>
       <r>   -1.0056    1.0000 </r>
       <r>   -1.0031    1.0000 </r>
       <r>   -1.0008    1.0000 </r>
       <r>   -1.0007    1.0000 </r>
       <r>   -1.0007    1.0000 </r>
       <r>   -1.0006    1.0000 </r>
       <r>   -1.0006    1.0000 </r>
       <r>   -0.9997    1.0000 </r>
       <r>   -0.9997    1.0000 </r>
       <r>   -0.9976    1.0000 </r>
       <r>   -0.9976    1.0000 </r>
       <r>   -0.9525    1.0000 </r>
       <r>   -0.9525    1.0000 </r>
       <r>   -0.9523    1.0000 </r>
       <r>   -0.9512    1.0000 </r>
       <r>   -0.9481    1.0000 </r>
       <r>   -0.9479    1.0000 </r>
       <r>   -0.9478    1.0000 </r>
       <r>   -0.9478    1.0000 </r>
       <r>   -0.9474    1.0000 </r>
       <r>   -0.9473    1.0000 </r>
       <r>   -0.9473    1.0000 </r>
       <r>   -0.9469    1.0000 </r>
       <r>   -0.9458    1.0000 </r>
       <r>   -0.9457    1.0000 </r>
       <r>   -0.9457    1.0000 </r>
       <r>   -0.9438    1.0000 </r>
       <r>   -0.9424    1.0000 </r>
       <r>   -0.9415    1.0000 </r>
       <r>   -0.9409    1.0000 </r>
       <r>   -0.9409    1.0000 </r>
       <r>   -0.6648    1.0000 </r>
       <r>   -0.6648    1.0000 </r>
       <r>   -0.6648    1.0000 </r>
       <r>    4.3403    0.0000 </r>
       <r>    6.3603    0.0000 </r>
       <r>    6.3680    0.0000 </r>
       <r>    6.3680    0.0000 </r>
       <r>    6.3682    0.0000 </r>
       <r>    6.3686    0.0000 </r>
       <r>    6.3752    0.0000 </r>
       <r>    6.4446    0.0000 </r>
       <r>    6.4447    0.0000 </r>
       <r>    6.4448    0.0000 </r>
       <r>    6.4448    0.0000 </r>
       <r>    6.8279    0.0000 </r>
       <r>    6.8279    0.0000 </r>
       <r>    6.8281    0.0000 </r>
       <r>    7.2068    0.0000 </r>
       <r>    7.2068    0.0000 </r>
       <r>    7.2069    0.0000 </r>
       <r>    7.4528    0.0000 </r>
       <r>    7.4585    0.0000 </r>
       <r>    7.4585    0.0000 </r>
       <r>    7.4639    0.0000 </r>
       <r>    7.4642    0.0000 </r>
       <r>    7.4645    0.0000 </r>
       <r>    7.4657    0.0000 </r>
       <r>    7.4657    0.0000 </r>
       <r>    7.4671    0.0000 </r>
       <r>    7.4684    0.0000 </r>
       <r>    7.4684    0.0000 </r>
       <r>    7.4720    0.0000 </r>
       <r>    8.1628    0.0000 </r>
       <r>    8.1667    0.0000 </r>
       <r>    8.1682    0.0000 </r>
       <r>    8.1682    0.0000 </r>
       <r>    8.1702    0.0000 </r>
       <r>    8.1740    0.0000 </r>
       <r>    8.2754    0.0000 </r>
       <r>    8.2796    0.0000 </r>
       <r>    8.2796    0.0000 </r>
       <r>    8.2796    0.0000 </r>
       <r>    8.2810    0.0000 </r>
       <r>    8.2822    0.0000 </r>
       <r>    8.8884    0.0000 </r>
       <r>    8.8885    0.0000 </r>
       <r>    8.8943    0.0000 </r>
       <r>    8.9006    0.0000 </r>
       <r>    8.9007    0.0000 </r>
       <r>    8.9012    0.0000 </r>
       <r>    8.9018    0.0000 </r>
       <r>    8.9029    0.0000 </r>
       <r>    8.9034    0.0000 </r>
       <r>    8.9046    0.0000 </r>
       <r>    8.9053    0.0000 </r>
       <r>    8.9058    0.0000 </r>
       <r>    8.9120    0.0000 </r>
       <r>    8.9124    0.0000 </r>
       <r>    8.9162    0.0000 </r>
       <r>    8.9167    0.0000 </r>
       <r>    8.9171    0.0000 </r>
       <r>    8.9174    0.0000 </r>
       <r>    8.9184    0.0000 </r>
       <r>    8.9202    0.0000 </r>
       <r>    8.9215    0.0000 </r>
       <r>    8.9225    0.0000 </r>
       <r>    8.9229    0.0000 </r>
      </set>
      <set comment="kpoint 2">
       <r>  -21.3084    1.0000 </r>
       <r>  -21.3084    1.0000 </r>
       <r>  -21.3081    1.0000 </r>
       <r>  -21.3022    1.0000 </r>
       <r>  -21.3000    1.0000 </r>
       <r>  -21.2978    1.0000 </r>
       <r>  -21.2978    1.0000 </r>
       <r>  -21.2968    1.0000 </r>
       <r>  -21.2964    1.0000 </r>
       <r>  -21.2964    1.0000 </r>
       <r>  -21.2964    1.0000 </r>
       <r>  -21.2934    1.0000 </r>
       <r>  -21.2934    1.0000 </r>
       <r>  -21.2933    1.0000 </r>
       <r>  -21.2928    1.0000 </r>
       <r>  -21.2925    1.0000 </r>
       <r>  -21.2925    1.0000 </r>
       <r>  -21.2925    1.0000 </r>
       <r>  -21.2917    1.0000 </r>
       <r>  -21.2903    1.0000 </r>
       <r>  -21.2901    1.0000 </r>
       <r>  -21.2901    1.0000 </r>
       <r>  -21.2892    1.0000 </r>
       <r>  -21.2892    1.0000 </r>
       <r>  -21.2887    1.0000 </r>
       <r>  -21.2886    1.0000 </r>
       <r>  -21.2878    1.0000 </r>
       <r>  -21.2878    1.0000 </r>
       <r>  -21.2869    1.0000 </r>
       <r>  -21.2867    1.0000 </r>
       <r>  -21.2867    1.0000 </r>
       <r>  -21.2861    1.0000 </r>
       <r>  -21.2859    1.0000 </r>
       <r>  -21.2859    1.0000 </r>
       <r>  -21.2850    1.0000 </r>
       <r>  -21.2850    1.0000 </r>
       <r>  -21.2836    1.0000 </r>
       <r>  -21.2833    1.0000 </r>
       <r>  -21.2830    1.0000 </r>
       <r>  -21.2828    1.0000 </r>
       <r>  -21.2809    1.0000 </r>
       <r>  -21.2809    1.0000 </r>
       <r>  -21.2805    1.0000 </r>
       <r>  -21.2805    1.0000 </r>
       <r>  -21.2798    1.0000 </r>
       <r>  -21.2792    1.0000 </r>
       <r>  -21.2792    1.0000 </r>
       <r>  -21.2782    1.0000 </r>
       <r>  -21.2782    1.0000 </r>
       <r>  -21.2779    1.0000 </r>
       <r>  -21.2778    1.0000 </r>
       <r>  -21.2775    1.0000 </r>
       <r>  -21.2775    1.0000 </r>
       <r>  -21.2775    1.0000 </r>
       <r>  -21.2770    1.0000 </r>
       <r>  -21.2769    1.0000 </r>
       <r>  -21.2765    1.0000 </r>
       <r>  -21.2765    1.0000 </r>
       <r>  -21.2765    1.0000 </r>
       <r>  -21.2762    1.0000 </r>
       <r>  -21.2757    1.0000 </r>
       <r>  -21.2757    1.0000 </r>
       <r>  -21.2757    1.0000 </r>
       <r>  -21.2755    1.0000 </r>
       <r>  -21.2749    1.0000 </r>
       <r>  -21.2749    1.0000 </r>
       <r>  -21.2747    1.0000 </r>
       <r>  -21.2747    1.0000 </r>
       <r>  -21.2746    1.0000 </r>
       <r>  -21.2745    1.0000 </r>
       <r>  -21.2743    1.0000 </r>
       <r>  -21.2735    1.0000 </r>
       <r>  -21.2734    1.0000 </r>
       <r>  -21.2729    1.0000 </r>
       <r>  -21.2729    1.0000 </r>
       <r>  -21.2728    1.0000 </r>
       <r>  -21.2723    1.0000 </r>
       <r>  -21.2722    1.0000 </r>
       <r>  -21.2722    1.0000 </r>
       <r>  -21.2719    1.0000 </r>
       <r>  -21.2717    1.0000 </r>
       <r>  -21.2712    1.0000 </r>
       <r>  -21.2712    1.0000 </r>
       <r>  -21.2706    1.0000 </r>
       <r>  -21.2706    1.0000 </r>
       <r>  -21.2705    1.0000 </r>
       <r>  -21.2699    1.0000 </r>
       <r>  -21.2695    1.0000 </r>
       <r>  -21.2695    1.0000 </r>
       <r>  -21.2678    1.0000 </r>
       <r>  -21.2678    1.0000 </r>
       <r>  -21.2677    1.0000 </r>
       <r>  -21.2674    1.0000 </r>
       <r>  -21.2554    1.0000 </r>
       <r>  -21.2551    1.0000 </r>
       <r>  -21.2551    1.0000 </r>
       <r>  -13.2944    1.0000 </r>
       <r>  -13.2882    1.0000 </r>
       <r>  -13.1048    1.0000 </r>
       <r>  -13.0996    1.0000 </r>
       <r>  -13.0996    1.0000 </r>
       <r>  -13.0992    1.0000 </r>
       <r>  -13.0946    1.0000 </r>
       <r>  -13.0943    1.0000 </r>
       <r>  -13.0943    1.0000 </r>
       <r>  -13.0910    1.0000 </r>
       <r>  -13.0094    1.0000 </r>
       <r>  -13.0051    1.0000 </r>
       <r>  -13.0051    1.0000 </r>
       <r>  -13.0034    1.0000 </r>
       <r>  -12.9985    1.0000 </r>
       <r>  -12.9979    1.0000 </r>
       <r>  -12.9961    1.0000 </r>
       <r>  -12.9961    1.0000 </r>
       <r>  -12.9951    1.0000 </r>
       <r>  -12.9904    1.0000 </r>
       <r>  -12.9507    1.0000 </r>
       <r>  -12.9464    1.0000 </r>
       <r>  -12.9463    1.0000 </r>
       <r>  -12.9463    1.0000 </r>
       <r>  -12.9417    1.0000 </r>
       <r>  -12.9410    1.0000 </r>
       <r>  -12.9410    1.0000 </r>
       <r>  -12.9374    1.0000 </r>
       <r>  -12.9352    1.0000 </r>
       <r>  -12.9348    1.0000 </r>
       <r>  -12.9263    1.0000 </r>
       <r>  -12.9236    1.0000 </r>
       <r>   -2.5081    1.0000 </r>
       <r>   -2.5081    1.0000 </r>
       <r>   -2.5075    1.0000 </r>
       <r>   -2.5075    1.0000 </r>
       <r>   -2.5013    1.0000 </r>
       <r>   -2.5011    1.0000 </r>
       <r>   -2.5007    1.0000 </r>
       <r>   -2.5007    1.0000 </r>
       <r>   -2.2905    1.0000 </r>
       <r>   -2.2905    1.0000 </r>
       <r>   -2.2848    1.0000 </r>
       <r>   -2.2848    1.0000 </r>
       <r>   -2.2775    1.0000 </r>
       <r>   -2.2709    1.0000 </r>
       <r>   -2.1423    1.0000 </r>
       <r>   -2.1373    1.0000 </r>
       <r>   -2.1368    1.0000 </r>
       <r>   -2.1368    1.0000 </r>
       <r>   -2.1361    1.0000 </r>
       <r>   -2.1361    1.0000 </r>
       <r>   -2.1355    1.0000 </r>
       <r>   -2.1306    1.0000 </r>
       <r>   -1.9881    1.0000 </r>
       <r>   -1.9881    1.0000 </r>
       <r>   -1.9868    1.0000 </r>
       <r>   -1.9865    1.0000 </r>
       <r>   -1.9842    1.0000 </r>
       <r>   -1.9840    1.0000 </r>
       <r>   -1.9829    1.0000 </r>
       <r>   -1.9829    1.0000 </r>
       <r>   -1.8123    1.0000 </r>
       <r>   -1.8123    1.0000 </r>
       <r>   -1.8116    1.0000 </r>
       <r>   -1.8112    1.0000 </r>
       <r>   -1.8063    1.0000 </r>
       <r>   -1.8060    1.0000 </r>
       <r>   -1.8052    1.0000 </r>
       <r>   -1.8052    1.0000 </r>
       <r>   -1.5017    1.0000 </r>
       <r>   -1.5017    1.0000 </r>
       <r>   -1.4938    1.0000 </r>
       <r>   -1.4938    1.0000 </r>
       <r>   -1.3861    1.0000 </r>
       <r>   -1.3844    1.0000 </r>
       <r>   -1.3763    1.0000 </r>
       <r>   -1.3752    1.0000 </r>
       <r>   -1.2156    1.0000 </r>
       <r>   -1.2156    1.0000 </r>
       <r>   -1.2096    1.0000 </r>
       <r>   -1.2096    1.0000 </r>
       <r>   -1.1966    1.0000 </r>
       <r>   -1.1935    1.0000 </r>
       <r>   -1.1935    1.0000 </r>
       <r>   -1.1919    1.0000 </r>
       <r>   -1.1899    1.0000 </r>
       <r>   -1.1894    1.0000 </r>
       <r>   -1.1894    1.0000 </r>
       <r>   -1.1882    1.0000 </r>
       <r>   -1.1790    1.0000 </r>
       <r>   -1.1784    1.0000 </r>
       <r>   -1.1784    1.0000 </r>
       <r>   -1.1764    1.0000 </r>
       <r>   -1.1723    1.0000 </r>
       <r>   -1.1699    1.0000 </r>
       <r>   -1.1699    1.0000 </r>
       <r>   -1.1669    1.0000 </r>
       <r>   -1.1635    1.0000 </r>
       <r>   -1.1635    1.0000 </r>
       <r>   -1.1622    1.0000 </r>
       <r>   -1.1621    1.0000 </r>
       <r>   -1.1574    1.0000 </r>
       <r>   -1.1570    1.0000 </r>
       <r>   -1.1543    1.0000 </r>
       <r>   -1.1543    1.0000 </r>
       <r>   -1.0865    1.0000 </r>
       <r>   -1.0798    1.0000 </r>
       <r>   -0.9518    1.0000 </r>
       <r>   -0.9518    1.0000 </r>
       <r>   -0.9516    1.0000 </r>
       <r>   -0.9511    1.0000 </r>
       <r>   -0.9425    1.0000 </r>
       <r>   -0.9422    1.0000 </r>
       <r>   -0.9422    1.0000 </r>
       <r>   -0.9422    1.0000 </r>
       <r>   -0.9384    1.0000 </r>
       <r>   -0.9337    1.0000 </r>
       <r>   -0.9337    1.0000 </r>
       <r>   -0.9334    1.0000 </r>
       <r>   -0.9312    1.0000 </r>
       <r>   -0.9307    1.0000 </r>
       <r>   -0.9307    1.0000 </r>
       <r>   -0.9257    1.0000 </r>
       <r>   -0.7720    1.0000 </r>
       <r>   -0.7720    1.0000 </r>
       <r>   -0.7645    1.0000 </r>
       <r>   -0.7645    1.0000 </r>
       <r>    5.0183    0.0000 </r>
       <r>    5.0264    0.0000 </r>
       <r>    6.7091    0.0000 </r>
       <r>    6.7140    0.0000 </r>
       <r>    6.7140    0.0000 </r>
       <r>    6.7169    0.0000 </r>
       <r>    6.7198    0.0000 </r>
       <r>    6.7224    0.0000 </r>
       <r>    6.7224    0.0000 </r>
       <r>    6.7267    0.0000 </r>
       <r>    6.8384    0.0000 </r>
       <r>    6.8384    0.0000 </r>
       <r>    6.8391    0.0000 </r>
       <r>    6.8402    0.0000 </r>
       <r>    6.8461    0.0000 </r>
       <r>    6.8472    0.0000 </r>
       <r>    6.8484    0.0000 </r>
       <r>    6.8484    0.0000 </r>
       <r>    6.9679    0.0000 </r>
       <r>    6.9746    0.0000 </r>
       <r>    7.3562    0.0000 </r>
       <r>    7.3591    0.0000 </r>
       <r>    7.3660    0.0000 </r>
       <r>    7.3689    0.0000 </r>
       <r>    7.4771    0.0000 </r>
       <r>    7.4834    0.0000 </r>
       <r>    7.7099    0.0000 </r>
       <r>    7.7099    0.0000 </r>
       <r>    7.7193    0.0000 </r>
       <r>    7.7193    0.0000 </r>
       <r>    8.2553    0.0000 </r>
       <r>    8.2627    0.0000 </r>
       <r>    8.2627    0.0000 </r>
       <r>    8.2651    0.0000 </r>
       <r>    8.2668    0.0000 </r>
       <r>    8.2690    0.0000 </r>
       <r>    8.2690    0.0000 </r>
       <r>    8.2752    0.0000 </r>
       <r>    8.5264    0.0000 </r>
       <r>    8.5264    0.0000 </r>
       <r>    8.5314    0.0000 </r>
       <r>    8.5359    0.0000 </r>
       <r>    8.5360    0.0000 </r>
       <r>    8.5372    0.0000 </r>
       <r>    8.5391    0.0000 </r>
       <r>    8.5391    0.0000 </r>
       <r>    8.5403    0.0000 </r>
       <r>    8.5407    0.0000 </r>
       <r>    8.5412    0.0000 </r>
       <r>    8.5416    0.0000 </r>
       <r>    8.5416    0.0000 </r>
       <r>    8.5462    0.0000 </r>
       <r>    8.5470    0.0000 </r>
       <r>    8.5470    0.0000 </r>
       <r>    8.9460    0.0000 </r>
       <r>    8.9462    0.0000 </r>
       <r>    8.9462    0.0000 </r>
       <r>    8.9490    0.0000 </r>
       <r>    8.9528    0.0000 </r>
       <r>    8.9558    0.0000 </r>
       <r>    8.9559    0.0000 </r>
       <r>    8.9559    0.0000 </r>
       <r>    9.4887    0.0000 </r>
       <r>    9.4997    0.0000 </r>
      </set>
      <set comment="kpoint 3">
       <r>  -21.3081    1.0000 </r>
       <r>  -21.3081    1.0000 </r>
       <r>  -21.3078    1.0000 </r>
       <r>  -21.3006    1.0000 </r>
       <r>  -21.3000    1.0000 </r>
       <r>  -21.2999    1.0000 </r>
       <r>  -21.2997    1.0000 </r>
       <r>  -21.2996    1.0000 </r>
       <r>  -21.2970    1.0000 </r>
       <r>  -21.2968    1.0000 </r>
       <r>  -21.2952    1.0000 </r>
       <r>  -21.2936    1.0000 </r>
       <r>  -21.2932    1.0000 </r>
       <r>  -21.2924    1.0000 </r>
       <r>  -21.2920    1.0000 </r>
       <r>  -21.2915    1.0000 </r>
       <r>  -21.2914    1.0000 </r>
       <r>  -21.2913    1.0000 </r>
       <r>  -21.2910    1.0000 </r>
       <r>  -21.2908    1.0000 </r>
       <r>  -21.2903    1.0000 </r>
       <r>  -21.2897    1.0000 </r>
       <r>  -21.2895    1.0000 </r>
       <r>  -21.2893    1.0000 </r>
       <r>  -21.2889    1.0000 </r>
       <r>  -21.2885    1.0000 </r>
       <r>  -21.2882    1.0000 </r>
       <r>  -21.2879    1.0000 </r>
       <r>  -21.2869    1.0000 </r>
       <r>  -21.2869    1.0000 </r>
       <r>  -21.2866    1.0000 </r>
       <r>  -21.2850    1.0000 </r>
       <r>  -21.2847    1.0000 </r>
       <r>  -21.2844    1.0000 </r>
       <r>  -21.2841    1.0000 </r>
       <r>  -21.2841    1.0000 </r>
       <r>  -21.2837    1.0000 </r>
       <r>  -21.2833    1.0000 </r>
       <r>  -21.2829    1.0000 </r>
       <r>  -21.2826    1.0000 </r>
       <r>  -21.2816    1.0000 </r>
       <r>  -21.2809    1.0000 </r>
       <r>  -21.2808    1.0000 </r>
       <r>  -21.2807    1.0000 </r>
       <r>  -21.2807    1.0000 </r>
       <r>  -21.2804    1.0000 </r>
       <r>  -21.2798    1.0000 </r>
       <r>  -21.2793    1.0000 </r>
       <r>  -21.2791    1.0000 </r>
       <r>  -21.2790    1.0000 </r>
       <r>  -21.2783    1.0000 </r>
       <r>  -21.2783    1.0000 </r>
       <r>  -21.2779    1.0000 </r>
       <r>  -21.2777    1.0000 </r>
       <r>  -21.2775    1.0000 </r>
       <r>  -21.2773    1.0000 </r>
       <r>  -21.2771    1.0000 </r>
       <r>  -21.2768    1.0000 </r>
       <r>  -21.2765    1.0000 </r>
       <r>  -21.2763    1.0000 </r>
       <r>  -21.2763    1.0000 </r>
       <r>  -21.2760    1.0000 </r>
       <r>  -21.2759    1.0000 </r>
       <r>  -21.2754    1.0000 </r>
       <r>  -21.2750    1.0000 </r>
       <r>  -21.2748    1.0000 </r>
       <r>  -21.2747    1.0000 </r>
       <r>  -21.2746    1.0000 </r>
       <r>  -21.2740    1.0000 </r>
       <r>  -21.2740    1.0000 </r>
       <r>  -21.2736    1.0000 </r>
       <r>  -21.2735    1.0000 </r>
       <r>  -21.2731    1.0000 </r>
       <r>  -21.2726    1.0000 </r>
       <r>  -21.2723    1.0000 </r>
       <r>  -21.2721    1.0000 </r>
       <r>  -21.2718    1.0000 </r>
       <r>  -21.2716    1.0000 </r>
       <r>  -21.2715    1.0000 </r>
       <r>  -21.2714    1.0000 </r>
       <r>  -21.2713    1.0000 </r>
       <r>  -21.2707    1.0000 </r>
       <r>  -21.2707    1.0000 </r>
       <r>  -21.2706    1.0000 </r>
       <r>  -21.2701    1.0000 </r>
       <r>  -21.2700    1.0000 </r>
       <r>  -21.2699    1.0000 </r>
       <r>  -21.2695    1.0000 </r>
       <r>  -21.2692    1.0000 </r>
       <r>  -21.2687    1.0000 </r>
       <r>  -21.2685    1.0000 </r>
       <r>  -21.2683    1.0000 </r>
       <r>  -21.2681    1.0000 </r>
       <r>  -21.2553    1.0000 </r>
       <r>  -21.2552    1.0000 </r>
       <r>  -21.2551    1.0000 </r>
       <r>  -13.2916    1.0000 </r>
       <r>  -13.2912    1.0000 </r>
       <r>  -13.1043    1.0000 </r>
       <r>  -13.0984    1.0000 </r>
       <r>  -13.0972    1.0000 </r>
       <r>  -13.0971    1.0000 </r>
       <r>  -13.0969    1.0000 </r>
       <r>  -13.0969    1.0000 </r>
       <r>  -13.0954    1.0000 </r>
       <r>  -13.0912    1.0000 </r>
       <r>  -13.0071    1.0000 </r>
       <r>  -13.0011    1.0000 </r>
       <r>  -13.0010    1.0000 </r>
       <r>  -13.0007    1.0000 </r>
       <r>  -13.0006    1.0000 </r>
       <r>  -13.0006    1.0000 </r>
       <r>  -13.0004    1.0000 </r>
       <r>  -12.9998    1.0000 </r>
       <r>  -12.9952    1.0000 </r>
       <r>  -12.9924    1.0000 </r>
       <r>  -12.9496    1.0000 </r>
       <r>  -12.9455    1.0000 </r>
       <r>  -12.9453    1.0000 </r>
       <r>  -12.9439    1.0000 </r>
       <r>  -12.9437    1.0000 </r>
       <r>  -12.9432    1.0000 </r>
       <r>  -12.9423    1.0000 </r>
       <r>  -12.9376    1.0000 </r>
       <r>  -12.9311    1.0000 </r>
       <r>  -12.9307    1.0000 </r>
       <r>  -12.9305    1.0000 </r>
       <r>  -12.9254    1.0000 </r>
       <r>   -2.5052    1.0000 </r>
       <r>   -2.5051    1.0000 </r>
       <r>   -2.5049    1.0000 </r>
       <r>   -2.5043    1.0000 </r>
       <r>   -2.5043    1.0000 </r>
       <r>   -2.5040    1.0000 </r>
       <r>   -2.5038    1.0000 </r>
       <r>   -2.5036    1.0000 </r>
       <r>   -2.2877    1.0000 </r>
       <r>   -2.2877    1.0000 </r>
       <r>   -2.2877    1.0000 </r>
       <r>   -2.2876    1.0000 </r>
       <r>   -2.2743    1.0000 </r>
       <r>   -2.2741    1.0000 </r>
       <r>   -2.1413    1.0000 </r>
       <r>   -2.1367    1.0000 </r>
       <r>   -2.1364    1.0000 </r>
       <r>   -2.1364    1.0000 </r>
       <r>   -2.1363    1.0000 </r>
       <r>   -2.1361    1.0000 </r>
       <r>   -2.1361    1.0000 </r>
       <r>   -2.1318    1.0000 </r>
       <r>   -1.9869    1.0000 </r>
       <r>   -1.9868    1.0000 </r>
       <r>   -1.9857    1.0000 </r>
       <r>   -1.9856    1.0000 </r>
       <r>   -1.9854    1.0000 </r>
       <r>   -1.9854    1.0000 </r>
       <r>   -1.9841    1.0000 </r>
       <r>   -1.9840    1.0000 </r>
       <r>   -1.8131    1.0000 </r>
       <r>   -1.8089    1.0000 </r>
       <r>   -1.8088    1.0000 </r>
       <r>   -1.8088    1.0000 </r>
       <r>   -1.8086    1.0000 </r>
       <r>   -1.8085    1.0000 </r>
       <r>   -1.8077    1.0000 </r>
       <r>   -1.8055    1.0000 </r>
       <r>   -1.4979    1.0000 </r>
       <r>   -1.4979    1.0000 </r>
       <r>   -1.4978    1.0000 </r>
       <r>   -1.4977    1.0000 </r>
       <r>   -1.3807    1.0000 </r>
       <r>   -1.3805    1.0000 </r>
       <r>   -1.3804    1.0000 </r>
       <r>   -1.3804    1.0000 </r>
       <r>   -1.2143    1.0000 </r>
       <r>   -1.2127    1.0000 </r>
       <r>   -1.2126    1.0000 </r>
       <r>   -1.2123    1.0000 </r>
       <r>   -1.1933    1.0000 </r>
       <r>   -1.1927    1.0000 </r>
       <r>   -1.1920    1.0000 </r>
       <r>   -1.1916    1.0000 </r>
       <r>   -1.1910    1.0000 </r>
       <r>   -1.1908    1.0000 </r>
       <r>   -1.1899    1.0000 </r>
       <r>   -1.1895    1.0000 </r>
       <r>   -1.1770    1.0000 </r>
       <r>   -1.1751    1.0000 </r>
       <r>   -1.1743    1.0000 </r>
       <r>   -1.1742    1.0000 </r>
       <r>   -1.1740    1.0000 </r>
       <r>   -1.1737    1.0000 </r>
       <r>   -1.1735    1.0000 </r>
       <r>   -1.1709    1.0000 </r>
       <r>   -1.1621    1.0000 </r>
       <r>   -1.1599    1.0000 </r>
       <r>   -1.1597    1.0000 </r>
       <r>   -1.1596    1.0000 </r>
       <r>   -1.1589    1.0000 </r>
       <r>   -1.1587    1.0000 </r>
       <r>   -1.1572    1.0000 </r>
       <r>   -1.1570    1.0000 </r>
       <r>   -1.0833    1.0000 </r>
       <r>   -1.0831    1.0000 </r>
       <r>   -0.9479    1.0000 </r>
       <r>   -0.9474    1.0000 </r>
       <r>   -0.9469    1.0000 </r>
       <r>   -0.9469    1.0000 </r>
       <r>   -0.9468    1.0000 </r>
       <r>   -0.9468    1.0000 </r>
       <r>   -0.9467    1.0000 </r>
       <r>   -0.9457    1.0000 </r>
       <r>   -0.9375    1.0000 </r>
       <r>   -0.9339    1.0000 </r>
       <r>   -0.9323    1.0000 </r>
       <r>   -0.9322    1.0000 </r>
       <r>   -0.9317    1.0000 </r>
       <r>   -0.9316    1.0000 </r>
       <r>   -0.9308    1.0000 </r>
       <r>   -0.9275    1.0000 </r>
       <r>   -0.7684    1.0000 </r>
       <r>   -0.7684    1.0000 </r>
       <r>   -0.7681    1.0000 </r>
       <r>   -0.7680    1.0000 </r>
       <r>    5.0223    0.0000 </r>
       <r>    5.0224    0.0000 </r>
       <r>    6.7079    0.0000 </r>
       <r>    6.7161    0.0000 </r>
       <r>    6.7177    0.0000 </r>
       <r>    6.7183    0.0000 </r>
       <r>    6.7188    0.0000 </r>
       <r>    6.7197    0.0000 </r>
       <r>    6.7201    0.0000 </r>
       <r>    6.7261    0.0000 </r>
       <r>    6.8401    0.0000 </r>
       <r>    6.8408    0.0000 </r>
       <r>    6.8423    0.0000 </r>
       <r>    6.8425    0.0000 </r>
       <r>    6.8439    0.0000 </r>
       <r>    6.8442    0.0000 </r>
       <r>    6.8462    0.0000 </r>
       <r>    6.8465    0.0000 </r>
       <r>    6.9711    0.0000 </r>
       <r>    6.9712    0.0000 </r>
       <r>    7.3625    0.0000 </r>
       <r>    7.3625    0.0000 </r>
       <r>    7.3626    0.0000 </r>
       <r>    7.3627    0.0000 </r>
       <r>    7.4802    0.0000 </r>
       <r>    7.4803    0.0000 </r>
       <r>    7.7146    0.0000 </r>
       <r>    7.7146    0.0000 </r>
       <r>    7.7146    0.0000 </r>
       <r>    7.7146    0.0000 </r>
       <r>    8.2586    0.0000 </r>
       <r>    8.2640    0.0000 </r>
       <r>    8.2658    0.0000 </r>
       <r>    8.2660    0.0000 </r>
       <r>    8.2662    0.0000 </r>
       <r>    8.2673    0.0000 </r>
       <r>    8.2679    0.0000 </r>
       <r>    8.2712    0.0000 </r>
       <r>    8.5267    0.0000 </r>
       <r>    8.5320    0.0000 </r>
       <r>    8.5326    0.0000 </r>
       <r>    8.5334    0.0000 </r>
       <r>    8.5381    0.0000 </r>
       <r>    8.5382    0.0000 </r>
       <r>    8.5383    0.0000 </r>
       <r>    8.5390    0.0000 </r>
       <r>    8.5391    0.0000 </r>
       <r>    8.5394    0.0000 </r>
       <r>    8.5401    0.0000 </r>
       <r>    8.5404    0.0000 </r>
       <r>    8.5416    0.0000 </r>
       <r>    8.5432    0.0000 </r>
       <r>    8.5444    0.0000 </r>
       <r>    8.5492    0.0000 </r>
       <r>    8.9401    0.0000 </r>
       <r>    8.9503    0.0000 </r>
       <r>    8.9505    0.0000 </r>
       <r>    8.9509    0.0000 </r>
       <r>    8.9509    0.0000 </r>
       <r>    8.9519    0.0000 </r>
       <r>    8.9544    0.0000 </r>
       <r>    8.9584    0.0000 </r>
       <r>    9.4884    0.0000 </r>
       <r>    9.5010    0.0000 </r>
      </set>
      <set comment="kpoint 4">
       <r>  -21.3078    1.0000 </r>
       <r>  -21.3078    1.0000 </r>
       <r>  -21.3076    1.0000 </r>
       <r>  -21.2995    1.0000 </r>
       <r>  -21.2983    1.0000 </r>
       <r>  -21.2980    1.0000 </r>
       <r>  -21.2976    1.0000 </r>
       <r>  -21.2973    1.0000 </r>
       <r>  -21.2965    1.0000 </r>
       <r>  -21.2959    1.0000 </r>
       <r>  -21.2954    1.0000 </r>
       <r>  -21.2941    1.0000 </r>
       <r>  -21.2938    1.0000 </r>
       <r>  -21.2937    1.0000 </r>
       <r>  -21.2933    1.0000 </r>
       <r>  -21.2930    1.0000 </r>
       <r>  -21.2929    1.0000 </r>
       <r>  -21.2929    1.0000 </r>
       <r>  -21.2924    1.0000 </r>
       <r>  -21.2921    1.0000 </r>
       <r>  -21.2919    1.0000 </r>
       <r>  -21.2917    1.0000 </r>
       <r>  -21.2915    1.0000 </r>
       <r>  -21.2907    1.0000 </r>
       <r>  -21.2903    1.0000 </r>
       <r>  -21.2894    1.0000 </r>
       <r>  -21.2886    1.0000 </r>
       <r>  -21.2885    1.0000 </r>
       <r>  -21.2875    1.0000 </r>
       <r>  -21.2871    1.0000 </r>
       <r>  -21.2862    1.0000 </r>
       <r>  -21.2859    1.0000 </r>
       <r>  -21.2845    1.0000 </r>
       <r>  -21.2841    1.0000 </r>
       <r>  -21.2841    1.0000 </r>
       <r>  -21.2821    1.0000 </r>
       <r>  -21.2818    1.0000 </r>
[...]
      </set>
     </set>
    </set>
   </array>
  </eigenvalues>
  <separator name="orbital magnetization" >
   <v name="MAGDIPOLOUT">      0.00000000      0.00000000      0.00000000</v>
  </separator>
  <dos>
   <i name="efermi">     -0.56615712 </i>
   <total>
    <array>
     <dimension dim="1">gridpoints</dimension>
     <dimension dim="2">spin</dimension>
     <field>energy</field>
     <field>total</field>
     <field>integrated</field>
     <set>
      <set comment="spin 1">
       <r>   -22.8496     0.0000     0.0000 </r>
       <r>   -22.7366     0.0000     0.0000 </r>
       <r>   -22.6236     0.0000     0.0000 </r>
       <r>   -22.5106     0.0000     0.0000 </r>
       <r>   -22.3977     0.0000     0.0000 </r>
       <r>   -22.2847     0.0000     0.0000 </r>
       <r>   -22.1717     0.0000     0.0000 </r>
       <r>   -22.0588     0.0000     0.0000 </r>
       <r>   -21.9458     0.0000     0.0000 </r>
       <r>   -21.8328     0.0000     0.0000 </r>
       <r>   -21.7199     0.0000     0.0000 </r>
       <r>   -21.6069     0.0000     0.0000 </r>
       <r>   -21.4939     0.0000     0.0000 </r>
       <r>   -21.3809     0.0000     0.0000 </r>
       <r>   -21.2680  1306.3772   147.5819 </r>
       <r>   -21.1550   393.1837   192.0000 </r>
       <r>   -21.0420     0.0000   192.0000 </r>
       <r>   -20.9291     0.0000   192.0000 </r>
       <r>   -20.8161     0.0000   192.0000 </r>
       <r>   -20.7031     0.0000   192.0000 </r>
       <r>   -20.5902     0.0000   192.0000 </r>
       <r>   -20.4772     0.0000   192.0000 </r>
       <r>   -20.3642     0.0000   192.0000 </r>
       <r>   -20.2512     0.0000   192.0000 </r>
       <r>   -20.1383     0.0000   192.0000 </r>
       <r>   -20.0253     0.0000   192.0000 </r>
       <r>   -19.9123     0.0000   192.0000 </r>
       <r>   -19.7994     0.0000   192.0000 </r>
       <r>   -19.6864     0.0000   192.0000 </r>
       <r>   -19.5734     0.0000   192.0000 </r>
       <r>   -19.4604     0.0000   192.0000 </r>
       <r>   -19.3475     0.0000   192.0000 </r>
       <r>   -19.2345     0.0000   192.0000 </r>
       <r>   -19.1215     0.0000   192.0000 </r>
       <r>   -19.0086     0.0000   192.0000 </r>
       <r>   -18.8956     0.0000   192.0000 </r>
       <r>   -18.7826     0.0000   192.0000 </r>
       <r>   -18.6697     0.0000   192.0000 </r>
       <r>   -18.5567     0.0000   192.0000 </r>
       <r>   -18.4437     0.0000   192.0000 </r>
       <r>   -18.3307     0.0000   192.0000 </r>
       <r>   -18.2178     0.0000   192.0000 </r>
       <r>   -18.1048     0.0000   192.0000 </r>
       <r>   -17.9918     0.0000   192.0000 </r>
       <r>   -17.8789     0.0000   192.0000 </r>
       <r>   -17.7659     0.0000   192.0000 </r>
       <r>   -17.6529     0.0000   192.0000 </r>
       <r>   -17.5400     0.0000   192.0000 </r>
       <r>   -17.4270     0.0000   192.0000 </r>
       <r>   -17.3140     0.0000   192.0000 </r>
       <r>   -17.2010     0.0000   192.0000 </r>
       <r>   -17.0881     0.0000   192.0000 </r>
       <r>   -16.9751     0.0000   192.0000 </r>
       <r>   -16.8621     0.0000   192.0000 </r>
       <r>   -16.7492     0.0000   192.0000 </r>
       <r>   -16.6362     0.0000   192.0000 </r>
       <r>   -16.5232     0.0000   192.0000 </r>
       <r>   -16.4102     0.0000   192.0000 </r>
       <r>   -16.2973     0.0000   192.0000 </r>
       <r>   -16.1843     0.0000   192.0000 </r>
       <r>   -16.0713     0.0000   192.0000 </r>
       <r>   -15.9584     0.0000   192.0000 </r>
       <r>   -15.8454     0.0000   192.0000 </r>
       <r>   -15.7324     0.0000   192.0000 </r>
       <r>   -15.6195     0.0000   192.0000 </r>
       <r>   -15.5065     0.0000   192.0000 </r>
       <r>   -15.3935     0.0000   192.0000 </r>
       <r>   -15.2805     0.0000   192.0000 </r>
       <r>   -15.1676     0.0000   192.0000 </r>
       <r>   -15.0546     0.0000   192.0000 </r>
       <r>   -14.9416     0.0000   192.0000 </r>
       <r>   -14.8287     0.0000   192.0000 </r>
       <r>   -14.7157     0.0000   192.0000 </r>
       <r>   -14.6027     0.0000   192.0000 </r>
       <r>   -14.4898     0.0000   192.0000 </r>
       <r>   -14.3768     0.0000   192.0000 </r>
       <r>   -14.2638     0.0000   192.0000 </r>
       <r>   -14.1508     0.0000   192.0000 </r>
       <r>   -14.0379     0.0000   192.0000 </r>
       <r>   -13.9249     0.0000   192.0000 </r>
       <r>   -13.8119     0.0000   192.0000 </r>
       <r>   -13.6990     0.0000   192.0000 </r>
       <r>   -13.5860     0.0000   192.0000 </r>
       <r>   -13.4730     0.0000   192.0000 </r>
       <r>   -13.3600     0.9850   192.1113 </r>
       <r>   -13.2471    18.3536   194.1847 </r>
       <r>   -13.1341    48.6173   199.6771 </r>
       <r>   -13.0211   123.2782   213.6041 </r>
       <r>   -12.9082   368.4892   255.2328 </r>
       <r>   -12.7952     6.7817   256.0000 </r>
       <r>   -12.6822     0.0000   256.0000 </r>
       <r>   -12.5693     0.0000   256.0000 </r>
       <r>   -12.4563     0.0000   256.0000 </r>
       <r>   -12.3433     0.0000   256.0000 </r>
       <r>   -12.2303     0.0000   256.0000 </r>
       <r>   -12.1174     0.0000   256.0000 </r>
       <r>   -12.0044     0.0000   256.0000 </r>
       <r>   -11.8914     0.0000   256.0000 </r>
       <r>   -11.7785     0.0000   256.0000 </r>
       <r>   -11.6655     0.0000   256.0000 </r>
       <r>   -11.5525     0.0000   256.0000 </r>
       <r>   -11.4396     0.0000   256.0000 </r>
       <r>   -11.3266     0.0000   256.0000 </r>
       <r>   -11.2136     0.0000   256.0000 </r>
       <r>   -11.1006     0.0000   256.0000 </r>
       <r>   -10.9877     0.0000   256.0000 </r>
       <r>   -10.8747     0.0000   256.0000 </r>
       <r>   -10.7617     0.0000   256.0000 </r>
       <r>   -10.6488     0.0000   256.0000 </r>
       <r>   -10.5358     0.0000   256.0000 </r>
       <r>   -10.4228     0.0000   256.0000 </r>
       <r>   -10.3099     0.0000   256.0000 </r>
       <r>   -10.1969     0.0000   256.0000 </r>
       <r>   -10.0839     0.0000   256.0000 </r>
       <r>    -9.9709     0.0000   256.0000 </r>
       <r>    -9.8580     0.0000   256.0000 </r>
       <r>    -9.7450     0.0000   256.0000 </r>
       <r>    -9.6320     0.0000   256.0000 </r>
       <r>    -9.5191     0.0000   256.0000 </r>
       <r>    -9.4061     0.0000   256.0000 </r>
       <r>    -9.2931     0.0000   256.0000 </r>
       <r>    -9.1801     0.0000   256.0000 </r>
       <r>    -9.0672     0.0000   256.0000 </r>
       <r>    -8.9542     0.0000   256.0000 </r>
       <r>    -8.8412     0.0000   256.0000 </r>
       <r>    -8.7283     0.0000   256.0000 </r>
       <r>    -8.6153     0.0000   256.0000 </r>
       <r>    -8.5023     0.0000   256.0000 </r>
       <r>    -8.3894     0.0000   256.0000 </r>
       <r>    -8.2764     0.0000   256.0000 </r>
       <r>    -8.1634     0.0000   256.0000 </r>
       <r>    -8.0504     0.0000   256.0000 </r>
       <r>    -7.9375     0.0000   256.0000 </r>
       <r>    -7.8245     0.0000   256.0000 </r>
       <r>    -7.7115     0.0000   256.0000 </r>
       <r>    -7.5986     0.0000   256.0000 </r>
       <r>    -7.4856     0.0000   256.0000 </r>
       <r>    -7.3726     0.0000   256.0000 </r>
       <r>    -7.2597     0.0000   256.0000 </r>
       <r>    -7.1467     0.0000   256.0000 </r>
       <r>    -7.0337     0.0000   256.0000 </r>
       <r>    -6.9207     0.0000   256.0000 </r>
       <r>    -6.8078     0.0000   256.0000 </r>
       <r>    -6.6948     0.0000   256.0000 </r>
       <r>    -6.5818     0.0000   256.0000 </r>
       <r>    -6.4689     0.0000   256.0000 </r>
       <r>    -6.3559     0.0000   256.0000 </r>
       <r>    -6.2429     0.0000   256.0000 </r>
       <r>    -6.1299     0.0000   256.0000 </r>
       <r>    -6.0170     0.0000   256.0000 </r>
       <r>    -5.9040     0.0000   256.0000 </r>
       <r>    -5.7910     0.0000   256.0000 </r>
       <r>    -5.6781     0.0000   256.0000 </r>
       <r>    -5.5651     0.0000   256.0000 </r>
       <r>    -5.4521     0.0000   256.0000 </r>
       <r>    -5.3392     0.0000   256.0000 </r>
       <r>    -5.2262     0.0000   256.0000 </r>
       <r>    -5.1132     0.0000   256.0000 </r>
       <r>    -5.0002     0.0000   256.0000 </r>
       <r>    -4.8873     0.0000   256.0000 </r>
       <r>    -4.7743     0.0000   256.0000 </r>
       <r>    -4.6613     0.0000   256.0000 </r>
       <r>    -4.5484     0.0000   256.0000 </r>
       <r>    -4.4354     0.0000   256.0000 </r>
       <r>    -4.3224     0.0000   256.0000 </r>
       <r>    -4.2095     0.0000   256.0000 </r>
       <r>    -4.0965     0.0000   256.0000 </r>
       <r>    -3.9835     0.0000   256.0000 </r>
       <r>    -3.8705     0.0000   256.0000 </r>
       <r>    -3.7576     0.0000   256.0000 </r>
       <r>    -3.6446     0.0000   256.0000 </r>
       <r>    -3.5316     0.0000   256.0000 </r>
       <r>    -3.4187     0.0000   256.0000 </r>
       <r>    -3.3057     0.0000   256.0000 </r>
       <r>    -3.1927     0.0000   256.0000 </r>
       <r>    -3.0797     0.0000   256.0000 </r>
       <r>    -2.9668     0.0000   256.0000 </r>
       <r>    -2.8538     0.0000   256.0000 </r>
       <r>    -2.7408     0.0172   256.0019 </r>
       <r>    -2.6279     8.8346   257.0000 </r>
       <r>    -2.5149    12.2773   258.3870 </r>
       <r>    -2.4019    88.5901   268.3950 </r>
       <r>    -2.2890    79.4314   277.3684 </r>
       <r>    -2.1760   160.0913   295.4541 </r>
       <r>    -2.0630    77.8603   304.2500 </r>
       <r>    -1.9500    53.7961   310.3274 </r>
       <r>    -1.8371    52.2843   316.2339 </r>
       <r>    -1.7241    84.2351   325.7500 </r>
       <r>    -1.6111     0.0000   325.7500 </r>
       <r>    -1.4982    41.0476   330.3872 </r>
       <r>    -1.3852   215.4226   354.7235 </r>
       <r>    -1.2722    34.9415   358.6709 </r>
       <r>    -1.1593   231.1319   384.7819 </r>
       <r>    -1.0463   155.8619   402.3900 </r>
       <r>    -0.9333   236.6869   429.1289 </r>
       <r>    -0.8203    80.3200   438.2027 </r>
       <r>    -0.7074    79.7384   447.2108 </r>
       <r>    -0.5944     6.9860   448.0000 </r>
       <r>    -0.4814     0.0000   448.0000 </r>
       <r>    -0.3685     0.0000   448.0000 </r>
       <r>    -0.2555     0.0000   448.0000 </r>
       <r>    -0.1425     0.0000   448.0000 </r>
       <r>    -0.0295     0.0000   448.0000 </r>
       <r>     0.0834     0.0000   448.0000 </r>
       <r>     0.1964     0.0000   448.0000 </r>
       <r>     0.3094     0.0000   448.0000 </r>
       <r>     0.4223     0.0000   448.0000 </r>
       <r>     0.5353     0.0000   448.0000 </r>
       <r>     0.6483     0.0000   448.0000 </r>
       <r>     0.7612     0.0000   448.0000 </r>
       <r>     0.8742     0.0000   448.0000 </r>
       <r>     0.9872     0.0000   448.0000 </r>
       <r>     1.1002     0.0000   448.0000 </r>
       <r>     1.2131     0.0000   448.0000 </r>
       <r>     1.3261     0.0000   448.0000 </r>
       <r>     1.4391     0.0000   448.0000 </r>
       <r>     1.5520     0.0000   448.0000 </r>
       <r>     1.6650     0.0000   448.0000 </r>
       <r>     1.7780     0.0000   448.0000 </r>
       <r>     1.8909     0.0000   448.0000 </r>
       <r>     2.0039     0.0000   448.0000 </r>
       <r>     2.1169     0.0000   448.0000 </r>
       <r>     2.2299     0.0000   448.0000 </r>
       <r>     2.3428     0.0000   448.0000 </r>
       <r>     2.4558     0.0000   448.0000 </r>
       <r>     2.5688     0.0000   448.0000 </r>
       <r>     2.6817     0.0000   448.0000 </r>
       <r>     2.7947     0.0000   448.0000 </r>
       <r>     2.9077     0.0000   448.0000 </r>
       <r>     3.0207     0.0000   448.0000 </r>
       <r>     3.1336     0.0000   448.0000 </r>
       <r>     3.2466     0.0000   448.0000 </r>
       <r>     3.3596     0.0000   448.0000 </r>
       <r>     3.4725     0.0000   448.0000 </r>
       <r>     3.5855     0.0000   448.0000 </r>
       <r>     3.6985     0.0000   448.0000 </r>
       <r>     3.8114     0.0000   448.0000 </r>
       <r>     3.9244     0.0000   448.0000 </r>
       <r>     4.0374     0.0000   448.0000 </r>
       <r>     4.1504     0.0000   448.0000 </r>
       <r>     4.2633     0.0000   448.0000 </r>
       <r>     4.3763     2.2009   448.2486 </r>
       <r>     4.4893     0.0120   448.2500 </r>
       <r>     4.6022     0.0000   448.2500 </r>
       <r>     4.7152     0.0000   448.2500 </r>
       <r>     4.8282     0.0000   448.2500 </r>
       <r>     4.9411     0.0000   448.2500 </r>
       <r>     5.0541    13.1015   449.7301 </r>
       <r>     5.1671     0.1763   449.7500 </r>
       <r>     5.2801     0.0000   449.7500 </r>
       <r>     5.3930     0.0000   449.7500 </r>
       <r>     5.5060     0.3017   449.7841 </r>
       <r>     5.6190    26.2540   452.7500 </r>
       <r>     5.7319     0.0000   452.7500 </r>
       <r>     5.8449    14.4129   454.3782 </r>
       <r>     5.9579     3.2908   454.7500 </r>
       <r>     6.0709     0.0000   454.7500 </r>
       <r>     6.1838     0.0000   454.7500 </r>
       <r>     6.2968     0.0000   454.7500 </r>
       <r>     6.4098    13.3061   456.2532 </r>
       <r>     6.5227     8.8231   457.2500 </r>
       <r>     6.6357    21.7223   459.7040 </r>
       <r>     6.7487    83.4219   469.1282 </r>
       <r>     6.8616    55.3278   475.3786 </r>
       <r>     6.9746    13.4048   476.8929 </r>
       <r>     7.0876     5.3737   477.5000 </r>
       <r>     7.2006     2.1815   477.7464 </r>
       <r>     7.3135     4.4666   478.2510 </r>
       <r>     7.4265    77.9647   487.0587 </r>
       <r>     7.5395   158.5767   504.9732 </r>
       <r>     7.6524    15.7247   506.7500 </r>
       <r>     7.7654    26.5499   509.7494 </r>
       <r>     7.8784     0.0077   509.7506 </r>
       <r>     7.9913    53.1032   515.7497 </r>
       <r>     8.1043     0.0001   515.7500 </r>
       <r>     8.2173    13.3012   517.2527 </r>
       <r>     8.3303    92.5842   527.7122 </r>
       <r>     8.4432     0.3316   527.7500 </r>
       <r>     8.5562   118.0157   541.0823 </r>
       <r>     8.6692    41.3181   545.7500 </r>
       <r>     8.7821     0.0000   545.7500 </r>
       <r>     8.8951    58.3954   552.3470 </r>
       <r>     9.0081   131.6099   567.2150 </r>
       <r>     9.1211    20.2240   569.5000 </r>
       <r>     9.2340     9.0177   570.5187 </r>
       <r>     9.3470    35.2417   574.5000 </r>
       <r>     9.4600     0.1585   574.5179 </r>
       <r>     9.5729    13.1194   576.0000 </r>
       <r>     9.6859     0.0000   576.0000 </r>
       <r>     9.7989     0.0000   576.0000 </r>
       <r>     9.9118     0.0000   576.0000 </r>
       <r>    10.0248     0.0000   576.0000 </r>
       <r>    10.1378     0.0000   576.0000 </r>
       <r>    10.2508     0.0000   576.0000 </r>
       <r>    10.3637     0.0000   576.0000 </r>
       <r>    10.4767     0.0000   576.0000 </r>
       <r>    10.5897     0.0000   576.0000 </r>
       <r>    10.7026     0.0000   576.0000 </r>
       <r>    10.8156     0.0000   576.0000 </r>
       <r>    10.9286     0.0000   576.0000 </r>
       <r>    11.0415     0.0000   576.0000 </r>
      </set>
     </set>
    </array>
   </total>
  </dos>
 </calculation>
 <structure name="finalpos" >
  <crystal>
   <varray name="basis" >
    <v>      11.20400236       0.00000000       0.00000000 </v>
    <v>       0.00000000      11.20400236       0.00000000 </v>
    <v>       0.00000000       0.00000000      11.20400236 </v>
   </varray>
   <i name="volume">   1406.43470641 </i>
   <varray name="rec_basis" >
    <v>       0.08925382       0.00000000       0.00000000 </v>
    <v>       0.00000000       0.08925382       0.00000000 </v>
    <v>       0.00000000       0.00000000       0.08925382 </v>
   </varray>
  </crystal>
  <varray name="positions" >
   <v>       0.00267761       0.00000000       0.00000000 </v>
   <v>       0.25000000       0.25000000       0.00000000 </v>
   <v>       0.25000000       0.00000000       0.25000000 </v>
   <v>       0.00000000       0.25000000       0.25000000 </v>
   <v>       0.00000000       0.00000000       0.50000000 </v>
   <v>       0.25000000       0.25000000       0.50000000 </v>
   <v>       0.25000000       0.00000000       0.75000000 </v>
   <v>       0.00000000       0.25000000       0.75000000 </v>
   <v>       0.00000000       0.50000000       0.00000000 </v>
   <v>       0.25000000       0.75000000       0.00000000 </v>
   <v>       0.25000000       0.50000000       0.25000000 </v>
   <v>       0.00000000       0.75000000       0.25000000 </v>
   <v>       0.00000000       0.50000000       0.50000000 </v>
   <v>       0.25000000       0.75000000       0.50000000 </v>
   <v>       0.25000000       0.50000000       0.75000000 </v>
   <v>       0.00000000       0.75000000       0.75000000 </v>
   <v>       0.50000000       0.00000000       0.00000000 </v>
   <v>       0.75000000       0.25000000       0.00000000 </v>
   <v>       0.75000000       0.00000000       0.25000000 </v>
   <v>       0.50000000       0.25000000       0.25000000 </v>
   <v>       0.50000000       0.00000000       0.50000000 </v>
   <v>       0.75000000       0.25000000       0.50000000 </v>
   <v>       0.75000000       0.00000000       0.75000000 </v>
   <v>       0.50000000       0.25000000       0.75000000 </v>
   <v>       0.50000000       0.50000000       0.00000000 </v>
   <v>       0.75000000       0.75000000       0.00000000 </v>
   <v>       0.75000000       0.50000000       0.25000000 </v>
   <v>       0.50000000       0.75000000       0.25000000 </v>
   <v>       0.50000000       0.50000000       0.50000000 </v>
   <v>       0.75000000       0.75000000       0.50000000 </v>
   <v>       0.75000000       0.50000000       0.75000000 </v>
   <v>       0.50000000       0.75000000       0.75000000 </v>
   <v>       0.25000000       0.25000000       0.25000000 </v>
   <v>       0.00000000       0.00000000       0.25000000 </v>
   <v>       0.00000000       0.25000000       0.00000000 </v>
   <v>       0.24732239       0.00000000       0.00000000 </v>
   <v>       0.25000000       0.25000000       0.75000000 </v>
   <v>       0.00000000       0.00000000       0.75000000 </v>
   <v>       0.00000000       0.25000000       0.50000000 </v>
   <v>       0.25000000       0.00000000       0.50000000 </v>
   <v>       0.25000000       0.75000000       0.25000000 </v>
   <v>       0.00000000       0.50000000       0.25000000 </v>
   <v>       0.00000000       0.75000000       0.00000000 </v>
   <v>       0.25000000       0.50000000       0.00000000 </v>
   <v>       0.25000000       0.75000000       0.75000000 </v>
   <v>       0.00000000       0.50000000       0.75000000 </v>
   <v>       0.00000000       0.75000000       0.50000000 </v>
   <v>       0.25000000       0.50000000       0.50000000 </v>
   <v>       0.75000000       0.25000000       0.25000000 </v>
   <v>       0.50000000       0.00000000       0.25000000 </v>
   <v>       0.50000000       0.25000000       0.00000000 </v>
   <v>       0.75000000       0.00000000       0.00000000 </v>
   <v>       0.75000000       0.25000000       0.75000000 </v>
   <v>       0.50000000       0.00000000       0.75000000 </v>
   <v>       0.50000000       0.25000000       0.50000000 </v>
   <v>       0.75000000       0.00000000       0.50000000 </v>
   <v>       0.75000000       0.75000000       0.25000000 </v>
   <v>       0.50000000       0.50000000       0.25000000 </v>
   <v>       0.50000000       0.75000000       0.00000000 </v>
   <v>       0.75000000       0.50000000       0.00000000 </v>
   <v>       0.75000000       0.75000000       0.75000000 </v>
   <v>       0.50000000       0.50000000       0.75000000 </v>
   <v>       0.50000000       0.75000000       0.50000000 </v>
   <v>       0.75000000       0.50000000       0.50000000 </v>
  </varray>
 </structure>
</modeling>
