  64  64   0   0
  0.2197554E+02  0.1120400E-08  0.1120400E-08  0.1120400E-08  0.5000000E-15
  1.000000000000000E-004
  CAR 
 unknown system                          
     11.06169291    -22.85503352  301     -0.55478589      1.00000000
    -22.855  0.0000E+00  0.0000E+00
    -22.742  0.0000E+00  0.0000E+00
    -22.629  0.0000E+00  0.0000E+00
    -22.516  0.0000E+00  0.0000E+00
    -22.403  0.0000E+00  0.0000E+00
    -22.290  0.0000E+00  0.0000E+00
    -22.177  0.0000E+00  0.0000E+00
    -22.064  0.0000E+00  0.0000E+00
    -21.951  0.0000E+00  0.0000E+00
    -21.838  0.0000E+00  0.0000E+00
    -21.724  0.0000E+00  0.0000E+00
    -21.611  0.0000E+00  0.0000E+00
    -21.498  0.0000E+00  0.0000E+00
    -21.385  0.5459E-05  0.6172E-06
    -21.272  0.1156E+04  0.1306E+03
    -21.159  0.5427E+03  0.1920E+03
    -21.046  0.0000E+00  0.1920E+03
    -20.933  0.0000E+00  0.1920E+03
    -20.820  0.0000E+00  0.1920E+03
    -20.707  0.0000E+00  0.1920E+03
    -20.594  0.0000E+00  0.1920E+03
    -20.481  0.0000E+00  0.1920E+03
    -20.368  0.0000E+00  0.1920E+03
    -20.255  0.0000E+00  0.1920E+03
    -20.142  0.0000E+00  0.1920E+03
    -20.029  0.0000E+00  0.1920E+03
    -19.916  0.0000E+00  0.1920E+03
    -19.803  0.0000E+00  0.1920E+03
    -19.689  0.0000E+00  0.1920E+03
    -19.576  0.0000E+00  0.1920E+03
    -19.463  0.0000E+00  0.1920E+03
    -19.350  0.0000E+00  0.1920E+03
    -19.237  0.0000E+00  0.1920E+03
    -19.124  0.0000E+00  0.1920E+03
    -19.011  0.0000E+00  0.1920E+03
    -18.898  0.0000E+00  0.1920E+03
    -18.785  0.0000E+00  0.1920E+03
    -18.672  0.0000E+00  0.1920E+03
    -18.559  0.0000E+00  0.1920E+03
    -18.446  0.0000E+00  0.1920E+03
    -18.333  0.0000E+00  0.1920E+03
    -18.220  0.0000E+00  0.1920E+03
    -18.107  0.0000E+00  0.1920E+03
    -17.994  0.0000E+00  0.1920E+03
    -17.881  0.0000E+00  0.1920E+03
    -17.768  0.0000E+00  0.1920E+03
    -17.654  0.0000E+00  0.1920E+03
    -17.541  0.0000E+00  0.1920E+03
    -17.428  0.0000E+00  0.1920E+03
    -17.315  0.0000E+00  0.1920E+03
    -17.202  0.0000E+00  0.1920E+03
    -17.089  0.0000E+00  0.1920E+03
    -16.976  0.0000E+00  0.1920E+03
    -16.863  0.0000E+00  0.1920E+03
    -16.750  0.0000E+00  0.1920E+03
    -16.637  0.0000E+00  0.1920E+03
    -16.524  0.0000E+00  0.1920E+03
    -16.411  0.0000E+00  0.1920E+03
    -16.298  0.0000E+00  0.1920E+03
    -16.185  0.0000E+00  0.1920E+03
    -16.072  0.0000E+00  0.1920E+03
    -15.959  0.0000E+00  0.1920E+03
    -15.846  0.0000E+00  0.1920E+03
    -15.733  0.0000E+00  0.1920E+03
    -15.619  0.0000E+00  0.1920E+03
    -15.506  0.0000E+00  0.1920E+03
    -15.393  0.0000E+00  0.1920E+03
    -15.280  0.0000E+00  0.1920E+03
    -15.167  0.0000E+00  0.1920E+03
    -15.054  0.0000E+00  0.1920E+03
    -14.941  0.0000E+00  0.1920E+03
    -14.828  0.0000E+00  0.1920E+03
    -14.715  0.0000E+00  0.1920E+03
    -14.602  0.0000E+00  0.1920E+03
    -14.489  0.0000E+00  0.1920E+03
    -14.376  0.0000E+00  0.1920E+03
    -14.263  0.0000E+00  0.1920E+03
    -14.150  0.0000E+00  0.1920E+03
    -14.037  0.0000E+00  0.1920E+03
    -13.924  0.0000E+00  0.1920E+03
    -13.811  0.0000E+00  0.1920E+03
    -13.698  0.0000E+00  0.1920E+03
    -13.584  0.0000E+00  0.1920E+03
    -13.471  0.1105E-14  0.1920E+03
    -13.358  0.1082E+01  0.1921E+03
    -13.245  0.1892E+02  0.1943E+03
    -13.132  0.4859E+02  0.1998E+03
    -13.019  0.1246E+03  0.2138E+03
    -12.906  0.3682E+03  0.2555E+03
    -12.793  0.4707E+01  0.2560E+03
    -12.680  0.0000E+00  0.2560E+03
    -12.567  0.0000E+00  0.2560E+03
    -12.454  0.0000E+00  0.2560E+03
    -12.341  0.0000E+00  0.2560E+03
    -12.228  0.0000E+00  0.2560E+03
    -12.115  0.0000E+00  0.2560E+03
    -12.002  0.0000E+00  0.2560E+03
    -11.889  0.0000E+00  0.2560E+03
    -11.776  0.0000E+00  0.2560E+03
    -11.663  0.0000E+00  0.2560E+03
    -11.549  0.0000E+00  0.2560E+03
    -11.436  0.0000E+00  0.2560E+03
    -11.323  0.0000E+00  0.2560E+03
    -11.210  0.0000E+00  0.2560E+03
    -11.097  0.0000E+00  0.2560E+03
    -10.984  0.0000E+00  0.2560E+03
    -10.871  0.0000E+00  0.2560E+03
    -10.758  0.0000E+00  0.2560E+03
    -10.645  0.0000E+00  0.2560E+03
    -10.532  0.0000E+00  0.2560E+03
    -10.419  0.0000E+00  0.2560E+03
    -10.306  0.0000E+00  0.2560E+03
    -10.193  0.0000E+00  0.2560E+03
    -10.080  0.0000E+00  0.2560E+03
     -9.967  0.0000E+00  0.2560E+03
     -9.854  0.0000E+00  0.2560E+03
     -9.741  0.0000E+00  0.2560E+03
     -9.628  0.0000E+00  0.2560E+03
     -9.514  0.0000E+00  0.2560E+03
     -9.401  0.0000E+00  0.2560E+03
     -9.288  0.0000E+00  0.2560E+03
     -9.175  0.0000E+00  0.2560E+03
     -9.062  0.0000E+00  0.2560E+03
     -8.949  0.0000E+00  0.2560E+03
     -8.836  0.0000E+00  0.2560E+03
     -8.723  0.0000E+00  0.2560E+03
     -8.610  0.0000E+00  0.2560E+03
     -8.497  0.0000E+00  0.2560E+03
     -8.384  0.0000E+00  0.2560E+03
     -8.271  0.0000E+00  0.2560E+03
     -8.158  0.0000E+00  0.2560E+03
     -8.045  0.0000E+00  0.2560E+03
     -7.932  0.0000E+00  0.2560E+03
     -7.819  0.0000E+00  0.2560E+03
     -7.706  0.0000E+00  0.2560E+03
     -7.593  0.0000E+00  0.2560E+03
     -7.479  0.0000E+00  0.2560E+03
     -7.366  0.0000E+00  0.2560E+03
     -7.253  0.0000E+00  0.2560E+03
     -7.140  0.0000E+00  0.2560E+03
     -7.027  0.0000E+00  0.2560E+03
     -6.914  0.0000E+00  0.2560E+03
     -6.801  0.0000E+00  0.2560E+03
     -6.688  0.0000E+00  0.2560E+03
     -6.575  0.0000E+00  0.2560E+03
     -6.462  0.0000E+00  0.2560E+03
     -6.349  0.0000E+00  0.2560E+03
     -6.236  0.0000E+00  0.2560E+03
     -6.123  0.0000E+00  0.2560E+03
     -6.010  0.0000E+00  0.2560E+03
     -5.897  0.0000E+00  0.2560E+03
     -5.784  0.0000E+00  0.2560E+03
     -5.671  0.0000E+00  0.2560E+03
     -5.558  0.0000E+00  0.2560E+03
     -5.444  0.0000E+00  0.2560E+03
     -5.331  0.0000E+00  0.2560E+03
     -5.218  0.0000E+00  0.2560E+03
     -5.105  0.0000E+00  0.2560E+03
     -4.992  0.0000E+00  0.2560E+03
     -4.879  0.0000E+00  0.2560E+03
     -4.766  0.0000E+00  0.2560E+03
     -4.653  0.0000E+00  0.2560E+03
     -4.540  0.0000E+00  0.2560E+03
     -4.427  0.0000E+00  0.2560E+03
     -4.314  0.0000E+00  0.2560E+03
     -4.201  0.0000E+00  0.2560E+03
     -4.088  0.0000E+00  0.2560E+03
     -3.975  0.0000E+00  0.2560E+03
     -3.862  0.0000E+00  0.2560E+03
     -3.749  0.0000E+00  0.2560E+03
     -3.636  0.0000E+00  0.2560E+03
     -3.522  0.0000E+00  0.2560E+03
     -3.409  0.0000E+00  0.2560E+03
     -3.296  0.0000E+00  0.2560E+03
     -3.183  0.0000E+00  0.2560E+03
     -3.070  0.0000E+00  0.2560E+03
     -2.957  0.0000E+00  0.2560E+03
     -2.844  0.0000E+00  0.2560E+03
     -2.731  0.1220E+00  0.2560E+03
     -2.618  0.8723E+01  0.2570E+03
     -2.505  0.2553E+02  0.2599E+03
     -2.392  0.8347E+02  0.2693E+03
     -2.279  0.8267E+02  0.2787E+03
     -2.166  0.1543E+03  0.2961E+03
     -2.053  0.7195E+02  0.3043E+03
     -1.940  0.5690E+02  0.3107E+03
     -1.827  0.6293E+02  0.3178E+03
     -1.714  0.7035E+02  0.3257E+03
     -1.601  0.4836E-09  0.3258E+03
     -1.487  0.7405E+02  0.3341E+03
     -1.374  0.1943E+03  0.3561E+03
     -1.261  0.2383E+02  0.3588E+03
     -1.148  0.2550E+03  0.3876E+03
     -1.035  0.1357E+03  0.4030E+03
     -0.922  0.2600E+03  0.4324E+03
     -0.809  0.6173E+02  0.4393E+03
     -0.696  0.7009E+02  0.4473E+03
     -0.583  0.6578E+01  0.4480E+03
     -0.470  0.0000E+00  0.4480E+03
     -0.357  0.0000E+00  0.4480E+03
     -0.244  0.0000E+00  0.4480E+03
     -0.131  0.0000E+00  0.4480E+03
     -0.018  0.0000E+00  0.4480E+03
      0.095  0.0000E+00  0.4480E+03
      0.208  0.0000E+00  0.4480E+03
      0.321  0.0000E+00  0.4480E+03
      0.434  0.0000E+00  0.4480E+03
      0.548  0.0000E+00  0.4480E+03
      0.661  0.0000E+00  0.4480E+03
      0.774  0.0000E+00  0.4480E+03
      0.887  0.0000E+00  0.4480E+03
      1.000  0.0000E+00  0.4480E+03
      1.113  0.0000E+00  0.4480E+03
      1.226  0.0000E+00  0.4480E+03
      1.339  0.0000E+00  0.4480E+03
      1.452  0.0000E+00  0.4480E+03
      1.565  0.0000E+00  0.4480E+03
      1.678  0.0000E+00  0.4480E+03
      1.791  0.0000E+00  0.4480E+03
      1.904  0.0000E+00  0.4480E+03
      2.017  0.0000E+00  0.4480E+03
      2.130  0.0000E+00  0.4480E+03
      2.243  0.0000E+00  0.4480E+03
      2.356  0.0000E+00  0.4480E+03
      2.469  0.0000E+00  0.4480E+03
      2.583  0.0000E+00  0.4480E+03
      2.696  0.0000E+00  0.4480E+03
      2.809  0.0000E+00  0.4480E+03
      2.922  0.0000E+00  0.4480E+03
      3.035  0.0000E+00  0.4480E+03
      3.148  0.0000E+00  0.4480E+03
      3.261  0.0000E+00  0.4480E+03
      3.374  0.0000E+00  0.4480E+03
      3.487  0.0000E+00  0.4480E+03
      3.600  0.0000E+00  0.4480E+03
      3.713  0.0000E+00  0.4480E+03
      3.826  0.0000E+00  0.4480E+03
      3.939  0.0000E+00  0.4480E+03
      4.052  0.0000E+00  0.4480E+03
      4.165  0.0000E+00  0.4480E+03
      4.278  0.1335E-04  0.4480E+03
      4.391  0.2211E+01  0.4482E+03
      4.504  0.0000E+00  0.4482E+03
      4.618  0.0000E+00  0.4482E+03
      4.731  0.0000E+00  0.4482E+03
      4.844  0.0000E+00  0.4482E+03
      4.957  0.3585E-04  0.4483E+03
      5.070  0.1326E+02  0.4497E+03
      5.183  0.4255E-02  0.4498E+03
      5.296  0.0000E+00  0.4498E+03
      5.409  0.0000E+00  0.4498E+03
      5.522  0.3279E+01  0.4501E+03
      5.635  0.2326E+02  0.4527E+03
      5.748  0.8563E-06  0.4528E+03
      5.861  0.1722E+02  0.4547E+03
      5.974  0.4717E+00  0.4548E+03
      6.087  0.0000E+00  0.4548E+03
      6.200  0.0000E+00  0.4548E+03
      6.313  0.2337E-02  0.4548E+03
      6.426  0.1412E+02  0.4563E+03
      6.539  0.7992E+01  0.4573E+03
      6.653  0.4336E+02  0.4622E+03
      6.766  0.6273E+02  0.4692E+03
      6.879  0.5931E+02  0.4759E+03
      6.992  0.1269E+02  0.4774E+03
      7.105  0.1026E+01  0.4775E+03
      7.218  0.5187E+01  0.4781E+03
      7.331  0.1843E+01  0.4783E+03
      7.444  0.8250E+02  0.4876E+03
      7.557  0.1668E+03  0.5065E+03
      7.670  0.2379E+01  0.5068E+03
      7.783  0.2651E+02  0.5097E+03
      7.896  0.2987E+00  0.5098E+03
      8.009  0.5277E+02  0.5157E+03
      8.122  0.1263E-01  0.5158E+03
      8.235  0.1451E+02  0.5174E+03
      8.348  0.9161E+02  0.5277E+03
      8.461  0.5159E-02  0.5278E+03
      8.574  0.1493E+03  0.5446E+03
      8.688  0.9936E+01  0.5458E+03
      8.801  0.4956E-05  0.5458E+03
      8.914  0.8392E+02  0.5552E+03
      9.027  0.1226E+03  0.5691E+03
      9.140  0.3518E+01  0.5695E+03
      9.253  0.2655E+02  0.5725E+03
      9.366  0.1767E+02  0.5745E+03
      9.479  0.1598E+01  0.5747E+03
      9.592  0.1167E+02  0.5760E+03
      9.705  0.0000E+00  0.5760E+03
      9.818  0.0000E+00  0.5760E+03
      9.931  0.0000E+00  0.5760E+03
     10.044  0.0000E+00  0.5760E+03
     10.157  0.0000E+00  0.5760E+03
     10.270  0.0000E+00  0.5760E+03
     10.383  0.0000E+00  0.5760E+03
     10.496  0.0000E+00  0.5760E+03
     10.609  0.0000E+00  0.5760E+03
     10.723  0.0000E+00  0.5760E+03
     10.836  0.0000E+00  0.5760E+03
     10.949  0.0000E+00  0.5760E+03
     11.062  0.0000E+00  0.5760E+03
