       N       E                     dE             d eps       ncg     rms          rms(c)
DAV:   1     0.439873567459E+04    0.43987E+04   -0.17102E+05  4864   0.125E+03
DAV:   2     0.367038725521E+03   -0.40317E+04   -0.38331E+04  5152   0.367E+02
DAV:   3    -0.204876553780E+03   -0.57192E+03   -0.56748E+03  5568   0.156E+02
DAV:   4    -0.228128135333E+03   -0.23252E+02   -0.23136E+02  5504   0.335E+01
DAV:   5    -0.229001502133E+03   -0.87337E+00   -0.87179E+00  5856   0.633E+00    0.106E+01
DAV:   6    -0.224139254048E+03    0.48622E+01   -0.94582E+00  5696   0.534E+00    0.775E+00
DAV:   7    -0.223777462829E+03    0.36179E+00   -0.20833E+00  6272   0.235E+00    0.533E+00
DAV:   8    -0.223902970216E+03   -0.12551E+00   -0.26914E-01  5376   0.125E+00    0.146E+00
DAV:   9    -0.223897076639E+03    0.58936E-02   -0.11488E-02  5664   0.265E-01    0.632E-01
DAV:  10    -0.223901202602E+03   -0.41260E-02   -0.19026E-02  5472   0.238E-01    0.292E-01
DAV:  11    -0.223900460419E+03    0.74218E-03   -0.17093E-03  5984   0.867E-02    0.917E-02
DAV:  12    -0.223900424860E+03    0.35559E-04   -0.12903E-04  6144   0.231E-02    0.268E-02
DAV:  13    -0.223900417169E+03    0.76909E-05   -0.37399E-05  5440   0.104E-02    0.372E-03
DAV:  14    -0.223900419473E+03   -0.23035E-05   -0.30338E-06  5344   0.433E-03    0.669E-03
DAV:  15    -0.223900420250E+03   -0.77688E-06   -0.35959E-07  6272   0.196E-03    0.419E-03
DAV:  16    -0.223900420730E+03   -0.48072E-06   -0.18017E-07  5664   0.100E-03    0.155E-03
DAV:  17    -0.223900420850E+03   -0.11940E-06   -0.12541E-08  3840   0.767E-04    0.516E-04
DAV:  18    -0.223900421043E+03   -0.19345E-06   -0.26553E-08  4768   0.668E-04    0.604E-04
DAV:  19    -0.223900421007E+03    0.35914E-07   -0.11568E-08  3296   0.385E-04    0.414E-04
DAV:  20    -0.223900420967E+03    0.40396E-07   -0.23416E-09  3552   0.468E-04    0.305E-04
DAV:  21    -0.223900420905E+03    0.62122E-07   -0.45599E-09  3136   0.186E-04    0.155E-04
DAV:  22    -0.223900420913E+03   -0.78580E-08   -0.13604E-09  3040   0.167E-04
   1 F= -.22390042E+03 E0= -.22390042E+03  d E =-.297810E-15
