 vasp.6.3.2 27Jun22 (build Oct 14 2022 12:13:54) complex                        
  
 executed on             LinuxIFC date 2025.08.28  22:11:41
 running on   32 total cores
 distrk:  each k-point on   32 cores,    1 groups
 distr:  one band on NCORE=   1 cores,   32 groups


--------------------------------------------------------------------------------------------------------


 INCAR:
   ENCUT = 341.213600
   SIGMA = 0.020000
   EDIFF = 1.00e-08
   GGA = PS
   PREC = Accurate
   IALGO = 38
   IBRION = -1
   ISMEAR = 0
   NELMIN = 5
   ADDGRID = .TRUE.
   LCHARG = .FALSE.
   LWAVE = .FALSE.
   LREAL = .FALSE.

 POTCAR:    PAW_PBE Na_pv 19Sep2006               
 POTCAR:    PAW_PBE Cl 06Sep2000                  
 -----------------------------------------------------------------------------
|                                                                             |
|           W    W    AA    RRRRR   N    N  II  N    N   GGGG   !!!           |
|           W    W   A  A   R    R  NN   N  II  NN   N  G    G  !!!           |
|           W    W  A    A  R    R  N N  N  II  N N  N  G       !!!           |
|           W WW W  AAAAAA  RRRRR   N  N N  II  N  N N  G  GGG   !            |
|           WW  WW  A    A  R   R   N   NN  II  N   NN  G    G                |
|           W    W  A    A  R    R  N    N  II  N    N   GGGG   !!!           |
|                                                                             |
|     For optimal performance we recommend to set                             |
|       NCORE = 2 up to number-of-cores-per-socket                            |
|     NCORE specifies how many cores store one orbital (NPAR=cpu/NCORE).      |
|     This setting can greatly improve the performance of VASP for DFT.       |
|     The default, NCORE=1 might be grossly inefficient on modern             |
|     multi-core architectures or massively parallel machines. Do your        |
|     own testing! More info at https://www.vasp.at/wiki/index.php/NCORE      |
|     Unfortunately you need to use the default for GW and RPA                |
|     calculations (for HF NCORE is supported but not extensively tested      |
|     yet).                                                                   |
|                                                                             |
 -----------------------------------------------------------------------------

 POTCAR:    PAW_PBE Na_pv 19Sep2006               
   SHA256 =  6a2f546d9e11350984debacf3dc457d8cffc0868e817d445faca461816a32b94 Na_pv/POTCAR          
   COPYR  = (c) Copyright 19Sep2006 Georg Kresse                                                    
   COPYR  = This file is part of the software VASP. Any use, copying, and all other rights are regul
   COPYR  = If you do not have a valid VASP license, you may not use, copy or distribute this file. 
   VRHFIN =Na: p6s1                                                                                 
   LEXCH  = PE                                                                                      
   EATOM  =   766.0439 eV,   56.3026 Ry                                                             
                                                                                                    
   TITEL  = PAW_PBE Na_pv 19Sep2006                                                                 
   LULTRA =        F    use ultrasoft PP ?                                                          
   IUNSCR =        1    unscreen: 0-lin 1-nonlin 2-no                                               
   RPACOR =    1.800    partial core radius                                                         
   POMASS =   22.990; ZVAL   =    7.000    mass and valenz                                          
   RCORE  =    2.200    outmost cutoff radius                                                       
   RWIGS  =    2.200; RWIGS  =    1.164    wigner-seitz radius (au A)                               
   ENMAX  =  259.561; ENMIN  =  194.671 eV                                                          
   ICORE  =        2    local potential                                                             
   LCOR   =        T    correct aug charges                                                         
   LPAW   =        T    paw PP                                                                      
   EAUG   =  368.056                                                                                
   DEXC   =    0.000                                                                                
   RMAX   =    2.245    core radius for proj-oper                                                   
   RAUG   =    1.300    factor for augmentation sphere                                              
   RDEP   =    2.259    radius for radial grids                                                     
   RDEPT  =    1.738    core radius for aug-charge                                                  
                                                                                                    
   Atomic configuration                                                                             
    5 entries                                                                                       
     n  l   j            E        occ.                                                              
     1  0  0.50     -1033.6933   2.0000                                                             
     2  0  0.50       -56.7526   2.0000                                                             
     2  1  1.50       -28.6721   6.0000                                                             
     3  0  0.50        -2.7440   1.0000                                                             
     3  2  1.50        -1.3606   0.0000                                                             
   Description                                                                                      
     l       E           TYP  RCUT    TYP  RCUT                                                     
     1    -28.6720912     23  2.000                                                                 
     1      6.8029130     23  2.000                                                                 
     0     -2.7439560     23  2.200                                                                 
     0     34.0145650     23  2.200                                                                 
     2     -1.3605826     23  2.200                                                                 
  local pseudopotential read in
  partial core-charges read in
  partial kinetic energy density read in
  atomic valenz-charges read in
  non local Contribution for L=           1  read in
    real space projection operators read in
  non local Contribution for L=           1  read in
    real space projection operators read in
  non local Contribution for L=           0  read in
    real space projection operators read in
  non local Contribution for L=           0  read in
    real space projection operators read in
    PAW grid and wavefunctions read in
 
   number of l-projection  operators is LMAX  =           4
   number of lm-projection operators is LMMAX =           8
 
 POTCAR:    PAW_PBE Cl 06Sep2000                  
   SHA256 =  9f1b6e6ed4247ac726a768b330d26d7667cc3c95a39ff49c1d064c2d9dcce931 Cl/POTCAR             
   COPYR  = (c) Copyright 06Sep2000 Georg Kresse                                                    
   COPYR  = This file is part of the software VASP. Any use, copying, and all other rights are regul
   COPYR  = If you do not have a valid VASP license, you may not use, copy or distribute this file. 
   VRHFIN =Cl: s2p5                                                                                 
   LEXCH  = PE                                                                                      
   EATOM  =   409.7259 eV,   30.1140 Ry                                                             
                                                                                                    
   TITEL  = PAW_PBE Cl 06Sep2000                                                                    
   LULTRA =        F    use ultrasoft PP ?                                                          
   IUNSCR =        1    unscreen: 0-lin 1-nonlin 2-no                                               
   RPACOR =    1.500    partial core radius                                                         
   POMASS =   35.453; ZVAL   =    7.000    mass and valenz                                          
   RCORE  =    1.900    outmost cutoff radius                                                       
   RWIGS  =    2.100; RWIGS  =    1.111    wigner-seitz radius (au A)                               
   ENMAX  =  262.472; ENMIN  =  196.854 eV                                                          
   ICORE  =        2    local potential                                                             
   LCOR   =        T    correct aug charges                                                         
   LPAW   =        T    paw PP                                                                      
   EAUG   =  356.192                                                                                
   DEXC   =    0.000                                                                                
   RMAX   =    1.945    core radius for proj-oper                                                   
   RAUG   =    1.300    factor for augmentation sphere                                              
   RDEP   =    2.020    radius for radial grids                                                     
   RDEPT  =    1.678    core radius for aug-charge                                                  
                                                                                                    
   Atomic configuration                                                                             
    6 entries                                                                                       
     n  l   j            E        occ.                                                              
     1  0  0.50     -2751.1850   2.0000                                                             
     2  0  0.50      -252.6861   2.0000                                                             
     2  1  1.50      -191.6157   6.0000                                                             
     3  0  0.50       -20.6916   2.0000                                                             
     3  1  0.50        -8.5949   5.0000                                                             
     3  2  1.50        -8.1635   0.0000                                                             
   Description                                                                                      
     l       E           TYP  RCUT    TYP  RCUT                                                     
     0    -20.6915656     23  1.900                                                                 
     0    -22.0521482     23  1.900                                                                 
     1     -8.5948577     23  1.900                                                                 
     1     -5.3847331     23  1.900                                                                 
     2     -8.1634956     23  1.900                                                                 
  local pseudopotential read in
  partial core-charges read in
  partial kinetic energy density read in
  atomic valenz-charges read in
  non local Contribution for L=           0  read in
    real space projection operators read in
  non local Contribution for L=           0  read in
    real space projection operators read in
  non local Contribution for L=           1  read in
    real space projection operators read in
  non local Contribution for L=           1  read in
    real space projection operators read in
    PAW grid and wavefunctions read in
 
   number of l-projection  operators is LMAX  =           4
   number of lm-projection operators is LMMAX =           8
 
 -----------------------------------------------------------------------------
|                                                                             |
|               ----> ADVICE to this user running VASP <----                  |
|                                                                             |
|     You have a (more or less) 'large supercell' and for larger cells it     |
|     might be more efficient to use real-space projection operators.         |
|     Therefore, try LREAL= Auto in the INCAR file.                           |
|     Mind: For very accurate calculation, you might also keep the            |
|     reciprocal projection scheme (i.e. LREAL=.FALSE.).                      |
|                                                                             |
 -----------------------------------------------------------------------------

 -----------------------------------------------------------------------------
|                                                                             |
|               ----> ADVICE to this user running VASP <----                  |
|                                                                             |
|     You enforced a specific xc type in the INCAR file but a different       |
|     type was found in the POTCAR file.                                      |
|     I HOPE YOU KNOW WHAT YOU ARE DOING!                                     |
|                                                                             |
 -----------------------------------------------------------------------------

  PAW_PBE Na_pv 19Sep2006               :
 energy of atom  1       EATOM= -766.0439
 kinetic energy error for atom=    0.0189 (will be added to EATOM!!)
  PAW_PBE Cl 06Sep2000                  :
 energy of atom  2       EATOM= -409.7259
 kinetic energy error for atom=    0.0106 (will be added to EATOM!!)
 
 
 POSCAR: Na Cl
  positions in cartesian coordinates
  No initial velocities read in
 exchange correlation table for  LEXCH =       14
   RHO(1)=    0.500       N(1)  =     2000
   RHO(2)=  100.500       N(2)  =     4000
 


--------------------------------------------------------------------------------------------------------


 ion  position               nearest neighbor table
   1  0.000  0.000  0.000-
   2  0.250  0.250  0.000-
   3  0.250  0.000  0.250-
   4  0.000  0.250  0.250-
   5  0.000  0.000  0.500-
   6  0.250  0.250  0.500-
   7  0.250  0.000  0.750-
   8  0.000  0.250  0.750-
   9  0.000  0.500  0.000-
  10  0.250  0.750  0.000-
  11  0.250  0.500  0.250-
  12  0.000  0.750  0.250-
  13  0.000  0.500  0.500-
  14  0.250  0.750  0.500-
  15  0.250  0.500  0.750-
  16  0.000  0.750  0.750-
  17  0.500  0.000  0.000-
  18  0.750  0.250  0.000-
  19  0.750  0.000  0.250-
  20  0.500  0.250  0.250-
  21  0.500  0.000  0.500-
  22  0.750  0.250  0.500-
  23  0.750  0.000  0.750-
  24  0.500  0.250  0.750-
  25  0.500  0.500  0.000-
  26  0.750  0.750  0.000-
  27  0.750  0.500  0.250-
  28  0.500  0.750  0.250-
  29  0.500  0.500  0.500-
  30  0.750  0.750  0.500-
  31  0.750  0.500  0.750-
  32  0.500  0.750  0.750-
  33  0.253  0.250  0.250-
  34  0.000  0.000  0.253-
  35  0.000  0.250  0.000-
  36  0.250  0.000  0.000-
  37  0.250  0.250  0.750-
  38  0.000  0.000  0.750-
  39  0.000  0.250  0.500-
  40  0.250  0.000  0.500-
  41  0.250  0.750  0.250-
  42  0.000  0.500  0.250-
  43  0.000  0.750  0.000-
  44  0.250  0.500  0.000-
  45  0.250  0.750  0.750-
  46  0.000  0.500  0.750-
  47  0.000  0.750  0.500-
  48  0.250  0.500  0.500-
  49  0.750  0.250  0.250-
  50  0.500  0.000  0.250-
  51  0.500  0.250  0.000-
  52  0.750  0.000  0.000-
  53  0.750  0.250  0.750-
  54  0.500  0.000  0.750-
  55  0.500  0.250  0.500-
  56  0.750  0.000  0.500-
  57  0.750  0.750  0.250-
  58  0.500  0.500  0.250-
  59  0.500  0.750  0.000-
  60  0.750  0.500  0.000-
  61  0.750  0.750  0.750-
  62  0.500  0.500  0.750-
  63  0.500  0.750  0.500-
  64  0.750  0.500  0.500-
 
  LATTYP: Found a simple cubic cell.
 ALAT       =    11.2040023600
  
  Lattice vectors:
  
 A1 = (  11.2040023600,   0.0000000000,   0.0000000000)
 A2 = (   0.0000000000,  11.2040023600,   0.0000000000)
 A3 = (   0.0000000000,   0.0000000000,  11.2040023600)


Analysis of symmetry for initial positions (statically):
=====================================================================
 Subroutine PRICEL returns:
 Original cell was already a primitive cell.
 

 Routine SETGRP: Setting up the symmetry group for a 
 simple cubic supercell.


 Subroutine GETGRP returns: Found  1 space group operations
 (whereof  1 operations were pure point group operations)
 out of a pool of 48 trial point group operations.


The static configuration has the point symmetry C_1 .


Analysis of symmetry for dynamics (positions and initial velocities):
=====================================================================
 Subroutine PRICEL returns:
 Original cell was already a primitive cell.
 

 Routine SETGRP: Setting up the symmetry group for a 
 simple cubic supercell.


 Subroutine GETGRP returns: Found  1 space group operations
 (whereof  1 operations were pure point group operations)
 out of a pool of 48 trial point group operations.


The dynamic configuration has the point symmetry C_1 .


 Subroutine INISYM returns: Found  1 space group operations
 (whereof  1 operations are pure point group operations),
 and found     1 'primitive' translations


----------------------------------------------------------------------------------------

                                     Primitive cell                                     

  volume of cell :    1406.4347

  direct lattice vectors                    reciprocal lattice vectors
    11.204002360  0.000000000  0.000000000     0.089253819  0.000000000  0.000000000
     0.000000000 11.204002360  0.000000000     0.000000000  0.089253819  0.000000000
     0.000000000  0.000000000 11.204002360     0.000000000  0.000000000  0.089253819

  length of vectors
    11.204002360 11.204002360 11.204002360     0.089253819  0.089253819  0.089253819

  position of ions in fractional coordinates (direct lattice)
     0.000000000  0.000000000  0.000000000
     0.250000000  0.250000000  0.000000000
     0.250000000  0.000000000  0.250000000
     0.000000000  0.250000000  0.250000000
     0.000000000  0.000000000  0.500000000
     0.250000000  0.250000000  0.500000000
     0.250000000  0.000000000  0.750000000
     0.000000000  0.250000000  0.750000000
     0.000000000  0.500000000  0.000000000
     0.250000000  0.750000000  0.000000000
     0.250000000  0.500000000  0.250000000
     0.000000000  0.750000000  0.250000000
     0.000000000  0.500000000  0.500000000
     0.250000000  0.750000000  0.500000000
     0.250000000  0.500000000  0.750000000
     0.000000000  0.750000000  0.750000000
     0.500000000  0.000000000  0.000000000
     0.750000000  0.250000000  0.000000000
     0.750000000  0.000000000  0.250000000
     0.500000000  0.250000000  0.250000000
     0.500000000  0.000000000  0.500000000
     0.750000000  0.250000000  0.500000000
     0.750000000  0.000000000  0.750000000
     0.500000000  0.250000000  0.750000000
     0.500000000  0.500000000  0.000000000
     0.750000000  0.750000000  0.000000000
     0.750000000  0.500000000  0.250000000
     0.500000000  0.750000000  0.250000000
     0.500000000  0.500000000  0.500000000
     0.750000000  0.750000000  0.500000000
     0.750000000  0.500000000  0.750000000
     0.500000000  0.750000000  0.750000000
     0.252677615  0.250000000  0.250000000
     0.000000000  0.000000000  0.252677615
     0.000000000  0.250000000  0.000000000
     0.250000000  0.000000000  0.000000000
     0.250000000  0.250000000  0.750000000
     0.000000000  0.000000000  0.750000000
     0.000000000  0.250000000  0.500000000
     0.250000000  0.000000000  0.500000000
     0.250000000  0.750000000  0.250000000
     0.000000000  0.500000000  0.250000000
     0.000000000  0.750000000  0.000000000
     0.250000000  0.500000000  0.000000000
     0.250000000  0.750000000  0.750000000
     0.000000000  0.500000000  0.750000000
     0.000000000  0.750000000  0.500000000
     0.250000000  0.500000000  0.500000000
     0.750000000  0.250000000  0.250000000
     0.500000000  0.000000000  0.250000000
     0.500000000  0.250000000  0.000000000
     0.750000000  0.000000000  0.000000000
     0.750000000  0.250000000  0.750000000
     0.500000000  0.000000000  0.750000000
     0.500000000  0.250000000  0.500000000
     0.750000000  0.000000000  0.500000000
     0.750000000  0.750000000  0.250000000
     0.500000000  0.500000000  0.250000000
     0.500000000  0.750000000  0.000000000
     0.750000000  0.500000000  0.000000000
     0.750000000  0.750000000  0.750000000
     0.500000000  0.500000000  0.750000000
     0.500000000  0.750000000  0.500000000
     0.750000000  0.500000000  0.500000000

  ion indices of the primitive-cell ions
   primitive index   ion index
                 1           1
                 2           2
                 3           3
                 4           4
                 5           5
                 6           6
                 7           7
                 8           8
                 9           9
                10          10
                11          11
                12          12
                13          13
                14          14
                15          15
                16          16
                17          17
                18          18
                19          19
                20          20
                21          21
                22          22
                23          23
                24          24
                25          25
                26          26
                27          27
                28          28
                29          29
                30          30
                31          31
                32          32
                33          33
                34          34
                35          35
                36          36
                37          37
                38          38
                39          39
                40          40
                41          41
                42          42
                43          43
                44          44
                45          45
                46          46
                47          47
                48          48
                49          49
                50          50
                51          51
                52          52
                53          53
                54          54
                55          55
                56          56
                57          57
                58          58
                59          59
                60          60
                61          61
                62          62
                63          63
                64          64

----------------------------------------------------------------------------------------

 
 
 KPOINTS: KPOINTS created by Atomic Simulation Env

Automatic generation of k-mesh.
 Grid dimensions read from file:
 generate k-points for:    2    2    2

 Generating k-lattice:

  Cartesian coordinates                     Fractional coordinates (reciprocal lattice)
     0.044626910  0.000000000  0.000000000     0.500000000  0.000000000  0.000000000
     0.000000000  0.044626910  0.000000000     0.000000000  0.500000000  0.000000000
     0.000000000  0.000000000  0.044626910     0.000000000  0.000000000  0.500000000

  Length of vectors
     0.044626910  0.044626910  0.044626910

  Shift w.r.t. Gamma in fractional coordinates (k-lattice)
     0.000000000  0.000000000  0.000000000

 
 Subroutine IBZKPT returns following result:
 ===========================================
 
 Found      8 irreducible k-points:
 
 Following reciprocal coordinates:
            Coordinates               Weight
  0.000000  0.000000  0.000000      1.000000
  0.500000  0.000000  0.000000      1.000000
  0.000000  0.500000  0.000000      1.000000
  0.000000  0.000000  0.500000      1.000000
  0.500000  0.500000  0.000000      1.000000
  0.000000  0.500000  0.500000      1.000000
  0.500000  0.000000  0.500000      1.000000
  0.500000  0.500000  0.500000      1.000000
 
 Following cartesian coordinates:
            Coordinates               Weight
  0.000000  0.000000  0.000000      1.000000
  0.044627  0.000000  0.000000      1.000000
  0.000000  0.044627  0.000000      1.000000
  0.000000  0.000000  0.044627      1.000000
  0.044627  0.044627  0.000000      1.000000
  0.000000  0.044627  0.044627      1.000000
  0.044627  0.000000  0.044627      1.000000
  0.044627  0.044627  0.044627      1.000000
 


--------------------------------------------------------------------------------------------------------




 Dimension of arrays:
   k-points           NKPTS =      8   k-points in BZ     NKDIM =      8   number of bands    NBANDS=    288
   number of dos      NEDOS =    301   number of ions     NIONS =     64
   non local maximal  LDIM  =      4   non local SUM 2l+1 LMDIM =      8
   total plane-waves  NPLWV = 343000
   max r-space proj   IRMAX =      1   max aug-charges    IRDMAX=  56280
   dimension x,y,z NGX =    70 NGY =   70 NGZ =   70
   dimension x,y,z NGXF=   140 NGYF=  140 NGZF=  140
   support grid    NGXF=   280 NGYF=  280 NGZF=  280
   ions per type =              32  32
   NGX,Y,Z   is equivalent  to a cutoff of  10.39, 10.39, 10.39 a.u.
   NGXF,Y,Z  is equivalent  to a cutoff of  20.77, 20.77, 20.77 a.u.

 SYSTEM =  unknown system                          
 POSCAR =  Na Cl                                   

 Startparameter for this run:
   NWRITE =      2    write-flag & timer
   PREC   = accura    normal or accurate (medium, high low for compatibility)
   ISTART =      0    job   : 0-new  1-cont  2-samecut
   ICHARG =      2    charge: 1-file 2-atom 10-const
   ISPIN  =      1    spin polarized calculation?
   LNONCOLLINEAR =      F non collinear calculations
   LSORBIT =      F    spin-orbit coupling
   INIWAV =      1    electr: 0-lowe 1-rand  2-diag
   LASPH  =      F    aspherical Exc in radial PAW
 Electronic Relaxation 1
   ENCUT  =  341.2 eV  25.08 Ry    5.01 a.u.  16.87 16.87 16.87*2*pi/ulx,y,z
   ENINI  =  341.2     initial cutoff
   ENAUG  =  368.1 eV  augmentation charge cutoff
   NELM   =     60;   NELMIN=  5; NELMDL= -5     # of ELM steps 
   EDIFF  = 0.1E-07   stopping-criterion for ELM
   LREAL  =      F    real-space projection
   NLSPLINE    = F    spline interpolate recip. space projectors
   LCOMPAT=      F    compatible to vasp.4.4
   GGA_COMPAT  = T    GGA compatible to vasp.4.4-vasp.4.6
   LMAXPAW     = -100 max onsite density
   LMAXMIX     =    2 max onsite mixed and CHGCAR
   VOSKOWN=      0    Vosko Wilk Nusair interpolation
   ROPT   =    0.00000   0.00000
 Ionic relaxation
   EDIFFG = 0.1E-06   stopping-criterion for IOM
   NSW    =      0    number of steps for IOM
   NBLOCK =      1;   KBLOCK =      1    inner block; outer block 
   IBRION =     -1    ionic relax: 0-MD 1-quasi-New 2-CG
   NFREE  =      0    steps in history (QN), initial steepest desc. (CG)
   ISIF   =      2    stress and relaxation
   IWAVPR =     10    prediction:  0-non 1-charg 2-wave 3-comb
   ISYM   =      2    0-nonsym 1-usesym 2-fastsym
   LCORR  =      T    Harris-Foulkes like correction to forces

   POTIM  = 0.5000    time-step for ionic-motion
   TEIN   =    0.0    initial temperature
   TEBEG  =    0.0;   TEEND  =   0.0 temperature during run
   SMASS  =  -3.00    Nose mass-parameter (am)
   estimated Nose-frequenzy (Omega)   =  0.10E-29 period in steps = 0.13E+47 mass=  -0.287E-26a.u.
   SCALEE = 1.0000    scale energy and forces
   NPACO  =    256;   APACO  = 10.0  distance and # of slots for P.C.
   PSTRESS=    0.0 pullay stress

  Mass of Ions in am
   POMASS =  22.99 35.45
  Ionic Valenz
   ZVAL   =   7.00  7.00
  Atomic Wigner-Seitz radii
   RWIGS  =  -1.00 -1.00
  virtual crystal weights 
   VCA    =   1.00  1.00
   NELECT =     448.0000    total number of electrons
   NUPDOWN=      -1.0000    fix difference up-down

 DOS related values:
   EMIN   =  10.00;   EMAX   =-10.00  energy-range for DOS
   EFERMI =   0.00
   ISMEAR =     0;   SIGMA  =   0.02  broadening in eV -4-tet -1-fermi 0-gaus

 Electronic relaxation 2 (details)
   IALGO  =     38    algorithm
   LDIAG  =      T    sub-space diagonalisation (order eigenvalues)
   LSUBROT=      F    optimize rotation matrix (better conditioning)
   TURBO    =      0    0=normal 1=particle mesh
   IRESTART =      0    0=no restart 2=restart with 2 vectors
   NREBOOT  =      0    no. of reboots
   NMIN     =      0    reboot dimension
   EREF     =   0.00    reference energy to select bands
   IMIX   =      4    mixing-type and parameters
     AMIX     =   0.40;   BMIX     =  1.00
     AMIX_MAG =   1.60;   BMIX_MAG =  1.00
     AMIN     =   0.10
     WC   =   100.;   INIMIX=   1;  MIXPRE=   1;  MAXMIX= -45

 Intra band minimization:
   WEIMIN = 0.0000     energy-eigenvalue tresh-hold
   EBREAK =  0.87E-11  absolut break condition
   DEPER  =   0.30     relativ break condition  

   TIME   =   0.40     timestep for ELM

  volume/ion in A,a.u.               =      21.98       148.30
  Fermi-wavevector in a.u.,A,eV,Ry     =   1.118049  2.112807 17.007750  1.250034
  Thomas-Fermi vector in A             =   2.254677
 
 Write flags
   LWAVE        =      F    write WAVECAR
   LDOWNSAMPLE  =      F    k-point downsampling of WAVECAR
   LCHARG       =      F    write CHGCAR
   LVTOT        =      F    write LOCPOT, total local potential
   LVHAR        =      F    write LOCPOT, Hartree potential only
   LELF         =      F    write electronic localiz. function (ELF)
   LORBIT       =      0    0 simple, 1 ext, 2 COOP (PROOUT), +10 PAW based schemes


 Dipole corrections
   LMONO  =      F    monopole corrections only (constant potential shift)
   LDIPOL =      F    correct potential (dipole corrections)
   IDIPOL =      0    1-x, 2-y, 3-z, 4-all directions 
   EPSILON=  1.0000000 bulk dielectric constant

 Exchange correlation treatment:
   GGA     =    PS    GGA type
   LEXCH   =    14    internal setting for exchange type
   LIBXC   =     F    Libxc                    
   VOSKOWN =     0    Vosko Wilk Nusair interpolation
   LHFCALC =     F    Hartree Fock is set to
   LHFONE  =     F    Hartree Fock one center treatment
   AEXX    =    0.0000 exact exchange contribution

 Linear response parameters
   LEPSILON=     F    determine dielectric tensor
   LRPA    =     F    only Hartree local field effects (RPA)
   LNABLA  =     F    use nabla operator in PAW spheres
   LVEL    =     F    velocity operator in full k-point grid
   CSHIFT  =0.1000    complex shift for real part using Kramers Kronig
   OMEGAMAX=  -1.0    maximum frequency
   DEG_THRESHOLD= 0.2000000E-02 threshold for treating states as degnerate
   RTIME   =   -0.100 relaxation time in fs
  (WPLASMAI=    0.000 imaginary part of plasma frequency in eV, 0.658/RTIME)
   DFIELD  = 0.0000000 0.0000000 0.0000000 field for delta impulse in time
 
  Optional k-point grid parameters
   LKPOINTS_OPT  =     F    use optional k-point grid
   KPOINTS_OPT_MODE=     1    mode for optional k-point grid
 
 Orbital magnetization related:
   ORBITALMAG=     F  switch on orbital magnetization
   LCHIMAG   =     F  perturbation theory with respect to B field
   DQ        =  0.001000  dq finite difference perturbation B field
   LLRAUG    =     F  two centre corrections for induced B field



--------------------------------------------------------------------------------------------------------


 Static calculation
 charge density and potential will be updated during run
 non-spin polarized calculation
 Variant of blocked Davidson
 Davidson routine will perform the subspace rotation
 perform sub-space diagonalisation
    after iterative eigenvector-optimisation
 modified Broyden-mixing scheme, WC =      100.0
 initial mixing is a Kerker type mixing with AMIX =  0.4000 and BMIX =      1.0000
 Hartree-type preconditioning will be used
 using additional bands           64
 reciprocal scheme for non local part
 use partial core corrections
 calculate Harris-corrections to forces 
   (improved forces if not selfconsistent)
 use gradient corrections 
 use of overlap-Matrix (Vanderbilt PP)
 Gauss-broadening in eV      SIGMA  =   0.02


--------------------------------------------------------------------------------------------------------


  energy-cutoff  :      341.21
  volume of cell :     1406.43
      direct lattice vectors                 reciprocal lattice vectors
    11.204002360  0.000000000  0.000000000     0.089253819  0.000000000  0.000000000
     0.000000000 11.204002360  0.000000000     0.000000000  0.089253819  0.000000000
     0.000000000  0.000000000 11.204002360     0.000000000  0.000000000  0.089253819

  length of vectors
    11.204002360 11.204002360 11.204002360     0.089253819  0.089253819  0.089253819


 
 k-points in units of 2pi/SCALE and weight: KPOINTS created by Atomic Simulation Env
   0.00000000  0.00000000  0.00000000       0.125
   0.04462691  0.00000000  0.00000000       0.125
   0.00000000  0.04462691  0.00000000       0.125
   0.00000000  0.00000000  0.04462691       0.125
   0.04462691  0.04462691  0.00000000       0.125
   0.00000000  0.04462691  0.04462691       0.125
   0.04462691  0.00000000  0.04462691       0.125
   0.04462691  0.04462691  0.04462691       0.125
 
 k-points in reciprocal lattice and weights: KPOINTS created by Atomic Simulation Env
   0.00000000  0.00000000  0.00000000       0.125
   0.50000000  0.00000000  0.00000000       0.125
   0.00000000  0.50000000  0.00000000       0.125
   0.00000000  0.00000000  0.50000000       0.125
   0.50000000  0.50000000  0.00000000       0.125
   0.00000000  0.50000000  0.50000000       0.125
   0.50000000  0.00000000  0.50000000       0.125
   0.50000000  0.50000000  0.50000000       0.125
 
 position of ions in fractional coordinates (direct lattice) 
   0.00000000  0.00000000  0.00000000
   0.25000000  0.25000000  0.00000000
   0.25000000  0.00000000  0.25000000
   0.00000000  0.25000000  0.25000000
   0.00000000  0.00000000  0.50000000
   0.25000000  0.25000000  0.50000000
   0.25000000  0.00000000  0.75000000
   0.00000000  0.25000000  0.75000000
   0.00000000  0.50000000  0.00000000
   0.25000000  0.75000000  0.00000000
   0.25000000  0.50000000  0.25000000
   0.00000000  0.75000000  0.25000000
   0.00000000  0.50000000  0.50000000
   0.25000000  0.75000000  0.50000000
   0.25000000  0.50000000  0.75000000
   0.00000000  0.75000000  0.75000000
   0.50000000  0.00000000  0.00000000
   0.75000000  0.25000000  0.00000000
   0.75000000  0.00000000  0.25000000
   0.50000000  0.25000000  0.25000000
   0.50000000  0.00000000  0.50000000
   0.75000000  0.25000000  0.50000000
   0.75000000  0.00000000  0.75000000
   0.50000000  0.25000000  0.75000000
   0.50000000  0.50000000  0.00000000
   0.75000000  0.75000000  0.00000000
   0.75000000  0.50000000  0.25000000
   0.50000000  0.75000000  0.25000000
   0.50000000  0.50000000  0.50000000
   0.75000000  0.75000000  0.50000000
   0.75000000  0.50000000  0.75000000
   0.50000000  0.75000000  0.75000000
   0.25267761  0.25000000  0.25000000
   0.00000000  0.00000000  0.25267761
   0.00000000  0.25000000  0.00000000
   0.25000000  0.00000000  0.00000000
   0.25000000  0.25000000  0.75000000
   0.00000000  0.00000000  0.75000000
   0.00000000  0.25000000  0.50000000
   0.25000000  0.00000000  0.50000000
   0.25000000  0.75000000  0.25000000
   0.00000000  0.50000000  0.25000000
   0.00000000  0.75000000  0.00000000
   0.25000000  0.50000000  0.00000000
   0.25000000  0.75000000  0.75000000
   0.00000000  0.50000000  0.75000000
   0.00000000  0.75000000  0.50000000
   0.25000000  0.50000000  0.50000000
   0.75000000  0.25000000  0.25000000
   0.50000000  0.00000000  0.25000000
   0.50000000  0.25000000  0.00000000
   0.75000000  0.00000000  0.00000000
   0.75000000  0.25000000  0.75000000
   0.50000000  0.00000000  0.75000000
   0.50000000  0.25000000  0.50000000
   0.75000000  0.00000000  0.50000000
   0.75000000  0.75000000  0.25000000
   0.50000000  0.50000000  0.25000000
   0.50000000  0.75000000  0.00000000
   0.75000000  0.50000000  0.00000000
   0.75000000  0.75000000  0.75000000
   0.50000000  0.50000000  0.75000000
   0.50000000  0.75000000  0.50000000
   0.75000000  0.50000000  0.50000000
 
 position of ions in cartesian coordinates  (Angst):
   0.00000000  0.00000000  0.00000000
   2.80100059  2.80100059  0.00000000
   2.80100059  0.00000000  2.80100059
   0.00000000  2.80100059  2.80100059
   0.00000000  0.00000000  5.60200118
   2.80100059  2.80100059  5.60200118
   2.80100059  0.00000000  8.40300177
   0.00000000  2.80100059  8.40300177
   0.00000000  5.60200118  0.00000000
   2.80100059  8.40300177  0.00000000
   2.80100059  5.60200118  2.80100059
   0.00000000  8.40300177  2.80100059
   0.00000000  5.60200118  5.60200118
   2.80100059  8.40300177  5.60200118
   2.80100059  5.60200118  8.40300177
   0.00000000  8.40300177  8.40300177
   5.60200118  0.00000000  0.00000000
   8.40300177  2.80100059  0.00000000
   8.40300177  0.00000000  2.80100059
   5.60200118  2.80100059  2.80100059
   5.60200118  0.00000000  5.60200118
   8.40300177  2.80100059  5.60200118
   8.40300177  0.00000000  8.40300177
   5.60200118  2.80100059  8.40300177
   5.60200118  5.60200118  0.00000000
   8.40300177  8.40300177  0.00000000
   8.40300177  5.60200118  2.80100059
   5.60200118  8.40300177  2.80100059
   5.60200118  5.60200118  5.60200118
   8.40300177  8.40300177  5.60200118
   8.40300177  5.60200118  8.40300177
   5.60200118  8.40300177  8.40300177
   2.83100059  2.80100059  2.80100059
   0.00000000  0.00000000  2.83100059
   0.00000000  2.80100059  0.00000000
   2.80100059  0.00000000  0.00000000
   2.80100059  2.80100059  8.40300177
   0.00000000  0.00000000  8.40300177
   0.00000000  2.80100059  5.60200118
   2.80100059  0.00000000  5.60200118
   2.80100059  8.40300177  2.80100059
   0.00000000  5.60200118  2.80100059
   0.00000000  8.40300177  0.00000000
   2.80100059  5.60200118  0.00000000
   2.80100059  8.40300177  8.40300177
   0.00000000  5.60200118  8.40300177
   0.00000000  8.40300177  5.60200118
   2.80100059  5.60200118  5.60200118
   8.40300177  2.80100059  2.80100059
   5.60200118  0.00000000  2.80100059
   5.60200118  2.80100059  0.00000000
   8.40300177  0.00000000  0.00000000
   8.40300177  2.80100059  8.40300177
   5.60200118  0.00000000  8.40300177
   5.60200118  2.80100059  5.60200118
   8.40300177  0.00000000  5.60200118
   8.40300177  8.40300177  2.80100059
   5.60200118  5.60200118  2.80100059
   5.60200118  8.40300177  0.00000000
   8.40300177  5.60200118  0.00000000
   8.40300177  8.40300177  8.40300177
   5.60200118  5.60200118  8.40300177
   5.60200118  8.40300177  5.60200118
   8.40300177  5.60200118  5.60200118
 


--------------------------------------------------------------------------------------------------------


 k-point   1 :   0.0000 0.0000 0.0000  plane waves:   20005
 k-point   2 :   0.5000 0.0000 0.0000  plane waves:   20138
 k-point   3 :   0.0000 0.5000 0.0000  plane waves:   20138
 k-point   4 :   0.0000 0.0000 0.5000  plane waves:   20138
 k-point   5 :   0.5000 0.5000 0.0000  plane waves:   20160
 k-point   6 :   0.0000 0.5000 0.5000  plane waves:   20160
 k-point   7 :   0.5000 0.0000 0.5000  plane waves:   20160
 k-point   8 :   0.5000 0.5000 0.5000  plane waves:   20336

 maximum and minimum number of plane-waves per node :     20336    20005

 maximum number of plane-waves:     20336
 maximum index in each direction: 
   IXMAX=   16   IYMAX=   16   IZMAX=   16
   IXMIN=  -17   IYMIN=  -17   IZMIN=  -17


 serial   3D FFT for wavefunctions
 parallel 3D FFT for charge:
    minimum data exchange during FFTs selected (reduces bandwidth)


 total amount of memory used by VASP MPI-rank0   129658. kBytes
=======================================================================

   base      :      30000. kBytes
   nonl-proj :      41680. kBytes
   fftplans  :      14405. kBytes
   grid      :      19342. kBytes
   one-center:        196. kBytes
   wavefun   :      24035. kBytes
 
     INWAV:  cpu time      0.0000: real time      0.0000
 Broyden mixing: mesh for mixing (old mesh)
   NGX = 33   NGY = 33   NGZ = 33
  (NGX  =140   NGY  =140   NGZ  =140)
  gives a total of  35937 points

 initial charge density was supplied:
 charge density of overlapping atoms calculated
 number of electron     448.0000000 magnetization 
 keeping initial charge density in first step


--------------------------------------------------------------------------------------------------------


 Maximum index for augmentation-charges         1834 (set IRDMAX)


--------------------------------------------------------------------------------------------------------


 First call to EWALD:  gamma=   0.158
 Maximum number of real-space cells 3x 3x 3
 Maximum number of reciprocal cells 3x 3x 3

    FEWALD:  cpu time      0.0014: real time      0.0015


--------------------------------------- Iteration      1(   1)  ---------------------------------------


    POTLOK:  cpu time      0.0413: real time      0.0419
    SETDIJ:  cpu time      0.0320: real time      0.0321
     EDDAV:  cpu time     10.2979: real time     10.3523
       DOS:  cpu time      0.0012: real time      0.0012
    --------------------------------------------
      LOOP:  cpu time     10.3724: real time     10.4275

 eigenvalue-minimisations  :  4864
 total energy-change (2. order) : 0.4398736E+04  (-0.1710217E+05)
 number of electron     448.0000000 magnetization 
 augmentation part      448.0000000 magnetization 

 Free energy of the ion-electron system (eV)
  ---------------------------------------------------
  alpha Z        PSCENC =       751.52672365
  Ewald energy   TEWEN  =    -22871.34016192
  -Hartree energ DENC   =     -8992.24818160
  -exchange      EXHF   =         0.00000000
  -V(xc)+E(xc)   XCENC  =      1456.53429136
  PAW double counting   =     26466.43774078   -29286.08056155
  entropy T*S    EENTRO =        -0.00494436
  eigenvalues    EBANDS =      -658.26870170
  atomic energy  EATOM  =     37532.17946992
  Solvation  Ediel_sol  =         0.00000000
  ---------------------------------------------------
  free energy    TOTEN  =      4398.73567459 eV

  energy without entropy =     4398.74061895  energy(sigma->0) =     4398.73814677


--------------------------------------------------------------------------------------------------------




--------------------------------------- Iteration      1(   2)  ---------------------------------------


     EDDAV:  cpu time     10.8122: real time     10.8725
       DOS:  cpu time      0.0006: real time      0.0006
    --------------------------------------------
      LOOP:  cpu time     10.8129: real time     10.8731

 eigenvalue-minimisations  :  5152
 total energy-change (2. order) :-0.4031697E+04  (-0.3833086E+04)
 number of electron     448.0000000 magnetization 
 augmentation part      448.0000000 magnetization 

 Free energy of the ion-electron system (eV)
  ---------------------------------------------------
  alpha Z        PSCENC =       751.52672365
  Ewald energy   TEWEN  =    -22871.34016192
  -Hartree energ DENC   =     -8992.24818160
  -exchange      EXHF   =         0.00000000
  -V(xc)+E(xc)   XCENC  =      1456.53429136
  PAW double counting   =     26466.43774078   -29286.08056155
  entropy T*S    EENTRO =        -0.00000000
  eigenvalues    EBANDS =     -4689.97059513
  atomic energy  EATOM  =     37532.17946992
  Solvation  Ediel_sol  =         0.00000000
  ---------------------------------------------------
  free energy    TOTEN  =       367.03872552 eV

  energy without entropy =      367.03872552  energy(sigma->0) =      367.03872552


--------------------------------------------------------------------------------------------------------




--------------------------------------- Iteration      1(   3)  ---------------------------------------


     EDDAV:  cpu time     11.5248: real time     11.5919
       DOS:  cpu time      0.0006: real time      0.0006
    --------------------------------------------
      LOOP:  cpu time     11.5253: real time     11.5925

 eigenvalue-minimisations  :  5568
 total energy-change (2. order) :-0.5719153E+03  (-0.5674820E+03)
 number of electron     448.0000000 magnetization 
 augmentation part      448.0000000 magnetization 

 Free energy of the ion-electron system (eV)
  ---------------------------------------------------
  alpha Z        PSCENC =       751.52672365
  Ewald energy   TEWEN  =    -22871.34016192
  -Hartree energ DENC   =     -8992.24818160
  -exchange      EXHF   =         0.00000000
  -V(xc)+E(xc)   XCENC  =      1456.53429136
  PAW double counting   =     26466.43774078   -29286.08056155
  entropy T*S    EENTRO =        -0.00000000
  eigenvalues    EBANDS =     -5261.88587443
  atomic energy  EATOM  =     37532.17946992
  Solvation  Ediel_sol  =         0.00000000
  ---------------------------------------------------
  free energy    TOTEN  =      -204.87655378 eV

  energy without entropy =     -204.87655378  energy(sigma->0) =     -204.87655378


--------------------------------------------------------------------------------------------------------




--------------------------------------- Iteration      1(   4)  ---------------------------------------


     EDDAV:  cpu time     11.4356: real time     11.5013
       DOS:  cpu time      0.0006: real time      0.0006
    --------------------------------------------
      LOOP:  cpu time     11.4362: real time     11.5020

 eigenvalue-minimisations  :  5504
 total energy-change (2. order) :-0.2325158E+02  (-0.2313597E+02)
 number of electron     448.0000000 magnetization 
 augmentation part      448.0000000 magnetization 

 Free energy of the ion-electron system (eV)
  ---------------------------------------------------
  alpha Z        PSCENC =       751.52672365
  Ewald energy   TEWEN  =    -22871.34016192
  -Hartree energ DENC   =     -8992.24818160
  -exchange      EXHF   =         0.00000000
  -V(xc)+E(xc)   XCENC  =      1456.53429136
  PAW double counting   =     26466.43774078   -29286.08056155
  entropy T*S    EENTRO =        -0.00000000
  eigenvalues    EBANDS =     -5285.13745598
  atomic energy  EATOM  =     37532.17946992
  Solvation  Ediel_sol  =         0.00000000
  ---------------------------------------------------
  free energy    TOTEN  =      -228.12813533 eV

  energy without entropy =     -228.12813533  energy(sigma->0) =     -228.12813533


--------------------------------------------------------------------------------------------------------




--------------------------------------- Iteration      1(   5)  ---------------------------------------


     EDDAV:  cpu time     12.0037: real time     12.0727
       DOS:  cpu time      0.0006: real time      0.0006
    CHARGE:  cpu time      0.3356: real time      0.3379
    MIXING:  cpu time      0.0012: real time      0.0012
    --------------------------------------------
      LOOP:  cpu time     12.3411: real time     12.4124

 eigenvalue-minimisations  :  5856
 total energy-change (2. order) :-0.8733668E+00  (-0.8717932E+00)
 number of electron     448.0000022 magnetization 
 augmentation part      111.6413554 magnetization 

 Broyden mixing:
  rms(total) = 0.10608E+01    rms(broyden)= 0.10603E+01
  rms(prec ) = 0.14934E+01
  weight for this iteration     100.00

 Free energy of the ion-electron system (eV)
  ---------------------------------------------------
  alpha Z        PSCENC =       751.52672365
  Ewald energy   TEWEN  =    -22871.34016192
  -Hartree energ DENC   =     -8992.24818160
  -exchange      EXHF   =         0.00000000
  -V(xc)+E(xc)   XCENC  =      1456.53429136
  PAW double counting   =     26466.43774078   -29286.08056155
  entropy T*S    EENTRO =        -0.00000000
  eigenvalues    EBANDS =     -5286.01082278
  atomic energy  EATOM  =     37532.17946992
  Solvation  Ediel_sol  =         0.00000000
  ---------------------------------------------------
  free energy    TOTEN  =      -229.00150213 eV

  energy without entropy =     -229.00150213  energy(sigma->0) =     -229.00150213


--------------------------------------------------------------------------------------------------------




--------------------------------------- Iteration      1(   6)  ---------------------------------------


    POTLOK:  cpu time      0.0367: real time      0.0423
    SETDIJ:  cpu time      0.0300: real time      0.0304
     EDDAV:  cpu time     11.7802: real time     11.8477
       DOS:  cpu time      0.0005: real time      0.0005
    CHARGE:  cpu time      0.3322: real time      0.3342
    MIXING:  cpu time      0.0016: real time      0.0016
    --------------------------------------------
      LOOP:  cpu time     12.1813: real time     12.2568

 eigenvalue-minimisations  :  5696
 total energy-change (2. order) : 0.4862248E+01  (-0.9458187E+00)
 number of electron     448.0000022 magnetization 
 augmentation part      112.4585100 magnetization 

 Broyden mixing:
  rms(total) = 0.77457E+00    rms(broyden)= 0.77452E+00
  rms(prec ) = 0.89092E+00
  weight for this iteration     100.00

 eigenvalues of (default mixing * dielectric matrix)
  average eigenvalue GAMMA=   1.0809
  1.0809

 Free energy of the ion-electron system (eV)
  ---------------------------------------------------
  alpha Z        PSCENC =       751.52672365
  Ewald energy   TEWEN  =    -22871.34016192
  -Hartree energ DENC   =     -9061.64190749
  -exchange      EXHF   =         0.00000000
  -V(xc)+E(xc)   XCENC  =      1465.42032979
  PAW double counting   =     27291.36184880   -30103.27255255
  entropy T*S    EENTRO =        -0.00000000
  eigenvalues    EBANDS =     -5228.37300426
  atomic energy  EATOM  =     37532.17946992
  Solvation  Ediel_sol  =         0.00000000
  ---------------------------------------------------
  free energy    TOTEN  =      -224.13925405 eV

  energy without entropy =     -224.13925405  energy(sigma->0) =     -224.13925405


--------------------------------------------------------------------------------------------------------




--------------------------------------- Iteration      1(   7)  ---------------------------------------


    POTLOK:  cpu time      0.0364: real time      0.0367
    SETDIJ:  cpu time      0.0315: real time      0.0316
     EDDAV:  cpu time     12.7467: real time     12.8196
       DOS:  cpu time      0.0004: real time      0.0004
    CHARGE:  cpu time      0.3304: real time      0.3321
    MIXING:  cpu time      0.0024: real time      0.0024
    --------------------------------------------
      LOOP:  cpu time     13.1478: real time     13.2228

 eigenvalue-minimisations  :  6272
 total energy-change (2. order) : 0.3617912E+00  (-0.2083274E+00)
 number of electron     448.0000022 magnetization 
 augmentation part      112.8286157 magnetization 

 Broyden mixing:
  rms(total) = 0.53315E+00    rms(broyden)= 0.53312E+00
  rms(prec ) = 0.56299E+00
  weight for this iteration     100.00

 eigenvalues of (default mixing * dielectric matrix)
  average eigenvalue GAMMA=   2.1652
  1.4423  2.8880

 Free energy of the ion-electron system (eV)
  ---------------------------------------------------
  alpha Z        PSCENC =       751.52672365
  Ewald energy   TEWEN  =    -22871.34016192
  -Hartree energ DENC   =     -9085.89337749
  -exchange      EXHF   =         0.00000000
  -V(xc)+E(xc)   XCENC  =      1470.13807166
  PAW double counting   =     28330.70815523   -31143.43404093
  entropy T*S    EENTRO =        -0.00000000
  eigenvalues    EBANDS =     -5207.66230295
  atomic energy  EATOM  =     37532.17946992
  Solvation  Ediel_sol  =         0.00000000
  ---------------------------------------------------
  free energy    TOTEN  =      -223.77746283 eV

  energy without entropy =     -223.77746283  energy(sigma->0) =     -223.77746283


--------------------------------------------------------------------------------------------------------




--------------------------------------- Iteration      1(   8)  ---------------------------------------


    POTLOK:  cpu time      0.0362: real time      0.0364
    SETDIJ:  cpu time      0.0314: real time      0.0315
     EDDAV:  cpu time     11.2447: real time     11.3118
       DOS:  cpu time      0.0005: real time      0.0005
    CHARGE:  cpu time      0.3279: real time      0.3302
    MIXING:  cpu time      0.0016: real time      0.0016
    --------------------------------------------
      LOOP:  cpu time     11.6422: real time     11.7120

 eigenvalue-minimisations  :  5376
 total energy-change (2. order) :-0.1255074E+00  (-0.2691448E-01)
 number of electron     448.0000022 magnetization 
 augmentation part      112.8074133 magnetization 

 Broyden mixing:
  rms(total) = 0.14611E+00    rms(broyden)= 0.14611E+00
  rms(prec ) = 0.14911E+00
  weight for this iteration     100.00

 eigenvalues of (default mixing * dielectric matrix)
  average eigenvalue GAMMA=   1.5550
  2.5388  1.3912  0.7350

 Free energy of the ion-electron system (eV)
  ---------------------------------------------------
  alpha Z        PSCENC =       751.52672365
  Ewald energy   TEWEN  =    -22871.34016192
  -Hartree energ DENC   =     -9075.05092705
  -exchange      EXHF   =         0.00000000
  -V(xc)+E(xc)   XCENC  =      1472.33978565
  PAW double counting   =     29817.62594042   -32637.54061986
  entropy T*S    EENTRO =        -0.00000000
  eigenvalues    EBANDS =     -5213.64318103
  atomic energy  EATOM  =     37532.17946992
  Solvation  Ediel_sol  =         0.00000000
  ---------------------------------------------------
  free energy    TOTEN  =      -223.90297022 eV

  energy without entropy =     -223.90297022  energy(sigma->0) =     -223.90297022


--------------------------------------------------------------------------------------------------------




--------------------------------------- Iteration      1(   9)  ---------------------------------------


    POTLOK:  cpu time      0.0358: real time      0.0361
    SETDIJ:  cpu time      0.0308: real time      0.0310
     EDDAV:  cpu time     11.7387: real time     11.8117
       DOS:  cpu time      0.0004: real time      0.0004
    CHARGE:  cpu time      0.3259: real time      0.3277
    MIXING:  cpu time      0.0023: real time      0.0023
    --------------------------------------------
      LOOP:  cpu time     12.1339: real time     12.2092

 eigenvalue-minimisations  :  5664
 total energy-change (2. order) : 0.5893577E-02  (-0.1148813E-02)
 number of electron     448.0000022 magnetization 
 augmentation part      112.8302295 magnetization 

 Broyden mixing:
  rms(total) = 0.63227E-01    rms(broyden)= 0.63226E-01
  rms(prec ) = 0.65244E-01
  weight for this iteration     100.00

 eigenvalues of (default mixing * dielectric matrix)
  average eigenvalue GAMMA=   1.9906
  2.7831  2.7831  0.9998  1.3965

 Free energy of the ion-electron system (eV)
  ---------------------------------------------------
  alpha Z        PSCENC =       751.52672365
  Ewald energy   TEWEN  =    -22871.34016192
  -Hartree energ DENC   =     -9077.83461603
  -exchange      EXHF   =         0.00000000
  -V(xc)+E(xc)   XCENC  =      1472.35659475
  PAW double counting   =     29636.57054422   -32455.61714957
  entropy T*S    EENTRO =        -0.00000000
  eigenvalues    EBANDS =     -5211.73848167
  atomic energy  EATOM  =     37532.17946992
  Solvation  Ediel_sol  =         0.00000000
  ---------------------------------------------------
  free energy    TOTEN  =      -223.89707664 eV

  energy without entropy =     -223.89707664  energy(sigma->0) =     -223.89707664


--------------------------------------------------------------------------------------------------------




--------------------------------------- Iteration      1(  10)  ---------------------------------------


    POTLOK:  cpu time      0.0358: real time      0.0361
    SETDIJ:  cpu time      0.0308: real time      0.0310
     EDDAV:  cpu time     11.4269: real time     11.4960
       DOS:  cpu time      0.0005: real time      0.0005
    CHARGE:  cpu time      0.3276: real time      0.3295
    MIXING:  cpu time      0.0021: real time      0.0021
    --------------------------------------------
      LOOP:  cpu time     11.8236: real time     11.8952

 eigenvalue-minimisations  :  5472
 total energy-change (2. order) :-0.4125963E-02  (-0.1902566E-02)
 number of electron     448.0000022 magnetization 
 augmentation part      112.8611538 magnetization 

 Broyden mixing:
  rms(total) = 0.29166E-01    rms(broyden)= 0.29164E-01
  rms(prec ) = 0.31324E-01
  weight for this iteration     100.00

 eigenvalues of (default mixing * dielectric matrix)
  average eigenvalue GAMMA=   1.7087
  2.9295  2.5141  1.2927  1.0225  0.7849

 Free energy of the ion-electron system (eV)
  ---------------------------------------------------
  alpha Z        PSCENC =       751.52672365
  Ewald energy   TEWEN  =    -22871.34016192
  -Hartree energ DENC   =     -9079.49959738
  -exchange      EXHF   =         0.00000000
  -V(xc)+E(xc)   XCENC  =      1472.60693700
  PAW double counting   =     29456.40777552   -32275.62221206
  entropy T*S    EENTRO =        -0.00000000
  eigenvalues    EBANDS =     -5210.16013733
  atomic energy  EATOM  =     37532.17946992
  Solvation  Ediel_sol  =         0.00000000
  ---------------------------------------------------
  free energy    TOTEN  =      -223.90120260 eV

  energy without entropy =     -223.90120260  energy(sigma->0) =     -223.90120260


--------------------------------------------------------------------------------------------------------




--------------------------------------- Iteration      1(  11)  ---------------------------------------


    POTLOK:  cpu time      0.0364: real time      0.0423
    SETDIJ:  cpu time      0.0317: real time      0.0319
     EDDAV:  cpu time     12.2768: real time     12.3459
       DOS:  cpu time      0.0005: real time      0.0005
    CHARGE:  cpu time      0.3257: real time      0.3275
    MIXING:  cpu time      0.0017: real time      0.0017
    --------------------------------------------
      LOOP:  cpu time     12.6729: real time     12.7499

 eigenvalue-minimisations  :  5984
 total energy-change (2. order) : 0.7421835E-03  (-0.1709290E-03)
 number of electron     448.0000022 magnetization 
 augmentation part      112.8518224 magnetization 

 Broyden mixing:
  rms(total) = 0.91737E-02    rms(broyden)= 0.91736E-02
  rms(prec ) = 0.96334E-02
  weight for this iteration     100.00

 eigenvalues of (default mixing * dielectric matrix)
  average eigenvalue GAMMA=   1.5428
  2.9154  2.4660  1.3158  1.0083  0.7755  0.7755

 Free energy of the ion-electron system (eV)
  ---------------------------------------------------
  alpha Z        PSCENC =       751.52672365
  Ewald energy   TEWEN  =    -22871.34016192
  -Hartree energ DENC   =     -9078.36458877
  -exchange      EXHF   =         0.00000000
  -V(xc)+E(xc)   XCENC  =      1472.53044925
  PAW double counting   =     29486.58545447   -32305.95630477
  entropy T*S    EENTRO =        -0.00000000
  eigenvalues    EBANDS =     -5211.06150226
  atomic energy  EATOM  =     37532.17946992
  Solvation  Ediel_sol  =         0.00000000
  ---------------------------------------------------
  free energy    TOTEN  =      -223.90046042 eV

  energy without entropy =     -223.90046042  energy(sigma->0) =     -223.90046042


--------------------------------------------------------------------------------------------------------




--------------------------------------- Iteration      1(  12)  ---------------------------------------


    POTLOK:  cpu time      0.0358: real time      0.0363
    SETDIJ:  cpu time      0.0313: real time      0.0315
     EDDAV:  cpu time     12.5176: real time     12.5875
       DOS:  cpu time      0.0003: real time      0.0003
    CHARGE:  cpu time      0.3273: real time      0.3292
    MIXING:  cpu time      0.0023: real time      0.0023
    --------------------------------------------
      LOOP:  cpu time     12.9146: real time     12.9870

 eigenvalue-minimisations  :  6144
 total energy-change (2. order) : 0.3555857E-04  (-0.1290282E-04)
 number of electron     448.0000022 magnetization 
 augmentation part      112.8493681 magnetization 

 Broyden mixing:
  rms(total) = 0.26760E-02    rms(broyden)= 0.26756E-02
  rms(prec ) = 0.29801E-02
  weight for this iteration     100.00

 eigenvalues of (default mixing * dielectric matrix)
  average eigenvalue GAMMA=   1.5581
  2.8858  2.4051  1.3716  1.1924  1.1924  1.0748  0.7850

 Free energy of the ion-electron system (eV)
  ---------------------------------------------------
  alpha Z        PSCENC =       751.52672365
  Ewald energy   TEWEN  =    -22871.34016192
  -Hartree energ DENC   =     -9078.23457842
  -exchange      EXHF   =         0.00000000
  -V(xc)+E(xc)   XCENC  =      1472.52172489
  PAW double counting   =     29496.20825174   -32315.58076560
  entropy T*S    EENTRO =        -0.00000000
  eigenvalues    EBANDS =     -5211.18108913
  atomic energy  EATOM  =     37532.17946992
  Solvation  Ediel_sol  =         0.00000000
  ---------------------------------------------------
  free energy    TOTEN  =      -223.90042486 eV

  energy without entropy =     -223.90042486  energy(sigma->0) =     -223.90042486


--------------------------------------------------------------------------------------------------------




--------------------------------------- Iteration      1(  13)  ---------------------------------------


    POTLOK:  cpu time      0.0361: real time      0.0366
    SETDIJ:  cpu time      0.0322: real time      0.0323
     EDDAV:  cpu time     11.3671: real time     11.4305
       DOS:  cpu time      0.0004: real time      0.0004
    CHARGE:  cpu time      0.3277: real time      0.3295
    MIXING:  cpu time      0.0026: real time      0.0026
    --------------------------------------------
      LOOP:  cpu time     11.7661: real time     11.8319

 eigenvalue-minimisations  :  5440
 total energy-change (2. order) : 0.7690920E-05  (-0.3739872E-05)
 number of electron     448.0000022 magnetization 
 augmentation part      112.8478177 magnetization 

 Broyden mixing:
  rms(total) = 0.37215E-03    rms(broyden)= 0.37119E-03
  rms(prec ) = 0.45237E-03
  weight for this iteration     100.00

 eigenvalues of (default mixing * dielectric matrix)
  average eigenvalue GAMMA=   1.5968
  2.9842  2.2663  2.2663  1.1554  1.1554  0.9669  0.9899  0.9899

 Free energy of the ion-electron system (eV)
  ---------------------------------------------------
  alpha Z        PSCENC =       751.52672365
  Ewald energy   TEWEN  =    -22871.34016192
  -Hartree energ DENC   =     -9078.12040911
  -exchange      EXHF   =         0.00000000
  -V(xc)+E(xc)   XCENC  =      1472.51114309
  PAW double counting   =     29498.73530005   -32318.11115931
  entropy T*S    EENTRO =        -0.00000000
  eigenvalues    EBANDS =     -5211.28132354
  atomic energy  EATOM  =     37532.17946992
  Solvation  Ediel_sol  =         0.00000000
  ---------------------------------------------------
  free energy    TOTEN  =      -223.90041717 eV

  energy without entropy =     -223.90041717  energy(sigma->0) =     -223.90041717


--------------------------------------------------------------------------------------------------------




--------------------------------------- Iteration      1(  14)  ---------------------------------------


    POTLOK:  cpu time      0.0356: real time      0.0359
    SETDIJ:  cpu time      0.0316: real time      0.0318
     EDDAV:  cpu time     11.2017: real time     11.2649
       DOS:  cpu time      0.0004: real time      0.0004
    CHARGE:  cpu time      0.3267: real time      0.3284
    MIXING:  cpu time      0.0026: real time      0.0027
    --------------------------------------------
      LOOP:  cpu time     11.5988: real time     11.6641

 eigenvalue-minimisations  :  5344
 total energy-change (2. order) :-0.2303525E-05  (-0.3033805E-06)
 number of electron     448.0000022 magnetization 
 augmentation part      112.8477720 magnetization 

 Broyden mixing:
  rms(total) = 0.66902E-03    rms(broyden)= 0.66894E-03
  rms(prec ) = 0.68827E-03
  weight for this iteration     100.00

 eigenvalues of (default mixing * dielectric matrix)
  average eigenvalue GAMMA=   1.6411
  3.0277  2.6283  2.6283  1.3550  1.2014  1.2014  0.9494  0.9494  0.8295

 Free energy of the ion-electron system (eV)
  ---------------------------------------------------
  alpha Z        PSCENC =       751.52672365
  Ewald energy   TEWEN  =    -22871.34016192
  -Hartree energ DENC   =     -9078.13648968
  -exchange      EXHF   =         0.00000000
  -V(xc)+E(xc)   XCENC  =      1472.51287040
  PAW double counting   =     29499.68434178   -32319.05370032
  entropy T*S    EENTRO =        -0.00000000
  eigenvalues    EBANDS =     -5211.27347330
  atomic energy  EATOM  =     37532.17946992
  Solvation  Ediel_sol  =         0.00000000
  ---------------------------------------------------
  free energy    TOTEN  =      -223.90041947 eV

  energy without entropy =     -223.90041947  energy(sigma->0) =     -223.90041947


--------------------------------------------------------------------------------------------------------




--------------------------------------- Iteration      1(  15)  ---------------------------------------


    POTLOK:  cpu time      0.0360: real time      0.0364
    SETDIJ:  cpu time      0.0316: real time      0.0317
     EDDAV:  cpu time     12.7389: real time     12.8105
       DOS:  cpu time      0.0005: real time      0.0005
    CHARGE:  cpu time      0.3269: real time      0.3286
    MIXING:  cpu time      0.0016: real time      0.0016
    --------------------------------------------
      LOOP:  cpu time     13.1354: real time     13.2093

 eigenvalue-minimisations  :  6272
 total energy-change (2. order) :-0.7768831E-06  (-0.3595891E-07)
 number of electron     448.0000022 magnetization 
 augmentation part      112.8477347 magnetization 

 Broyden mixing:
  rms(total) = 0.41902E-03    rms(broyden)= 0.41895E-03
  rms(prec ) = 0.43423E-03
  weight for this iteration     100.00

 eigenvalues of (default mixing * dielectric matrix)
  average eigenvalue GAMMA=   1.5870
  3.0530  2.6131  2.6131  1.4278  1.2875  1.2875  0.9146  0.9146  0.8792  0.8792

 Free energy of the ion-electron system (eV)
  ---------------------------------------------------
  alpha Z        PSCENC =       751.52672365
  Ewald energy   TEWEN  =    -22871.34016192
  -Hartree energ DENC   =     -9078.15374520
  -exchange      EXHF   =         0.00000000
  -V(xc)+E(xc)   XCENC  =      1472.51283764
  PAW double counting   =     29499.08940521   -32318.45494542
  entropy T*S    EENTRO =        -0.00000000
  eigenvalues    EBANDS =     -5211.26000413
  atomic energy  EATOM  =     37532.17946992
  Solvation  Ediel_sol  =         0.00000000
  ---------------------------------------------------
  free energy    TOTEN  =      -223.90042025 eV

  energy without entropy =     -223.90042025  energy(sigma->0) =     -223.90042025


--------------------------------------------------------------------------------------------------------




--------------------------------------- Iteration      1(  16)  ---------------------------------------


    POTLOK:  cpu time      0.0364: real time      0.0420
    SETDIJ:  cpu time      0.0320: real time      0.0321
     EDDAV:  cpu time     11.7366: real time     11.8037
       DOS:  cpu time      0.0004: real time      0.0004
    CHARGE:  cpu time      0.3287: real time      0.3304
    MIXING:  cpu time      0.0021: real time      0.0021
    --------------------------------------------
      LOOP:  cpu time     12.1363: real time     12.2107

 eigenvalue-minimisations  :  5664
 total energy-change (2. order) :-0.4807152E-06  (-0.1801671E-07)
 number of electron     448.0000022 magnetization 
 augmentation part      112.8478217 magnetization 

 Broyden mixing:
  rms(total) = 0.15529E-03    rms(broyden)= 0.15509E-03
  rms(prec ) = 0.16141E-03
  weight for this iteration     100.00

 eigenvalues of (default mixing * dielectric matrix)
  average eigenvalue GAMMA=   1.5906
  3.0751  2.5713  2.5713  1.4469  1.4469  1.3919  1.1379  1.1379  0.9313  0.9313
  0.8546

 Free energy of the ion-electron system (eV)
  ---------------------------------------------------
  alpha Z        PSCENC =       751.52672365
  Ewald energy   TEWEN  =    -22871.34016192
  -Hartree energ DENC   =     -9078.16472394
  -exchange      EXHF   =         0.00000000
  -V(xc)+E(xc)   XCENC  =      1472.51341668
  PAW double counting   =     29498.61088833   -32317.97587889
  entropy T*S    EENTRO =        -0.00000000
  eigenvalues    EBANDS =     -5211.25015457
  atomic energy  EATOM  =     37532.17946992
  Solvation  Ediel_sol  =         0.00000000
  ---------------------------------------------------
  free energy    TOTEN  =      -223.90042073 eV

  energy without entropy =     -223.90042073  energy(sigma->0) =     -223.90042073


--------------------------------------------------------------------------------------------------------




--------------------------------------- Iteration      1(  17)  ---------------------------------------


    POTLOK:  cpu time      0.0363: real time      0.0366
    SETDIJ:  cpu time      0.0322: real time      0.0323
     EDDAV:  cpu time      8.7912: real time      8.8419
       DOS:  cpu time      0.0004: real time      0.0004
    CHARGE:  cpu time      0.3313: real time      0.3334
    MIXING:  cpu time      0.0022: real time      0.0023
    --------------------------------------------
      LOOP:  cpu time      9.1937: real time      9.2470

 eigenvalue-minimisations  :  3840
 total energy-change (2. order) :-0.1193985E-06  (-0.1254088E-08)
 number of electron     448.0000022 magnetization 
 augmentation part      112.8478367 magnetization 

 Broyden mixing:
  rms(total) = 0.51618E-04    rms(broyden)= 0.51023E-04
  rms(prec ) = 0.57800E-04
  weight for this iteration     100.00

 eigenvalues of (default mixing * dielectric matrix)
  average eigenvalue GAMMA=   1.6051
  3.1712  2.8965  2.3061  1.7602  1.7602  1.3801  1.1546  1.1546  0.9507  0.9507
  0.9257  0.8506

 Free energy of the ion-electron system (eV)
  ---------------------------------------------------
  alpha Z        PSCENC =       751.52672365
  Ewald energy   TEWEN  =    -22871.34016192
  -Hartree energ DENC   =     -9078.16694422
  -exchange      EXHF   =         0.00000000
  -V(xc)+E(xc)   XCENC  =      1472.51344733
  PAW double counting   =     29498.38080040   -32317.74574763
  entropy T*S    EENTRO =        -0.00000000
  eigenvalues    EBANDS =     -5211.24800838
  atomic energy  EATOM  =     37532.17946992
  Solvation  Ediel_sol  =         0.00000000
  ---------------------------------------------------
  free energy    TOTEN  =      -223.90042085 eV

  energy without entropy =     -223.90042085  energy(sigma->0) =     -223.90042085


--------------------------------------------------------------------------------------------------------




--------------------------------------- Iteration      1(  18)  ---------------------------------------


    POTLOK:  cpu time      0.0363: real time      0.0366
    SETDIJ:  cpu time      0.0322: real time      0.0324
     EDDAV:  cpu time     10.3100: real time     10.3689
       DOS:  cpu time      0.0005: real time      0.0005
    CHARGE:  cpu time      0.3292: real time      0.3308
    MIXING:  cpu time      0.0030: real time      0.0030
    --------------------------------------------
      LOOP:  cpu time     10.7112: real time     10.7723

 eigenvalue-minimisations  :  4768
 total energy-change (2. order) :-0.1934459E-06  (-0.2655311E-08)
 number of electron     448.0000022 magnetization 
 augmentation part      112.8478655 magnetization 

 Broyden mixing:
  rms(total) = 0.60394E-04    rms(broyden)= 0.59884E-04
  rms(prec ) = 0.62701E-04
  weight for this iteration     100.00

 eigenvalues of (default mixing * dielectric matrix)
  average eigenvalue GAMMA=   1.5309
  3.1960  2.9238  2.2417  2.2417  1.2108  1.2108  1.2251  1.2251  0.9403  0.9403
  0.9027  0.8217  0.8217

 Free energy of the ion-electron system (eV)
  ---------------------------------------------------
  alpha Z        PSCENC =       751.52672365
  Ewald energy   TEWEN  =    -22871.34016192
  -Hartree energ DENC   =     -9078.17171220
  -exchange      EXHF   =         0.00000000
  -V(xc)+E(xc)   XCENC  =      1472.51364229
  PAW double counting   =     29498.20373241   -32317.56830733
  entropy T*S    EENTRO =        -0.00000000
  eigenvalues    EBANDS =     -5211.24380787
  atomic energy  EATOM  =     37532.17946992
  Solvation  Ediel_sol  =         0.00000000
  ---------------------------------------------------
  free energy    TOTEN  =      -223.90042104 eV

  energy without entropy =     -223.90042104  energy(sigma->0) =     -223.90042104


--------------------------------------------------------------------------------------------------------




--------------------------------------- Iteration      1(  19)  ---------------------------------------


    POTLOK:  cpu time      0.0364: real time      0.0367
    SETDIJ:  cpu time      0.0333: real time      0.0334
     EDDAV:  cpu time      7.8739: real time      7.9186
       DOS:  cpu time      0.0004: real time      0.0004
    CHARGE:  cpu time      0.3260: real time      0.3280
    MIXING:  cpu time      0.0021: real time      0.0022
    --------------------------------------------
      LOOP:  cpu time      8.2721: real time      8.3193

 eigenvalue-minimisations  :  3296
 total energy-change (2. order) : 0.3591413E-07  (-0.1156760E-08)
 number of electron     448.0000022 magnetization 
 augmentation part      112.8478619 magnetization 

 Broyden mixing:
  rms(total) = 0.41352E-04    rms(broyden)= 0.40607E-04
  rms(prec ) = 0.42620E-04
  weight for this iteration     100.00

 eigenvalues of (default mixing * dielectric matrix)
  average eigenvalue GAMMA=   1.5664
  3.3251  2.9436  2.3772  2.3772  1.2137  1.2137  1.2556  1.2556  1.1844  1.1844
  0.9616  0.9073  0.9073  0.8223

 Free energy of the ion-electron system (eV)
  ---------------------------------------------------
  alpha Z        PSCENC =       751.52672365
  Ewald energy   TEWEN  =    -22871.34016192
  -Hartree energ DENC   =     -9078.17121473
  -exchange      EXHF   =         0.00000000
  -V(xc)+E(xc)   XCENC  =      1472.51361808
  PAW double counting   =     29498.24236695   -32317.60686964
  entropy T*S    EENTRO =        -0.00000000
  eigenvalues    EBANDS =     -5211.24435333
  atomic energy  EATOM  =     37532.17946992
  Solvation  Ediel_sol  =         0.00000000
  ---------------------------------------------------
  free energy    TOTEN  =      -223.90042101 eV

  energy without entropy =     -223.90042101  energy(sigma->0) =     -223.90042101


--------------------------------------------------------------------------------------------------------




--------------------------------------- Iteration      1(  20)  ---------------------------------------


    POTLOK:  cpu time      0.0363: real time      0.0366
    SETDIJ:  cpu time      0.0320: real time      0.0321
     EDDAV:  cpu time      8.2847: real time      8.3318
       DOS:  cpu time      0.0005: real time      0.0005
    CHARGE:  cpu time      0.3282: real time      0.3299
    MIXING:  cpu time      0.0021: real time      0.0021
    --------------------------------------------
      LOOP:  cpu time      8.6838: real time      8.7330

 eigenvalue-minimisations  :  3552
 total energy-change (2. order) : 0.4039612E-07  (-0.2341640E-09)
 number of electron     448.0000022 magnetization 
 augmentation part      112.8478603 magnetization 

 Broyden mixing:
  rms(total) = 0.30496E-04    rms(broyden)= 0.29480E-04
  rms(prec ) = 0.30416E-04
  weight for this iteration     100.00

 eigenvalues of (default mixing * dielectric matrix)
  average eigenvalue GAMMA=   1.6153
  3.6825  2.9517  2.5055  2.5055  1.8639  1.2223  1.2223  1.2585  1.2585  0.9826
  0.9826  1.0002  1.0002  0.8967  0.8967

 Free energy of the ion-electron system (eV)
  ---------------------------------------------------
  alpha Z        PSCENC =       751.52672365
  Ewald energy   TEWEN  =    -22871.34016192
  -Hartree energ DENC   =     -9078.17040952
  -exchange      EXHF   =         0.00000000
  -V(xc)+E(xc)   XCENC  =      1472.51357737
  PAW double counting   =     29498.25682367   -32317.62128236
  entropy T*S    EENTRO =        -0.00000000
  eigenvalues    EBANDS =     -5211.24516179
  atomic energy  EATOM  =     37532.17946992
  Solvation  Ediel_sol  =         0.00000000
  ---------------------------------------------------
  free energy    TOTEN  =      -223.90042097 eV

  energy without entropy =     -223.90042097  energy(sigma->0) =     -223.90042097


--------------------------------------------------------------------------------------------------------




--------------------------------------- Iteration      1(  21)  ---------------------------------------


    POTLOK:  cpu time      0.0364: real time      0.0367
    SETDIJ:  cpu time      0.0313: real time      0.0318
     EDDAV:  cpu time      7.6265: real time      7.6698
       DOS:  cpu time      0.0004: real time      0.0004
    CHARGE:  cpu time      0.3305: real time      0.3325
    MIXING:  cpu time      0.0024: real time      0.0024
    --------------------------------------------
      LOOP:  cpu time      8.0275: real time      8.0736

 eigenvalue-minimisations  :  3136
 total energy-change (2. order) : 0.6212213E-07  (-0.4559937E-09)
 number of electron     448.0000022 magnetization 
 augmentation part      112.8478524 magnetization 

 Broyden mixing:
  rms(total) = 0.15509E-04    rms(broyden)= 0.13400E-04
  rms(prec ) = 0.14507E-04
  weight for this iteration     100.00
  WARNING: grid for Broyden might be to small

 eigenvalues of (default mixing * dielectric matrix)
  average eigenvalue GAMMA=   1.5749
  3.8445  2.9166  2.6876  2.4677  1.9828  1.1509  1.1509  1.2813  1.1295  1.1056
  1.1056  0.9298  0.9298  0.8863  0.8863  0.7435

 Free energy of the ion-electron system (eV)
  ---------------------------------------------------
  alpha Z        PSCENC =       751.52672365
  Ewald energy   TEWEN  =    -22871.34016192
  -Hartree energ DENC   =     -9078.16914973
  -exchange      EXHF   =         0.00000000
  -V(xc)+E(xc)   XCENC  =      1472.51352179
  PAW double counting   =     29498.31069304   -32317.67518000
  entropy T*S    EENTRO =        -0.00000000
  eigenvalues    EBANDS =     -5211.24633766
  atomic energy  EATOM  =     37532.17946992
  Solvation  Ediel_sol  =         0.00000000
  ---------------------------------------------------
  free energy    TOTEN  =      -223.90042090 eV

  energy without entropy =     -223.90042090  energy(sigma->0) =     -223.90042090


--------------------------------------------------------------------------------------------------------




--------------------------------------- Iteration      1(  22)  ---------------------------------------


    POTLOK:  cpu time      0.0377: real time      0.0380
    SETDIJ:  cpu time      0.0335: real time      0.0337
     EDDAV:  cpu time      7.4717: real time      7.5142
       DOS:  cpu time      0.0004: real time      0.0004
[...]
         0         1         2         3         4         5         6         7         8         9
 total charge-density along one line
 
 pseudopotential strength for first ion, spin component:           1
-25.406  -0.000  -0.000   2.519   0.000   0.000   0.000   0.000
 -0.000 -25.407  -0.000   0.000   2.520   0.000   0.001   0.002
 -0.000  -0.000 -25.406   0.000   0.000   2.519   0.000   0.000
  2.519   0.000   0.000   6.525  -0.000  -0.000  -0.000   0.000
  0.000   2.520   0.000  -0.000   6.525  -0.000  -0.000  -0.000
  0.000   0.000   2.519  -0.000  -0.000   6.525   0.000   0.000
  0.000   0.001   0.000  -0.000  -0.000   0.000   1.428   6.994
  0.000   0.002   0.000   0.000  -0.000   0.000   6.994  33.993
 total augmentation occupancy for first ion, spin component:           1
  2.002   0.000   0.000   0.002   0.000   0.000  -0.000   0.000
  0.000   2.002   0.000   0.000   0.002   0.000  -0.002   0.001
  0.000   0.000   2.002   0.000   0.000   0.002  -0.000   0.000
  0.002   0.000   0.000   0.017   0.000   0.000  -0.000  -0.000
  0.000   0.002   0.000   0.000   0.017   0.000  -0.002   0.000
  0.000   0.000   0.002   0.000   0.000   0.017   0.000  -0.000
 -0.000  -0.002  -0.000  -0.000  -0.002   0.000   0.399  -0.001
  0.000   0.001   0.000  -0.000   0.000  -0.000  -0.001   0.000


------------------------ aborting loop because EDIFF is reached ----------------------------------------


    CHARGE:  cpu time      0.3313: real time      0.3329
    FORLOC:  cpu time      0.0111: real time      0.0112
    FORNL :  cpu time      2.2799: real time      2.2920
    STRESS:  cpu time     12.8215: real time     12.8829
    FORCOR:  cpu time      0.0433: real time      0.0435
    FORHAR:  cpu time      0.0172: real time      0.0172
    MIXING:  cpu time      0.0013: real time      0.0013
    OFIELD:  cpu time      0.0000: real time      0.0000

  FORCE on cell =-STRESS in cart. coord.  units (eV):
  Direction    XX          YY          ZZ          XY          YZ          ZX
  --------------------------------------------------------------------------------------
  Alpha Z   751.52672   751.52672   751.52672
  Ewald   -7623.77530 -7623.92669 -7623.77550     0.00013     0.01398     0.00749
  Hartree  3026.07355  3026.02282  3026.07340     0.00010     0.01186     0.00624
  E(xc)   -2014.34814 -2014.34821 -2014.34814     0.00000     0.00000     0.00000
  Local   -2024.95920 -2024.76197 -2024.95884    -0.00023    -0.02606    -0.01392
  n-local  1887.62616  1887.62083  1887.62616    -0.00000    -0.00001     0.00001
  augment   687.00934   687.00943   687.00904    -0.00000    -0.00015    -0.00011
  Kinetic  5310.52560  5310.52572  5310.52559     0.00001     0.00050     0.00030
  Fock        0.00000     0.00000     0.00000     0.00000     0.00000     0.00000
  -------------------------------------------------------------------------------------
  Total      -0.32127    -0.33135    -0.32158     0.00000     0.00013     0.00001
  in kB      -0.36598    -0.37746    -0.36633     0.00000     0.00015     0.00001
  external pressure =       -0.37 kB  Pullay stress =        0.00 kB


 VOLUME and BASIS-vectors are now :
 -----------------------------------------------------------------------------
  energy-cutoff  :      341.21
  volume of cell :     1406.43
      direct lattice vectors                 reciprocal lattice vectors
    11.204002360  0.000000000  0.000000000     0.089253819  0.000000000  0.000000000
     0.000000000 11.204002360  0.000000000     0.000000000  0.089253819  0.000000000
     0.000000000  0.000000000 11.204002360     0.000000000  0.000000000  0.089253819

  length of vectors
    11.204002360 11.204002360 11.204002360     0.089253819  0.089253819  0.089253819


 FORCES acting on ions
    electron-ion (+dipol)            ewald-force                    non-local-force                 convergence-correction
 -----------------------------------------------------------------------------------------------
   -.654E-01 -.166E+00 -.228E+01   0.646E-01 0.159E+00 0.216E+01   0.538E-03 0.609E-02 0.145E+00   0.476E-07 -.209E-05 -.178E-05
   0.113E+01 0.166E+00 -.814E-01   -.108E+01 -.159E+00 0.799E-01   -.437E-01 -.604E-02 0.131E-02   0.375E-05 0.202E-05 0.269E-06
   0.977E+00 -.159E-01 0.961E+00   -.934E+00 0.153E-01 -.918E+00   -.384E-01 0.773E-03 -.377E-01   0.787E-06 0.540E-06 0.142E-05
   -.212E+01 0.159E-01 0.961E+00   0.200E+01 -.153E-01 -.918E+00   0.139E+00 -.775E-03 -.378E-01   0.912E-07 -.568E-06 0.347E-06
   -.653E-01 -.166E+00 -.201E+01   0.646E-01 0.159E+00 0.190E+01   0.480E-03 0.598E-02 0.137E+00   -.468E-07 -.145E-05 0.332E-05
   0.793E+00 -.168E+00 -.461E-01   -.758E+00 0.161E+00 0.462E-01   -.315E-01 0.608E-02 -.339E-03   -.157E-06 -.183E-05 -.138E-06
   0.111E+00 -.386E-03 -.300E+00   -.108E+00 0.398E-03 0.281E+00   -.272E-02 -.983E-05 0.156E-01   -.261E-05 -.625E-07 -.105E-05
   -.175E-01 -.159E-02 -.300E+00   0.185E-01 0.158E-02 0.281E+00   -.850E-03 0.954E-05 0.156E-01   -.835E-07 -.192E-06 -.245E-05
   -.654E-01 0.166E+00 -.184E+00   0.646E-01 -.159E+00 0.178E+00   0.511E-03 -.605E-02 0.519E-02   -.278E-06 0.218E-05 -.228E-05
   0.279E+00 -.166E+00 -.658E-01   -.268E+00 0.159E+00 0.650E-01   -.875E-02 0.604E-02 0.498E-03   -.133E-06 -.218E-05 -.172E-06
   0.961E+00 0.159E-01 0.113E+00   -.919E+00 -.153E-01 -.109E+00   -.376E-01 -.770E-03 -.274E-02   0.149E-05 -.614E-06 -.261E-05
   -.175E-01 -.159E-01 0.961E+00   0.185E-01 0.153E-01 -.918E+00   -.849E-03 0.769E-03 -.376E-01   -.558E-06 0.491E-06 0.173E-05
   -.654E-01 0.166E+00 0.151E+00   0.646E-01 -.159E+00 -.143E+00   0.508E-03 -.601E-02 -.696E-02   -.491E-06 0.109E-05 0.205E-05
   -.552E-01 0.168E+00 -.617E-01   0.512E-01 -.161E+00 0.610E-01   0.333E-02 -.608E-02 0.410E-03   -.252E-05 0.170E-05 0.355E-06
   0.112E+00 0.387E-03 -.971E-01   -.109E+00 -.398E-03 0.935E-01   -.272E-02 0.100E-04 0.296E-02   -.227E-05 -.167E-06 0.234E-05
   -.275E-02 0.159E-02 -.300E+00   0.273E-02 -.158E-02 0.281E+00   0.208E-04 -.943E-05 0.155E-01   -.263E-06 0.773E-07 -.896E-06
   -.620E-01 0.168E+00 0.150E+00   0.614E-01 -.161E+00 -.142E+00   0.389E-03 -.608E-02 -.693E-02   0.202E-06 0.150E-05 0.155E-05
   -.466E+00 0.166E+00 -.638E-01   0.440E+00 -.159E+00 0.631E-01   0.216E-01 -.603E-02 0.499E-03   -.269E-05 0.186E-05 -.110E-06
   -.316E+00 0.159E-02 0.961E+00   0.296E+00 -.158E-02 -.918E+00   0.163E-01 -.893E-05 -.376E-01   -.814E-06 0.692E-07 0.111E-05
   -.218E+01 0.387E-03 0.113E+00   0.206E+01 -.398E-03 -.109E+00   0.143E+00 0.976E-05 -.271E-02   0.940E-06 -.113E-06 -.186E-05
   -.621E-01 0.168E+00 -.183E+00   0.614E-01 -.161E+00 0.177E+00   0.414E-03 -.607E-02 0.514E-02   -.288E-06 0.166E-05 -.175E-05
   -.132E+00 -.168E+00 -.636E-01   0.121E+00 0.161E+00 0.630E-01   0.947E-02 0.607E-02 0.410E-03   0.309E-06 -.979E-06 0.438E-06
   -.955E-01 0.290E-03 -.300E+00   0.919E-01 -.274E-03 0.281E+00   0.294E-02 -.131E-04 0.155E-01   0.227E-05 -.159E-06 -.935E-06
   -.151E-01 -.289E-03 -.971E-01   0.162E-01 0.274E-03 0.935E-01   -.932E-03 0.135E-04 0.295E-02   -.120E-06 -.561E-06 0.281E-05
   -.620E-01 -.168E+00 0.165E+00   0.614E-01 0.161E+00 -.158E+00   0.400E-03 0.608E-02 -.606E-02   -.418E-06 -.123E-05 0.181E-05
   -.263E+00 -.166E+00 -.651E-01   0.253E+00 0.159E+00 0.644E-01   0.897E-02 0.602E-02 0.494E-03   -.424E-06 -.189E-05 -.274E-06
   -.300E+00 -.159E-02 0.113E+00   0.282E+00 0.158E-02 -.109E+00   0.155E-01 0.935E-05 -.273E-02   -.119E-05 0.844E-07 -.196E-05
   -.151E-01 -.387E-03 0.113E+00   0.162E-01 0.398E-03 -.109E+00   -.932E-03 -.973E-05 -.273E-02   0.155E-06 0.140E-06 -.287E-05
   -.620E-01 -.168E+00 -.170E+00   0.614E-01 0.161E+00 0.162E+00   0.403E-03 0.607E-02 0.605E-02   0.889E-06 -.121E-05 -.996E-06
   0.709E-01 0.168E+00 -.623E-01   -.672E-01 -.161E+00 0.617E-01   -.311E-02 -.607E-02 0.413E-03   0.228E-05 0.802E-06 0.242E-06
   -.968E-01 -.290E-03 -.971E-01   0.932E-01 0.274E-03 0.935E-01   0.294E-02 0.134E-04 0.295E-02   0.230E-05 0.509E-07 0.215E-05
   -.160E-02 0.290E-03 -.971E-01   0.163E-02 -.274E-03 0.935E-01   -.221E-04 -.129E-04 0.295E-02   -.593E-07 -.325E-06 0.189E-05
   0.402E+01 0.256E-02 0.306E+00   -.398E+01 -.252E-02 -.303E+00   -.121E+00 -.690E-04 -.580E-02   0.573E-05 0.229E-07 -.893E-06
   -.256E+00 -.478E+00 0.402E+01   0.250E+00 0.470E+00 -.398E+01   0.921E-02 0.137E-01 -.122E+00   -.103E-05 -.245E-05 0.755E-05
   -.256E+00 0.478E+00 -.734E+00   0.250E+00 -.470E+00 0.720E+00   0.924E-02 -.137E-01 0.230E-01   -.871E-06 0.198E-05 -.143E-05
   0.790E+00 -.264E-02 -.258E+00   -.778E+00 0.259E-02 0.253E+00   -.196E-01 0.881E-04 0.930E-02   0.821E-06 0.447E-06 -.918E-06
   0.165E+00 -.780E-03 -.176E+00   -.163E+00 0.777E-03 0.173E+00   -.391E-02 0.702E-05 0.393E-02   -.146E-05 -.278E-06 0.960E-06
   -.872E-02 -.399E-01 -.522E+00   0.877E-02 0.391E-01 0.516E+00   -.856E-04 0.143E-02 0.959E-02   0.502E-06 -.189E-05 -.264E-05
   -.256E+00 -.487E+00 0.226E+00   0.250E+00 0.479E+00 -.223E+00   0.919E-02 0.140E-01 -.440E-02   -.861E-06 -.199E-05 0.226E-05
   -.175E+00 -.263E-02 -.250E+00   0.171E+00 0.259E-02 0.244E+00   0.815E-02 0.550E-04 0.925E-02   -.415E-05 0.782E-07 -.143E-06
   0.168E+00 -.263E-02 0.312E+00   -.166E+00 0.259E-02 -.308E+00   -.399E-02 0.709E-04 -.589E-02   -.173E-05 0.210E-06 -.139E-05
   -.256E+00 0.478E+00 0.166E+00   0.250E+00 -.470E+00 -.163E+00   0.922E-02 -.137E-01 -.392E-02   -.972E-06 0.227E-05 -.791E-06
   -.872E-02 -.478E+00 -.296E+00   0.877E-02 0.470E+00 0.289E+00   -.818E-04 0.137E-01 0.106E-01   0.471E-06 -.184E-05 -.219E-05
   0.352E+00 0.264E-02 -.114E-01   -.347E+00 -.259E-02 0.114E-01   -.732E-02 -.775E-04 -.107E-04   0.108E-05 -.341E-07 0.372E-06
   0.674E-01 0.781E-03 -.176E+00   -.666E-01 -.777E-03 0.173E+00   -.132E-02 -.775E-05 0.392E-02   -.486E-05 0.943E-06 0.123E-05
   -.872E-02 0.399E-01 -.131E+00   0.877E-02 -.391E-01 0.128E+00   -.857E-04 -.143E-02 0.496E-02   0.377E-06 0.205E-05 0.124E-05
   -.871E-02 0.487E+00 -.212E+00   0.877E-02 -.479E+00 0.208E+00   -.886E-04 -.140E-01 0.786E-02   -.344E-06 0.288E-05 0.106E-05
   0.272E+00 0.263E-02 -.438E-02   -.269E+00 -.259E-02 0.450E-02   -.444E-02 -.651E-04 -.194E-03   -.267E-05 0.482E-06 -.157E-06
   -.524E+00 0.264E-02 0.312E+00   0.518E+00 -.259E-02 -.308E+00   0.966E-02 -.716E-04 -.589E-02   -.175E-05 -.682E-06 -.221E-05
   -.252E+00 0.487E+00 0.166E+00   0.247E+00 -.479E+00 -.163E+00   0.930E-02 -.140E-01 -.391E-02   0.913E-06 0.200E-05 -.175E-05
   -.252E+00 0.399E-01 0.478E+00   0.247E+00 -.391E-01 -.470E+00   0.930E-02 -.143E-02 -.141E-01   -.433E-06 0.789E-06 0.181E-05
   -.654E+00 0.779E-03 -.255E+00   0.643E+00 -.777E-03 0.250E+00   0.176E-01 -.218E-05 0.920E-02   -.142E-05 -.373E-06 0.201E-06
   -.130E+00 -.782E-03 -.176E+00   0.127E+00 0.777E-03 0.173E+00   0.495E-02 0.822E-05 0.392E-02   0.194E-05 -.741E-06 0.204E-05
   -.701E-02 0.401E-01 -.131E+00   0.709E-02 -.392E-01 0.128E+00   -.125E-03 -.145E-02 0.495E-02   0.624E-07 0.217E-05 0.212E-05
   -.252E+00 -.400E-01 -.494E+00   0.247E+00 0.392E-01 0.486E+00   0.930E-02 0.145E-02 0.139E-01   -.718E-06 -.210E-05 -.256E-05
   0.311E+00 0.784E-03 -.253E+00   -.305E+00 -.777E-03 0.248E+00   -.101E-01 -.128E-04 0.930E-02   0.447E-05 0.154E-06 -.320E-06
   -.134E+00 -.264E-02 0.312E+00   0.131E+00 0.259E-02 -.308E+00   0.503E-02 0.718E-04 -.588E-02   0.247E-05 0.136E-06 -.129E-05
   -.252E+00 -.487E+00 0.682E-01   0.247E+00 0.479E+00 -.674E-01   0.930E-02 0.140E-01 -.132E-02   -.915E-07 -.258E-05 -.531E-05
   -.701E-02 -.399E-01 0.313E-01   0.709E-02 0.391E-01 -.304E-01   -.127E-03 0.143E-02 -.153E-02   -.413E-06 -.153E-05 0.236E-05
   -.216E+00 -.780E-03 -.793E-02   0.212E+00 0.777E-03 0.799E-02   0.535E-02 0.521E-05 -.932E-04   0.170E-06 0.259E-06 0.116E-06
   -.631E-01 0.782E-03 -.176E+00   0.623E-01 -.777E-03 0.173E+00   0.134E-02 -.802E-05 0.392E-02   0.522E-05 0.605E-06 0.127E-05
   -.702E-02 -.401E-01 -.639E-01   0.709E-02 0.392E-01 0.630E-01   -.124E-03 0.145E-02 0.135E-02   -.184E-06 -.957E-06 0.485E-05
   -.702E-02 0.401E-01 -.471E-01   0.709E-02 -.392E-01 0.463E-01   -.123E-03 -.145E-02 0.132E-02   0.289E-06 0.135E-05 -.924E-07
   -.136E+00 -.783E-03 -.780E-02   0.134E+00 0.777E-03 0.787E-02   0.247E-02 0.100E-04 -.117E-03   0.291E-05 0.573E-07 -.454E-06
 -----------------------------------------------------------------------------------------------
   -.150E+00 0.770E-05 -.150E+00   0.114E-12 -.344E-13 -.912E-13   0.150E+00 -.708E-05 0.150E+00   0.358E-05 0.970E-07 0.661E-05
 
 
 POSITION                                       TOTAL-FORCE (eV/Angst)
 -----------------------------------------------------------------------------------
      0.00000      0.00000      0.00000        -0.000243     -0.001301      0.014922
      2.80100      2.80100      0.00000         0.006311      0.001292     -0.000149
      2.80100      0.00000      2.80100         0.004921      0.000092      0.005016
      0.00000      2.80100      2.80100         0.016207     -0.000091      0.005030
      0.00000      0.00000      5.60200        -0.000228     -0.001279      0.021572
      2.80100      2.80100      5.60200         0.003708     -0.001300     -0.000311
      2.80100      0.00000      8.40300         0.000606      0.000002     -0.002838
      0.00000      2.80100      8.40300         0.000151     -0.000003     -0.002841
      0.00000      5.60200      0.00000        -0.000236      0.001294     -0.001139
      2.80100      8.40300      0.00000         0.001897     -0.001291     -0.000233
      2.80100      5.60200      2.80100         0.005011     -0.000092      0.000611
      0.00000      8.40300      2.80100         0.000151      0.000092      0.004999
      0.00000      5.60200      5.60200        -0.000235      0.001286      0.001457
      2.80100      8.40300      5.60200        -0.000688      0.001299     -0.000215
      2.80100      5.60200      8.40300         0.000605     -0.000002     -0.000671
      0.00000      8.40300      8.40300        -0.000004      0.000003     -0.002832
      5.60200      0.00000      0.00000        -0.000211      0.001299      0.001450
      8.40300      2.80100      0.00000        -0.004129      0.001289     -0.000232
      8.40300      0.00000      2.80100        -0.002743      0.000003      0.005001
      5.60200      2.80100      2.80100         0.020276     -0.000002      0.000606
      5.60200      0.00000      5.60200        -0.000215      0.001298     -0.001131
      8.40300      2.80100      5.60200        -0.001535     -0.001297     -0.000216
      8.40300      0.00000      8.40300        -0.000668      0.000003     -0.002833
      5.60200      2.80100      8.40300         0.000167     -0.000003     -0.000671
      5.60200      5.60200      0.00000        -0.000213     -0.001299      0.001295
      8.40300      8.40300      0.00000        -0.001959     -0.001288     -0.000232
      8.40300      5.60200      2.80100        -0.002834     -0.000003      0.000608
      5.60200      8.40300      2.80100         0.000167      0.000002      0.000609
      5.60200      5.60200      5.60200        -0.000213     -0.001298     -0.001293
      8.40300      8.40300      5.60200         0.000626      0.001296     -0.000215
      8.40300      5.60200      8.40300        -0.000668     -0.000003     -0.000671
      5.60200      8.40300      8.40300         0.000006      0.000003     -0.000671
      2.83100      2.80100      2.80100        -0.076077     -0.000029     -0.002304
      0.00000      0.00000      2.83100         0.003859      0.005732     -0.076109
      0.00000      2.80100      0.00000         0.003870     -0.005740      0.009607
      2.80100      0.00000      0.00000        -0.008077      0.000038      0.003900
      2.80100      2.80100      8.40300        -0.001545      0.000004      0.001548
      0.00000      0.00000      8.40300        -0.000038      0.000568      0.003842
      0.00000      2.80100      5.60200         0.003852      0.005888     -0.001805
      2.80100      0.00000      5.60200         0.003550      0.000023      0.003896
      2.80100      8.40300      2.80100        -0.001579      0.000031     -0.002336
      0.00000      5.60200      2.80100         0.003861     -0.005735     -0.001550
      0.00000      8.40300      0.00000        -0.000036      0.005729      0.004422
      2.80100      5.60200      0.00000        -0.002906     -0.000033     -0.000006
      2.80100      8.40300      8.40300        -0.000516     -0.000003      0.001547
      0.00000      5.60200      8.40300        -0.000038     -0.000568      0.001960
      0.00000      8.40300      5.60200        -0.000039     -0.005876      0.003343
      2.80100      5.60200      5.60200        -0.001760     -0.000027     -0.000082
      8.40300      2.80100      2.80100         0.003872     -0.000031     -0.002338
      5.60200      0.00000      2.80100         0.003919     -0.005883     -0.001549
      5.60200      2.80100      0.00000         0.003918     -0.000568     -0.005921
      8.40300      0.00000      0.00000         0.007279     -0.000001      0.003856
      8.40300      2.80100      8.40300         0.001956      0.000003      0.001547
      5.60200      0.00000      8.40300        -0.000053     -0.000575      0.001959
      5.60200      2.80100      5.60200         0.003917      0.000576      0.005829
      8.40300      0.00000      5.60200        -0.004333     -0.000006      0.003919
      8.40300      8.40300      2.80100         0.001990      0.000030     -0.002333
      5.60200      5.60200      2.80100         0.003918      0.005883     -0.000519
      5.60200      8.40300      0.00000        -0.000054      0.000567     -0.000613
      8.40300      5.60200      0.00000         0.002115      0.000003     -0.000041
      8.40300      8.40300      8.40300         0.000525     -0.000003      0.001546
      5.60200      5.60200      8.40300        -0.000053      0.000576      0.000528
      5.60200      8.40300      5.60200        -0.000052     -0.000575      0.000523
      8.40300      5.60200      5.60200         0.000970      0.000004     -0.000050
 -----------------------------------------------------------------------------------
    total drift:                                0.000200      0.000001      0.000194


--------------------------------------------------------------------------------------------------------



  FREE ENERGIE OF THE ION-ELECTRON SYSTEM (eV)
  ---------------------------------------------------
  free  energy   TOTEN  =      -223.90042091 eV

  energy  without entropy=     -223.90042091  energy(sigma->0) =     -223.90042091
 


--------------------------------------------------------------------------------------------------------


    POTLOK:  cpu time      0.0692: real time      0.0695


--------------------------------------------------------------------------------------------------------


     LOOP+:  cpu time    259.6893: real time    261.1923
    4ORBIT:  cpu time      0.0000: real time      0.0000

 total amount of memory used by VASP MPI-rank0   129658. kBytes
=======================================================================

   base      :      30000. kBytes
   nonl-proj :      41680. kBytes
   fftplans  :      14405. kBytes
   grid      :      19342. kBytes
   one-center:        196. kBytes
   wavefun   :      24035. kBytes
 
  
  
 General timing and accounting informations for this job:
 ========================================================
  
                  Total CPU time used (sec):      264.066
                            User time (sec):      263.466
                          System time (sec):        0.600
                         Elapsed time (sec):      265.999
  
                   Maximum memory used (kb):      322248.
                   Average memory used (kb):          N/A
  
                          Minor page faults:       126952
                          Major page faults:            0
                 Voluntary context switches:          924
